Generated by trjconv : CNT in water t= 225.00000
33518
    1C        C    1   2.843   2.772   4.746
    1C        C    2   2.894   2.718   4.866
    1C        C    3   2.841   2.771   4.984
    1C        C    4   2.847   2.775   4.261
    1C        C    5   2.900   2.729   4.383
    1C        C    6   2.843   2.770   4.505
    1C        C    7   3.014   2.642   4.624
    1C        C    8   2.895   2.719   4.626
    1C        C    9   3.074   2.605   4.746
    1C        C   10   3.006   2.632   4.866
    1C        C   11   3.178   2.493   4.975
    1C        C   12   3.053   2.557   4.974
    1C        C   13   2.852   2.776   3.771
    1C        C   14   2.902   2.726   3.893
    1C        C   15   2.849   2.774   4.015
    1C        C   16   3.017   2.648   4.139
    1C        C   17   2.901   2.729   4.138
    1C        C   18   3.082   2.616   4.260
    1C        C   19   3.018   2.650   4.381
    1C        C   20   3.208   2.555   4.502
    1C        C   21   3.078   2.609   4.502
    1C        C   22   3.277   2.532   4.624
    1C        C   23   3.204   2.546   4.744
    1C        C   24   3.409   2.484   4.864
    1C        C   25   3.268   2.506   4.864
    1C        C   26   3.486   2.477   4.981
    1C        C   27   2.850   2.769   3.278
    1C        C   28   2.908   2.730   3.401
    1C        C   29   2.855   2.776   3.524
    1C        C   30   3.017   2.644   3.648
    1C        C   31   2.903   2.728   3.648
    1C        C   32   3.078   2.608   3.771
    1C        C   33   3.016   2.642   3.894
    1C        C   34   3.208   2.559   4.015
    1C        C   35   3.076   2.609   4.017
    1C        C   36   3.278   2.537   4.136
    1C        C   37   3.212   2.560   4.259
    1C        C   38   3.415   2.502   4.379
    1C        C   39   3.277   2.531   4.381
    1C        C   40   3.487   2.499   4.501
    1C        C   41   3.414   2.501   4.622
    1C        C   42   3.626   2.477   4.744
    1C        C   43   3.483   2.476   4.743
    1C        C   44   3.702   2.481   4.862
    1C        C   45   3.625   2.471   4.979
    1C        C   46   2.837   2.755   2.791
    1C        C   47   2.894   2.713   2.913
    1C        C   48   2.840   2.763   3.034
    1C        C   49   3.015   2.640   3.160
    1C        C   50   2.900   2.721   3.155
    1C        C   51   3.079   2.604   3.281
    1C        C   52   3.018   2.642   3.403
    1C        C   53   3.206   2.550   3.527
    1C        C   54   3.077   2.607   3.526
    1C        C   55   3.275   2.529   3.648
    1C        C   56   3.208   2.554   3.770
    1C        C   57   3.413   2.505   3.892
    1C        C   58   3.275   2.535   3.893
    1C        C   59   3.483   2.496   4.015
    1C        C   60   3.415   2.502   4.138
    1C        C   61   3.629   2.491   4.256
    1C        C   62   3.488   2.491   4.259
    1C        C   63   3.701   2.495   4.378
    1C        C   64   3.628   2.489   4.499
    1C        C   65   3.832   2.534   4.618
    1C        C   66   3.696   2.495   4.623
    1C        C   67   3.902   2.556   4.739
    1C        C   68   3.836   2.525   4.860
    1C        C   69   4.048   2.579   4.972
    1C        C   70   3.919   2.525   4.973
    1C        C   71   2.818   2.733   2.307
    1C        C   72   2.876   2.687   2.427
    1C        C   73   2.828   2.742   2.548
    1C        C   74   3.008   2.628   2.671
    1C        C   75   2.890   2.705   2.670
    1C        C   76   3.073   2.599   2.792
    1C        C   77   3.012   2.635   2.915
    1C        C   78   3.203   2.544   3.036
    1C        C   79   3.075   2.604   3.037
    1C        C   80   3.272   2.530   3.158
    1C        C   81   3.208   2.547   3.283
    1C        C   82   3.415   2.504   3.400
    1C        C   83   3.275   2.524   3.406
    1C        C   84   3.484   2.495   3.523
    1C        C   85   3.415   2.505   3.645
    1C        C   86   3.623   2.495   3.768
    1C        C   87   3.482   2.497   3.770
    1C        C   88   3.695   2.510   3.888
    1C        C   89   3.624   2.503   4.010
    1C        C   90   3.832   2.543   4.132
    1C        C   91   3.695   2.507   4.132
    1C        C   92   3.901   2.562   4.254
    1C        C   93   3.836   2.535   4.376
    1C        C   94   4.026   2.629   4.497
    1C        C   95   3.902   2.562   4.499
    1C        C   96   4.085   2.672   4.618
    1C        C   97   4.026   2.625   4.737
    1C        C   98   4.189   2.761   4.862
    1C        C   99   4.094   2.654   4.859
    1C        C  100   4.208   2.841   4.975
    1C        C  101   2.817   2.727   2.070
    1C        C  102   2.987   2.591   2.189
    1C        C  103   2.870   2.675   2.188
    1C        C  104   3.059   2.570   2.310
    1C        C  105   2.996   2.612   2.429
    1C        C  106   3.199   2.537   2.549
    1C        C  107   3.069   2.592   2.548
    1C        C  108   3.268   2.515   2.670
    1C        C  109   3.204   2.545   2.792
    1C        C  110   3.409   2.497   2.911
    1C        C  111   3.269   2.517   2.914
    1C        C  112   3.480   2.494   3.033
    1C        C  113   3.410   2.501   3.156
    1C        C  114   3.624   2.494   3.278
    1C        C  115   3.483   2.492   3.277
    1C        C  116   3.696   2.499   3.400
    1C        C  117   3.625   2.491   3.522
    1C        C  118   3.830   2.541   3.645
    1C        C  119   3.693   2.506   3.645
    1C        C  120   3.899   2.565   3.766
    1C        C  121   3.833   2.539   3.888
    1C        C  122   4.026   2.626   4.011
    1C        C  123   3.900   2.562   4.010
    1C        C  124   4.089   2.664   4.132
    1C        C  125   4.025   2.630   4.254
    1C        C  126   4.194   2.760   4.376
    1C        C  127   4.086   2.668   4.375
    1C        C  128   4.239   2.817   4.497
    1C        C  129   4.188   2.769   4.619
    1C        C  130   4.322   2.934   4.739
    1C        C  131   4.239   2.818   4.741
    1C        C  132   4.350   3.002   4.859
    1C        C  133   4.276   2.962   4.971
    1C        C  134   3.174   2.466   2.077
    1C        C  135   3.042   2.513   2.082
    1C        C  136   3.258   2.475   2.189
    1C        C  137   3.193   2.522   2.305
    1C        C  138   3.402   2.480   2.424
    1C        C  139   3.263   2.508   2.427
    1C        C  140   3.476   2.480   2.544
    1C        C  141   3.407   2.487   2.667
    1C        C  142   3.620   2.491   2.790
    1C        C  143   3.479   2.487   2.788
    1C        C  144   3.693   2.497   2.911
    1C        C  145   3.621   2.490   3.032
    1C        C  146   3.827   2.538   3.153
    1C        C  147   3.692   2.497   3.154
    1C        C  148   3.895   2.561   3.275
    1C        C  149   3.832   2.537   3.399
    1C        C  150   4.023   2.624   3.520
    1C        C  151   3.898   2.558   3.522
    1C        C  152   4.081   2.668   3.641
    1C        C  153   4.025   2.628   3.765
    1C        C  154   4.191   2.758   3.888
    1C        C  155   4.083   2.668   3.888
    1C        C  156   4.238   2.811   4.010
    1C        C  157   4.190   2.762   4.134
    1C        C  158   4.332   2.923   4.253
    1C        C  159   4.244   2.812   4.254
    1C        C  160   4.370   2.985   4.374
    1C        C  161   4.327   2.928   4.496
    1C        C  162   4.433   3.114   4.614
    1C        C  163   4.363   2.991   4.617
    1C        C  164   4.464   3.180   4.735
    1C        C  165   4.428   3.120   4.857
    1C        C  166   4.510   3.317   4.971
    1C        C  167   4.472   3.183   4.974
    1C        C  168   3.475   2.435   2.071
    1C        C  169   3.397   2.452   2.186
    1C        C  170   3.616   2.464   2.302
    1C        C  171   3.474   2.462   2.304
    1C        C  172   3.689   2.487   2.421
    1C        C  173   3.618   2.482   2.542
    1C        C  174   3.822   2.536   2.663
    1C        C  175   3.685   2.498   2.665
    1C        C  176   3.892   2.556   2.783
    1C        C  177   3.830   2.531   2.907
    1C        C  178   4.021   2.620   3.030
    1C        C  179   3.895   2.556   3.030
    1C        C  180   4.083   2.662   3.150
    1C        C  181   4.022   2.624   3.272
    1C        C  182   4.190   2.747   3.397
    1C        C  183   4.080   2.659   3.396
    1C        C  184   4.242   2.800   3.517
    1C        C  185   4.190   2.758   3.641
    1C        C  186   4.325   2.918   3.762
    1C        C  187   4.239   2.806   3.764
    1C        C  188   4.368   2.973   3.885
    1C        C  189   4.328   2.920   4.009
    1C        C  190   4.437   3.105   4.125
    1C        C  191   4.370   2.981   4.130
    1C        C  192   4.463   3.172   4.247
    1C        C  193   4.437   3.109   4.371
    1C        C  194   4.506   3.312   4.490
    1C        C  195   4.463   3.178   4.492
    1C        C  196   4.523   3.383   4.611
    1C        C  197   4.509   3.315   4.733
    1C        C  198   4.545   3.532   4.849
    1C        C  199   4.529   3.390   4.852
    1C        C  200   4.579   3.617   4.960
    1C        C  201   3.613   2.408   2.070
    1C        C  202   3.822   2.509   2.177
    1C        C  203   3.689   2.456   2.181
    1C        C  204   3.895   2.538   2.295
    1C        C  205   3.826   2.521   2.417
    1C        C  206   4.015   2.616   2.540
    1C        C  207   3.890   2.551   2.540
    1C        C  208   4.077   2.652   2.661
    1C        C  209   4.021   2.615   2.785
    1C        C  210   4.188   2.747   2.905
    1C        C  211   4.078   2.658   2.907
    1C        C  212   4.241   2.797   3.026
    1C        C  213   4.194   2.749   3.150
    1C        C  214   4.329   2.908   3.270
    1C        C  215   4.243   2.795   3.275
    1C        C  216   4.368   2.968   3.392
    1C        C  217   4.331   2.910   3.515
    1C        C  218   4.422   3.102   3.638
    1C        C  219   4.363   2.973   3.638
    1C        C  220   4.455   3.168   3.759
    1C        C  221   4.433   3.099   3.880
    1C        C  222   4.500   3.303   4.002
    1C        C  223   4.462   3.167   4.000
    1C        C  224   4.514   3.376   4.122
    1C        C  225   4.502   3.308   4.245
    1C        C  226   4.521   3.521   4.365
    1C        C  227   4.515   3.380   4.366
    1C        C  228   4.521   3.595   4.485
    1C        C  229   4.524   3.524   4.607
    1C        C  230   4.503   3.741   4.725
    1C        C  231   4.529   3.601   4.726
    1C        C  232   4.498   3.817   4.843
    1C        C  233   4.541   3.752   4.959
    1C        C  234   4.017   2.603   2.061
    1C        C  235   3.892   2.544   2.060
    1C        C  236   4.084   2.645   2.177
    1C        C  237   4.020   2.606   2.297
    1C        C  238   4.195   2.730   2.419
    1C        C  239   4.078   2.650   2.418
    1C        C  240   4.248   2.780   2.540
    1C        C  241   4.189   2.739   2.662
    1C        C  242   4.327   2.903   2.779
    1C        C  243   4.242   2.790   2.782
    1C        C  244   4.367   2.962   2.901
    1C        C  245   4.331   2.906   3.025
    1C        C  246   4.429   3.093   3.147
    1C        C  247   4.367   2.966   3.148
    1C        C  248   4.454   3.160   3.270
    1C        C  249   4.432   3.094   3.393
    1C        C  250   4.489   3.299   3.512
    1C        C  251   4.452   3.162   3.515
    1C        C  252   4.501   3.369   3.634
    1C        C  253   4.496   3.303   3.759
    1C        C  254   4.518   3.514   3.879
    1C        C  255   4.517   3.373   3.880
    1C        C  256   4.516   3.587   3.999
    1C        C  257   4.520   3.517   4.122
    1C        C  258   4.493   3.730   4.239
    1C        C  259   4.519   3.591   4.242
    1C        C  260   4.471   3.802   4.359
    1C        C  261   4.488   3.733   4.481
    1C        C  262   4.420   3.935   4.601
    1C        C  263   4.472   3.803   4.602
    1C        C  264   4.390   4.004   4.720
    1C        C  265   4.429   3.941   4.840
    1C        C  266   4.310   4.124   4.953
    1C        C  267   4.386   4.007   4.955
    1C        C  268   4.256   2.776   2.059
    1C        C  269   4.192   2.735   2.177
    1C        C  270   4.337   2.893   2.293
    1C        C  271   4.248   2.782   2.298
    1C        C  272   4.375   2.952   2.415
    1C        C  273   4.334   2.892   2.536
    1C        C  274   4.436   3.082   2.657
    1C        C  275   4.372   2.956   2.656
    1C        C  276   4.468   3.149   2.777
    1C        C  277   4.435   3.086   2.900
    1C        C  278   4.500   3.287   3.023
    1C        C  279   4.458   3.152   3.022
    1C        C  280   4.510   3.361   3.143
    1C        C  281   4.491   3.296   3.267
    1C        C  282   4.520   3.507   3.388
    1C        C  283   4.503   3.367   3.389
    1C        C  284   4.520   3.579   3.509
    1C        C  285   4.514   3.509   3.632
    1C        C  286   4.492   3.721   3.750
    1C        C  287   4.512   3.581   3.754
    1C        C  288   4.474   3.791   3.871
    1C        C  289   4.491   3.726   3.995
    1C        C  290   4.427   3.929   4.113
    1C        C  291   4.476   3.797   4.116
    1C        C  292   4.393   3.996   4.233
    1C        C  293   4.420   3.934   4.357
    1C        C  294   4.320   4.122   4.477
    1C        C  295   4.390   3.999   4.479
    1C        C  296   4.280   4.185   4.596
    1C        C  297   4.322   4.128   4.718
    1C        C  298   4.195   4.311   4.836
    1C        C  299   4.280   4.196   4.837
    1C        C  300   4.170   4.400   4.945
    1C        C  301   4.344   2.883   2.056
    1C        C  302   4.468   3.066   2.173
    1C        C  303   4.392   2.944   2.172
    1C        C  304   4.480   3.139   2.295
    1C        C  305   4.445   3.074   2.416
    1C        C  306   4.502   3.283   2.533
    1C        C  307   4.468   3.146   2.535
    1C        C  308   4.510   3.353   2.655
    1C        C  309   4.502   3.286   2.779
    1C        C  310   4.518   3.498   2.897
    1C        C  311   4.515   3.357   2.901
    1C        C  312   4.514   3.572   3.018
    1C        C  313   4.515   3.502   3.140
    1C        C  314   4.489   3.712   3.261
    1C        C  315   4.513   3.573   3.263
    1C        C  316   4.476   3.783   3.382
    1C        C  317   4.494   3.718   3.506
    1C        C  318   4.423   3.920   3.625
    1C        C  319   4.473   3.788   3.627
    1C        C  320   4.385   3.982   3.746
    1C        C  321   4.420   3.922   3.869
    1C        C  322   4.319   4.109   3.987
    1C        C  323   4.397   3.991   3.990
    1C        C  324   4.275   4.167   4.108
    1C        C  325   4.318   4.116   4.232
    1C        C  326   4.180   4.278   4.351
    1C        C  327   4.278   4.177   4.353
    1C        C  328   4.128   4.334   4.470
    1C        C  329   4.186   4.291   4.591
    1C        C  330   4.022   4.430   4.711
    1C        C  331   4.140   4.350   4.711
    1C        C  332   3.969   4.487   4.828
    1C        C  333   4.052   4.474   4.941
    1C        C  334   4.551   3.265   2.064
    1C        C  335   4.532   3.126   2.060
    1C        C  336   4.539   3.349   2.175
    1C        C  337   4.508   3.278   2.293
    1C        C  338   4.522   3.495   2.411
    1C        C  339   4.517   3.354   2.412
    1C        C  340   4.518   3.567   2.533
    1C        C  341   4.517   3.494   2.654
    1C        C  342   4.487   3.707   2.771
    1C        C  343   4.507   3.567   2.775
    1C        C  344   4.476   3.781   2.892
    1C        C  345   4.492   3.711   3.014
    1C        C  346   4.417   3.908   3.137
    1C        C  347   4.470   3.777   3.137
    1C        C  348   4.387   3.976   3.257
    1C        C  349   4.427   3.916   3.379
    1C        C  350   4.316   4.098   3.501
    1C        C  351   4.395   3.981   3.500
    1C        C  352   4.270   4.156   3.622
    1C        C  353   4.311   4.102   3.746
    1C        C  354   4.170   4.263   3.864
    1C        C  355   4.271   4.164   3.866
    1C        C  356   4.117   4.311   3.985
    1C        C  357   4.174   4.266   4.106
    1C        C  358   4.009   4.401   4.226
    1C        C  359   4.125   4.320   4.227
    1C        C  360   3.949   4.444   4.347
    1C        C  361   4.014   4.417   4.469
    1C        C  362   3.825   4.515   4.590
    1C        C  363   3.955   4.459   4.590
    1C        C  364   3.757   4.545   4.710
    1C        C  365   3.839   4.543   4.825
    1C        C  366   3.627   4.593   4.945
    1C        C  367   3.764   4.575   4.939
    1C        C  368   4.503   3.561   2.051
    1C        C  369   4.522   3.489   2.170
    1C        C  370   4.501   3.706   2.286
    1C        C  371   4.519   3.566   2.288
    1C        C  372   4.482   3.777   2.407
    1C        C  373   4.500   3.707   2.528
    1C        C  374   4.424   3.907   2.646
    1C        C  375   4.478   3.777   2.649
    1C        C  376   4.391   3.972   2.767
    1C        C  377   4.421   3.911   2.890
    1C        C  378   4.316   4.091   3.011
    1C        C  379   4.392   3.972   3.014
    1C        C  380   4.269   4.148   3.131
    1C        C  381   4.310   4.093   3.255
    1C        C  382   4.171   4.252   3.375
    1C        C  383   4.267   4.148   3.378
    1C        C  384   4.120   4.304   3.496
    1C        C  385   4.173   4.259   3.619
    1C        C  386   4.001   4.386   3.736
    1C        C  387   4.121   4.310   3.740
    1C        C  388   3.942   4.427   3.858
    1C        C  389   4.000   4.391   3.981
    1C        C  390   3.815   4.489   4.105
    1C        C  391   3.943   4.429   4.104
    1C        C  392   3.748   4.517   4.226
    1C        C  393   3.820   4.503   4.347
    1C        C  394   3.616   4.553   4.469
    1C        C  395   3.755   4.531   4.469
    1C        C  396   3.543   4.566   4.590
    1C        C  397   3.617   4.569   4.710
    1C        C  398   3.407   4.556   4.837
    1C        C  399   3.546   4.579   4.831
    1C        C  400   3.339   4.511   4.951
    1C        C  401   4.495   3.700   2.048
    1C        C  402   4.450   3.912   2.166
    1C        C  403   4.491   3.777   2.165
    1C        C  404   4.409   3.977   2.284
    1C        C  405   4.433   3.909   2.406
    1C        C  406   4.327   4.098   2.526
    1C        C  407   4.402   3.978   2.525
    1C        C  408   4.274   4.148   2.647
    1C        C  409   4.311   4.089   2.770
    1C        C  410   4.175   4.254   2.888
    1C        C  411   4.272   4.151   2.890
    1C        C  412   4.120   4.299   3.010
    1C        C  413   4.170   4.248   3.133
    1C        C  414   3.996   4.373   3.252
    1C        C  415   4.116   4.298   3.254
    1C        C  416   3.938   4.413   3.374
    1C        C  417   4.004   4.384   3.496
    1C        C  418   3.807   4.475   3.615
    1C        C  419   3.936   4.418   3.615
    1C        C  420   3.744   4.502   3.739
    1C        C  421   3.813   4.484   3.861
    1C        C  422   3.609   4.538   3.984
    1C        C  423   3.748   4.512   3.983
    1C        C  424   3.539   4.542   4.106
    1C        C  425   3.608   4.538   4.229
    1C        C  426   3.397   4.549   4.354
    1C        C  427   3.538   4.557   4.351
    1C        C  428   3.327   4.544   4.477
    1C        C  429   3.403   4.557   4.595
    1C        C  430   3.193   4.519   4.721
    1C        C  431   3.332   4.547   4.717
    1C        C  432   3.121   4.494   4.841
    1C        C  433   3.201   4.498   4.956
    1C        C  434   4.380   4.119   2.051
    1C        C  435   4.448   3.997   2.054
    1C        C  436   4.297   4.156   2.162
    1C        C  437   4.331   4.096   2.286
    1C        C  438   4.176   4.247   2.400
    1C        C  439   4.284   4.156   2.405
    1C        C  440   4.120   4.292   2.522
    1C        C  441   4.172   4.246   2.645
    1C        C  442   4.001   4.373   2.766
    1C        C  443   4.120   4.297   2.766
    1C        C  444   3.940   4.412   2.887
    1C        C  445   4.000   4.372   3.009
    1C        C  446   3.808   4.468   3.128
    1C        C  447   3.936   4.408   3.129
    1C        C  448   3.744   4.496   3.251
    1C        C  449   3.811   4.475   3.373
    1C        C  450   3.602   4.528   3.492
    1C        C  451   3.740   4.498   3.493
    1C        C  452   3.537   4.539   3.617
    1C        C  453   3.606   4.531   3.740
    1C        C  454   3.397   4.551   3.863
    1C        C  455   3.538   4.547   3.862
    1C        C  456   3.327   4.537   3.985
    1C        C  457   3.397   4.538   4.107
    1C        C  458   3.192   4.501   4.235
    1C        C  459   3.330   4.534   4.231
    1C        C  460   3.123   4.484   4.357
    1C        C  461   3.190   4.511   4.478
    1C        C  462   2.994   4.434   4.599
    1C        C  463   3.122   4.493   4.601
    1C        C  464   2.929   4.401   4.720
    1C        C  465   2.988   4.441   4.843
    1C        C  466   2.805   4.327   4.960
    1C        C  467   2.906   4.424   4.958
    1C        C  468   4.118   4.279   2.042
    1C        C  469   4.186   4.245   2.159
    1C        C  470   4.006   4.373   2.278
    1C        C  471   4.123   4.293   2.278
    1C        C  472   3.938   4.398   2.399
    1C        C  473   4.002   4.369   2.522
    1C        C  474   3.808   4.458   2.642
    1C        C  475   3.937   4.402   2.643
    1C        C  476   3.742   4.488   2.763
    1C        C  477   3.811   4.470   2.885
    1C        C  478   3.602   4.520   3.005
    1C        C  479   3.741   4.491   3.005
    1C        C  480   3.533   4.532   3.127
    1C        C  481   3.606   4.527   3.248
    1C        C  482   3.392   4.532   3.373
    1C        C  483   3.533   4.534   3.369
    1C        C  484   3.324   4.528   3.497
    1C        C  485   3.396   4.539   3.618
    1C        C  486   3.190   4.503   3.743
    1C        C  487   3.327   4.537   3.741
    1C        C  488   3.126   4.472   3.865
    1C        C  489   3.190   4.501   3.988
    1C        C  490   3.003   4.410   4.111
    1C        C  491   3.126   4.481   4.112
    1C        C  492   2.945   4.375   4.234
    1C        C  493   2.996   4.422   4.357
    1C        C  494   2.826   4.297   4.479
    1C        C  495   2.935   4.387   4.480
    1C        C  496   2.771   4.252   4.601
    1C        C  497   2.822   4.307   4.721
    1C        C  498   2.667   4.161   4.842
    1C        C  499   2.762   4.265   4.842
    1C        C  500   2.596   4.117   4.955
    1C        C  501   3.998   4.349   2.039
    1C        C  502   3.815   4.462   2.153
    1C        C  503   3.943   4.404   2.155
    1C        C  504   3.743   4.479   2.274
    1C        C  505   3.806   4.448   2.397
    1C        C  506   3.603   4.507   2.517
    1C        C  507   3.741   4.476   2.519
    1C        C  508   3.531   4.516   2.638
    1C        C  509   3.603   4.512   2.760
    1C        C  510   3.391   4.525   2.883
    1C        C  511   3.532   4.524   2.882
    1C        C  512   3.319   4.517   3.005
    1C        C  513   3.391   4.531   3.126
    1C        C  514   3.189   4.486   3.253
    1C        C  515   3.324   4.526   3.250
    1C        C  516   3.123   4.463   3.376
    1C        C  517   3.187   4.492   3.499
    1C        C  518   2.996   4.409   3.624
    1C        C  519   3.121   4.475   3.622
    1C        C  520   2.938   4.366   3.745
    1C        C  521   3.003   4.402   3.865
    1C        C  522   2.836   4.278   3.991
    1C        C  523   2.946   4.366   3.989
    1C        C  524   2.788   4.230   4.115
    1C        C  525   2.837   4.284   4.236
    1C        C  526   2.698   4.126   4.361
    1C        C  527   2.781   4.240   4.358
    1C        C  528   2.655   4.070   4.483
    1C        C  529   2.683   4.142   4.601
    1C        C  530   2.590   3.955   4.733
    1C        C  531   2.639   4.088   4.724
    1C        C  532   2.545   3.898   4.855
    1C        C  533   2.528   3.995   4.959
    1C        C  534   3.615   4.555   2.035
    1C        C  535   3.745   4.504   2.039
    1C        C  536   3.535   4.538   2.153
    1C        C  537   3.603   4.504   2.274
    1C        C  538   3.390   4.514   2.393
    1C        C  539   3.532   4.512   2.395
    1C        C  540   3.321   4.512   2.516
    1C        C  541   3.390   4.518   2.640
    1C        C  542   3.182   4.481   2.763
    1C        C  543   3.319   4.516   2.762
    1C        C  544   3.118   4.456   2.886
    1C        C  545   3.184   4.479   3.009
    1C        C  546   2.992   4.399   3.133
    1C        C  547   3.119   4.461   3.133
    1C        C  548   2.935   4.364   3.257
    1C        C  549   2.995   4.403   3.379
    1C        C  550   2.829   4.278   3.501
    1C        C  551   2.934   4.372   3.503
    1C        C  552   2.781   4.226   3.624
    1C        C  553   2.830   4.274   3.747
    1C        C  554   2.703   4.109   3.872
    1C        C  555   2.784   4.225   3.871
    1C        C  556   2.666   4.053   3.997
    1C        C  557   2.704   4.116   4.117
    1C        C  558   2.592   3.938   4.245
    1C        C  559   2.664   4.060   4.241
    1C        C  560   2.570   3.873   4.368
    1C        C  561   2.596   3.942   4.489
    1C        C  562   2.530   3.747   4.615
    1C        C  563   2.567   3.883   4.614
    1C        C  564   2.513   3.678   4.737
    1C        C  565   2.518   3.757   4.855
    1C        C  566   2.528   3.540   4.975
    1C        C  567   2.519   3.678   4.971
    1C        C  568   3.325   4.471   2.038
    1C        C  569   3.395   4.514   2.151
    1C        C  570   3.181   4.476   2.276
    1C        C  571   3.319   4.512   2.271
    1C        C  572   3.116   4.449   2.399
    1C        C  573   3.185   4.477   2.520
    1C        C  574   2.986   4.402   2.645
    1C        C  575   3.113   4.463   2.641
    1C        C  576   2.928   4.358   2.766
    1C        C  577   2.991   4.394   2.887
    1C        C  578   2.827   4.265   3.014
    1C        C  579   2.933   4.359   3.011
    1C        C  580   2.778   4.218   3.138
    1C        C  581   2.827   4.272   3.258
    1C        C  582   2.696   4.108   3.381
    1C        C  583   2.780   4.221   3.381
    1C        C  584   2.658   4.052   3.505
    1C        C  585   2.694   4.115   3.627
    1C        C  586   2.593   3.929   3.751
    1C        C  587   2.661   4.053   3.750
    1C        C  588   2.568   3.867   3.875
    1C        C  589   2.602   3.927   3.998
    1C        C  590   2.530   3.734   4.125
    1C        C  591   2.568   3.870   4.123
    1C        C  592   2.519   3.668   4.250
    1C        C  593   2.530   3.737   4.373
    1C        C  594   2.504   3.530   4.496
    1C        C  595   2.512   3.671   4.496
    1C        C  596   2.508   3.461   4.619
    1C        C  597   2.513   3.536   4.738
    1C        C  598   2.528   3.323   4.861
    1C        C  599   2.514   3.463   4.859
    1C        C  600   2.525   3.245   4.977
    1C        C  601   3.192   4.436   2.042
    1C        C  602   2.978   4.393   2.160
    1C        C  603   3.112   4.443   2.157
    1C        C  604   2.923   4.350   2.284
    1C        C  605   2.988   4.390   2.402
    1C        C  606   2.817   4.269   2.526
    1C        C  607   2.924   4.360   2.525
    1C        C  608   2.764   4.219   2.647
    1C        C  609   2.820   4.266   2.768
    1C        C  610   2.689   4.105   2.894
    1C        C  611   2.777   4.215   2.892
    1C        C  612   2.648   4.048   3.017
    1C        C  613   2.690   4.107   3.138
    1C        C  614   2.587   3.923   3.264
    1C        C  615   2.649   4.050   3.261
    1C        C  616   2.569   3.858   3.388
    1C        C  617   2.597   3.924   3.510
    1C        C  618   2.519   3.727   3.636
    1C        C  619   2.561   3.862   3.631
    1C        C  620   2.508   3.660   3.760
    1C        C  621   2.529   3.731   3.880
    1C        C  622   2.501   3.523   4.007
    1C        C  623   2.513   3.664   4.004
    1C        C  624   2.500   3.454   4.130
    1C        C  625   2.503   3.528   4.250
    1C        C  626   2.527   3.320   4.377
    1C        C  627   2.503   3.460   4.373
    1C        C  628   2.539   3.248   4.498
    1C        C  629   2.523   3.320   4.618
    1C        C  630   2.592   3.119   4.739
    1C        C  631   2.540   3.251   4.740
    1C        C  632   2.614   3.048   4.860
    1C        C  633   2.557   3.109   4.977
    1C        C  634   2.777   4.308   2.056
    1C        C  635   2.890   4.390   2.047
    1C        C  636   2.741   4.229   2.166
    1C        C  637   2.808   4.266   2.284
    1C        C  638   2.676   4.103   2.409
    1C        C  639   2.761   4.216   2.407
    1C        C  640   2.638   4.042   2.531
    1C        C  641   2.681   4.104   2.651
    1C        C  642   2.583   3.918   2.776
    1C        C  643   2.648   4.043   2.774
    1C        C  644   2.563   3.851   2.898
    1C        C  645   2.590   3.919   3.019
    1C        C  646   2.521   3.720   3.147
    1C        C  647   2.567   3.854   3.143
    1C        C  648   2.504   3.653   3.270
    1C        C  649   2.522   3.725   3.390
    1C        C  650   2.497   3.517   3.516
    1C        C  651   2.509   3.657   3.514
    1C        C  652   2.505   3.449   3.640
    1C        C  653   2.501   3.519   3.763
    1C        C  654   2.526   3.311   3.888
    1C        C  655   2.506   3.450   3.886
    1C        C  656   2.542   3.245   4.012
    1C        C  657   2.526   3.315   4.134
    1C        C  658   2.601   3.119   4.255
    1C        C  659   2.546   3.249   4.257
    1C        C  660   2.633   3.056   4.378
    1C        C  661   2.594   3.118   4.499
    1C        C  662   2.709   2.937   4.621
    1C        C  663   2.624   3.050   4.619
    1C        C  664   2.748   2.879   4.744
    1C        C  665   2.696   2.931   4.865
    1C        C  666   2.741   2.868   4.982
    1C        C  667   2.678   4.020   2.055
    1C        C  668   2.677   4.103   2.168
    1C        C  669   2.590   3.906   2.290
    1C        C  670   2.644   4.037   2.288
    1C        C  671   2.554   3.843   2.412
    1C        C  672   2.582   3.913   2.531
    1C        C  673   2.518   3.713   2.659
    1C        C  674   2.558   3.849   2.655
    1C        C  675   2.501   3.646   2.782
    1C        C  676   2.519   3.716   2.902
    1C        C  677   2.496   3.509   3.027
    1C        C  678   2.502   3.650   3.026
    1C        C  679   2.496   3.440   3.150
    1C        C  680   2.493   3.512   3.272
    1C        C  681   2.520   3.304   3.397
    1C        C  682   2.494   3.443   3.395
    1C        C  683   2.549   3.242   3.521
    1C        C  684   2.529   3.310   3.643
    1C        C  685   2.595   3.110   3.768
    1C        C  686   2.548   3.244   3.766
    1C        C  687   2.631   3.050   3.891
    1C        C  688   2.597   3.114   4.012
    1C        C  689   2.716   2.939   4.135
    1C        C  690   2.631   3.052   4.134
    1C        C  691   2.753   2.880   4.258
    1C        C  692   2.709   2.937   4.379
    1C        C  693   2.752   2.879   4.500
    1C        C  694   2.623   3.892   2.052
    1C        C  695   2.523   3.702   2.175
    1C        C  696   2.574   3.834   2.170
    1C        C  697   2.496   3.635   2.297
    1C        C  698   2.510   3.709   2.416
    1C        C  699   2.477   3.501   2.541
    1C        C  700   2.494   3.641   2.539
    1C        C  701   2.488   3.430   2.663
    1C        C  702   2.495   3.504   2.783
    1C        C  703   2.517   3.296   2.906
    1C        C  704   2.493   3.435   2.906
    1C        C  705   2.538   3.230   3.030
    1C        C  706   2.522   3.301   3.151
    1C        C  707   2.589   3.104   3.275
    1C        C  708   2.536   3.235   3.275
    1C        C  709   2.630   3.047   3.398
    1C        C  710   2.605   3.112   3.521
    1C        C  711   2.713   2.935   3.645
    1C        C  712   2.632   3.050   3.645
    1C        C  713   2.756   2.880   3.768
    1C        C  714   2.715   2.937   3.890
    1C        C  715   2.754   2.879   4.013
    1C        C  716   2.442   3.498   2.064
    1C        C  717   2.486   3.631   2.060
    1C        C  718   2.460   3.420   2.182
    1C        C  719   2.469   3.496   2.302
    1C        C  720   2.507   3.286   2.421
    1C        C  721   2.475   3.423   2.423
    1C        C  722   2.527   3.217   2.543
    1C        C  723   2.514   3.292   2.662
    1C        C  724   2.575   3.089   2.788
    1C        C  725   2.533   3.224   2.785
    1C        C  726   2.613   3.030   2.911
    1C        C  727   2.591   3.099   3.032
    1C        C  728   2.704   2.922   3.156
    1C        C  729   2.624   3.038   3.155
    1C        C  730   2.754   2.873   3.279
    1C        C  731   2.713   2.933   3.400
    1C        C  732   2.758   2.878   3.523
    1C        C  733   2.485   3.194   2.068
    1C        C  734   2.486   3.279   2.179
    1C        C  735   2.580   3.084   2.300
    1C        C  736   2.524   3.215   2.300
    1C        C  737   2.610   3.020   2.422
    1C        C  738   2.578   3.085   2.544
    1C        C  739   2.689   2.908   2.667
    1C        C  740   2.606   3.022   2.667
    1C        C  741   2.737   2.855   2.789
    1C        C  742   2.691   2.913   2.910
    1C        C  743   2.742   2.864   3.033
    1C        C  744   2.540   3.066   2.069
    1C        C  745   2.684   2.896   2.182
    1C        C  746   2.605   3.013   2.181
    1C        C  747   2.726   2.842   2.305
    1C        C  748   2.685   2.901   2.426
    1C        C  749   2.733   2.847   2.548
    1C        C  750   2.731   2.837   2.064
    1C        C  751   3.659   2.317   1.962
    1C        O  752   3.735   2.221   1.988
    1C        O  753   3.632   2.327   1.825
    1C        C  754   4.623   3.059   1.965
    1C        O  755   4.590   3.027   1.848
    1C        O  756   4.752   3.011   1.991
    1C        C  757   4.446   4.226   1.972
    1C        O  758   4.498   4.322   2.035
    1C        O  759   4.407   4.255   1.840
    1C        C  760   3.578   4.643   1.922
    1C        O  761   3.519   4.753   1.940
    1C        O  762   3.555   4.589   1.795
    1C        C  763   2.880   4.499   1.947
    1C        O  764   2.925   4.496   1.829
    1C        O  765   2.801   4.612   1.972
    1C        C  766   2.326   3.470   1.977
    1C        O  767   2.346   3.425   1.861
    1C        O  768   2.205   3.541   1.983
    1C        C  769   4.712   3.586   5.017
    1C        O  770   4.720   3.565   5.141
    1C        O  771   4.837   3.623   4.966
    1C        C  772   4.280   4.465   5.020
    1C        O  773   4.311   4.451   5.141
    1C        O  774   4.399   4.512   4.964
    1C        C  775   4.146   2.514   5.062
    1C        O  776   4.267   2.494   5.033
    1C        O  777   4.110   2.471   5.190
    1C        C  778   2.870   4.542   5.041
    1C        O  779   2.806   4.646   5.010
    1C        O  780   2.904   4.530   5.176
    1C        C  781   2.497   3.031   5.087
    1C        O  782   2.401   2.951   5.071
    1C        O  783   2.508   3.075   5.219
    1C        C  784   2.415   3.997   5.054
    1C        O  785   2.307   4.058   5.035
    1C        O  786   2.440   3.974   5.190
    1C        C  787   2.943   2.424   2.017
    1C        O  788   2.965   2.395   1.897
    1C        O  789   2.882   2.317   2.082
    1C        C  790   3.179   2.377   5.067
    1C        O  791   3.113   2.270   5.059
    1C        O  792   3.207   2.404   5.202
    1C        H  793   4.252   3.036   5.044
    1C        H  794   4.176   2.806   5.072
    1C        H  795   4.455   3.137   5.069
    1C        H  796   4.572   3.348   5.052
    1C        H  797   4.525   3.797   5.055
    1C        H  798   4.453   4.000   5.038
    1C        H  799   4.234   4.135   5.028
    1C        H  800   4.010   4.496   5.037
    1C        H  801   3.821   4.632   5.010
    1C        H  802   3.591   4.627   5.041
    1C        H  803   3.387   4.514   5.046
    1C        H  804   3.152   4.502   5.052
    1C        H  805   3.882   2.488   5.066
    1C        H  806   3.665   2.405   5.053
    1C        H  807   2.978   2.505   5.030
    1C        H  808   3.442   2.498   5.076
    1C        H  809   2.906   2.776   5.068
    1C        H  810   2.714   2.911   5.076
    1C        H  811   2.515   3.292   5.073
    1C        H  812   2.591   3.505   5.055
    1C        H  813   2.460   3.712   5.054
    1C        H  814   2.599   4.183   5.040
    1C        H  815   2.795   4.274   5.052
    1C        H  816   2.748   2.897   1.977
    1C        H  817   2.837   2.683   1.975
    1C        H  818   3.213   2.437   1.982
    1C        H  819   3.427   2.423   1.976
    1C        H  820   3.834   2.576   1.976
    1C        H  821   4.079   2.571   1.979
    1C        H  822   4.250   2.712   1.974
    1C        H  823   4.372   2.925   1.961
    1C        H  824   4.601   3.309   1.980
    1C        H  825   4.494   3.505   1.961
    1C        H  826   4.534   3.744   1.958
    1C        H  827   3.776   4.458   1.947
    1C        H  828   3.960   4.373   1.941
    1C        H  829   4.178   4.289   1.954
    1C        H  830   4.483   3.961   1.959
    1C        H  831   2.662   3.825   1.978
    1C        H  832   2.716   4.057   1.961
    1C        H  833   2.706   4.313   1.976
    1C        H  834   3.353   4.521   1.947
    1C        H  835   3.147   4.395   1.954
    1C        H  836   2.553   3.020   1.973
    1C        H  837   2.401   3.207   2.004
    1C        H  838   2.465   3.686   1.970
    2V3OU   H29  839   2.804   3.548   2.230
    2V3OU   C27  840   2.782   3.500   2.329
    2V3OU   H27  841   2.724   3.557   2.407
    2V3OU   H28  842   2.729   3.402   2.316
    2V3OU   O11  843   2.907   3.479   2.395
    2V3OU   C15  844   2.924   3.397   2.504
    2V3OU   C13  845   3.055   3.367   2.547
    2V3OU   C14  846   3.080   3.259   2.632
    2V3OU   C16  847   2.977   3.186   2.690
    2V3OU    H6  848   2.993   3.101   2.758
    2V3OU   C12  849   3.216   3.220   2.675
    2V3OU    O2  850   3.236   3.124   2.753
    2V3OU   C10  851   3.327   3.300   2.623
    2V3OU    C8  852   3.457   3.265   2.656
    2V3OU   O10  853   3.488   3.152   2.724
    2V3OU   H26  854   3.405   3.107   2.746
    2V3OU    C6  855   3.563   3.349   2.609
    2V3OU    C5  856   3.535   3.466   2.540
    2V3OU    C4  857   3.700   3.290   2.601
    2V3OU    H4  858   3.719   3.220   2.688
    2V3OU    H5  859   3.705   3.220   2.512
    2V3OU    C2  860   3.814   3.392   2.603
    2V3OU    O6  861   3.804   3.473   2.720
    2V3OU   H21  862   3.767   3.551   2.675
    2V3OU    C3  863   3.782   3.488   2.488
    2V3OU    H2  864   3.859   3.569   2.489
    2V3OU    H3  865   3.785   3.438   2.388
    2V3OU   C25  866   3.950   3.322   2.592
    2V3OU    O7  867   3.997   3.294   2.482
    2V3OU   C26  868   4.028   3.284   2.717
    2V3OU   H22  869   4.059   3.382   2.761
    2V3OU   H23  870   4.119   3.225   2.688
    2V3OU    O8  871   3.963   3.204   2.813
    2V3OU   H24  872   3.930   3.266   2.880
    2V3OU    C1  873   3.648   3.558   2.501
    2V3OU    H1  874   3.625   3.611   2.404
    2V3OU    O3  875   3.655   3.651   2.608
    2V3OU   C19  876   3.615   3.789   2.604
    2V3OU    H9  877   3.517   3.796   2.549
    2V3OU    O4  878   3.709   3.851   2.519
    2V3OU   C20  879   3.840   3.869   2.575
    2V3OU   H10  880   3.892   3.770   2.591
    2V3OU   C24  881   3.607   3.859   2.740
    2V3OU   H16  882   3.537   3.795   2.800
    2V3OU   H17  883   3.559   3.958   2.725
    2V3OU   C23  884   3.745   3.870   2.806
    2V3OU   H15  885   3.784   3.764   2.826
    2V3OU    N1  886   3.732   3.952   2.924
    2V3OU   H19  887   3.806   3.924   2.985
    2V3OU   H20  888   3.647   3.926   2.972
    2V3OU   C21  889   3.844   3.942   2.709
    2V3OU   H11  890   3.945   3.923   2.755
    2V3OU    O5  891   3.832   4.084   2.707
    2V3OU   H18  892   3.780   4.102   2.788
    2V3OU   C22  893   3.917   3.946   2.469
    2V3OU   H12  894   3.863   4.040   2.441
    2V3OU   H13  895   3.912   3.888   2.373
    2V3OU   H14  896   4.022   3.961   2.503
    2V3OU   C11  897   3.161   3.468   2.538
    2V3OU    O1  898   3.136   3.588   2.513
    2V3OU    C9  899   3.301   3.423   2.556
    2V3OU    C7  900   3.401   3.508   2.511
    2V3OU    O9  901   3.388   3.617   2.428
    2V3OU   H25  902   3.291   3.625   2.432
    2V3OU   C17  903   2.822   3.317   2.561
    2V3OU    H7  904   2.721   3.351   2.538
    2V3OU   C18  905   2.847   3.215   2.651
    2V3OU    H8  906   2.774   3.166   2.718
    3SOL     OW  907   2.997   5.126   0.846
    3SOL    HW1  908   2.975   5.154   0.939
    3SOL    HW2  909   3.093   5.097   0.842
    4SOL     OW  910   0.249   6.321   2.165
    4SOL    HW1  911   0.249   6.420   2.179
    4SOL    HW2  912   0.332   6.293   2.116
    5SOL     OW  913   4.394   0.955   2.977
    5SOL    HW1  914   4.335   0.931   3.054
    5SOL    HW2  915   4.401   1.054   2.970
    6SOL     OW  916   4.039   1.171   1.125
    6SOL    HW1  917   4.122   1.208   1.083
    6SOL    HW2  918   3.997   1.105   1.063
    7SOL     OW  919   6.739   3.347   2.268
    7SOL    HW1  920   6.683   3.276   2.311
    7SOL    HW2  921   6.736   3.430   2.324
    8SOL     OW  922   3.035   0.392   6.907
    8SOL    HW1  923   3.013   0.411   7.003
    8SOL    HW2  924   2.990   0.307   6.879
    9SOL     OW  925   5.720   0.113   6.243
    9SOL    HW1  926   5.678   0.204   6.234
    9SOL    HW2  927   5.813   0.123   6.278
   10SOL     OW  928   1.479   5.094   6.463
   10SOL    HW1  929   1.463   5.102   6.365
   10SOL    HW2  930   1.502   5.000   6.486
   11SOL     OW  931   2.873   6.947   5.878
   11SOL    HW1  932   2.831   6.884   5.944
   11SOL    HW2  933   2.969   6.923   5.865
   12SOL     OW  934   3.838   6.036   2.929
   12SOL    HW1  935   3.914   6.097   2.906
   12SOL    HW2  936   3.802   5.995   2.846
   13SOL     OW  937   4.318   6.166   3.850
   13SOL    HW1  938   4.290   6.141   3.758
   13SOL    HW2  939   4.417   6.155   3.859
   14SOL     OW  940   3.290   5.854   5.866
   14SOL    HW1  941   3.257   5.935   5.819
   14SOL    HW2  942   3.383   5.870   5.901
   15SOL     OW  943   2.071   6.673   1.693
   15SOL    HW1  944   2.160   6.643   1.727
   15SOL    HW2  945   2.075   6.683   1.593
   16SOL     OW  946   5.051   2.690   5.484
   16SOL    HW1  947   5.147   2.707   5.461
   16SOL    HW2  948   5.042   2.672   5.582
   17SOL     OW  949   5.018   5.678   6.109
   17SOL    HW1  950   4.973   5.608   6.053
   17SOL    HW2  951   5.073   5.738   6.050
   18SOL     OW  952   3.215   1.095   6.045
   18SOL    HW1  953   3.222   0.996   6.029
   18SOL    HW2  954   3.210   1.142   5.957
   19SOL     OW  955   0.662   0.952   3.327
   19SOL    HW1  956   0.580   0.935   3.383
   19SOL    HW2  957   0.668   0.882   3.256
   20SOL     OW  958   5.679   2.364   4.468
   20SOL    HW1  959   5.771   2.326   4.468
   20SOL    HW2  960   5.647   2.375   4.563
   21SOL     OW  961   3.805   2.027   2.469
   21SOL    HW1  962   3.813   2.070   2.379
   21SOL    HW2  963   3.723   2.062   2.515
   22SOL     OW  964   1.821   6.284   0.527
   22SOL    HW1  965   1.903   6.339   0.510
   22SOL    HW2  966   1.779   6.313   0.614
   23SOL     OW  967   5.633   6.300   3.188
   23SOL    HW1  968   5.621   6.212   3.142
   23SOL    HW2  969   5.647   6.284   3.286
   24SOL     OW  970   4.863   0.957   3.533
   24SOL    HW1  971   4.801   0.996   3.602
   24SOL    HW2  972   4.819   0.879   3.489
   25SOL     OW  973   3.278   0.427   4.979
   25SOL    HW1  974   3.289   0.337   4.937
   25SOL    HW2  975   3.296   0.421   5.077
   26SOL     OW  976   6.666   1.047   0.219
   26SOL    HW1  977   6.667   0.989   0.300
   26SOL    HW2  978   6.620   1.133   0.239
   27SOL     OW  979   0.933   2.112   2.327
   27SOL    HW1  980   0.924   2.207   2.359
   27SOL    HW2  981   0.842   2.073   2.315
   28SOL     OW  982   2.871   1.973   5.548
   28SOL    HW1  983   2.815   1.981   5.466
   28SOL    HW2  984   2.945   2.040   5.545
   29SOL     OW  985   5.450   2.316   2.061
   29SOL    HW1  986   5.404   2.249   2.118
   29SOL    HW2  987   5.457   2.281   1.967
   30SOL     OW  988   3.982   0.959   4.298
   30SOL    HW1  989   4.004   0.910   4.382
   30SOL    HW2  990   3.892   1.001   4.307
   31SOL     OW  991   1.271   2.468   6.604
   31SOL    HW1  992   1.329   2.548   6.590
   31SOL    HW2  993   1.313   2.409   6.674
   32SOL     OW  994   0.476   1.527   2.526
   32SOL    HW1  995   0.521   1.472   2.456
   32SOL    HW2  996   0.541   1.551   2.598
   33SOL     OW  997   2.320   4.554   6.069
   33SOL    HW1  998   2.351   4.594   5.982
   33SOL    HW2  999   2.391   4.567   6.138
   34SOL     OW 1000   2.703   0.860   4.212
   34SOL    HW1 1001   2.711   0.957   4.236
   34SOL    HW2 1002   2.787   0.813   4.239
   35SOL     OW 1003   3.299   3.684   6.851
   35SOL    HW1 1004   3.394   3.677   6.878
   35SOL    HW2 1005   3.292   3.733   6.764
   36SOL     OW 1006   6.041   0.992   4.721
   36SOL    HW1 1007   6.063   1.087   4.697
   36SOL    HW2 1008   6.025   0.939   4.638
   37SOL     OW 1009   0.961   1.639   0.514
   37SOL    HW1 1010   0.894   1.691   0.461
   37SOL    HW2 1011   1.053   1.665   0.485
   38SOL     OW 1012   6.775   4.605   2.425
   38SOL    HW1 1013   6.849   4.561   2.373
   38SOL    HW2 1014   6.725   4.668   2.365
   39SOL     OW 1015   7.002   4.705   0.140
   39SOL    HW1 1016   0.061   4.769   0.147
   39SOL    HW2 1017   6.920   4.755   0.112
   40SOL     OW 1018   5.271   1.937   0.539
   40SOL    HW1 1019   5.184   1.959   0.496
   40SOL    HW2 1020   5.347   1.970   0.482
   41SOL     OW 1021   0.062   5.781   3.767
   41SOL    HW1 1022   0.054   5.708   3.834
   41SOL    HW2 1023   7.005   5.846   3.779
   42SOL     OW 1024   2.731   5.227   5.437
   42SOL    HW1 1025   2.824   5.212   5.405
   42SOL    HW2 1026   2.703   5.321   5.417
   43SOL     OW 1027   6.113   6.707   5.184
   43SOL    HW1 1028   6.069   6.698   5.273
   43SOL    HW2 1029   6.212   6.696   5.195
   44SOL     OW 1030   4.855   1.837   6.225
   44SOL    HW1 1031   4.940   1.846   6.277
   44SOL    HW2 1032   4.876   1.806   6.133
   45SOL     OW 1033   4.251   6.004   3.138
   45SOL    HW1 1034   4.288   6.024   3.047
   45SOL    HW2 1035   4.204   6.085   3.174
   46SOL     OW 1036   0.961   2.771   3.076
   46SOL    HW1 1037   0.894   2.728   3.135
   46SOL    HW2 1038   0.942   2.749   2.980
   47SOL     OW 1039   4.701   4.339   0.452
   47SOL    HW1 1040   4.736   4.267   0.391
   47SOL    HW2 1041   4.759   4.420   0.445
   48SOL     OW 1042   0.019   3.058   6.006
   48SOL    HW1 1043   0.010   3.069   5.907
   48SOL    HW2 1044   0.113   3.033   6.028
   49SOL     OW 1045   5.368   4.025   1.347
   49SOL    HW1 1046   5.387   3.929   1.325
   49SOL    HW2 1047   5.454   4.072   1.368
   50SOL     OW 1048   5.415   0.552   4.738
   50SOL    HW1 1049   5.389   0.594   4.651
   50SOL    HW2 1050   5.336   0.552   4.799
   51SOL     OW 1051   2.565   6.923   3.081
   51SOL    HW1 1052   2.665   6.920   3.083
   51SOL    HW2 1053   2.531   6.970   3.162
   52SOL     OW 1054   6.138   2.434   2.952
   52SOL    HW1 1055   6.194   2.352   2.945
   52SOL    HW2 1056   6.185   2.511   2.909
   53SOL     OW 1057   3.453   6.570   4.091
   53SOL    HW1 1058   3.427   6.516   4.172
   53SOL    HW2 1059   3.384   6.559   4.020
   54SOL     OW 1060   3.577   4.950   0.822
   54SOL    HW1 1061   3.590   4.960   0.921
   54SOL    HW2 1062   3.651   4.894   0.784
   55SOL     OW 1063   2.557   2.340   6.756
   55SOL    HW1 1064   2.618   2.273   6.714
   55SOL    HW2 1065   2.478   2.354   6.696
   56SOL     OW 1066   0.166   0.004   1.015
   56SOL    HW1 1067   0.117   0.084   1.051
   56SOL    HW2 1068   0.202   6.968   1.091
   57SOL     OW 1069   5.394   1.275   1.119
   57SOL    HW1 1070   5.381   1.238   1.027
   57SOL    HW2 1071   5.397   1.200   1.185
   58SOL     OW 1072   6.644   6.510   5.911
   58SOL    HW1 1073   6.585   6.461   5.975
   58SOL    HW2 1074   6.607   6.501   5.819
   59SOL     OW 1075   0.902   1.438   4.983
   59SOL    HW1 1076   0.889   1.374   5.059
   59SOL    HW2 1077   0.991   1.422   4.941
   60SOL     OW 1078   5.488   2.408   5.397
   60SOL    HW1 1079   5.525   2.469   5.467
   60SOL    HW2 1080   5.524   2.433   5.308
   61SOL     OW 1081   5.797   2.179   4.671
   61SOL    HW1 1082   5.869   2.240   4.636
   61SOL    HW2 1083   5.827   2.140   4.759
   62SOL     OW 1084   0.945   1.220   1.849
   62SOL    HW1 1085   0.887   1.221   1.768
   62SOL    HW2 1086   1.010   1.296   1.845
   63SOL     OW 1087   5.100   1.074   3.364
   63SOL    HW1 1088   5.199   1.059   3.359
   63SOL    HW2 1089   5.065   1.042   3.452
   64SOL     OW 1090   6.822   3.222   5.889
   64SOL    HW1 1091   6.852   3.230   5.984
   64SOL    HW2 1092   6.882   3.159   5.840
   65SOL     OW 1093   0.138   5.226   6.502
   65SOL    HW1 1094   0.150   5.293   6.429
   65SOL    HW2 1095   0.227   5.184   6.522
   66SOL     OW 1096   3.919   1.434   5.718
   66SOL    HW1 1097   3.948   1.460   5.625
   66SOL    HW2 1098   3.919   1.515   5.776
   67SOL     OW 1099   5.078   4.324   5.672
   67SOL    HW1 1100   4.978   4.328   5.673
   67SOL    HW2 1101   5.114   4.395   5.612
   68SOL     OW 1102   5.971   1.070   6.819
   68SOL    HW1 1103   5.874   1.059   6.841
   68SOL    HW2 1104   6.001   0.993   6.762
   69SOL     OW 1105   0.899   3.576   5.950
   69SOL    HW1 1106   0.820   3.523   5.982
   69SOL    HW2 1107   0.874   3.629   5.869
   70SOL     OW 1108   5.493   3.681   4.976
   70SOL    HW1 1109   5.425   3.611   4.953
   70SOL    HW2 1110   5.583   3.654   4.941
   71SOL     OW 1111   4.571   1.529   3.635
   71SOL    HW1 1112   4.481   1.491   3.615
   71SOL    HW2 1113   4.563   1.627   3.654
   72SOL     OW 1114   1.875   6.266   4.199
   72SOL    HW1 1115   1.917   6.306   4.281
   72SOL    HW2 1116   1.944   6.254   4.128
   73SOL     OW 1117   3.811   0.774   1.218
   73SOL    HW1 1118   3.848   0.859   1.254
   73SOL    HW2 1119   3.839   0.762   1.123
   74SOL     OW 1120   4.752   7.002   7.007
   74SOL    HW1 1121   4.753   0.007   6.910
   74SOL    HW2 1122   4.709   6.913   0.002
   75SOL     OW 1123   4.454   0.545   0.950
   75SOL    HW1 1124   4.522   0.574   1.017
   75SOL    HW2 1125   4.452   0.445   0.946
   76SOL     OW 1126   3.297   3.228   0.985
   76SOL    HW1 1127   3.228   3.285   1.029
   76SOL    HW2 1128   3.319   3.150   1.044
   77SOL     OW 1129   0.227   0.039   3.055
   77SOL    HW1 1130   0.259   0.046   3.150
   77SOL    HW2 1131   0.159   6.985   3.048
   78SOL     OW 1132   6.286   1.889   6.886
   78SOL    HW1 1133   6.299   1.790   6.890
   78SOL    HW2 1134   6.220   1.917   6.956
   79SOL     OW 1135   3.344   6.133   0.815
   79SOL    HW1 1136   3.371   6.151   0.909
   79SOL    HW2 1137   3.369   6.211   0.757
   80SOL     OW 1138   5.278   1.291   4.482
   80SOL    HW1 1139   5.280   1.191   4.473
   80SOL    HW2 1140   5.186   1.324   4.463
   81SOL     OW 1141   1.999   6.976   2.663
   81SOL    HW1 1142   1.921   0.013   2.695
   81SOL    HW2 1143   2.070   6.977   2.733
   82SOL     OW 1144   6.077   4.861   1.320
   82SOL    HW1 1145   5.993   4.840   1.271
   82SOL    HW2 1146   6.109   4.779   1.368
   83SOL     OW 1147   0.612   0.820   6.974
   83SOL    HW1 1148   0.704   0.813   7.012
   83SOL    HW2 1149   0.545   0.811   0.030
   84SOL     OW 1150   5.947   2.845   3.213
   84SOL    HW1 1151   5.980   2.755   3.186
   84SOL    HW2 1152   6.004   2.916   3.171
   85SOL     OW 1153   1.487   1.234   4.117
   85SOL    HW1 1154   1.542   1.315   4.134
   85SOL    HW2 1155   1.408   1.258   4.061
   86SOL     OW 1156   6.940   1.127   5.132
   86SOL    HW1 1157   6.989   1.210   5.104
   86SOL    HW2 1158   6.926   1.128   5.231
   87SOL     OW 1159   4.739   3.769   0.942
   87SOL    HW1 1160   4.823   3.736   0.899
   87SOL    HW2 1161   4.671   3.697   0.942
   88SOL     OW 1162   3.438   1.600   5.296
   88SOL    HW1 1163   3.476   1.552   5.375
   88SOL    HW2 1164   3.512   1.637   5.240
   89SOL     OW 1165   1.501   2.832   5.845
   89SOL    HW1 1166   1.525   2.913   5.791
   89SOL    HW2 1167   1.578   2.806   5.902
   90SOL     OW 1168   3.413   5.108   2.681
   90SOL    HW1 1169   3.445   5.130   2.589
   90SOL    HW2 1170   3.358   5.024   2.679
   91SOL     OW 1171   5.480   4.339   5.554
   91SOL    HW1 1172   5.398   4.373   5.508
   91SOL    HW2 1173   5.478   4.239   5.558
   92SOL     OW 1174   4.017   4.728   0.696
   92SOL    HW1 1175   3.945   4.672   0.738
   92SOL    HW2 1176   4.105   4.680   0.703
   93SOL     OW 1177   3.228   4.175   0.258
   93SOL    HW1 1178   3.183   4.235   0.192
   93SOL    HW2 1179   3.199   4.201   0.350
   94SOL     OW 1180   2.075   5.739   6.574
   94SOL    HW1 1181   2.157   5.694   6.537
   94SOL    HW2 1182   2.032   5.678   6.641
   95SOL     OW 1183   1.078   0.481   4.152
   95SOL    HW1 1184   1.152   0.418   4.131
   95SOL    HW2 1185   1.095   0.525   4.240
   96SOL     OW 1186   3.364   0.695   4.996
   96SOL    HW1 1187   3.295   0.744   4.943
   96SOL    HW2 1188   3.346   0.596   4.992
   97SOL     OW 1189   2.345   3.342   5.751
   97SOL    HW1 1190   2.318   3.266   5.691
   97SOL    HW2 1191   2.313   3.324   5.844
   98SOL     OW 1192   0.414   3.454   0.839
   98SOL    HW1 1193   0.512   3.470   0.833
   98SOL    HW2 1194   0.375   3.452   0.747
   99SOL     OW 1195   3.769   3.023   1.148
   99SOL    HW1 1196   3.864   3.017   1.118
   99SOL    HW2 1197   3.767   3.038   1.247
  100SOL     OW 1198   6.893   0.168   5.019
  100SOL    HW1 1199   6.929   0.210   5.102
  100SOL    HW2 1200   6.866   0.074   5.037
  101SOL     OW 1201   1.599   5.247   2.258
  101SOL    HW1 1202   1.651   5.264   2.174
  101SOL    HW2 1203   1.605   5.150   2.281
  102SOL     OW 1204   4.349   5.709   2.195
  102SOL    HW1 1205   4.266   5.763   2.206
  102SOL    HW2 1206   4.390   5.730   2.106
  103SOL     OW 1207   2.273   1.734   1.593
  103SOL    HW1 1208   2.354   1.731   1.534
  103SOL    HW2 1209   2.301   1.746   1.688
  104SOL     OW 1210   1.177   5.554   2.576
  104SOL    HW1 1211   1.124   5.519   2.499
  104SOL    HW2 1212   1.275   5.546   2.556
  105SOL     OW 1213   6.644   2.109   6.629
  105SOL    HW1 1214   6.545   2.095   6.637
  105SOL    HW2 1215   6.675   2.169   6.703
  106SOL     OW 1216   3.489   6.279   4.861
  106SOL    HW1 1217   3.567   6.337   4.838
  106SOL    HW2 1218   3.452   6.238   4.778
  107SOL     OW 1219   1.430   1.388   1.586
  107SOL    HW1 1220   1.384   1.435   1.661
  107SOL    HW2 1221   1.465   1.300   1.617
  108SOL     OW 1222   2.578   6.313   5.464
  108SOL    HW1 1223   2.657   6.320   5.403
  108SOL    HW2 1224   2.510   6.253   5.422
  109SOL     OW 1225   0.280   0.251   1.879
  109SOL    HW1 1226   0.317   0.233   1.787
  109SOL    HW2 1227   0.212   0.182   1.901
  110SOL     OW 1228   3.169   5.964   4.692
  110SOL    HW1 1229   3.142   6.014   4.610
  110SOL    HW2 1230   3.098   5.896   4.713
  111SOL     OW 1231   2.133   0.887   4.429
  111SOL    HW1 1232   2.220   0.905   4.475
  111SOL    HW2 1233   2.121   0.789   4.417
  112SOL     OW 1234   3.461   6.310   6.512
  112SOL    HW1 1235   3.398   6.316   6.435
  112SOL    HW2 1236   3.555   6.325   6.479
  113SOL     OW 1237   0.340   5.384   3.229
  113SOL    HW1 1238   0.384   5.403   3.317
  113SOL    HW2 1239   0.287   5.300   3.236
  114SOL     OW 1240   1.090   6.991   2.361
  114SOL    HW1 1241   1.149   0.047   2.392
  114SOL    HW2 1242   1.090   6.988   2.261
  115SOL     OW 1243   4.598   1.429   3.171
  115SOL    HW1 1244   4.621   1.332   3.180
  115SOL    HW2 1245   4.597   1.455   3.075
  116SOL     OW 1246   6.171   5.350   2.029
  116SOL    HW1 1247   6.229   5.304   1.961
  116SOL    HW2 1248   6.180   5.304   2.117
  117SOL     OW 1249   1.883   2.271   0.446
  117SOL    HW1 1250   1.880   2.176   0.478
  117SOL    HW2 1251   1.792   2.301   0.419
  118SOL     OW 1252   1.608   0.842   2.544
  118SOL    HW1 1253   1.598   0.855   2.642
  118SOL    HW2 1254   1.673   0.768   2.526
  119SOL     OW 1255   0.415   0.200   0.112
  119SOL    HW1 1256   0.509   0.227   0.134
  119SOL    HW2 1257   0.415   0.106   0.076
  120SOL     OW 1258   5.596   6.921   6.407
  120SOL    HW1 1259   5.600   6.967   6.496
  120SOL    HW2 1260   5.615   6.987   6.335
  121SOL     OW 1261   1.149   3.452   5.920
  121SOL    HW1 1262   1.053   3.470   5.941
  121SOL    HW2 1263   1.160   3.355   5.900
  122SOL     OW 1264   1.814   3.633   5.761
  122SOL    HW1 1265   1.727   3.620   5.809
  122SOL    HW2 1266   1.867   3.548   5.765
  123SOL     OW 1267   0.489   0.968   2.739
  123SOL    HW1 1268   0.390   0.973   2.729
  123SOL    HW2 1269   0.512   0.957   2.836
  124SOL     OW 1270   3.670   2.877   0.363
  124SOL    HW1 1271   3.610   2.797   0.374
  124SOL    HW2 1272   3.614   2.960   0.358
  125SOL     OW 1273   3.179   1.997   0.485
  125SOL    HW1 1274   3.274   2.014   0.461
  125SOL    HW2 1275   3.119   2.044   0.420
  126SOL     OW 1276   2.174   4.384   0.751
  126SOL    HW1 1277   2.195   4.363   0.847
  126SOL    HW2 1278   2.135   4.303   0.707
  127SOL     OW 1279   0.598   5.194   6.965
  127SOL    HW1 1280   0.666   5.121   6.963
  127SOL    HW2 1281   0.622   5.264   6.898
  128SOL     OW 1282   5.284   2.515   1.391
  128SOL    HW1 1283   5.294   2.607   1.429
  128SOL    HW2 1284   5.367   2.490   1.342
  129SOL     OW 1285   2.409   3.489   6.092
  129SOL    HW1 1286   2.456   3.456   6.173
  129SOL    HW2 1287   2.474   3.496   6.016
  130SOL     OW 1288   1.571   2.030   4.571
  130SOL    HW1 1289   1.660   2.055   4.610
  130SOL    HW2 1290   1.517   1.982   4.641
  131SOL     OW 1291   4.911   0.963   3.114
  131SOL    HW1 1292   4.902   1.018   3.197
  131SOL    HW2 1293   4.911   0.866   3.138
  132SOL     OW 1294   3.056   3.013   1.660
  132SOL    HW1 1295   3.002   3.068   1.724
  132SOL    HW2 1296   2.997   2.982   1.585
  133SOL     OW 1297   5.368   0.320   4.459
  133SOL    HW1 1298   5.284   0.349   4.414
  133SOL    HW2 1299   5.446   0.341   4.401
  134SOL     OW 1300   6.770   0.490   2.535
  134SOL    HW1 1301   6.739   0.526   2.623
  134SOL    HW2 1302   6.724   0.403   2.516
  135SOL     OW 1303   5.425   3.588   3.586
  135SOL    HW1 1304   5.396   3.661   3.649
  135SOL    HW2 1305   5.352   3.570   3.520
  136SOL     OW 1306   2.279   4.880   6.043
  136SOL    HW1 1307   2.341   4.860   6.119
  136SOL    HW2 1308   2.185   4.864   6.071
  137SOL     OW 1309   5.776   2.519   3.288
  137SOL    HW1 1310   5.732   2.453   3.226
  137SOL    HW2 1311   5.788   2.477   3.378
  138SOL     OW 1312   1.340   4.670   2.434
  138SOL    HW1 1313   1.331   4.721   2.349
  138SOL    HW2 1314   1.410   4.599   2.424
  139SOL     OW 1315   1.533   0.136   5.125
  139SOL    HW1 1316   1.505   0.070   5.195
  139SOL    HW2 1317   1.513   0.099   5.035
  140SOL     OW 1318   1.164   6.144   3.721
  140SOL    HW1 1319   1.217   6.072   3.765
  140SOL    HW2 1320   1.194   6.233   3.755
  141SOL     OW 1321   0.545   2.382   5.209
  141SOL    HW1 1322   0.629   2.327   5.208
  141SOL    HW2 1323   0.558   2.464   5.154
  142SOL     OW 1324   1.386   3.687   1.193
  142SOL    HW1 1325   1.307   3.736   1.230
  142SOL    HW2 1326   1.371   3.669   1.096
  143SOL     OW 1327   5.997   4.296   0.496
  143SOL    HW1 1328   6.028   4.216   0.446
  143SOL    HW2 1329   5.935   4.350   0.439
  144SOL     OW 1330   1.719   4.784   5.962
  144SOL    HW1 1331   1.746   4.784   5.866
  144SOL    HW2 1332   1.684   4.693   5.986
  145SOL     OW 1333   0.487   5.559   0.755
  145SOL    HW1 1334   0.557   5.602   0.812
  145SOL    HW2 1335   0.486   5.602   0.665
  146SOL     OW 1336   4.812   0.575   6.190
  146SOL    HW1 1337   4.843   0.612   6.103
  146SOL    HW2 1338   4.738   0.510   6.175
  147SOL     OW 1339   5.744   3.267   0.054
  147SOL    HW1 1340   5.800   3.271   6.989
  147SOL    HW2 1341   5.648   3.279   0.029
  148SOL     OW 1342   6.775   5.553   0.461
  148SOL    HW1 1343   6.719   5.618   0.409
  148SOL    HW2 1344   6.864   5.593   0.480
  149SOL     OW 1345   3.774   2.181   4.102
  149SOL    HW1 1346   3.675   2.168   4.109
  149SOL    HW2 1347   3.793   2.270   4.060
  150SOL     OW 1348   5.874   6.872   0.917
  150SOL    HW1 1349   5.923   6.811   0.979
  150SOL    HW2 1350   5.939   6.935   0.875
  151SOL     OW 1351   3.188   2.785   1.129
  151SOL    HW1 1352   3.157   2.750   1.217
  151SOL    HW2 1353   3.153   2.727   1.056
  152SOL     OW 1354   0.340   0.735   1.755
  152SOL    HW1 1355   0.292   0.728   1.668
  152SOL    HW2 1356   0.390   0.650   1.772
  153SOL     OW 1357   2.840   0.947   2.878
  153SOL    HW1 1358   2.817   0.899   2.794
  153SOL    HW2 1359   2.931   0.919   2.909
  154SOL     OW 1360   0.524   2.936   2.053
  154SOL    HW1 1361   0.535   2.923   1.955
  154SOL    HW2 1362   0.527   3.034   2.074
  155SOL     OW 1363   0.538   1.743   3.888
  155SOL    HW1 1364   0.595   1.803   3.944
  155SOL    HW2 1365   0.454   1.791   3.862
  156SOL     OW 1366   6.679   1.508   0.380
  156SOL    HW1 1367   6.689   1.607   0.377
  156SOL    HW2 1368   6.765   1.465   0.349
  157SOL     OW 1369   5.143   3.719   2.012
  157SOL    HW1 1370   5.134   3.819   2.016
  157SOL    HW2 1371   5.235   3.695   1.981
  158SOL     OW 1372   2.072   4.364   2.445
  158SOL    HW1 1373   2.136   4.301   2.489
  158SOL    HW2 1374   2.047   4.328   2.355
  159SOL     OW 1375   4.760   4.149   2.503
  159SOL    HW1 1376   4.729   4.219   2.438
  159SOL    HW2 1377   4.803   4.194   2.581
  160SOL     OW 1378   5.224   5.631   0.933
  160SOL    HW1 1379   5.255   5.565   1.002
  160SOL    HW2 1380   5.296   5.698   0.917
  161SOL     OW 1381   1.688   6.225   3.979
  161SOL    HW1 1382   1.746   6.273   3.914
  161SOL    HW2 1383   1.717   6.247   4.072
  162SOL     OW 1384   3.577   6.206   0.416
  162SOL    HW1 1385   3.648   6.276   0.409
  162SOL    HW2 1386   3.571   6.174   0.511
  163SOL     OW 1387   5.875   5.605   1.249
  163SOL    HW1 1388   5.867   5.580   1.346
  163SOL    HW2 1389   5.851   5.702   1.238
  164SOL     OW 1390   0.117   4.150   1.827
  164SOL    HW1 1391   0.054   4.090   1.875
  164SOL    HW2 1392   0.076   4.182   1.742
  165SOL     OW 1393   5.066   3.468   1.527
  165SOL    HW1 1394   5.112   3.380   1.516
  165SOL    HW2 1395   5.004   3.484   1.450
  166SOL     OW 1396   0.998   3.717   2.679
  166SOL    HW1 1397   1.025   3.621   2.689
  166SOL    HW2 1398   0.899   3.725   2.683
  167SOL     OW 1399   5.259   2.818   0.055
  167SOL    HW1 1400   5.228   2.815   6.978
  167SOL    HW2 1401   5.218   2.742   0.105
  168SOL     OW 1402   3.233   3.439   1.399
  168SOL    HW1 1403   3.257   3.342   1.389
  168SOL    HW2 1404   3.172   3.465   1.324
  169SOL     OW 1405   5.393   2.159   1.808
  169SOL    HW1 1406   5.313   2.104   1.827
  169SOL    HW2 1407   5.382   2.205   1.720
  170SOL     OW 1408   0.795   0.624   2.928
  170SOL    HW1 1409   0.772   0.706   2.979
  170SOL    HW2 1410   0.811   0.647   2.832
  171SOL     OW 1411   3.116   4.890   6.704
  171SOL    HW1 1412   3.120   4.904   6.605
  171SOL    HW2 1413   3.118   4.792   6.724
  172SOL     OW 1414   6.730   1.399   2.873
  172SOL    HW1 1415   6.674   1.434   2.949
  172SOL    HW2 1416   6.698   1.439   2.787
  173SOL     OW 1417   5.426   1.694   4.258
  173SOL    HW1 1418   5.463   1.707   4.166
  173SOL    HW2 1419   5.490   1.732   4.325
  174SOL     OW 1420   4.081   5.329   3.743
  174SOL    HW1 1421   4.151   5.376   3.797
  174SOL    HW2 1422   4.111   5.236   3.722
  175SOL     OW 1423   3.441   0.293   1.823
  175SOL    HW1 1424   3.379   0.303   1.900
  175SOL    HW2 1425   3.400   0.333   1.741
  176SOL     OW 1426   0.308   4.429   0.870
  176SOL    HW1 1427   0.253   4.508   0.843
  176SOL    HW2 1428   0.404   4.456   0.880
  177SOL     OW 1429   5.060   2.665   2.673
  177SOL    HW1 1430   5.154   2.697   2.686
  177SOL    HW2 1431   5.005   2.739   2.635
  178SOL     OW 1432   2.368   3.234   6.439
  178SOL    HW1 1433   2.294   3.293   6.406
  178SOL    HW2 1434   2.456   3.270   6.407
  179SOL     OW 1435   3.984   1.633   5.272
  179SOL    HW1 1436   3.914   1.701   5.252
  179SOL    HW2 1437   3.951   1.543   5.244
  180SOL     OW 1438   2.290   6.898   0.069
  180SOL    HW1 1439   2.309   6.970   0.002
  180SOL    HW2 1440   2.198   6.910   0.105
  181SOL     OW 1441   3.357   3.374   6.272
  181SOL    HW1 1442   3.398   3.374   6.180
  181SOL    HW2 1443   3.408   3.437   6.331
  182SOL     OW 1444   3.491   1.977   5.501
  182SOL    HW1 1445   3.470   1.897   5.557
  182SOL    HW2 1446   3.406   2.019   5.470
  183SOL     OW 1447   3.885   2.185   3.245
  183SOL    HW1 1448   3.958   2.232   3.195
  183SOL    HW2 1449   3.856   2.104   3.194
  184SOL     OW 1450   0.855   6.634   4.819
  184SOL    HW1 1451   0.817   6.550   4.855
  184SOL    HW2 1452   0.834   6.710   4.881
  185SOL     OW 1453   1.139   1.164   6.073
  185SOL    HW1 1454   1.056   1.109   6.077
  185SOL    HW2 1455   1.136   1.223   5.992
  186SOL     OW 1456   5.592   0.278   4.297
  186SOL    HW1 1457   5.578   0.297   4.200
  186SOL    HW2 1458   5.666   0.212   4.307
  187SOL     OW 1459   4.771   0.276   2.341
  187SOL    HW1 1460   4.700   0.277   2.271
  187SOL    HW2 1461   4.852   0.229   2.305
  188SOL     OW 1462   0.886   2.443   3.448
  188SOL    HW1 1463   0.978   2.414   3.422
  188SOL    HW2 1464   0.823   2.426   3.373
  189SOL     OW 1465   2.433   5.257   1.555
  189SOL    HW1 1466   2.499   5.269   1.629
  189SOL    HW2 1467   2.387   5.168   1.566
  190SOL     OW 1468   5.449   2.672   4.956
  190SOL    HW1 1469   5.438   2.605   4.883
  190SOL    HW2 1470   5.463   2.624   5.043
  191SOL     OW 1471   5.682   0.512   0.115
  191SOL    HW1 1472   5.621   0.443   0.155
  191SOL    HW2 1473   5.744   0.468   0.051
  192SOL     OW 1474   1.114   5.508   1.688
  192SOL    HW1 1475   1.034   5.469   1.643
  192SOL    HW2 1476   1.104   5.607   1.694
  193SOL     OW 1477   4.479   3.655   5.305
  193SOL    HW1 1478   4.398   3.609   5.269
  193SOL    HW2 1479   4.550   3.659   5.234
  194SOL     OW 1480   4.325   1.216   3.237
  194SOL    HW1 1481   4.423   1.198   3.240
  194SOL    HW2 1482   4.275   1.142   3.282
  195SOL     OW 1483   1.830   0.219   5.174
  195SOL    HW1 1484   1.802   0.262   5.260
  195SOL    HW2 1485   1.750   0.181   5.127
  196SOL     OW 1486   2.280   0.677   1.077
  196SOL    HW1 1487   2.270   0.635   0.986
  196SOL    HW2 1488   2.376   0.701   1.092
  197SOL     OW 1489   2.747   0.185   1.381
  197SOL    HW1 1490   2.652   0.212   1.398
  197SOL    HW2 1491   2.766   0.100   1.430
  198SOL     OW 1492   5.286   0.462   1.515
  198SOL    HW1 1493   5.290   0.531   1.442
  198SOL    HW2 1494   5.375   0.417   1.524
  199SOL     OW 1495   0.243   1.548   3.843
  199SOL    HW1 1496   0.187   1.538   3.761
  199SOL    HW2 1497   0.327   1.495   3.833
  200SOL     OW 1498   0.974   4.165   1.794
  200SOL    HW1 1499   1.002   4.198   1.885
  200SOL    HW2 1500   0.919   4.235   1.749
  201SOL     OW 1501   6.489   6.933   5.666
  201SOL    HW1 1502   6.404   6.956   5.712
  201SOL    HW2 1503   6.474   6.859   5.601
  202SOL     OW 1504   4.515   1.089   7.012
  202SOL    HW1 1505   4.605   1.110   0.031
  202SOL    HW2 1506   4.491   1.156   6.942
  203SOL     OW 1507   5.253   2.366   5.037
  203SOL    HW1 1508   5.250   2.449   5.092
  203SOL    HW2 1509   5.183   2.371   4.965
  204SOL     OW 1510   0.564   0.632   5.713
  204SOL    HW1 1511   0.468   0.620   5.739
  204SOL    HW2 1512   0.592   0.727   5.729
  205SOL     OW 1513   0.620   1.259   2.727
  205SOL    HW1 1514   0.612   1.194   2.803
  205SOL    HW2 1515   0.543   1.247   2.665
  206SOL     OW 1516   0.317   4.172   0.988
  206SOL    HW1 1517   0.305   4.258   0.939
  206SOL    HW2 1518   0.249   4.106   0.955
  207SOL     OW 1519   5.951   1.717   3.332
  207SOL    HW1 1520   5.871   1.713   3.273
  207SOL    HW2 1521   5.936   1.785   3.404
  208SOL     OW 1522   6.107   3.045   5.011
  208SOL    HW1 1523   6.132   3.097   4.929
  208SOL    HW2 1524   6.009   3.055   5.027
  209SOL     OW 1525   0.473   4.638   3.789
  209SOL    HW1 1526   0.487   4.650   3.691
  209SOL    HW2 1527   0.543   4.577   3.826
  210SOL     OW 1528   4.166   2.346   0.866
  210SOL    HW1 1529   4.106   2.426   0.869
  210SOL    HW2 1530   4.220   2.342   0.950
  211SOL     OW 1531   2.036   5.980   2.858
  211SOL    HW1 1532   2.102   5.913   2.892
  211SOL    HW2 1533   1.964   5.994   2.925
  212SOL     OW 1534   1.499   4.038   1.827
  212SOL    HW1 1535   1.494   4.120   1.884
  212SOL    HW2 1536   1.526   3.960   1.883
  213SOL     OW 1537   3.240   0.851   0.329
  213SOL    HW1 1538   3.262   0.842   0.232
  213SOL    HW2 1539   3.154   0.804   0.348
  214SOL     OW 1540   4.549   4.738   1.606
  214SOL    HW1 1541   4.540   4.649   1.563
  214SOL    HW2 1542   4.458   4.776   1.624
  215SOL     OW 1543   2.387   4.039   0.673
  215SOL    HW1 1544   2.433   3.951   0.683
  215SOL    HW2 1545   2.399   4.073   0.579
  216SOL     OW 1546   2.191   6.012   3.961
  216SOL    HW1 1547   2.178   6.103   4.001
  216SOL    HW2 1548   2.263   5.964   4.011
  217SOL     OW 1549   1.078   2.269   3.685
  217SOL    HW1 1550   1.040   2.359   3.703
  217SOL    HW2 1551   1.011   2.198   3.708
  218SOL     OW 1552   0.348   3.770   4.591
  218SOL    HW1 1553   0.254   3.748   4.563
  218SOL    HW2 1554   0.401   3.685   4.595
  219SOL     OW 1555   4.571   0.037   6.481
  219SOL    HW1 1556   4.661   0.078   6.465
  219SOL    HW2 1557   4.502   0.089   6.431
  220SOL     OW 1558   2.738   0.059   1.114
  220SOL    HW1 1559   2.788   0.113   1.045
  220SOL    HW2 1560   2.725   0.114   1.196
  221SOL     OW 1561   0.206   3.143   0.827
  221SOL    HW1 1562   0.206   3.214   0.897
  221SOL    HW2 1563   0.298   3.130   0.791
  222SOL     OW 1564   1.766   5.301   5.641
  222SOL    HW1 1565   1.826   5.380   5.656
  222SOL    HW2 1566   1.671   5.329   5.654
  223SOL     OW 1567   5.980   3.202   6.715
  223SOL    HW1 1568   5.887   3.230   6.740
  223SOL    HW2 1569   6.041   3.281   6.721
  224SOL     OW 1570   2.235   1.179   4.617
  224SOL    HW1 1571   2.225   1.278   4.618
  224SOL    HW2 1572   2.165   1.137   4.675
  225SOL     OW 1573   4.222   3.199   6.147
  225SOL    HW1 1574   4.299   3.232   6.093
  225SOL    HW2 1575   4.136   3.220   6.100
  226SOL     OW 1576   2.154   1.073   5.778
  226SOL    HW1 1577   2.196   1.064   5.868
  226SOL    HW2 1578   2.109   1.162   5.771
  227SOL     OW 1579   1.549   3.771   2.234
  227SOL    HW1 1580   1.580   3.689   2.281
  227SOL    HW2 1581   1.518   3.838   2.301
  228SOL     OW 1582   2.944   6.489   3.889
  228SOL    HW1 1583   3.011   6.429   3.846
  228SOL    HW2 1584   2.858   6.439   3.902
  229SOL     OW 1585   5.771   5.925   6.832
  229SOL    HW1 1586   5.712   5.868   6.890
  229SOL    HW2 1587   5.789   6.011   6.879
  230SOL     OW 1588   3.228   5.412   4.142
  230SOL    HW1 1589   3.305   5.401   4.079
  230SOL    HW2 1590   3.154   5.351   4.116
  231SOL     OW 1591   6.141   2.047   5.854
  231SOL    HW1 1592   6.087   2.088   5.927
  231SOL    HW2 1593   6.236   2.080   5.860
  232SOL     OW 1594   0.808   3.021   6.621
  232SOL    HW1 1595   0.790   2.936   6.570
  232SOL    HW2 1596   0.774   3.012   6.715
  233SOL     OW 1597   2.901   1.455   2.821
  233SOL    HW1 1598   2.973   1.424   2.883
  233SOL    HW2 1599   2.833   1.506   2.872
  234SOL     OW 1600   5.143   0.587   5.577
  234SOL    HW1 1601   5.172   0.682   5.588
  234SOL    HW2 1602   5.084   0.579   5.497
  235SOL     OW 1603   3.570   2.480   1.495
  235SOL    HW1 1604   3.539   2.470   1.589
  235SOL    HW2 1605   3.592   2.390   1.457
  236SOL     OW 1606   4.992   3.146   6.589
  236SOL    HW1 1607   4.951   3.211   6.525
  236SOL    HW2 1608   5.057   3.088   6.541
  237SOL     OW 1609   6.186   4.497   1.681
  237SOL    HW1 1610   6.142   4.506   1.771
  237SOL    HW2 1611   6.282   4.474   1.693
  238SOL     OW 1612   4.731   2.160   0.584
  238SOL    HW1 1613   4.665   2.130   0.654
  238SOL    HW2 1614   4.803   2.213   0.628
  239SOL     OW 1615   0.688   5.430   6.771
  239SOL    HW1 1616   0.726   5.520   6.751
  239SOL    HW2 1617   0.607   5.415   6.713
  240SOL     OW 1618   0.243   2.583   3.227
  240SOL    HW1 1619   0.259   2.583   3.128
  240SOL    HW2 1620   0.188   2.503   3.252
  241SOL     OW 1621   2.419   1.093   5.206
  241SOL    HW1 1622   2.328   1.065   5.174
  241SOL    HW2 1623   2.484   1.019   5.190
  242SOL     OW 1624   3.421   3.137   4.718
  242SOL    HW1 1625   3.473   3.189   4.786
  242SOL    HW2 1626   3.395   3.049   4.756
  243SOL     OW 1627   3.921   0.805   5.674
  243SOL    HW1 1628   4.010   0.833   5.711
  243SOL    HW2 1629   3.934   0.753   5.590
  244SOL     OW 1630   6.091   2.868   4.758
  244SOL    HW1 1631   6.035   2.897   4.680
  244SOL    HW2 1632   6.111   2.948   4.815
  245SOL     OW 1633   5.567   4.051   3.864
  245SOL    HW1 1634   5.632   4.072   3.937
  245SOL    HW2 1635   5.595   3.967   3.817
  246SOL     OW 1636   4.558   2.505   3.700
  246SOL    HW1 1637   4.483   2.440   3.711
  246SOL    HW2 1638   4.561   2.567   3.779
  247SOL     OW 1639   3.075   1.677   1.548
  247SOL    HW1 1640   3.036   1.586   1.534
  247SOL    HW2 1641   3.054   1.734   1.468
  248SOL     OW 1642   3.523   1.577   2.690
  248SOL    HW1 1643   3.555   1.583   2.595
  248SOL    HW2 1644   3.555   1.492   2.731
  249SOL     OW 1645   4.578   0.720   5.011
  249SOL    HW1 1646   4.591   0.791   5.080
  249SOL    HW2 1647   4.519   0.754   4.938
  250SOL     OW 1648   4.991   2.640   1.099
  250SOL    HW1 1649   4.900   2.625   1.061
  250SOL    HW2 1650   5.001   2.588   1.184
  251SOL     OW 1651   4.405   4.106   5.929
  251SOL    HW1 1652   4.456   4.154   5.858
  251SOL    HW2 1653   4.307   4.109   5.908
  252SOL     OW 1654   6.659   6.022   0.216
  252SOL    HW1 1655   6.567   5.988   0.194
  252SOL    HW2 1656   6.651   6.107   0.268
  253SOL     OW 1657   2.735   5.477   6.729
  253SOL    HW1 1658   2.813   5.524   6.771
  253SOL    HW2 1659   2.655   5.537   6.734
  254SOL     OW 1660   5.217   2.884   3.702
  254SOL    HW1 1661   5.220   2.876   3.802
  254SOL    HW2 1662   5.266   2.808   3.660
  255SOL     OW 1663   1.764   3.343   4.977
  255SOL    HW1 1664   1.854   3.373   5.008
  255SOL    HW2 1665   1.696   3.413   5.000
  256SOL     OW 1666   6.333   3.890   5.982
  256SOL    HW1 1667   6.337   3.959   5.910
  256SOL    HW2 1668   6.426   3.855   6.000
  257SOL     OW 1669   4.812   6.777   3.285
  257SOL    HW1 1670   4.799   6.875   3.301
  257SOL    HW2 1671   4.748   6.746   3.215
  258SOL     OW 1672   1.930   5.090   4.983
  258SOL    HW1 1673   1.986   5.012   4.956
  258SOL    HW2 1674   1.979   5.174   4.964
  259SOL     OW 1675   0.663   2.061   2.022
  259SOL    HW1 1676   0.637   2.040   2.116
  259SOL    HW2 1677   0.674   2.160   2.011
  260SOL     OW 1678   4.608   1.095   0.960
  260SOL    HW1 1679   4.539   1.118   1.029
  260SOL    HW2 1680   4.678   1.036   1.000
  261SOL     OW 1681   6.748   3.474   0.815
  261SOL    HW1 1682   6.661   3.517   0.841
  261SOL    HW2 1683   6.739   3.432   0.725
  262SOL     OW 1684   6.920   3.918   0.499
  262SOL    HW1 1685   6.987   3.867   0.553
  262SOL    HW2 1686   6.925   4.015   0.522
  263SOL     OW 1687   1.250   0.782   3.550
  263SOL    HW1 1688   1.292   0.773   3.460
  263SOL    HW2 1689   1.280   0.868   3.592
  264SOL     OW 1690   5.722   3.292   6.713
  264SOL    HW1 1691   5.735   3.303   6.614
  264SOL    HW2 1692   5.668   3.368   6.748
  265SOL     OW 1693   4.960   5.561   2.576
  265SOL    HW1 1694   4.862   5.540   2.565
  265SOL    HW2 1695   5.013   5.496   2.522
  266SOL     OW 1696   3.153   3.135   5.575
  266SOL    HW1 1697   3.172   3.157   5.479
  266SOL    HW2 1698   3.108   3.213   5.618
  267SOL     OW 1699   0.594   1.369   6.542
  267SOL    HW1 1700   0.496   1.352   6.548
  267SOL    HW2 1701   0.644   1.283   6.558
  268SOL     OW 1702   3.716   0.730   5.824
  268SOL    HW1 1703   3.800   0.740   5.771
  268SOL    HW2 1704   3.688   0.819   5.860
  269SOL     OW 1705   1.033   3.867   2.014
  269SOL    HW1 1706   0.969   3.885   1.940
  269SOL    HW2 1707   1.118   3.829   1.977
  270SOL     OW 1708   0.226   0.071   0.285
  270SOL    HW1 1709   0.201   0.006   0.214
  270SOL    HW2 1710   0.297   0.133   0.250
  271SOL     OW 1711   1.060   1.503   6.866
  271SOL    HW1 1712   1.068   1.442   6.944
  271SOL    HW2 1713   0.979   1.562   6.877
  272SOL     OW 1714   3.315   5.247   4.357
  272SOL    HW1 1715   3.280   5.322   4.301
  272SOL    HW2 1716   3.239   5.191   4.390
  273SOL     OW 1717   2.231   4.151   4.603
  273SOL    HW1 1718   2.220   4.196   4.691
  273SOL    HW2 1719   2.209   4.053   4.612
  274SOL     OW 1720   4.262   1.775   2.943
  274SOL    HW1 1721   4.311   1.690   2.924
  274SOL    HW2 1722   4.169   1.768   2.907
  275SOL     OW 1723   6.097   4.803   5.395
  275SOL    HW1 1724   6.042   4.720   5.395
  275SOL    HW2 1725   6.078   4.856   5.477
  276SOL     OW 1726   0.308   5.964   2.385
  276SOL    HW1 1727   0.262   6.048   2.414
  276SOL    HW2 1728   0.322   5.965   2.286
  277SOL     OW 1729   1.214   3.909   0.787
  277SOL    HW1 1730   1.305   3.948   0.803
  277SOL    HW2 1731   1.148   3.983   0.772
  278SOL     OW 1732   6.032   5.063   2.046
  278SOL    HW1 1733   6.059   5.054   1.950
  278SOL    HW2 1734   6.079   4.993   2.100
  279SOL     OW 1735   6.323   2.738   4.430
  279SOL    HW1 1736   6.348   2.730   4.334
  279SOL    HW2 1737   6.278   2.826   4.446
  280SOL     OW 1738   3.211   0.220   3.351
  280SOL    HW1 1739   3.154   0.181   3.424
  280SOL    HW2 1740   3.164   0.212   3.264
  281SOL     OW 1741   2.841   4.784   2.419
  281SOL    HW1 1742   2.816   4.878   2.444
  281SOL    HW2 1743   2.837   4.774   2.319
  282SOL     OW 1744   3.394   1.428   5.532
  282SOL    HW1 1745   3.323   1.480   5.580
  282SOL    HW2 1746   3.352   1.375   5.458
  283SOL     OW 1747   6.532   1.663   5.990
  283SOL    HW1 1748   6.446   1.650   5.940
  283SOL    HW2 1749   6.519   1.638   6.086
  284SOL     OW 1750   1.196   3.864   4.245
  284SOL    HW1 1751   1.293   3.869   4.268
  284SOL    HW2 1752   1.146   3.935   4.295
  285SOL     OW 1753   6.153   4.618   5.680
  285SOL    HW1 1754   6.070   4.597   5.628
  285SOL    HW2 1755   6.131   4.685   5.751
  286SOL     OW 1756   3.579   5.940   5.149
  286SOL    HW1 1757   3.539   5.849   5.146
  286SOL    HW2 1758   3.595   5.973   5.055
  287SOL     OW 1759   0.038   4.505   6.924
  287SOL    HW1 1760   0.040   4.572   6.997
  287SOL    HW2 1761   6.963   4.497   6.888
  288SOL     OW 1762   3.296   1.887   5.891
  288SOL    HW1 1763   3.237   1.917   5.966
  288SOL    HW2 1764   3.381   1.939   5.893
  289SOL     OW 1765   0.132   4.752   4.884
  289SOL    HW1 1766   0.081   4.696   4.949
  289SOL    HW2 1767   0.203   4.803   4.933
  290SOL     OW 1768   5.868   2.173   4.244
  290SOL    HW1 1769   5.943   2.161   4.180
  290SOL    HW2 1770   5.785   2.199   4.195
  291SOL     OW 1771   1.842   2.350   4.542
  291SOL    HW1 1772   1.792   2.350   4.629
  291SOL    HW2 1773   1.852   2.256   4.509
  292SOL     OW 1774   1.505   1.849   2.996
  292SOL    HW1 1775   1.414   1.887   3.015
  292SOL    HW2 1776   1.574   1.919   3.013
  293SOL     OW 1777   4.294   4.820   1.688
  293SOL    HW1 1778   4.312   4.839   1.785
  293SOL    HW2 1779   4.208   4.770   1.680
  294SOL     OW 1780   6.511   5.369   6.815
  294SOL    HW1 1781   6.452   5.434   6.863
  294SOL    HW2 1782   6.469   5.343   6.728
  295SOL     OW 1783   2.878   1.882   4.454
  295SOL    HW1 1784   2.948   1.812   4.443
  295SOL    HW2 1785   2.922   1.970   4.476
  296SOL     OW 1786   4.939   1.781   3.107
  296SOL    HW1 1787   4.990   1.862   3.078
  296SOL    HW2 1788   5.003   1.708   3.132
  297SOL     OW 1789   2.306   4.446   2.848
  297SOL    HW1 1790   2.313   4.420   2.751
  297SOL    HW2 1791   2.340   4.539   2.861
  298SOL     OW 1792   3.604   6.539   0.830
  298SOL    HW1 1793   3.525   6.577   0.783
  298SOL    HW2 1794   3.688   6.583   0.797
  299SOL     OW 1795   4.140   3.883   6.741
  299SOL    HW1 1796   4.099   3.972   6.757
  299SOL    HW2 1797   4.210   3.865   6.811
  300SOL     OW 1798   6.007   1.004   1.500
  300SOL    HW1 1799   5.936   0.999   1.571
  300SOL    HW2 1800   6.025   1.100   1.479
  301SOL     OW 1801   5.307   3.315   1.476
  301SOL    HW1 1802   5.358   3.393   1.512
  301SOL    HW2 1803   5.339   3.231   1.520
  302SOL     OW 1804   0.453   0.595   3.627
  302SOL    HW1 1805   0.476   0.691   3.611
  302SOL    HW2 1806   0.527   0.537   3.595
  303SOL     OW 1807   6.137   6.987   1.382
  303SOL    HW1 1808   6.163   6.971   1.287
  303SOL    HW2 1809   6.156   0.065   1.406
  304SOL     OW 1810   2.477   0.620   4.353
  304SOL    HW1 1811   2.575   0.603   4.354
  304SOL    HW2 1812   2.451   0.662   4.266
  305SOL     OW 1813   0.887   3.078   0.490
  305SOL    HW1 1814   0.947   3.044   0.418
  305SOL    HW2 1815   0.838   3.002   0.533
  306SOL     OW 1816   2.084   0.552   3.926
  306SOL    HW1 1817   2.106   0.616   3.999
  306SOL    HW2 1818   1.987   0.528   3.930
  307SOL     OW 1819   5.241   6.849   0.617
  307SOL    HW1 1820   5.273   6.934   0.659
  307SOL    HW2 1821   5.191   6.794   0.685
  308SOL     OW 1822   5.750   3.178   5.271
  308SOL    HW1 1823   5.835   3.186   5.219
  308SOL    HW2 1824   5.675   3.217   5.218
  309SOL     OW 1825   3.519   5.175   6.923
  309SOL    HW1 1826   3.449   5.114   6.962
  309SOL    HW2 1827   3.492   5.270   6.938
  310SOL     OW 1828   6.296   0.124   5.115
  310SOL    HW1 1829   6.276   0.118   5.213
  310SOL    HW2 1830   6.395   0.128   5.102
  311SOL     OW 1831   5.399   4.615   2.626
  311SOL    HW1 1832   5.460   4.599   2.548
  311SOL    HW2 1833   5.304   4.608   2.596
  312SOL     OW 1834   4.238   1.364   5.738
  312SOL    HW1 1835   4.216   1.461   5.748
  312SOL    HW2 1836   4.243   1.322   5.828
  313SOL     OW 1837   3.316   3.935   1.998
  313SOL    HW1 1838   3.340   3.851   2.047
  313SOL    HW2 1839   3.265   3.996   2.059
  314SOL     OW 1840   3.799   4.997   6.653
  314SOL    HW1 1841   3.787   5.017   6.751
  314SOL    HW2 1842   3.891   5.023   6.625
  315SOL     OW 1843   1.447   2.659   3.678
  315SOL    HW1 1844   1.479   2.603   3.602
  315SOL    HW2 1845   1.390   2.734   3.643
  316SOL     OW 1846   3.091   1.520   3.445
  316SOL    HW1 1847   2.996   1.552   3.446
  316SOL    HW2 1848   3.143   1.574   3.379
  317SOL     OW 1849   0.448   0.556   1.022
  317SOL    HW1 1850   0.427   0.587   0.929
  317SOL    HW2 1851   0.382   0.595   1.086
  318SOL     OW 1852   1.138   6.153   6.930
  318SOL    HW1 1853   1.142   6.246   6.892
  318SOL    HW2 1854   1.178   6.089   6.864
  319SOL     OW 1855   6.887   0.382   3.860
  319SOL    HW1 1856   6.865   0.431   3.945
  319SOL    HW2 1857   6.883   0.284   3.876
  320SOL     OW 1858   6.027   2.333   0.463
  320SOL    HW1 1859   6.091   2.382   0.403
  320SOL    HW2 1860   6.060   2.240   0.478
  321SOL     OW 1861   4.061   1.534   0.302
  321SOL    HW1 1862   4.070   1.582   0.390
  321SOL    HW2 1863   4.116   1.451   0.304
  322SOL     OW 1864   4.048   3.738   4.575
  322SOL    HW1 1865   4.017   3.667   4.639
  322SOL    HW2 1866   4.038   3.828   4.618
  323SOL     OW 1867   1.122   3.059   6.461
  323SOL    HW1 1868   1.093   3.007   6.542
  323SOL    HW2 1869   1.075   3.147   6.460
  324SOL     OW 1870   2.373   1.785   4.432
  324SOL    HW1 1871   2.340   1.702   4.387
  324SOL    HW2 1872   2.470   1.774   4.455
  325SOL     OW 1873   1.031   2.807   1.552
  325SOL    HW1 1874   1.041   2.863   1.634
  325SOL    HW2 1875   1.095   2.838   1.482
  326SOL     OW 1876   0.804   5.034   6.871
  326SOL    HW1 1877   0.873   5.105   6.887
  326SOL    HW2 1878   0.833   4.949   6.916
  327SOL     OW 1879   1.506   5.115   3.504
  327SOL    HW1 1880   1.448   5.111   3.585
  327SOL    HW2 1881   1.583   5.176   3.522
  328SOL     OW 1882   1.346   5.692   1.604
  328SOL    HW1 1883   1.344   5.777   1.550
  328SOL    HW2 1884   1.402   5.705   1.685
  329SOL     OW 1885   3.796   4.106   4.347
  329SOL    HW1 1886   3.834   4.085   4.257
  329SOL    HW2 1887   3.852   4.175   4.392
  330SOL     OW 1888   2.904   0.183   0.927
  330SOL    HW1 1889   2.991   0.195   0.975
  330SOL    HW2 1890   2.882   0.267   0.876
  331SOL     OW 1891   3.936   5.651   0.276
  331SOL    HW1 1892   3.879   5.585   0.325
  331SOL    HW2 1893   4.021   5.666   0.327
  332SOL     OW 1894   2.998   1.862   4.136
  332SOL    HW1 1895   3.021   1.958   4.120
  332SOL    HW2 1896   3.009   1.841   4.233
  333SOL     OW 1897   3.740   6.512   6.084
  333SOL    HW1 1898   3.691   6.560   6.011
  333SOL    HW2 1899   3.760   6.419   6.055
  334SOL     OW 1900   2.664   0.823   1.422
  334SOL    HW1 1901   2.707   0.886   1.358
  334SOL    HW2 1902   2.732   0.757   1.455
  335SOL     OW 1903   3.407   0.019   4.527
  335SOL    HW1 1904   3.507   0.006   4.527
  335SOL    HW2 1905   3.363   6.948   4.520
  336SOL     OW 1906   1.891   0.916   3.841
  336SOL    HW1 1907   1.930   0.825   3.828
  336SOL    HW2 1908   1.806   0.908   3.894
  337SOL     OW 1909   0.013   3.062   0.061
  337SOL    HW1 1910   0.111   3.079   0.072
  337SOL    HW2 1911   6.979   3.123   0.121
  338SOL     OW 1912   2.946   2.691   1.473
  338SOL    HW1 1913   2.944   2.634   1.554
  338SOL    HW2 1914   2.857   2.734   1.459
  339SOL     OW 1915   2.975   0.190   4.479
  339SOL    HW1 1916   3.019   0.139   4.405
  339SOL    HW2 1917   2.957   0.128   4.556
  340SOL     OW 1918   4.790   4.574   5.720
  340SOL    HW1 1919   4.787   4.496   5.657
  340SOL    HW2 1920   4.699   4.613   5.730
  341SOL     OW 1921   6.512   1.338   4.396
  341SOL    HW1 1922   6.536   1.241   4.406
  341SOL    HW2 1923   6.589   1.395   4.425
  342SOL     OW 1924   6.076   3.855   6.895
  342SOL    HW1 1925   6.167   3.816   6.880
  342SOL    HW2 1926   6.082   3.955   6.894
  343SOL     OW 1927   1.659   5.233   0.720
  343SOL    HW1 1928   1.682   5.315   0.774
  343SOL    HW2 1929   1.563   5.236   0.694
  344SOL     OW 1930   1.168   5.017   1.860
  344SOL    HW1 1931   1.134   4.953   1.929
  344SOL    HW2 1932   1.213   5.094   1.906
  345SOL     OW 1933   5.765   1.421   3.965
  345SOL    HW1 1934   5.819   1.495   4.006
  345SOL    HW2 1935   5.807   1.333   3.988
  346SOL     OW 1936   1.806   0.639   2.538
  346SOL    HW1 1937   1.793   0.565   2.605
  346SOL    HW2 1938   1.882   0.697   2.568
  347SOL     OW 1939   3.356   5.310   6.015
  347SOL    HW1 1940   3.291   5.380   5.987
  347SOL    HW2 1941   3.332   5.223   5.971
  348SOL     OW 1942   5.486   4.497   1.571
  348SOL    HW1 1943   5.392   4.509   1.603
  348SOL    HW2 1944   5.549   4.531   1.641
  349SOL     OW 1945   0.168   4.234   0.687
  349SOL    HW1 1946   0.248   4.292   0.677
  349SOL    HW2 1947   0.191   4.155   0.744
  350SOL     OW 1948   3.765   2.898   0.685
  350SOL    HW1 1949   3.691   2.860   0.739
  350SOL    HW2 1950   3.837   2.829   0.673
  351SOL     OW 1951   2.055   2.321   0.021
  351SOL    HW1 1952   2.080   2.224   0.018
  351SOL    HW2 1953   2.073   2.357   0.112
  352SOL     OW 1954   3.586   1.007   4.655
  352SOL    HW1 1955   3.488   1.004   4.637
  352SOL    HW2 1956   3.606   0.957   4.739
  353SOL     OW 1957   2.695   6.430   0.551
  353SOL    HW1 1958   2.629   6.463   0.620
  353SOL    HW2 1959   2.752   6.506   0.520
  354SOL     OW 1960   3.431   2.776   0.082
  354SOL    HW1 1961   3.413   2.874   0.074
  354SOL    HW2 1962   3.426   2.733   7.010
  355SOL     OW 1963   0.310   3.021   3.072
  355SOL    HW1 1964   0.267   2.979   2.992
  355SOL    HW2 1965   0.296   2.961   3.151
  356SOL     OW 1966   3.571   6.377   5.084
  356SOL    HW1 1967   3.505   6.347   5.016
  356SOL    HW2 1968   3.571   6.313   5.161
  357SOL     OW 1969   6.376   6.708   5.224
  357SOL    HW1 1970   6.405   6.722   5.319
  357SOL    HW2 1971   6.429   6.768   5.164
  358SOL     OW 1972   5.145   0.066   1.533
  358SOL    HW1 1973   5.162   0.032   1.625
  358SOL    HW2 1974   5.100   0.155   1.538
  359SOL     OW 1975   1.115   2.087   2.122
  359SOL    HW1 1976   1.066   2.088   2.210
  359SOL    HW2 1977   1.211   2.110   2.137
  360SOL     OW 1978   1.114   6.034   6.444
  360SOL    HW1 1979   1.049   6.031   6.368
  360SOL    HW2 1980   1.206   6.050   6.408
  361SOL     OW 1981   5.623   5.960   3.361
  361SOL    HW1 1982   5.659   5.879   3.407
  361SOL    HW2 1983   5.691   6.033   3.363
  362SOL     OW 1984   3.676   4.019   1.314
  362SOL    HW1 1985   3.589   4.007   1.360
  362SOL    HW2 1986   3.701   3.935   1.266
  363SOL     OW 1987   4.959   4.741   3.652
  363SOL    HW1 1988   4.919   4.820   3.700
  363SOL    HW2 1989   4.889   4.696   3.597
  364SOL     OW 1990   6.292   5.918   6.385
  364SOL    HW1 1991   6.384   5.880   6.392
  364SOL    HW2 1992   6.289   5.988   6.313
  365SOL     OW 1993   5.810   5.007   2.159
  365SOL    HW1 1994   5.754   4.940   2.110
  365SOL    HW2 1995   5.894   5.025   2.108
  366SOL     OW 1996   6.627   0.622   6.996
  366SOL    HW1 1997   6.666   0.549   0.035
  366SOL    HW2 1998   6.547   0.587   6.947
  367SOL     OW 1999   4.921   3.164   1.482
  367SOL    HW1 2000   4.877   3.174   1.393
  367SOL    HW2 2001   4.865   3.106   1.541
  368SOL     OW 2002   6.899   3.568   4.777
  368SOL    HW1 2003   6.866   3.482   4.814
  368SOL    HW2 2004   6.848   3.589   4.693
  369SOL     OW 2005   6.714   5.488   1.889
  369SOL    HW1 2006   6.751   5.431   1.816
  369SOL    HW2 2007   6.628   5.449   1.921
  370SOL     OW 2008   2.757   1.787   5.741
  370SOL    HW1 2009   2.736   1.717   5.672
  370SOL    HW2 2010   2.778   1.873   5.694
  371SOL     OW 2011   2.450   3.412   6.674
  371SOL    HW1 2012   2.432   3.424   6.771
  371SOL    HW2 2013   2.403   3.485   6.623
  372SOL     OW 2014   0.559   0.023   5.620
  372SOL    HW1 2015   0.527   0.080   5.545
  372SOL    HW2 2016   0.517   0.054   5.705
  373SOL     OW 2017   6.122   6.078   5.001
  373SOL    HW1 2018   6.076   6.076   5.090
  373SOL    HW2 2019   6.076   6.143   4.941
  374SOL     OW 2020   2.721   1.748   2.600
  374SOL    HW1 2021   2.693   1.708   2.512
  374SOL    HW2 2022   2.651   1.729   2.669
  375SOL     OW 2023   0.779   4.377   3.650
  375SOL    HW1 2024   0.832   4.349   3.729
  375SOL    HW2 2025   0.718   4.303   3.623
  376SOL     OW 2026   2.062   1.962   4.669
  376SOL    HW1 2027   2.026   1.890   4.728
  376SOL    HW2 2028   2.155   1.940   4.642
  377SOL     OW 2029   0.035   2.939   1.962
  377SOL    HW1 2030   0.119   2.929   1.909
  377SOL    HW2 2031   6.979   2.886   1.919
  378SOL     OW 2032   3.194   3.065   5.322
  378SOL    HW1 2033   3.286   3.042   5.353
  378SOL    HW2 2034   3.197   3.093   5.226
  379SOL     OW 2035   5.926   3.993   1.701
  379SOL    HW1 2036   5.875   4.042   1.772
  379SOL    HW2 2037   5.867   3.978   1.622
  380SOL     OW 2038   3.166   1.451   1.752
  380SOL    HW1 2039   3.234   1.508   1.799
  380SOL    HW2 2040   3.172   1.466   1.654
  381SOL     OW 2041   1.465   4.467   2.674
  381SOL    HW1 2042   1.510   4.482   2.762
  381SOL    HW2 2043   1.382   4.523   2.670
  382SOL     OW 2044   5.302   6.384   5.914
  382SOL    HW1 2045   5.230   6.379   5.983
  382SOL    HW2 2046   5.279   6.457   5.849
  383SOL     OW 2047   5.585   3.209   6.238
  383SOL    HW1 2048   5.647   3.193   6.162
  383SOL    HW2 2049   5.495   3.171   6.216
  384SOL     OW 2050   6.154   5.055   4.416
  384SOL    HW1 2051   6.207   4.971   4.402
  384SOL    HW2 2052   6.217   5.133   4.417
  385SOL     OW 2053   4.360   5.936   5.528
  385SOL    HW1 2054   4.268   5.899   5.539
  385SOL    HW2 2055   4.423   5.885   5.586
  386SOL     OW 2056   3.257   5.933   5.395
  386SOL    HW1 2057   3.271   5.906   5.300
  386SOL    HW2 2058   3.313   6.013   5.415
  387SOL     OW 2059   0.429   6.744   3.028
  387SOL    HW1 2060   0.526   6.768   3.032
  387SOL    HW2 2061   0.396   6.752   2.933
  388SOL     OW 2062   1.939   2.358   4.046
  388SOL    HW1 2063   1.911   2.437   4.101
  388SOL    HW2 2064   1.903   2.274   4.086
  389SOL     OW 2065   4.191   4.130   1.700
  389SOL    HW1 2066   4.151   4.067   1.766
  389SOL    HW2 2067   4.266   4.180   1.744
  390SOL     OW 2068   3.885   1.009   6.835
  390SOL    HW1 2069   3.960   1.075   6.830
  390SOL    HW2 2070   3.811   1.038   6.773
  391SOL     OW 2071   2.165   4.192   5.264
  391SOL    HW1 2072   2.200   4.153   5.349
  391SOL    HW2 2073   2.182   4.130   5.188
  392SOL     OW 2074   1.932   3.490   1.622
  392SOL    HW1 2075   2.022   3.532   1.634
  392SOL    HW2 2076   1.943   3.394   1.596
  393SOL     OW 2077   1.015   4.940   0.150
  393SOL    HW1 2078   0.976   4.965   0.239
  393SOL    HW2 2079   1.000   5.015   0.085
  394SOL     OW 2080   0.264   2.877   0.284
  394SOL    HW1 2081   0.247   2.879   0.383
  394SOL    HW2 2082   0.277   2.970   0.250
  395SOL     OW 2083   5.025   4.826   3.002
  395SOL    HW1 2084   5.122   4.805   3.016
  395SOL    HW2 2085   4.980   4.748   2.958
  396SOL     OW 2086   2.633   2.884   1.607
  396SOL    HW1 2087   2.567   2.837   1.666
  396SOL    HW2 2088   2.602   2.978   1.590
  397SOL     OW 2089   5.447   1.977   6.268
  397SOL    HW1 2090   5.435   1.976   6.367
  397SOL    HW2 2091   5.388   1.907   6.227
  398SOL     OW 2092   1.612   6.692   3.516
  398SOL    HW1 2093   1.519   6.681   3.552
  398SOL    HW2 2094   1.634   6.613   3.458
  399SOL     OW 2095   5.749   6.669   4.637
  399SOL    HW1 2096   5.755   6.636   4.731
  399SOL    HW2 2097   5.659   6.710   4.622
  400SOL     OW 2098   5.797   6.280   6.020
  400SOL    HW1 2099   5.707   6.313   6.048
  400SOL    HW2 2100   5.867   6.346   6.049
  401SOL     OW 2101   5.230   0.145   6.027
  401SOL    HW1 2102   5.227   0.045   6.024
  401SOL    HW2 2103   5.277   0.179   5.945
  402SOL     OW 2104   6.531   0.785   3.352
  402SOL    HW1 2105   6.545   0.876   3.314
  402SOL    HW2 2106   6.445   0.747   3.320
  403SOL     OW 2107   3.706   0.661   5.416
  403SOL    HW1 2108   3.642   0.694   5.485
  403SOL    HW2 2109   3.665   0.584   5.366
  404SOL     OW 2110   1.758   5.072   5.175
  404SOL    HW1 2111   1.661   5.086   5.154
  404SOL    HW2 2112   1.814   5.097   5.096
  405SOL     OW 2113   2.013   3.454   2.972
  405SOL    HW1 2114   2.065   3.389   3.026
  405SOL    HW2 2115   1.973   3.408   2.893
  406SOL     OW 2116   0.499   4.564   4.758
  406SOL    HW1 2117   0.470   4.535   4.849
  406SOL    HW2 2118   0.486   4.489   4.694
  407SOL     OW 2119   1.917   2.261   5.018
  407SOL    HW1 2120   1.890   2.253   4.922
  407SOL    HW2 2121   1.932   2.170   5.056
  408SOL     OW 2122   3.182   2.053   3.099
  408SOL    HW1 2123   3.128   2.082   3.178
  408SOL    HW2 2124   3.140   2.087   3.015
  409SOL     OW 2125   6.439   3.189   1.613
  409SOL    HW1 2126   6.401   3.218   1.701
  409SOL    HW2 2127   6.522   3.241   1.594
  410SOL     OW 2128   1.342   1.733   1.239
  410SOL    HW1 2129   1.293   1.805   1.189
  410SOL    HW2 2130   1.331   1.646   1.190
  411SOL     OW 2131   6.091   0.736   1.668
  411SOL    HW1 2132   6.002   0.691   1.678
  411SOL    HW2 2133   6.087   0.801   1.592
  412SOL     OW 2134   3.154   4.903   3.249
  412SOL    HW1 2135   3.196   4.933   3.334
  412SOL    HW2 2136   3.221   4.908   3.175
  413SOL     OW 2137   4.727   4.405   1.648
  413SOL    HW1 2138   4.775   4.318   1.647
  413SOL    HW2 2139   4.731   4.444   1.740
  414SOL     OW 2140   3.033   6.711   4.037
  414SOL    HW1 2141   2.945   6.744   4.071
  414SOL    HW2 2142   3.017   6.641   3.968
  415SOL     OW 2143   0.320   0.451   0.112
  415SOL    HW1 2144   0.371   0.367   0.128
  415SOL    HW2 2145   0.329   0.512   0.191
  416SOL     OW 2146   5.206   5.114   4.986
  416SOL    HW1 2147   5.269   5.037   4.992
  416SOL    HW2 2148   5.116   5.086   5.020
  417SOL     OW 2149   2.105   1.018   6.514
  417SOL    HW1 2150   2.102   1.107   6.559
  417SOL    HW2 2151   2.101   0.946   6.583
  418SOL     OW 2152   2.623   6.654   5.880
  418SOL    HW1 2153   2.552   6.709   5.837
  418SOL    HW2 2154   2.655   6.699   5.964
  419SOL     OW 2155   0.626   0.380   2.586
  419SOL    HW1 2156   0.699   0.318   2.617
  419SOL    HW2 2157   0.660   0.473   2.584
  420SOL     OW 2158   5.707   1.295   6.179
  420SOL    HW1 2159   5.805   1.290   6.198
  420SOL    HW2 2160   5.685   1.240   6.098
  421SOL     OW 2161   5.940   3.711   5.021
  421SOL    HW1 2162   5.920   3.692   5.117
  421SOL    HW2 2163   6.036   3.691   5.002
  422SOL     OW 2164   5.058   3.075   0.952
  422SOL    HW1 2165   4.976   3.028   0.921
  422SOL    HW2 2166   5.032   3.149   1.015
  423SOL     OW 2167   2.564   1.563   0.010
  423SOL    HW1 2168   2.509   1.638   0.046
  423SOL    HW2 2169   2.640   1.545   0.072
  424SOL     OW 2170   1.867   4.933   2.970
  424SOL    HW1 2171   1.776   4.894   2.960
  424SOL    HW2 2172   1.861   5.019   3.020
  425SOL     OW 2173   5.028   1.655   4.584
  425SOL    HW1 2174   5.022   1.658   4.484
  425SOL    HW2 2175   4.960   1.591   4.620
  426SOL     OW 2176   2.438   2.700   5.140
  426SOL    HW1 2177   2.412   2.795   5.122
  426SOL    HW2 2178   2.451   2.652   5.054
  427SOL     OW 2179   5.974   0.275   3.569
  427SOL    HW1 2180   6.046   0.207   3.583
  427SOL    HW2 2181   5.998   0.333   3.491
  428SOL     OW 2182   3.626   0.585   2.685
  428SOL    HW1 2183   3.589   0.603   2.776
  428SOL    HW2 2184   3.666   0.669   2.648
  429SOL     OW 2185   0.806   5.245   3.860
  429SOL    HW1 2186   0.720   5.253   3.912
  429SOL    HW2 2187   0.822   5.328   3.808
  430SOL     OW 2188   1.271   6.976   3.885
  430SOL    HW1 2189   1.327   6.942   3.961
  430SOL    HW2 2190   1.225   6.900   3.840
  431SOL     OW 2191   2.661   1.991   0.847
  431SOL    HW1 2192   2.709   1.909   0.877
  431SOL    HW2 2193   2.625   1.977   0.755
  432SOL     OW 2194   6.227   2.493   0.699
  432SOL    HW1 2195   6.265   2.474   0.608
  432SOL    HW2 2196   6.128   2.507   0.692
  433SOL     OW 2197   2.504   5.943   6.046
  433SOL    HW1 2198   2.438   5.910   6.114
  433SOL    HW2 2199   2.527   6.038   6.066
  434SOL     OW 2200   4.256   5.817   3.875
  434SOL    HW1 2201   4.202   5.901   3.869
  434SOL    HW2 2202   4.199   5.743   3.908
  435SOL     OW 2203   4.070   2.102   5.504
  435SOL    HW1 2204   4.101   2.028   5.445
  435SOL    HW2 2205   3.997   2.153   5.459
  436SOL     OW 2206   3.594   5.959   2.491
  436SOL    HW1 2207   3.658   6.036   2.494
  436SOL    HW2 2208   3.643   5.875   2.517
  437SOL     OW 2209   0.013   1.135   5.429
  437SOL    HW1 2210   0.072   1.216   5.429
  437SOL    HW2 2211   0.070   1.052   5.433
  438SOL     OW 2212   1.567   3.718   3.862
  438SOL    HW1 2213   1.625   3.799   3.853
  438SOL    HW2 2214   1.522   3.720   3.951
  439SOL     OW 2215   5.990   6.446   2.422
  439SOL    HW1 2216   5.966   6.356   2.456
  439SOL    HW2 2217   5.999   6.443   2.322
  440SOL     OW 2218   3.584   1.730   6.232
  440SOL    HW1 2219   3.519   1.666   6.189
  440SOL    HW2 2220   3.538   1.780   6.304
  441SOL     OW 2221   5.757   4.289   3.223
  441SOL    HW1 2222   5.723   4.207   3.269
  441SOL    HW2 2223   5.856   4.298   3.240
  442SOL     OW 2224   4.665   5.169   5.482
  442SOL    HW1 2225   4.651   5.171   5.383
  442SOL    HW2 2226   4.587   5.124   5.525
  443SOL     OW 2227   5.770   4.104   4.562
  443SOL    HW1 2228   5.756   4.115   4.661
  443SOL    HW2 2229   5.856   4.148   4.536
  444SOL     OW 2230   4.430   1.228   6.778
  444SOL    HW1 2231   4.474   1.223   6.689
  444SOL    HW2 2232   4.339   1.186   6.772
  445SOL     OW 2233   2.116   6.039   3.514
  445SOL    HW1 2234   2.156   6.100   3.583
  445SOL    HW2 2235   2.174   5.958   3.504
  446SOL     OW 2236   3.889   5.637   3.169
  446SOL    HW1 2237   3.899   5.542   3.139
  446SOL    HW2 2238   3.975   5.668   3.210
  447SOL     OW 2239   6.428   3.191   4.991
  447SOL    HW1 2240   6.457   3.268   5.049
  447SOL    HW2 2241   6.437   3.106   5.042
  448SOL     OW 2242   1.849   1.092   2.615
  448SOL    HW1 2243   1.887   1.004   2.587
  448SOL    HW2 2244   1.923   1.152   2.645
  449SOL     OW 2245   2.399   2.207   3.286
  449SOL    HW1 2246   2.483   2.223   3.339
  449SOL    HW2 2247   2.323   2.190   3.348
  450SOL     OW 2248   1.720   4.716   3.424
  450SOL    HW1 2249   1.753   4.622   3.424
  450SOL    HW2 2250   1.726   4.754   3.516
  451SOL     OW 2251   1.589   2.278   4.140
  451SOL    HW1 2252   1.599   2.346   4.212
  451SOL    HW2 2253   1.502   2.293   4.092
  452SOL     OW 2254   3.915   0.583   1.402
  452SOL    HW1 2255   3.940   0.496   1.360
  452SOL    HW2 2256   3.901   0.652   1.331
  453SOL     OW 2257   3.472   6.656   6.403
  453SOL    HW1 2258   3.437   6.630   6.493
  453SOL    HW2 2259   3.466   6.755   6.393
  454SOL     OW 2260   6.796   3.819   6.694
  454SOL    HW1 2261   6.869   3.886   6.712
  454SOL    HW2 2262   6.830   3.727   6.711
  455SOL     OW 2263   6.731   3.325   5.281
  455SOL    HW1 2264   6.645   3.341   5.329
  455SOL    HW2 2265   6.732   3.376   5.195
  456SOL     OW 2266   1.770   0.449   4.484
  456SOL    HW1 2267   1.718   0.370   4.451
  456SOL    HW2 2268   1.777   0.517   4.411
  457SOL     OW 2269   1.072   4.638   4.325
  457SOL    HW1 2270   1.117   4.651   4.413
  457SOL    HW2 2271   0.979   4.604   4.340
  458SOL     OW 2272   3.630   0.790   3.115
  458SOL    HW1 2273   3.708   0.853   3.113
  458SOL    HW2 2274   3.546   0.843   3.125
  459SOL     OW 2275   2.065   0.383   5.473
  459SOL    HW1 2276   2.092   0.397   5.378
  459SOL    HW2 2277   1.966   0.398   5.483
  460SOL     OW 2278   1.411   1.051   4.974
  460SOL    HW1 2279   1.476   1.127   4.977
  460SOL    HW2 2280   1.335   1.074   4.914
  461SOL     OW 2281   6.528   5.133   5.630
  461SOL    HW1 2282   6.487   5.219   5.660
  461SOL    HW2 2283   6.591   5.100   5.700
  462SOL     OW 2284   4.024   3.906   5.056
  462SOL    HW1 2285   3.956   3.915   5.130
  462SOL    HW2 2286   3.978   3.876   4.972
  463SOL     OW 2287   6.599   0.476   2.928
  463SOL    HW1 2288   6.691   0.483   2.890
  463SOL    HW2 2289   6.560   0.387   2.904
  464SOL     OW 2290   3.153   0.353   5.942
  464SOL    HW1 2291   3.059   0.339   5.910
  464SOL    HW2 2292   3.179   0.277   6.001
  465SOL     OW 2293   0.718   2.677   6.721
  465SOL    HW1 2294   0.649   2.631   6.777
  465SOL    HW2 2295   0.806   2.675   6.768
  466SOL     OW 2296   2.581   6.689   4.065
  466SOL    HW1 2297   2.563   6.730   3.976
  466SOL    HW2 2298   2.647   6.746   4.115
  467SOL     OW 2299   0.989   1.884   2.520
  467SOL    HW1 2300   0.920   1.950   2.490
  467SOL    HW2 2301   0.944   1.804   2.560
  468SOL     OW 2302   4.362   6.071   6.072
  468SOL    HW1 2303   4.389   6.152   6.020
  468SOL    HW2 2304   4.296   6.018   6.019
  469SOL     OW 2305   2.860   4.466   5.727
  469SOL    HW1 2306   2.795   4.477   5.651
  469SOL    HW2 2307   2.928   4.398   5.703
  470SOL     OW 2308   3.939   5.763   2.438
  470SOL    HW1 2309   3.892   5.785   2.352
  470SOL    HW2 2310   3.872   5.756   2.512
  471SOL     OW 2311   2.918   2.206   4.003
  471SOL    HW1 2312   2.869   2.245   4.081
  471SOL    HW2 2313   3.004   2.167   4.035
  472SOL     OW 2314   6.010   4.820   6.916
  472SOL    HW1 2315   6.037   4.770   6.834
  472SOL    HW2 2316   5.969   4.756   6.981
  473SOL     OW 2317   6.914   2.080   2.540
  473SOL    HW1 2318   6.850   2.156   2.554
  473SOL    HW2 2319   7.007   2.115   2.531
  474SOL     OW 2320   6.064   4.980   5.589
  474SOL    HW1 2321   6.063   5.029   5.676
  474SOL    HW2 2322   5.989   5.014   5.531
  475SOL     OW 2323   6.341   3.462   6.940
  475SOL    HW1 2324   6.302   3.371   6.933
  475SOL    HW2 2325   6.389   3.472   0.009
  476SOL     OW 2326   0.290   4.100   1.501
  476SOL    HW1 2327   0.319   4.026   1.441
  476SOL    HW2 2328   0.335   4.091   1.590
  477SOL     OW 2329   2.019   5.851   3.848
  477SOL    HW1 2330   2.072   5.927   3.884
  477SOL    HW2 2331   1.965   5.810   3.921
  478SOL     OW 2332   4.314   6.424   3.554
  478SOL    HW1 2333   4.283   6.329   3.546
  478SOL    HW2 2334   4.349   6.439   3.647
  479SOL     OW 2335   3.201   3.364   4.835
  479SOL    HW1 2336   3.160   3.441   4.786
  479SOL    HW2 2337   3.230   3.294   4.769
  480SOL     OW 2338   1.870   0.071   2.437
  480SOL    HW1 2339   1.847   0.142   2.504
  480SOL    HW2 2340   1.938   0.009   2.476
  481SOL     OW 2341   0.889   6.983   1.503
  481SOL    HW1 2342   0.842   0.025   1.438
  481SOL    HW2 2343   0.895   0.011   1.591
  482SOL     OW 2344   4.590   4.783   2.733
  482SOL    HW1 2345   4.585   4.857   2.800
  482SOL    HW2 2346   4.589   4.821   2.641
  483SOL     OW 2347   6.697   2.309   2.584
  483SOL    HW1 2348   6.646   2.283   2.666
  483SOL    HW2 2349   6.689   2.407   2.570
  484SOL     OW 2350   1.610   4.401   4.983
  484SOL    HW1 2351   1.550   4.453   5.044
  484SOL    HW2 2352   1.703   4.401   5.020
  485SOL     OW 2353   5.315   3.487   2.418
  485SOL    HW1 2354   5.412   3.463   2.414
  485SOL    HW2 2355   5.281   3.474   2.511
  486SOL     OW 2356   5.671   1.054   6.599
  486SOL    HW1 2357   5.672   1.139   6.547
  486SOL    HW2 2358   5.736   0.989   6.559
  487SOL     OW 2359   0.819   0.355   2.940
  487SOL    HW1 2360   0.737   0.334   2.993
  487SOL    HW2 2361   0.830   0.454   2.933
  488SOL     OW 2362   1.753   6.875   3.374
  488SOL    HW1 2363   1.732   6.863   3.277
  488SOL    HW2 2364   1.710   6.801   3.426
  489SOL     OW 2365   5.834   5.561   5.095
  489SOL    HW1 2366   5.738   5.537   5.088
  489SOL    HW2 2367   5.854   5.639   5.037
  490SOL     OW 2368   1.735   5.848   4.391
  490SOL    HW1 2369   1.653   5.859   4.446
  490SOL    HW2 2370   1.714   5.867   4.295
  491SOL     OW 2371   0.896   3.279   0.125
  491SOL    HW1 2372   0.894   3.331   0.039
  491SOL    HW2 2373   0.988   3.244   0.140
  492SOL     OW 2374   1.837   1.293   5.966
  492SOL    HW1 2375   1.873   1.204   5.995
  492SOL    HW2 2376   1.757   1.317   6.021
  493SOL     OW 2377   2.562   6.868   5.647
  493SOL    HW1 2378   2.585   6.941   5.711
  493SOL    HW2 2379   2.502   6.903   5.576
  494SOL     OW 2380   2.343   1.400   6.333
  494SOL    HW1 2381   2.309   1.313   6.296
  494SOL    HW2 2382   2.416   1.434   6.274
  495SOL     OW 2383   3.788   6.323   5.313
  495SOL    HW1 2384   3.801   6.364   5.223
  495SOL    HW2 2385   3.862   6.352   5.374
  496SOL     OW 2386   6.413   1.402   2.354
  496SOL    HW1 2387   6.380   1.345   2.430
  496SOL    HW2 2388   6.395   1.356   2.268
  497SOL     OW 2389   3.768   1.299   4.228
  497SOL    HW1 2390   3.742   1.208   4.262
  497SOL    HW2 2391   3.727   1.313   4.137
  498SOL     OW 2392   0.529   4.805   1.948
  498SOL    HW1 2393   0.554   4.813   1.852
  498SOL    HW2 2394   0.497   4.894   1.981
  499SOL     OW 2395   2.061   5.827   5.551
  499SOL    HW1 2396   2.087   5.795   5.460
  499SOL    HW2 2397   2.143   5.835   5.608
  500SOL     OW 2398   5.252   3.006   5.716
  500SOL    HW1 2399   5.162   3.040   5.688
  500SOL    HW2 2400   5.240   2.930   5.780
  501SOL     OW 2401   3.096   0.113   1.884
  501SOL    HW1 2402   3.092   0.158   1.974
  501SOL    HW2 2403   3.021   0.147   1.827
  502SOL     OW 2404   1.017   4.673   6.726
  502SOL    HW1 2405   0.967   4.735   6.666
  502SOL    HW2 2406   1.037   4.588   6.677
  503SOL     OW 2407   1.977   5.227   6.339
  503SOL    HW1 2408   2.067   5.182   6.334
  503SOL    HW2 2409   1.906   5.158   6.325
  504SOL     OW 2410   0.754   5.857   2.051
  504SOL    HW1 2411   0.721   5.815   2.135
  504SOL    HW2 2412   0.684   5.919   2.015
  505SOL     OW 2413   3.983   0.566   4.962
  505SOL    HW1 2414   4.073   0.586   5.000
  505SOL    HW2 2415   3.992   0.496   4.890
  506SOL     OW 2416   2.961   5.877   2.687
  506SOL    HW1 2417   2.915   5.907   2.604
  506SOL    HW2 2418   2.894   5.834   2.748
  507SOL     OW 2419   4.069   0.929   2.389
  507SOL    HW1 2420   3.989   0.909   2.332
  507SOL    HW2 2421   4.098   1.023   2.373
  508SOL     OW 2422   6.659   2.376   3.371
  508SOL    HW1 2423   6.676   2.399   3.467
  508SOL    HW2 2424   6.636   2.459   3.321
  509SOL     OW 2425   4.647   0.682   0.208
  509SOL    HW1 2426   4.725   0.721   0.257
  509SOL    HW2 2427   4.676   0.654   0.116
  510SOL     OW 2428   6.803   4.722   6.008
  510SOL    HW1 2429   6.818   4.724   6.107
  510SOL    HW2 2430   6.705   4.714   5.990
  511SOL     OW 2431   1.307   1.597   6.802
  511SOL    HW1 2432   1.291   1.691   6.773
  511SOL    HW2 2433   1.222   1.557   6.836
  512SOL     OW 2434   5.877   2.784   6.616
  512SOL    HW1 2435   5.876   2.750   6.710
  512SOL    HW2 2436   5.959   2.750   6.570
  513SOL     OW 2437   5.189   6.658   2.536
  513SOL    HW1 2438   5.279   6.675   2.497
  513SOL    HW2 2439   5.177   6.560   2.551
  514SOL     OW 2440   0.083   0.345   4.426
  514SOL    HW1 2441   0.172   0.303   4.411
  514SOL    HW2 2442   0.022   0.322   4.349
  515SOL     OW 2443   2.109   0.372   6.339
  515SOL    HW1 2444   2.156   0.459   6.330
  515SOL    HW2 2445   2.176   0.298   6.343
  516SOL     OW 2446   2.289   4.302   1.888
  516SOL    HW1 2447   2.252   4.331   1.977
  516SOL    HW2 2448   2.338   4.378   1.846
  517SOL     OW 2449   3.276   4.885   2.620
  517SOL    HW1 2450   3.193   4.829   2.624
  517SOL    HW2 2451   3.321   4.871   2.531
  518SOL     OW 2452   2.700   2.013   3.959
  518SOL    HW1 2453   2.779   2.073   3.972
  518SOL    HW2 2454   2.689   1.955   4.040
  519SOL     OW 2455   0.373   6.906   3.378
  519SOL    HW1 2456   0.371   6.810   3.352
  519SOL    HW2 2457   0.280   6.938   3.396
  520SOL     OW 2458   0.897   4.073   6.671
  520SOL    HW1 2459   0.929   4.146   6.731
  520SOL    HW2 2460   0.889   4.107   6.577
  521SOL     OW 2461   4.595   5.711   4.623
  521SOL    HW1 2462   4.686   5.685   4.655
  521SOL    HW2 2463   4.566   5.648   4.551
  522SOL     OW 2464   4.134   3.496   2.016
  522SOL    HW1 2465   4.083   3.419   2.053
  522SOL    HW2 2466   4.202   3.527   2.082
  523SOL     OW 2467   0.172   5.873   1.844
  523SOL    HW1 2468   0.140   5.897   1.935
  523SOL    HW2 2469   0.190   5.775   1.840
  524SOL     OW 2470   0.905   3.120   2.439
  524SOL    HW1 2471   0.834   3.157   2.499
  524SOL    HW2 2472   0.986   3.099   2.493
  525SOL     OW 2473   2.139   4.134   6.634
  525SOL    HW1 2474   2.070   4.085   6.580
  525SOL    HW2 2475   2.187   4.069   6.692
  526SOL     OW 2476   2.916   6.944   3.866
  526SOL    HW1 2477   2.895   6.933   3.963
  526SOL    HW2 2478   2.875   6.868   3.814
  527SOL     OW 2479   0.488   2.600   6.874
  527SOL    HW1 2480   0.497   2.605   6.974
  527SOL    HW2 2481   0.467   2.691   6.838
  528SOL     OW 2482   1.330   2.747   4.161
  528SOL    HW1 2483   1.303   2.687   4.086
  528SOL    HW2 2484   1.353   2.837   4.125
  529SOL     OW 2485   2.029   0.024   5.241
  529SOL    HW1 2486   2.038   0.016   5.341
  529SOL    HW2 2487   1.971   0.102   5.219
  530SOL     OW 2488   3.773   2.915   2.421
  530SOL    HW1 2489   3.697   2.850   2.427
  530SOL    HW2 2490   3.808   2.934   2.513
  531SOL     OW 2491   1.559   0.894   2.816
  531SOL    HW1 2492   1.500   0.841   2.877
  531SOL    HW2 2493   1.630   0.940   2.870
  532SOL     OW 2494   1.505   3.663   0.569
  532SOL    HW1 2495   1.571   3.677   0.643
  532SOL    HW2 2496   1.549   3.679   0.481
  533SOL     OW 2497   4.936   6.781   4.094
  533SOL    HW1 2498   4.892   6.754   4.009
  533SOL    HW2 2499   5.021   6.830   4.075
  534SOL     OW 2500   6.830   6.238   2.349
  534SOL    HW1 2501   6.782   6.158   2.386
  534SOL    HW2 2502   6.767   6.290   2.291
  535SOL     OW 2503   0.183   4.297   3.048
  535SOL    HW1 2504   0.222   4.208   3.072
  535SOL    HW2 2505   0.093   4.283   3.007
  536SOL     OW 2506   6.461   5.169   3.123
  536SOL    HW1 2507   6.401   5.207   3.194
  536SOL    HW2 2508   6.411   5.099   3.072
  537SOL     OW 2509   3.547   6.863   4.106
  537SOL    HW1 2510   3.500   6.785   4.065
  537SOL    HW2 2511   3.615   6.830   4.171
  538SOL     OW 2512   0.956   4.302   4.829
  538SOL    HW1 2513   1.017   4.271   4.755
  538SOL    HW2 2514   0.971   4.245   4.910
  539SOL     OW 2515   1.983   5.673   1.862
  539SOL    HW1 2516   1.964   5.576   1.850
  539SOL    HW2 2517   1.991   5.717   1.773
  540SOL     OW 2518   1.745   0.586   4.015
  540SOL    HW1 2519   1.800   0.664   4.044
  540SOL    HW2 2520   1.656   0.618   3.982
  541SOL     OW 2521   4.832   5.985   3.998
  541SOL    HW1 2522   4.857   6.042   4.077
  541SOL    HW2 2523   4.915   5.960   3.948
  542SOL     OW 2524   3.786   5.934   6.338
  542SOL    HW1 2525   3.748   5.987   6.414
  542SOL    HW2 2526   3.712   5.904   6.278
  543SOL     OW 2527   5.641   3.419   3.551
  543SOL    HW1 2528   5.561   3.476   3.569
  543SOL    HW2 2529   5.691   3.455   3.473
  544SOL     OW 2530   0.511   5.180   0.430
  544SOL    HW1 2531   0.506   5.136   0.520
  544SOL    HW2 2532   0.564   5.265   0.437
  545SOL     OW 2533   4.599   1.465   0.689
  545SOL    HW1 2534   4.619   1.379   0.643
  545SOL    HW2 2535   4.651   1.471   0.774
  546SOL     OW 2536   1.255   3.756   1.855
  546SOL    HW1 2537   1.281   3.812   1.776
  546SOL    HW2 2538   1.289   3.662   1.841
  547SOL     OW 2539   3.033   3.030   0.814
  547SOL    HW1 2540   3.003   3.124   0.831
  547SOL    HW2 2541   3.062   3.022   0.719
  548SOL     OW 2542   3.779   3.791   1.243
  548SOL    HW1 2543   3.865   3.805   1.292
  548SOL    HW2 2544   3.797   3.790   1.145
  549SOL     OW 2545   5.292   2.477   1.814
  549SOL    HW1 2546   5.292   2.576   1.805
  549SOL    HW2 2547   5.241   2.451   1.896
  550SOL     OW 2548   0.969   5.286   3.328
  550SOL    HW1 2549   1.043   5.349   3.352
  550SOL    HW2 2550   1.008   5.198   3.299
  551SOL     OW 2551   6.806   0.231   1.353
  551SOL    HW1 2552   6.763   0.157   1.405
  551SOL    HW2 2553   6.886   0.265   1.403
  552SOL     OW 2554   5.500   4.146   5.278
  552SOL    HW1 2555   5.468   4.111   5.365
  552SOL    HW2 2556   5.578   4.092   5.246
  553SOL     OW 2557   2.793   6.681   3.430
  553SOL    HW1 2558   2.776   6.583   3.434
  553SOL    HW2 2559   2.891   6.698   3.432
  554SOL     OW 2560   5.722   6.468   0.154
  554SOL    HW1 2561   5.655   6.542   0.145
  554SOL    HW2 2562   5.715   6.426   0.244
  555SOL     OW 2563   2.645   5.087   4.754
  555SOL    HW1 2564   2.649   4.994   4.789
  555SOL    HW2 2565   2.687   5.150   4.819
  556SOL     OW 2566   4.810   1.315   4.265
  556SOL    HW1 2567   4.770   1.288   4.178
  556SOL    HW2 2568   4.770   1.402   4.295
  557SOL     OW 2569   6.859   5.122   6.381
  557SOL    HW1 2570   6.784   5.073   6.337
  557SOL    HW2 2571   6.935   5.059   6.397
  558SOL     OW 2572   2.959   3.198   4.239
  558SOL    HW1 2573   3.028   3.204   4.166
  558SOL    HW2 2574   2.974   3.115   4.292
  559SOL     OW 2575   6.756   5.501   5.467
  559SOL    HW1 2576   6.772   5.403   5.475
  559SOL    HW2 2577   6.827   5.551   5.516
  560SOL     OW 2578   6.446   4.141   3.051
  560SOL    HW1 2579   6.487   4.166   3.139
  560SOL    HW2 2580   6.398   4.220   3.013
  561SOL     OW 2581   0.325   2.324   0.300
  561SOL    HW1 2582   0.255   2.290   0.237
  561SOL    HW2 2583   0.282   2.378   0.372
  562SOL     OW 2584   4.043   1.331   6.060
  562SOL    HW1 2585   4.133   1.356   6.096
  562SOL    HW2 2586   4.054   1.263   5.988
  563SOL     OW 2587   1.803   1.425   3.406
  563SOL    HW1 2588   1.817   1.453   3.311
  563SOL    HW2 2589   1.852   1.486   3.467
  564SOL     OW 2590   1.371   2.789   0.349
  564SOL    HW1 2591   1.309   2.733   0.404
  564SOL    HW2 2592   1.444   2.825   0.406
  565SOL     OW 2593   3.201   3.528   3.403
  565SOL    HW1 2594   3.201   3.623   3.370
  565SOL    HW2 2595   3.110   3.489   3.389
  566SOL     OW 2596   1.699   3.473   3.848
  566SOL    HW1 2597   1.641   3.477   3.930
  566SOL    HW2 2598   1.723   3.566   3.820
  567SOL     OW 2599   3.234   2.665   1.428
  567SOL    HW1 2600   3.287   2.715   1.497
  567SOL    HW2 2601   3.137   2.684   1.441
  568SOL     OW 2602   5.103   6.839   0.240
  568SOL    HW1 2603   5.049   6.922   0.226
  568SOL    HW2 2604   5.091   6.806   0.333
  569SOL     OW 2605   0.856   2.816   0.925
  569SOL    HW1 2606   0.846   2.786   1.020
  569SOL    HW2 2607   0.773   2.862   0.896
  570SOL     OW 2608   3.257   0.140   6.410
  570SOL    HW1 2609   3.168   0.169   6.444
  570SOL    HW2 2610   3.329   0.193   6.455
  571SOL     OW 2611   3.045   5.203   4.056
  571SOL    HW1 2612   2.946   5.209   4.058
  571SOL    HW2 2613   3.078   5.220   3.963
  572SOL     OW 2614   1.969   4.888   5.345
  572SOL    HW1 2615   1.879   4.911   5.309
  572SOL    HW2 2616   2.033   4.963   5.325
  573SOL     OW 2617   5.955   1.250   6.236
  573SOL    HW1 2618   5.993   1.273   6.326
  573SOL    HW2 2619   6.024   1.266   6.166
  574SOL     OW 2620   3.829   0.447   5.174
  574SOL    HW1 2621   3.902   0.478   5.113
  574SOL    HW2 2622   3.854   0.360   5.215
  575SOL     OW 2623   4.210   2.776   1.703
  575SOL    HW1 2624   4.142   2.839   1.741
  575SOL    HW2 2625   4.164   2.705   1.650
  576SOL     OW 2626   1.111   3.373   3.066
  576SOL    HW1 2627   1.162   3.339   3.145
  576SOL    HW2 2628   1.174   3.388   2.990
  577SOL     OW 2629   1.548   0.916   2.295
  577SOL    HW1 2630   1.466   0.858   2.289
  577SOL    HW2 2631   1.571   0.932   2.390
  578SOL     OW 2632   0.548   5.024   4.952
  578SOL    HW1 2633   0.623   4.978   4.905
  578SOL    HW2 2634   0.503   5.087   4.890
  579SOL     OW 2635   1.695   4.203   3.114
  579SOL    HW1 2636   1.726   4.134   3.049
  579SOL    HW2 2637   1.762   4.277   3.118
  580SOL     OW 2638   3.987   5.313   5.527
  580SOL    HW1 2639   3.957   5.221   5.552
  580SOL    HW2 2640   3.952   5.379   5.593
  581SOL     OW 2641   2.122   3.323   2.223
  581SOL    HW1 2642   2.196   3.385   2.194
  581SOL    HW2 2643   2.119   3.244   2.161
  582SOL     OW 2644   4.282   5.435   2.850
  582SOL    HW1 2645   4.324   5.348   2.824
  582SOL    HW2 2646   4.303   5.504   2.781
  583SOL     OW 2647   2.834   6.317   5.322
  583SOL    HW1 2648   2.910   6.274   5.370
  583SOL    HW2 2649   2.811   6.262   5.241
  584SOL     OW 2650   2.931   6.642   6.395
  584SOL    HW1 2651   2.960   6.680   6.483
  584SOL    HW2 2652   2.831   6.651   6.387
  585SOL     OW 2653   4.199   0.720   0.219
  585SOL    HW1 2654   4.148   0.648   0.173
  585SOL    HW2 2655   4.175   0.809   0.180
  586SOL     OW 2656   3.465   0.958   0.487
  586SOL    HW1 2657   3.406   0.955   0.407
  586SOL    HW2 2658   3.561   0.963   0.458
  587SOL     OW 2659   4.452   2.331   3.027
  587SOL    HW1 2660   4.453   2.234   3.002
  587SOL    HW2 2661   4.465   2.387   2.945
  588SOL     OW 2662   2.296   4.979   1.433
  588SOL    HW1 2663   2.236   4.977   1.353
  588SOL    HW2 2664   2.247   5.017   1.511
  589SOL     OW 2665   3.492   5.604   2.053
  589SOL    HW1 2666   3.573   5.547   2.045
  589SOL    HW2 2667   3.516   5.699   2.032
  590SOL     OW 2668   5.540   1.630   1.042
  590SOL    HW1 2669   5.479   1.706   1.065
  590SOL    HW2 2670   5.618   1.631   1.104
  591SOL     OW 2671   3.393   6.294   3.588
  591SOL    HW1 2672   3.336   6.338   3.518
  591SOL    HW2 2673   3.489   6.303   3.562
  592SOL     OW 2674   4.207   0.783   2.143
  592SOL    HW1 2675   4.214   0.773   2.242
  592SOL    HW2 2676   4.202   0.693   2.100
  593SOL     OW 2677   4.517   2.119   3.759
  593SOL    HW1 2678   4.552   2.154   3.846
  593SOL    HW2 2679   4.593   2.101   3.697
  594SOL     OW 2680   5.903   0.227   0.829
  594SOL    HW1 2681   5.889   0.234   0.928
  594SOL    HW2 2682   5.815   0.208   0.785
  595SOL     OW 2683   5.363   6.592   3.400
  595SOL    HW1 2684   5.285   6.593   3.462
  595SOL    HW2 2685   5.430   6.660   3.430
  596SOL     OW 2686   0.485   4.887   2.929
  596SOL    HW1 2687   0.439   4.905   3.016
  596SOL    HW2 2688   0.560   4.822   2.944
  597SOL     OW 2689   2.958   6.521   6.712
  597SOL    HW1 2690   3.015   6.500   6.791
  597SOL    HW2 2691   2.984   6.463   6.635
  598SOL     OW 2692   3.706   4.040   4.613
  598SOL    HW1 2693   3.736   4.042   4.518
  598SOL    HW2 2694   3.606   4.040   4.616
  599SOL     OW 2695   2.086   5.716   2.669
  599SOL    HW1 2696   2.177   5.697   2.632
  599SOL    HW2 2697   2.095   5.763   2.757
  600SOL     OW 2698   6.149   2.416   6.401
  600SOL    HW1 2699   6.152   2.318   6.382
  600SOL    HW2 2700   6.233   2.459   6.368
  601SOL     OW 2701   1.456   0.891   4.105
  601SOL    HW1 2702   1.413   0.981   4.106
  601SOL    HW2 2703   1.430   0.841   4.188
  602SOL     OW 2704   2.192   0.614   6.229
  602SOL    HW1 2705   2.114   0.663   6.268
  602SOL    HW2 2706   2.186   0.614   6.129
  603SOL     OW 2707   2.892   2.513   5.328
  603SOL    HW1 2708   2.982   2.502   5.371
  603SOL    HW2 2709   2.840   2.584   5.376
  604SOL     OW 2710   1.013   1.397   1.418
  604SOL    HW1 2711   1.010   1.477   1.478
  604SOL    HW2 2712   0.989   1.425   1.325
  605SOL     OW 2713   6.406   4.835   1.056
  605SOL    HW1 2714   6.367   4.784   1.133
  605SOL    HW2 2715   6.400   4.779   0.973
  606SOL     OW 2716   4.933   6.370   5.690
  606SOL    HW1 2717   4.933   6.358   5.590
  606SOL    HW2 2718   4.955   6.283   5.734
  607SOL     OW 2719   6.652   4.945   4.986
  607SOL    HW1 2720   6.740   4.991   4.980
  607SOL    HW2 2721   6.643   4.900   5.075
  608SOL     OW 2722   3.847   5.935   6.906
  608SOL    HW1 2723   3.840   5.847   6.953
  608SOL    HW2 2724   3.934   5.978   6.930
  609SOL     OW 2725   3.319   2.955   2.233
  609SOL    HW1 2726   3.283   3.045   2.207
  609SOL    HW2 2727   3.397   2.932   2.174
  610SOL     OW 2728   5.561   3.133   0.280
  610SOL    HW1 2729   5.543   3.186   0.197
  610SOL    HW2 2730   5.635   3.068   0.262
  611SOL     OW 2731   4.563   0.438   1.563
  611SOL    HW1 2732   4.469   0.406   1.571
  611SOL    HW2 2733   4.565   0.538   1.570
  612SOL     OW 2734   3.474   5.706   4.485
  612SOL    HW1 2735   3.389   5.755   4.504
  612SOL    HW2 2736   3.471   5.616   4.529
  613SOL     OW 2737   4.219   4.699   5.749
  613SOL    HW1 2738   4.148   4.759   5.711
  613SOL    HW2 2739   4.270   4.748   5.819
  614SOL     OW 2740   4.777   4.977   5.856
  614SOL    HW1 2741   4.866   4.955   5.895
  614SOL    HW2 2742   4.706   4.929   5.908
  615SOL     OW 2743   6.690   2.383   1.057
  615SOL    HW1 2744   6.782   2.394   1.019
  615SOL    HW2 2745   6.654   2.472   1.083
  616SOL     OW 2746   6.972   1.892   1.897
  616SOL    HW1 2747   0.011   1.820   1.859
  616SOL    HW2 2748   0.005   1.978   1.900
  617SOL     OW 2749   0.202   4.601   5.656
  617SOL    HW1 2750   0.270   4.636   5.592
  617SOL    HW2 2751   0.142   4.536   5.610
  618SOL     OW 2752   1.017   2.221   0.611
  618SOL    HW1 2753   1.010   2.171   0.697
  618SOL    HW2 2754   0.969   2.308   0.619
  619SOL     OW 2755   3.119   1.514   0.975
  619SOL    HW1 2756   3.172   1.445   1.023
  619SOL    HW2 2757   3.040   1.471   0.931
  620SOL     OW 2758   4.525   2.097   0.742
  620SOL    HW1 2759   4.449   2.161   0.750
  620SOL    HW2 2760   4.490   2.003   0.740
  621SOL     OW 2761   3.381   5.801   6.955
  621SOL    HW1 2762   3.462   5.743   6.939
  621SOL    HW2 2763   3.300   5.754   6.920
  622SOL     OW 2764   1.066   0.703   6.137
  622SOL    HW1 2765   1.148   0.685   6.083
  622SOL    HW2 2766   1.011   0.620   6.144
  623SOL     OW 2767   1.336   5.726   5.800
  623SOL    HW1 2768   1.301   5.641   5.842
  623SOL    HW2 2769   1.304   5.732   5.706
  624SOL     OW 2770   6.986   2.462   1.255
  624SOL    HW1 2771   6.963   2.432   1.162
  624SOL    HW2 2772   0.067   2.459   1.267
  625SOL     OW 2773   2.601   2.028   1.814
  625SOL    HW1 2774   2.691   2.023   1.858
  625SOL    HW2 2775   2.542   2.090   1.866
  626SOL     OW 2776   2.720   5.486   3.834
  626SOL    HW1 2777   2.801   5.429   3.818
  626SOL    HW2 2778   2.645   5.428   3.867
  627SOL     OW 2779   5.273   0.061   0.740
  627SOL    HW1 2780   5.196   0.110   0.700
  627SOL    HW2 2781   5.357   0.086   0.693
  628SOL     OW 2782   5.524   5.286   5.929
  628SOL    HW1 2783   5.531   5.324   5.836
  628SOL    HW2 2784   5.443   5.324   5.974
  629SOL     OW 2785   6.761   6.718   0.741
  629SOL    HW1 2786   6.851   6.744   0.776
  629SOL    HW2 2787   6.770   6.677   0.651
  630SOL     OW 2788   6.394   1.260   2.620
  630SOL    HW1 2789   6.331   1.282   2.694
  630SOL    HW2 2790   6.455   1.186   2.648
  631SOL     OW 2791   3.174   6.797   4.886
  631SOL    HW1 2792   3.114   6.718   4.871
  631SOL    HW2 2793   3.151   6.869   4.821
  632SOL     OW 2794   2.658   1.849   0.541
  632SOL    HW1 2795   2.612   1.871   0.455
  632SOL    HW2 2796   2.680   1.752   0.543
  633SOL     OW 2797   4.749   4.841   0.413
  633SOL    HW1 2798   4.798   4.757   0.436
  633SOL    HW2 2799   4.734   4.895   0.496
  634SOL     OW 2800   4.778   4.545   1.893
  634SOL    HW1 2801   4.789   4.635   1.850
  634SOL    HW2 2802   4.698   4.546   1.953
  635SOL     OW 2803   4.759   5.256   1.819
  635SOL    HW1 2804   4.690   5.184   1.821
  635SOL    HW2 2805   4.771   5.288   1.725
  636SOL     OW 2806   4.999   5.751   6.947
  636SOL    HW1 2807   4.923   5.811   6.923
  636SOL    HW2 2808   4.963   5.665   6.985
  637SOL     OW 2809   6.341   3.744   1.840
  637SOL    HW1 2810   6.347   3.669   1.775
  637SOL    HW2 2811   6.293   3.712   1.922
  638SOL     OW 2812   5.055   2.126   2.259
  638SOL    HW1 2813   5.017   2.178   2.336
  638SOL    HW2 2814   5.149   2.156   2.242
  639SOL     OW 2815   5.473   4.114   2.637
  639SOL    HW1 2816   5.461   4.015   2.643
  639SOL    HW2 2817   5.422   4.157   2.712
  640SOL     OW 2818   0.759   4.781   5.159
  640SOL    HW1 2819   0.732   4.685   5.160
  640SOL    HW2 2820   0.688   4.836   5.203
  641SOL     OW 2821   7.008   5.596   4.697
  641SOL    HW1 2822   0.005   5.573   4.601
  641SOL    HW2 2823   0.023   5.688   4.715
  642SOL     OW 2824   6.567   4.162   4.262
  642SOL    HW1 2825   6.573   4.104   4.181
  642SOL    HW2 2826   6.569   4.105   4.344
  643SOL     OW 2827   5.586   4.860   5.428
  643SOL    HW1 2828   5.523   4.923   5.382
  643SOL    HW2 2829   5.635   4.806   5.359
  644SOL     OW 2830   1.206   6.206   4.043
  644SOL    HW1 2831   1.206   6.279   3.974
  644SOL    HW2 2832   1.112   6.186   4.070
  645SOL     OW 2833   5.442   2.290   4.342
  645SOL    HW1 2834   5.523   2.325   4.390
  645SOL    HW2 2835   5.414   2.204   4.384
  646SOL     OW 2836   2.398   1.471   3.350
  646SOL    HW1 2837   2.410   1.510   3.441
  646SOL    HW2 2838   2.487   1.449   3.311
  647SOL     OW 2839   5.711   2.474   5.876
  647SOL    HW1 2840   5.632   2.424   5.911
  647SOL    HW2 2841   5.680   2.556   5.828
  648SOL     OW 2842   0.069   4.086   3.368
  648SOL    HW1 2843   7.014   4.035   3.413
  648SOL    HW2 2844   0.041   4.181   3.354
  649SOL     OW 2845   4.168   4.039   0.872
  649SOL    HW1 2846   4.106   4.016   0.947
  649SOL    HW2 2847   4.208   3.955   0.835
  650SOL     OW 2848   5.196   4.308   0.786
  650SOL    HW1 2849   5.229   4.386   0.733
  650SOL    HW2 2850   5.246   4.225   0.760
  651SOL     OW 2851   6.840   6.552   6.774
  651SOL    HW1 2852   6.875   6.542   6.681
  651SOL    HW2 2853   6.917   6.559   6.838
  652SOL     OW 2854   5.787   5.864   3.683
  652SOL    HW1 2855   5.742   5.826   3.601
  652SOL    HW2 2856   5.870   5.912   3.656
  653SOL     OW 2857   3.616   6.046   4.896
  653SOL    HW1 2858   3.580   6.138   4.911
  653SOL    HW2 2859   3.559   5.999   4.828
  654SOL     OW 2860   0.064   3.887   5.896
  654SOL    HW1 2861   0.047   3.939   5.812
  654SOL    HW2 2862   0.041   3.791   5.880
  655SOL     OW 2863   0.857   6.742   2.190
  655SOL    HW1 2864   0.934   6.685   2.219
  655SOL    HW2 2865   0.886   6.801   2.115
  656SOL     OW 2866   1.678   5.685   1.432
  656SOL    HW1 2867   1.692   5.745   1.511
  656SOL    HW2 2868   1.580   5.676   1.415
  657SOL     OW 2869   1.863   2.015   1.790
  657SOL    HW1 2870   1.815   1.975   1.868
  657SOL    HW2 2871   1.931   1.950   1.756
  658SOL     OW 2872   2.775   3.978   6.328
  658SOL    HW1 2873   2.745   4.043   6.398
  658SOL    HW2 2874   2.773   4.022   6.238
  659SOL     OW 2875   2.298   6.355   6.420
  659SOL    HW1 2876   2.341   6.265   6.431
  659SOL    HW2 2877   2.288   6.375   6.323
  660SOL     OW 2878   5.256   4.093   1.603
  660SOL    HW1 2879   5.245   4.014   1.663
  660SOL    HW2 2880   5.295   4.063   1.516
  661SOL     OW 2881   4.349   6.450   3.871
  661SOL    HW1 2882   4.320   6.505   3.949
  661SOL    HW2 2883   4.316   6.357   3.881
  662SOL     OW 2884   4.203   1.390   5.255
  662SOL    HW1 2885   4.216   1.315   5.190
  662SOL    HW2 2886   4.235   1.475   5.214
  663SOL     OW 2887   2.506   3.991   6.185
  663SOL    HW1 2888   2.445   3.921   6.147
  663SOL    HW2 2889   2.601   3.959   6.179
  664SOL     OW 2890   6.951   6.232   6.302
  664SOL    HW1 2891   0.004   6.294   6.269
  664SOL    HW2 2892   6.964   6.142   6.261
  665SOL     OW 2893   4.198   5.467   1.747
  665SOL    HW1 2894   4.165   5.389   1.800
  665SOL    HW2 2895   4.122   5.530   1.731
  666SOL     OW 2896   5.173   1.521   1.938
  666SOL    HW1 2897   5.162   1.442   1.878
  666SOL    HW2 2898   5.269   1.531   1.963
  667SOL     OW 2899   1.173   4.778   2.599
  667SOL    HW1 2900   1.107   4.828   2.544
  667SOL    HW2 2901   1.253   4.755   2.543
  668SOL     OW 2902   4.818   6.046   6.171
  668SOL    HW1 2903   4.812   6.138   6.132
  668SOL    HW2 2904   4.782   6.047   6.265
  669SOL     OW 2905   5.063   0.035   3.258
  669SOL    HW1 2906   5.130   6.979   3.262
  669SOL    HW2 2907   5.110   0.123   3.264
  670SOL     OW 2908   2.973   2.580   1.712
  670SOL    HW1 2909   3.072   2.596   1.714
  670SOL    HW2 2910   2.950   2.501   1.769
  671SOL     OW 2911   3.352   6.384   0.663
  671SOL    HW1 2912   3.376   6.481   0.674
  671SOL    HW2 2913   3.253   6.373   0.670
  672SOL     OW 2914   6.811   5.782   1.766
  672SOL    HW1 2915   6.731   5.812   1.713
  672SOL    HW2 2916   6.807   5.823   1.857
  673SOL     OW 2917   6.458   0.347   1.411
  673SOL    HW1 2918   6.523   0.315   1.479
  673SOL    HW2 2919   6.491   0.431   1.370
  674SOL     OW 2920   0.214   1.318   5.203
  674SOL    HW1 2921   0.219   1.278   5.112
  674SOL    HW2 2922   0.228   1.417   5.197
  675SOL     OW 2923   0.076   2.126   1.957
  675SOL    HW1 2924   0.176   2.125   1.966
  675SOL    HW2 2925   0.047   2.218   1.930
  676SOL     OW 2926   3.302   5.568   3.806
  676SOL    HW1 2927   3.345   5.537   3.890
  676SOL    HW2 2928   3.292   5.491   3.743
  677SOL     OW 2929   5.596   1.398   0.229
  677SOL    HW1 2930   5.689   1.401   0.266
  677SOL    HW2 2931   5.560   1.491   0.222
  678SOL     OW 2932   2.777   6.712   5.091
  678SOL    HW1 2933   2.759   6.706   5.189
  678SOL    HW2 2934   2.753   6.625   5.047
  679SOL     OW 2935   4.796   2.193   3.867
  679SOL    HW1 2936   4.892   2.214   3.886
  679SOL    HW2 2937   4.790   2.103   3.824
  680SOL     OW 2938   5.073   5.839   4.892
  680SOL    HW1 2939   5.080   5.740   4.884
  680SOL    HW2 2940   5.127   5.871   4.970
  681SOL     OW 2941   4.526   5.385   1.515
  681SOL    HW1 2942   4.528   5.473   1.467
  681SOL    HW2 2943   4.442   5.378   1.569
  682SOL     OW 2944   6.275   0.869   1.791
  682SOL    HW1 2945   6.194   0.816   1.766
  682SOL    HW2 2946   6.353   0.807   1.804
  683SOL     OW 2947   5.132   2.528   0.848
  683SOL    HW1 2948   5.231   2.536   0.852
  683SOL    HW2 2949   5.090   2.611   0.885
  684SOL     OW 2950   6.346   1.022   0.667
  684SOL    HW1 2951   6.266   1.023   0.727
  684SOL    HW2 2952   6.371   0.927   0.645
  685SOL     OW 2953   3.210   1.790   3.913
  685SOL    HW1 2954   3.128   1.744   3.947
  685SOL    HW2 2955   3.202   1.889   3.927
  686SOL     OW 2956   4.678   2.602   3.949
  686SOL    HW1 2957   4.725   2.675   4.001
  686SOL    HW2 2958   4.676   2.519   4.004
  687SOL     OW 2959   1.021   2.075   4.230
  687SOL    HW1 2960   1.051   1.992   4.184
  687SOL    HW2 2961   0.926   2.066   4.258
  688SOL     OW 2962   0.827   2.138   6.420
  688SOL    HW1 2963   0.746   2.139   6.479
  688SOL    HW2 2964   0.907   2.112   6.474
  689SOL     OW 2965   1.084   4.672   6.345
  689SOL    HW1 2966   1.135   4.628   6.418
  689SOL    HW2 2967   0.987   4.649   6.352
  690SOL     OW 2968   6.903   3.057   3.367
  690SOL    HW1 2969   6.987   3.103   3.396
  690SOL    HW2 2970   6.924   2.962   3.343
  691SOL     OW 2971   3.136   1.132   0.039
  691SOL    HW1 2972   3.209   1.180   0.086
  691SOL    HW2 2973   3.175   1.068   6.990
  692SOL     OW 2974   3.952   1.757   3.873
  692SOL    HW1 2975   3.885   1.815   3.921
  692SOL    HW2 2976   4.005   1.814   3.810
  693SOL     OW 2977   4.990   0.139   4.048
  693SOL    HW1 2978   5.073   0.111   4.000
  693SOL    HW2 2979   4.932   0.059   4.062
  694SOL     OW 2980   4.458   6.841   4.453
  694SOL    HW1 2981   4.458   6.894   4.369
  694SOL    HW2 2982   4.494   6.749   4.434
  695SOL     OW 2983   4.328   6.971   3.904
  695SOL    HW1 2984   4.332   6.995   4.001
  695SOL    HW2 2985   4.399   0.003   3.854
  696SOL     OW 2986   4.602   4.792   3.700
  696SOL    HW1 2987   4.638   4.699   3.697
  696SOL    HW2 2988   4.506   4.792   3.674
  697SOL     OW 2989   1.499   4.034   2.685
  697SOL    HW1 2990   1.550   3.967   2.739
  697SOL    HW2 2991   1.560   4.110   2.662
  698SOL     OW 2992   4.977   6.546   1.107
  698SOL    HW1 2993   5.003   6.633   1.065
  698SOL    HW2 2994   5.010   6.543   1.201
  699SOL     OW 2995   1.569   3.194   6.712
  699SOL    HW1 2996   1.573   3.293   6.721
  699SOL    HW2 2997   1.507   3.169   6.638
  700SOL     OW 2998   3.515   1.210   2.379
  700SOL    HW1 2999   3.606   1.193   2.417
  700SOL    HW2 3000   3.482   1.300   2.411
  701SOL     OW 3001   6.781   3.433   6.995
  701SOL    HW1 3002   6.723   3.511   6.974
  701SOL    HW2 3003   6.785   3.372   6.916
  702SOL     OW 3004   1.454   6.020   4.882
  702SOL    HW1 3005   1.355   6.012   4.883
  702SOL    HW2 3006   1.483   6.089   4.950
  703SOL     OW 3007   3.563   3.048   6.016
  703SOL    HW1 3008   3.554   3.090   6.106
  703SOL    HW2 3009   3.525   2.955   6.018
  704SOL     OW 3010   1.672   2.961   6.274
  704SOL    HW1 3011   1.673   2.905   6.357
  704SOL    HW2 3012   1.625   3.047   6.292
  705SOL     OW 3013   6.075   4.953   2.899
  705SOL    HW1 3014   6.077   5.000   2.987
  705SOL    HW2 3015   6.028   4.865   2.910
  706SOL     OW 3016   4.060   1.912   5.102
  706SOL    HW1 3017   4.032   2.007   5.090
  706SOL    HW2 3018   4.014   1.854   5.035
  707SOL     OW 3019   4.219   4.885   3.373
  707SOL    HW1 3020   4.151   4.917   3.308
  707SOL    HW2 3021   4.307   4.929   3.354
  708SOL     OW 3022   2.970   0.606   2.678
  708SOL    HW1 3023   2.922   0.687   2.646
  708SOL    HW2 3024   3.068   0.621   2.675
  709SOL     OW 3025   0.782   5.873   0.583
  709SOL    HW1 3026   0.782   5.919   0.672
  709SOL    HW2 3027   0.874   5.845   0.560
  710SOL     OW 3028   4.254   2.364   1.125
  710SOL    HW1 3029   4.341   2.412   1.138
  710SOL    HW2 3030   4.251   2.284   1.185
  711SOL     OW 3031   0.263   3.074   6.164
  711SOL    HW1 3032   0.258   3.056   6.263
  711SOL    HW2 3033   0.313   3.000   6.120
  712SOL     OW 3034   4.725   2.336   1.473
  712SOL    HW1 3035   4.782   2.359   1.553
  712SOL    HW2 3036   4.729   2.238   1.456
  713SOL     OW 3037   3.691   3.621   5.853
  713SOL    HW1 3038   3.784   3.605   5.823
  713SOL    HW2 3039   3.629   3.561   5.803
  714SOL     OW 3040   0.265   5.095   3.559
  714SOL    HW1 3041   0.220   5.185   3.563
  714SOL    HW2 3042   0.195   5.024   3.553
  715SOL     OW 3043   5.499   5.967   6.933
  715SOL    HW1 3044   5.421   5.910   6.908
  715SOL    HW2 3045   5.560   5.915   6.993
  716SOL     OW 3046   0.706   0.916   1.966
  716SOL    HW1 3047   0.763   0.985   2.010
  716SOL    HW2 3048   0.731   0.909   1.869
  717SOL     OW 3049   6.964   4.625   3.831
  717SOL    HW1 3050   6.961   4.568   3.913
  717SOL    HW2 3051   7.014   4.709   3.850
  718SOL     OW 3052   4.771   3.432   6.082
  718SOL    HW1 3053   4.792   3.530   6.086
  718SOL    HW2 3054   4.804   3.394   5.996
  719SOL     OW 3055   6.058   0.097   2.345
  719SOL    HW1 3056   6.109   0.167   2.395
  719SOL    HW2 3057   6.115   0.016   2.333
  720SOL     OW 3058   2.317   0.173   6.372
  720SOL    HW1 3059   2.297   0.149   6.276
  720SOL    HW2 3060   2.388   0.112   6.407
  721SOL     OW 3061   2.152   1.899   2.041
  721SOL    HW1 3062   2.223   1.829   2.034
  721SOL    HW2 3063   2.116   1.920   1.950
  722SOL     OW 3064   2.609   0.715   5.609
  722SOL    HW1 3065   2.672   0.745   5.537
  722SOL    HW2 3066   2.631   0.762   5.694
  723SOL     OW 3067   2.019   4.164   3.377
  723SOL    HW1 3068   1.970   4.247   3.401
  723SOL    HW2 3069   1.962   4.084   3.395
  724SOL     OW 3070   0.686   1.412   3.663
  724SOL    HW1 3071   0.781   1.406   3.697
  724SOL    HW2 3072   0.687   1.412   3.563
  725SOL     OW 3073   1.540   5.373   2.874
  725SOL    HW1 3074   1.457   5.332   2.913
  725SOL    HW2 3075   1.587   5.305   2.817
  726SOL     OW 3076   3.199   5.053   1.598
  726SOL    HW1 3077   3.228   5.071   1.692
  726SOL    HW2 3078   3.167   5.137   1.556
  727SOL     OW 3079   6.274   4.349   5.786
  727SOL    HW1 3080   6.294   4.432   5.733
  727SOL    HW2 3081   6.176   4.342   5.802
  728SOL     OW 3082   6.596   3.356   3.906
  728SOL    HW1 3083   6.573   3.260   3.888
  728SOL    HW2 3084   6.687   3.361   3.948
  729SOL     OW 3085   0.461   2.338   1.062
  729SOL    HW1 3086   0.544   2.383   1.096
  729SOL    HW2 3087   0.484   2.247   1.028
  730SOL     OW 3088   6.417   0.041   4.130
  730SOL    HW1 3089   6.433   0.134   4.162
  730SOL    HW2 3090   6.505   7.015   4.112
  731SOL     OW 3091   4.134   5.385   6.169
  731SOL    HW1 3092   4.203   5.351   6.105
  731SOL    HW2 3093   4.138   5.485   6.173
  732SOL     OW 3094   5.944   2.884   1.543
  732SOL    HW1 3095   5.920   2.898   1.447
  732SOL    HW2 3096   5.958   2.786   1.560
  733SOL     OW 3097   5.559   0.211   4.954
  733SOL    HW1 3098   5.652   0.243   4.971
  733SOL    HW2 3099   5.535   0.226   4.858
  734SOL     OW 3100   6.085   4.832   2.634
  734SOL    HW1 3101   6.113   4.898   2.704
  734SOL    HW2 3102   5.999   4.789   2.661
  735SOL     OW 3103   4.016   1.661   0.551
  735SOL    HW1 3104   4.024   1.575   0.602
  735SOL    HW2 3105   4.063   1.734   0.602
  736SOL     OW 3106   0.990   0.893   3.653
  736SOL    HW1 3107   1.006   0.991   3.641
  736SOL    HW2 3108   1.063   0.842   3.608
  737SOL     OW 3109   5.202   2.005   5.694
  737SOL    HW1 3110   5.252   2.035   5.613
  737SOL    HW2 3111   5.108   2.039   5.691
  738SOL     OW 3112   2.929   3.997   1.487
  738SOL    HW1 3113   2.870   4.033   1.414
  738SOL    HW2 3114   2.911   4.047   1.572
  739SOL     OW 3115   4.916   0.701   4.229
  739SOL    HW1 3116   4.869   0.763   4.292
  739SOL    HW2 3117   4.848   0.657   4.170
  740SOL     OW 3118   5.952   1.089   2.739
  740SOL    HW1 3119   5.948   1.107   2.837
  740SOL    HW2 3120   5.864   1.109   2.698
  741SOL     OW 3121   1.635   0.157   3.292
  741SOL    HW1 3122   1.599   0.064   3.300
  741SOL    HW2 3123   1.613   0.209   3.374
  742SOL     OW 3124   2.392   6.749   1.857
  742SOL    HW1 3125   2.465   6.726   1.922
  742SOL    HW2 3126   2.371   6.670   1.801
  743SOL     OW 3127   0.793   5.247   2.989
  743SOL    HW1 3128   0.826   5.157   3.017
  743SOL    HW2 3129   0.693   5.249   2.994
  744SOL     OW 3130   5.725   1.100   1.062
  744SOL    HW1 3131   5.704   1.022   1.121
  744SOL    HW2 3132   5.696   1.185   1.106
  745SOL     OW 3133   1.537   5.407   5.057
  745SOL    HW1 3134   1.486   5.492   5.047
  745SOL    HW2 3135   1.633   5.427   5.079
  746SOL     OW 3136   6.131   4.024   6.125
  746SOL    HW1 3137   6.154   4.045   6.220
  746SOL    HW2 3138   6.210   3.984   6.079
  747SOL     OW 3139   3.936   5.947   4.612
  747SOL    HW1 3140   4.007   5.877   4.616
  747SOL    HW2 3141   3.930   5.994   4.700
  748SOL     OW 3142   4.351   5.205   2.762
  748SOL    HW1 3143   4.342   5.138   2.836
  748SOL    HW2 3144   4.279   5.190   2.695
  749SOL     OW 3145   6.161   3.937   4.546
  749SOL    HW1 3146   6.087   3.882   4.508
  749SOL    HW2 3147   6.185   4.010   4.483
  750SOL     OW 3148   2.983   1.279   1.028
  750SOL    HW1 3149   3.024   1.205   1.082
  750SOL    HW2 3150   2.888   1.293   1.056
  751SOL     OW 3151   4.584   1.828   0.127
  751SOL    HW1 3152   4.490   1.862   0.136
  751SOL    HW2 3153   4.604   1.812   0.030
  752SOL     OW 3154   2.427   3.050   0.831
  752SOL    HW1 3155   2.416   3.024   0.926
  752SOL    HW2 3156   2.518   3.022   0.799
  753SOL     OW 3157   0.747   3.709   5.746
  753SOL    HW1 3158   0.766   3.678   5.653
  753SOL    HW2 3159   0.654   3.746   5.750
  754SOL     OW 3160   4.692   1.226   6.640
  754SOL    HW1 3161   4.720   1.297   6.576
  754SOL    HW2 3162   4.620   1.169   6.598
  755SOL     OW 3163   1.904   4.477   5.000
  755SOL    HW1 3164   1.988   4.496   5.051
  755SOL    HW2 3165   1.928   4.432   4.914
  756SOL     OW 3166   2.336   5.710   6.882
  756SOL    HW1 3167   2.271   5.785   6.895
  756SOL    HW2 3168   2.307   5.631   6.936
  757SOL     OW 3169   0.514   6.311   4.249
  757SOL    HW1 3170   0.530   6.222   4.207
  757SOL    HW2 3171   0.601   6.359   4.260
  758SOL     OW 3172   4.780   0.720   3.381
  758SOL    HW1 3173   4.818   0.667   3.305
  758SOL    HW2 3174   4.792   0.669   3.466
  759SOL     OW 3175   0.354   2.765   2.506
  759SOL    HW1 3176   0.436   2.793   2.555
  759SOL    HW2 3177   0.365   2.784   2.409
  760SOL     OW 3178   5.899   6.959   3.531
  760SOL    HW1 3179   5.917   7.014   3.612
  760SOL    HW2 3180   5.915   6.863   3.551
  761SOL     OW 3181   5.428   4.240   6.611
  761SOL    HW1 3182   5.345   4.202   6.570
  761SOL    HW2 3183   5.466   4.173   6.675
  762SOL     OW 3184   3.045   0.357   5.536
  762SOL    HW1 3185   3.132   0.312   5.519
  762SOL    HW2 3186   3.038   0.380   5.633
  763SOL     OW 3187   3.945   5.930   5.828
  763SOL    HW1 3188   3.886   5.922   5.748
  763SOL    HW2 3189   3.889   5.947   5.909
  764SOL     OW 3190   5.534   0.851   5.707
  764SOL    HW1 3191   5.545   0.752   5.702
  764SOL    HW2 3192   5.563   0.893   5.622
  765SOL     OW 3193   1.448   5.689   0.956
  765SOL    HW1 3194   1.433   5.788   0.966
  765SOL    HW2 3195   1.530   5.662   1.006
  766SOL     OW 3196   2.649   2.012   5.368
  766SOL    HW1 3197   2.599   2.002   5.454
  766SOL    HW2 3198   2.641   2.106   5.335
  767SOL     OW 3199   6.551   6.270   3.855
  767SOL    HW1 3200   6.522   6.191   3.802
  767SOL    HW2 3201   6.520   6.354   3.811
  768SOL     OW 3202   1.918   5.044   3.407
  768SOL    HW1 3203   1.859   5.041   3.488
  768SOL    HW2 3204   1.904   4.962   3.352
  769SOL     OW 3205   2.923   0.974   5.643
  769SOL    HW1 3206   2.825   0.989   5.655
  769SOL    HW2 3207   2.944   0.878   5.660
  770SOL     OW 3208   1.468   5.349   4.068
  770SOL    HW1 3209   1.532   5.317   4.138
  770SOL    HW2 3210   1.390   5.287   4.064
  771SOL     OW 3211   1.046   4.580   2.763
  771SOL    HW1 3212   1.107   4.649   2.726
  771SOL    HW2 3213   0.952   4.599   2.734
  772SOL     OW 3214   6.206   4.471   0.076
  772SOL    HW1 3215   6.260   4.543   0.033
  772SOL    HW2 3216   6.262   4.423   0.143
  773SOL     OW 3217   0.514   4.393   3.338
  773SOL    HW1 3218   0.487   4.439   3.253
  773SOL    HW2 3219   0.612   4.406   3.353
  774SOL     OW 3220   1.682   1.688   1.722
  774SOL    HW1 3221   1.708   1.690   1.818
  774SOL    HW2 3222   1.651   1.779   1.694
  775SOL     OW 3223   1.855   1.585   3.934
  775SOL    HW1 3224   1.926   1.619   3.872
  775SOL    HW2 3225   1.869   1.487   3.949
  776SOL     OW 3226   0.075   0.390   6.294
  776SOL    HW1 3227   0.025   0.308   6.319
  776SOL    HW2 3228   0.040   0.425   6.207
  777SOL     OW 3229   1.914   4.258   1.498
  777SOL    HW1 3230   1.832   4.212   1.531
  777SOL    HW2 3231   1.940   4.331   1.561
  778SOL     OW 3232   2.472   0.222   1.411
  778SOL    HW1 3233   2.397   0.185   1.466
  778SOL    HW2 3234   2.458   0.198   1.315
  779SOL     OW 3235   6.856   2.200   2.143
  779SOL    HW1 3236   6.933   2.142   2.116
  779SOL    HW2 3237   6.776   2.177   2.088
  780SOL     OW 3238   0.627   2.620   4.472
  780SOL    HW1 3239   0.713   2.569   4.460
  780SOL    HW2 3240   0.554   2.557   4.498
  781SOL     OW 3241   5.435   6.161   1.242
  781SOL    HW1 3242   5.357   6.119   1.288
  781SOL    HW2 3243   5.405   6.245   1.195
  782SOL     OW 3244   1.422   3.389   5.716
  782SOL    HW1 3245   1.412   3.489   5.725
  782SOL    HW2 3246   1.519   3.365   5.712
  783SOL     OW 3247   5.064   4.765   1.847
  783SOL    HW1 3248   5.014   4.740   1.764
  783SOL    HW2 3249   5.141   4.703   1.859
  784SOL     OW 3250   3.952   4.976   1.820
  784SOL    HW1 3251   4.032   4.998   1.875
  784SOL    HW2 3252   3.884   4.929   1.876
  785SOL     OW 3253   0.625   1.430   3.382
  785SOL    HW1 3254   0.597   1.361   3.315
  785SOL    HW2 3255   0.547   1.490   3.401
  786SOL     OW 3256   0.053   0.366   2.437
  786SOL    HW1 3257   0.071   0.399   2.530
  786SOL    HW2 3258   0.003   0.436   2.386
  787SOL     OW 3259   1.594   0.681   0.052
  787SOL    HW1 3260   1.575   0.717   0.144
  787SOL    HW2 3261   1.651   0.747   0.003
  788SOL     OW 3262   4.632   2.185   1.172
  788SOL    HW1 3263   4.554   2.129   1.201
  788SOL    HW2 3264   4.712   2.164   1.228
  789SOL     OW 3265   4.325   4.934   1.942
  789SOL    HW1 3266   4.244   4.948   1.999
  789SOL    HW2 3267   4.400   4.989   1.978
  790SOL     OW 3268   2.621   1.652   2.850
  790SOL    HW1 3269   2.567   1.580   2.894
  790SOL    HW2 3270   2.697   1.678   2.908
  791SOL     OW 3271   2.490   6.263   5.120
  791SOL    HW1 3272   2.446   6.225   5.201
  791SOL    HW2 3273   2.571   6.208   5.097
  792SOL     OW 3274   1.020   0.806   2.141
  792SOL    HW1 3275   0.963   0.730   2.108
  792SOL    HW2 3276   1.031   0.873   2.068
  793SOL     OW 3277   4.988   5.484   5.036
  793SOL    HW1 3278   5.029   5.517   4.951
  793SOL    HW2 3279   5.005   5.551   5.109
  794SOL     OW 3280   2.786   4.122   5.721
  794SOL    HW1 3281   2.756   4.151   5.630
  794SOL    HW2 3282   2.708   4.123   5.784
  795SOL     OW 3283   4.247   0.661   5.349
  795SOL    HW1 3284   4.301   0.652   5.433
  795SOL    HW2 3285   4.153   0.685   5.372
  796SOL     OW 3286   0.904   2.928   0.004
  796SOL    HW1 3287   0.972   2.856   0.017
  796SOL    HW2 3288   0.942   3.001   6.965
  797SOL     OW 3289   4.791   0.292   0.790
  797SOL    HW1 3290   4.849   0.373   0.798
  797SOL    HW2 3291   4.778   0.251   0.880
  798SOL     OW 3292   3.531   6.976   2.338
  798SOL    HW1 3293   3.538   6.904   2.270
  798SOL    HW2 3294   3.438   6.977   2.376
  799SOL     OW 3295   0.431   0.802   6.476
  799SOL    HW1 3296   0.361   0.798   6.547
  799SOL    HW2 3297   0.436   0.895   6.439
  800SOL     OW 3298   6.397   0.903   2.187
  800SOL    HW1 3299   6.364   0.948   2.270
  800SOL    HW2 3300   6.456   0.966   2.136
  801SOL     OW 3301   2.180   4.675   5.000
  801SOL    HW1 3302   2.166   4.621   5.083
  801SOL    HW2 3303   2.233   4.621   4.934
  802SOL     OW 3304   3.160   2.324   6.831
  802SOL    HW1 3305   3.233   2.352   6.769
  802SOL    HW2 3306   3.093   2.398   6.839
  803SOL     OW 3307   1.433   0.395   5.742
  803SOL    HW1 3308   1.342   0.435   5.730
  803SOL    HW2 3309   1.462   0.405   5.837
  804SOL     OW 3310   6.464   6.273   1.367
  804SOL    HW1 3311   6.554   6.318   1.374
  804SOL    HW2 3312   6.458   6.225   1.280
  805SOL     OW 3313   2.187   1.275   4.328
  805SOL    HW1 3314   2.267   1.260   4.270
  805SOL    HW2 3315   2.200   1.230   4.416
  806SOL     OW 3316   5.632   0.571   5.727
  806SOL    HW1 3317   5.541   0.531   5.720
  806SOL    HW2 3318   5.690   0.534   5.655
  807SOL     OW 3319   0.487   0.196   4.678
  807SOL    HW1 3320   0.565   0.136   4.661
  807SOL    HW2 3321   0.433   0.205   4.594
  808SOL     OW 3322   4.446   3.293   0.060
  808SOL    HW1 3323   4.524   3.256   0.111
  808SOL    HW2 3324   4.418   3.380   0.101
  809SOL     OW 3325   0.931   4.803   0.723
  809SOL    HW1 3326   0.863   4.734   0.696
  809SOL    HW2 3327   0.952   4.792   0.820
  810SOL     OW 3328   3.449   4.423   0.305
  810SOL    HW1 3329   3.519   4.355   0.328
  810SOL    HW2 3330   3.465   4.457   0.212
  811SOL     OW 3331   5.250   5.199   4.154
  811SOL    HW1 3332   5.299   5.215   4.068
  811SOL    HW2 3333   5.291   5.121   4.201
  812SOL     OW 3334   0.172   1.588   2.252
  812SOL    HW1 3335   0.216   1.498   2.255
  812SOL    HW2 3336   0.074   1.576   2.234
  813SOL     OW 3337   3.513   0.254   4.313
  813SOL    HW1 3338   3.607   0.225   4.297
  813SOL    HW2 3339   3.498   0.264   4.411
  814SOL     OW 3340   6.418   5.181   2.675
  814SOL    HW1 3341   6.440   5.222   2.763
  814SOL    HW2 3342   6.426   5.250   2.603
  815SOL     OW 3343   6.119   3.052   3.592
  815SOL    HW1 3344   6.050   3.006   3.536
  815SOL    HW2 3345   6.160   3.127   3.539
  816SOL     OW 3346   5.673   5.309   0.629
  816SOL    HW1 3347   5.575   5.328   0.625
  816SOL    HW2 3348   5.707   5.291   0.536
  817SOL     OW 3349   0.949   5.415   1.353
  817SOL    HW1 3350   0.992   5.326   1.341
  817SOL    HW2 3351   0.854   5.411   1.322
  818SOL     OW 3352   6.369   3.338   3.659
  818SOL    HW1 3353   6.283   3.287   3.652
  818SOL    HW2 3354   6.435   3.285   3.711
  819SOL     OW 3355   6.248   3.086   1.335
  819SOL    HW1 3356   6.346   3.078   1.354
  819SOL    HW2 3357   6.234   3.132   1.248
  820SOL     OW 3358   2.940   2.178   4.781
  820SOL    HW1 3359   2.848   2.206   4.753
  820SOL    HW2 3360   2.933   2.113   4.856
  821SOL     OW 3361   6.375   4.891   6.283
  821SOL    HW1 3362   6.311   4.814   6.289
  821SOL    HW2 3363   6.329   4.975   6.313
  822SOL     OW 3364   0.156   3.495   3.271
  822SOL    HW1 3365   0.125   3.423   3.208
  822SOL    HW2 3366   0.148   3.462   3.365
  823SOL     OW 3367   6.459   4.523   6.142
  823SOL    HW1 3368   6.458   4.561   6.234
  823SOL    HW2 3369   6.365   4.507   6.111
  824SOL     OW 3370   4.528   1.041   6.294
  824SOL    HW1 3371   4.447   1.059   6.238
  824SOL    HW2 3372   4.544   0.943   6.299
  825SOL     OW 3373   6.333   5.452   1.192
  825SOL    HW1 3374   6.340   5.539   1.144
  825SOL    HW2 3375   6.358   5.464   1.288
  826SOL     OW 3376   3.827   2.616   5.563
  826SOL    HW1 3377   3.867   2.624   5.472
  826SOL    HW2 3378   3.900   2.607   5.631
  827SOL     OW 3379   2.458   4.300   5.215
  827SOL    HW1 3380   2.460   4.203   5.237
  827SOL    HW2 3381   2.363   4.329   5.199
  828SOL     OW 3382   5.597   6.463   6.559
  828SOL    HW1 3383   5.624   6.511   6.475
  828SOL    HW2 3384   5.676   6.418   6.599
  829SOL     OW 3385   3.726   3.356   1.995
  829SOL    HW1 3386   3.667   3.289   2.041
  829SOL    HW2 3387   3.711   3.350   1.896
  830SOL     OW 3388   5.694   4.883   6.739
  830SOL    HW1 3389   5.754   4.919   6.810
  830SOL    HW2 3390   5.712   4.785   6.727
  831SOL     OW 3391   5.649   0.008   0.843
  831SOL    HW1 3392   5.571   6.977   0.882
  831SOL    HW2 3393   5.733   6.978   0.865
  832SOL     OW 3394   4.127   2.271   3.979
  832SOL    HW1 3395   4.095   2.177   3.978
  832SOL    HW2 3396   4.076   2.324   3.912
  833SOL     OW 3397   2.117   3.384   6.353
  833SOL    HW1 3398   2.107   3.477   6.316
  833SOL    HW2 3399   2.058   3.322   6.302
  834SOL     OW 3400   5.347   3.684   1.084
  834SOL    HW1 3401   5.252   3.675   1.112
  834SOL    HW2 3402   5.352   3.687   0.984
  835SOL     OW 3403   2.727   0.088   4.935
  835SOL    HW1 3404   2.804   0.029   4.960
  835SOL    HW2 3405   2.664   0.037   4.876
  836SOL     OW 3406   4.229   0.645   5.071
  836SOL    HW1 3407   4.294   0.577   5.039
  836SOL    HW2 3408   4.229   0.647   5.171
  837SOL     OW 3409   0.096   0.861   1.084
  837SOL    HW1 3410   0.006   0.847   1.043
  837SOL    HW2 3411   0.098   0.951   1.128
  838SOL     OW 3412   2.521   6.871   4.407
  838SOL    HW1 3413   2.424   6.846   4.401
  838SOL    HW2 3414   2.558   6.839   4.494
  839SOL     OW 3415   2.369   1.426   2.129
  839SOL    HW1 3416   2.284   1.374   2.118
  839SOL    HW2 3417   2.436   1.368   2.177
  840SOL     OW 3418   6.421   5.927   0.239
  840SOL    HW1 3419   6.356   5.964   0.305
  840SOL    HW2 3420   6.417   5.827   0.241
  841SOL     OW 3421   3.338   5.591   5.704
  841SOL    HW1 3422   3.354   5.585   5.605
  841SOL    HW2 3423   3.299   5.680   5.726
  842SOL     OW 3424   3.804   0.302   5.784
  842SOL    HW1 3425   3.717   0.341   5.814
  842SOL    HW2 3426   3.847   0.254   5.860
  843SOL     OW 3427   1.012   1.792   1.340
  843SOL    HW1 3428   1.090   1.800   1.278
  843SOL    HW2 3429   0.929   1.775   1.287
  844SOL     OW 3430   6.964   6.875   0.926
  844SOL    HW1 3431   0.024   6.930   0.954
  844SOL    HW2 3432   6.881   6.912   0.968
  845SOL     OW 3433   5.302   4.081   3.211
  845SOL    HW1 3434   5.203   4.095   3.201
  845SOL    HW2 3435   5.327   4.089   3.307
  846SOL     OW 3436   2.136   0.595   5.888
  846SOL    HW1 3437   2.170   0.685   5.859
  846SOL    HW2 3438   2.168   0.525   5.824
  847SOL     OW 3439   1.166   3.392   1.612
  847SOL    HW1 3440   1.105   3.327   1.658
  847SOL    HW2 3441   1.184   3.361   1.519
  848SOL     OW 3442   6.698   6.843   5.795
  848SOL    HW1 3443   6.617   6.892   5.760
  848SOL    HW2 3444   6.669   6.758   5.839
  849SOL     OW 3445   6.327   4.298   6.331
  849SOL    HW1 3446   6.301   4.348   6.249
  849SOL    HW2 3447   6.244   4.263   6.376
  850SOL     OW 3448   6.156   0.089   4.674
  850SOL    HW1 3449   6.216   0.037   4.613
  850SOL    HW2 3450   6.081   0.031   4.706
  851SOL     OW 3451   6.936   2.923   0.538
  851SOL    HW1 3452   6.843   2.911   0.571
  851SOL    HW2 3453   6.936   2.932   0.438
  852SOL     OW 3454   0.975   4.394   0.288
  852SOL    HW1 3455   1.053   4.348   0.331
  852SOL    HW2 3456   0.919   4.327   0.240
  853SOL     OW 3457   0.724   4.611   0.132
  853SOL    HW1 3458   0.652   4.675   0.158
  853SOL    HW2 3459   0.715   4.527   0.186
  854SOL     OW 3460   4.723   5.679   0.503
  854SOL    HW1 3461   4.684   5.769   0.485
  854SOL    HW2 3462   4.671   5.633   0.575
  855SOL     OW 3463   6.299   0.101   0.901
  855SOL    HW1 3464   6.371   0.146   0.848
  855SOL    HW2 3465   6.234   0.171   0.934
  856SOL     OW 3466   1.392   1.215   6.865
  856SOL    HW1 3467   1.438   1.278   6.803
  856SOL    HW2 3468   1.407   1.244   6.960
  857SOL     OW 3469   6.073   4.806   2.283
  857SOL    HW1 3470   6.042   4.712   2.296
  857SOL    HW2 3471   6.172   4.811   2.300
  858SOL     OW 3472   3.379   4.454   1.414
  858SOL    HW1 3473   3.281   4.438   1.405
  858SOL    HW2 3474   3.415   4.403   1.492
  859SOL     OW 3475   5.792   6.281   5.115
  859SOL    HW1 3476   5.855   6.227   5.171
  859SOL    HW2 3477   5.826   6.375   5.107
  860SOL     OW 3478   6.746   2.302   6.807
  860SOL    HW1 3479   6.673   2.370   6.795
  860SOL    HW2 3480   6.833   2.349   6.823
  861SOL     OW 3481   1.937   4.617   3.755
  861SOL    HW1 3482   1.856   4.675   3.742
  861SOL    HW2 3483   1.909   4.531   3.796
  862SOL     OW 3484   1.859   4.019   2.967
  862SOL    HW1 3485   1.921   4.086   2.925
  862SOL    HW2 3486   1.836   3.949   2.900
  863SOL     OW 3487   6.256   0.936   6.002
  863SOL    HW1 3488   6.232   0.848   5.963
  863SOL    HW2 3489   6.201   1.008   5.958
  864SOL     OW 3490   3.927   5.928   4.282
  864SOL    HW1 3491   3.967   5.984   4.209
  864SOL    HW2 3492   3.996   5.913   4.353
  865SOL     OW 3493   1.552   6.595   5.620
  865SOL    HW1 3494   1.572   6.678   5.672
  865SOL    HW2 3495   1.495   6.534   5.676
  866SOL     OW 3496   3.133   0.854   0.615
  866SOL    HW1 3497   3.194   0.877   0.539
  866SOL    HW2 3498   3.073   0.932   0.633
  867SOL     OW 3499   5.170   3.436   0.746
  867SOL    HW1 3500   5.221   3.522   0.744
  867SOL    HW2 3501   5.104   3.438   0.822
  868SOL     OW 3502   6.561   0.971   1.238
  868SOL    HW1 3503   6.478   1.026   1.242
  868SOL    HW2 3504   6.594   0.952   1.331
  869SOL     OW 3505   0.122   4.071   2.751
  869SOL    HW1 3506   0.144   3.993   2.810
  869SOL    HW2 3507   0.206   4.112   2.717
  870SOL     OW 3508   4.171   3.740   0.598
  870SOL    HW1 3509   4.211   3.658   0.639
  870SOL    HW2 3510   4.237   3.784   0.538
  871SOL     OW 3511   4.935   2.190   3.486
  871SOL    HW1 3512   4.940   2.264   3.418
  871SOL    HW2 3513   4.989   2.215   3.566
  872SOL     OW 3514   5.593   2.937   3.704
  872SOL    HW1 3515   5.547   3.025   3.717
  872SOL    HW2 3516   5.585   2.909   3.608
  873SOL     OW 3517   5.267   5.369   5.029
  873SOL    HW1 3518   5.242   5.276   5.001
  873SOL    HW2 3519   5.188   5.413   5.073
  874SOL     OW 3520   6.336   3.563   6.511
  874SOL    HW1 3521   6.389   3.493   6.462
  874SOL    HW2 3522   6.394   3.641   6.531
  875SOL     OW 3523   4.815   5.131   1.369
  875SOL    HW1 3524   4.828   5.222   1.409
  875SOL    HW2 3525   4.904   5.095   1.341
  876SOL     OW 3526   0.197   5.065   2.278
  876SOL    HW1 3527   0.139   5.067   2.196
  876SOL    HW2 3528   0.262   4.989   2.271
  877SOL     OW 3529   3.496   4.592   5.998
  877SOL    HW1 3530   3.523   4.585   6.094
  877SOL    HW2 3531   3.577   4.604   5.941
  878SOL     OW 3532   4.808   6.714   4.343
  878SOL    HW1 3533   4.858   6.723   4.257
  878SOL    HW2 3534   4.848   6.776   4.411
  879SOL     OW 3535   4.292   1.086   1.621
  879SOL    HW1 3536   4.195   1.097   1.644
  879SOL    HW2 3537   4.345   1.156   1.667
  880SOL     OW 3538   3.285   3.728   3.998
  880SOL    HW1 3539   3.356   3.706   4.065
  880SOL    HW2 3540   3.258   3.824   4.009
  881SOL     OW 3541   4.795   4.011   5.844
  881SOL    HW1 3542   4.846   4.042   5.924
  881SOL    HW2 3543   4.853   3.949   5.790
  882SOL     OW 3544   1.360   2.246   3.745
  882SOL    HW1 3545   1.268   2.231   3.708
  882SOL    HW2 3546   1.353   2.270   3.842
  883SOL     OW 3547   3.156   0.628   0.780
  883SOL    HW1 3548   3.155   0.713   0.728
  883SOL    HW2 3549   3.089   0.632   0.854
  884SOL     OW 3550   6.795   4.236   6.542
  884SOL    HW1 3551   6.885   4.206   6.572
  884SOL    HW2 3552   6.769   4.188   6.458
  885SOL     OW 3553   4.419   0.701   4.793
  885SOL    HW1 3554   4.333   0.750   4.783
  885SOL    HW2 3555   4.407   0.627   4.860
  886SOL     OW 3556   3.328   0.172   0.530
  886SOL    HW1 3557   3.358   0.134   0.442
  886SOL    HW2 3558   3.241   0.219   0.518
  887SOL     OW 3559   3.624   6.375   3.440
  887SOL    HW1 3560   3.714   6.417   3.455
  887SOL    HW2 3561   3.561   6.443   3.403
  888SOL     OW 3562   0.552   6.055   3.325
  888SOL    HW1 3563   0.594   6.141   3.294
  888SOL    HW2 3564   0.464   6.075   3.368
  889SOL     OW 3565   0.037   1.675   6.443
  889SOL    HW1 3566   6.981   1.693   6.378
  889SOL    HW2 3567   0.066   1.760   6.486
  890SOL     OW 3568   2.146   4.869   3.080
  890SOL    HW1 3569   2.047   4.870   3.070
  890SOL    HW2 3570   2.171   4.811   3.158
  891SOL     OW 3571   6.942   3.818   0.868
  891SOL    HW1 3572   6.970   3.749   0.935
  891SOL    HW2 3573   6.849   3.850   0.890
  892SOL     OW 3574   3.123   3.738   4.772
  892SOL    HW1 3575   3.143   3.710   4.678
  892SOL    HW2 3576   3.049   3.681   4.808
  893SOL     OW 3577   2.145   6.771   3.916
  893SOL    HW1 3578   2.100   6.814   3.995
  893SOL    HW2 3579   2.162   6.674   3.936
  894SOL     OW 3580   1.139   3.091   2.609
  894SOL    HW1 3581   1.178   3.023   2.547
  894SOL    HW2 3582   1.155   3.063   2.703
  895SOL     OW 3583   0.980   5.270   4.157
  895SOL    HW1 3584   0.903   5.245   4.215
  895SOL    HW2 3585   0.997   5.368   4.164
  896SOL     OW 3586   5.486   4.941   1.584
  896SOL    HW1 3587   5.579   4.947   1.619
  896SOL    HW2 3588   5.468   4.849   1.550
  897SOL     OW 3589   3.823   0.889   6.529
  897SOL    HW1 3590   3.856   0.910   6.621
  897SOL    HW2 3591   3.855   0.797   6.503
  898SOL     OW 3592   4.111   6.383   3.016
  898SOL    HW1 3593   4.036   6.441   2.984
  898SOL    HW2 3594   4.195   6.437   3.021
  899SOL     OW 3595   0.376   6.454   0.149
  899SOL    HW1 3596   0.335   6.400   0.075
  899SOL    HW2 3597   0.475   6.437   0.152
  900SOL     OW 3598   5.354   6.719   6.899
  900SOL    HW1 3599   5.427   6.662   6.862
  900SOL    HW2 3600   5.337   6.796   6.837
  901SOL     OW 3601   1.485   0.660   3.941
  901SOL    HW1 3602   1.464   0.755   3.963
  901SOL    HW2 3603   1.405   0.617   3.898
  902SOL     OW 3604   1.181   2.845   1.261
  902SOL    HW1 3605   1.228   2.825   1.175
  902SOL    HW2 3606   1.242   2.825   1.338
  903SOL     OW 3607   1.011   3.154   6.854
  903SOL    HW1 3608   1.055   3.165   6.944
  903SOL    HW2 3609   0.982   3.244   6.821
  904SOL     OW 3610   1.687   2.181   2.458
  904SOL    HW1 3611   1.614   2.178   2.527
  904SOL    HW2 3612   1.774   2.158   2.501
  905SOL     OW 3613   5.305   3.736   6.551
  905SOL    HW1 3614   5.335   3.790   6.473
  905SOL    HW2 3615   5.380   3.678   6.583
  906SOL     OW 3616   0.385   1.920   6.380
  906SOL    HW1 3617   0.375   1.859   6.459
  906SOL    HW2 3618   0.381   2.015   6.411
  907SOL     OW 3619   5.144   2.897   0.741
  907SOL    HW1 3620   5.122   2.942   0.827
  907SOL    HW2 3621   5.067   2.907   0.678
  908SOL     OW 3622   2.417   4.464   3.220
  908SOL    HW1 3623   2.422   4.403   3.141
  908SOL    HW2 3624   2.509   4.497   3.242
  909SOL     OW 3625   3.930   6.888   1.857
  909SOL    HW1 3626   3.907   6.966   1.798
  909SOL    HW2 3627   3.960   6.811   1.800
  910SOL     OW 3628   3.363   1.857   1.350
  910SOL    HW1 3629   3.299   1.784   1.327
  910SOL    HW2 3630   3.313   1.934   1.389
  911SOL     OW 3631   1.179   6.445   6.854
  911SOL    HW1 3632   1.232   6.529   6.853
  911SOL    HW2 3633   1.111   6.449   6.928
  912SOL     OW 3634   5.919   1.167   3.054
  912SOL    HW1 3635   5.892   1.262   3.072
  912SOL    HW2 3636   5.859   1.106   3.105
  913SOL     OW 3637   3.183   0.819   3.977
  913SOL    HW1 3638   3.104   0.773   3.936
  913SOL    HW2 3639   3.184   0.803   4.076
  914SOL     OW 3640   1.875   6.616   5.665
  914SOL    HW1 3641   1.925   6.669   5.595
  914SOL    HW2 3642   1.816   6.678   5.716
  915SOL     OW 3643   6.770   3.168   0.167
  915SOL    HW1 3644   6.801   3.212   0.083
  915SOL    HW2 3645   6.674   3.143   0.159
  916SOL     OW 3646   1.758   3.061   2.815
  916SOL    HW1 3647   1.710   2.988   2.767
  916SOL    HW2 3648   1.746   3.147   2.765
  917SOL     OW 3649   0.907   6.943   2.031
  917SOL    HW1 3650   0.988   6.993   2.001
  917SOL    HW2 3651   0.832   7.007   2.048
  918SOL     OW 3652   3.603   0.297   0.643
  918SOL    HW1 3653   3.519   0.272   0.594
  918SOL    HW2 3654   3.668   0.221   0.639
  919SOL     OW 3655   6.510   6.945   2.773
  919SOL    HW1 3656   6.564   6.993   2.703
  919SOL    HW2 3657   6.416   6.977   2.769
  920SOL     OW 3658   2.410   4.387   2.582
  920SOL    HW1 3659   2.356   4.368   2.500
  920SOL    HW2 3660   2.481   4.454   2.561
  921SOL     OW 3661   4.231   5.656   4.172
  921SOL    HW1 3662   4.213   5.578   4.111
  921SOL    HW2 3663   4.152   5.670   4.232
  922SOL     OW 3664   3.032   3.605   4.009
  922SOL    HW1 3665   2.993   3.637   4.095
  922SOL    HW2 3666   3.124   3.643   3.998
  923SOL     OW 3667   2.472   3.804   6.415
  923SOL    HW1 3668   2.451   3.808   6.317
  923SOL    HW2 3669   2.570   3.785   6.427
  924SOL     OW 3670   6.222   3.517   2.006
  924SOL    HW1 3671   6.305   3.487   2.054
  924SOL    HW2 3672   6.152   3.542   2.072
  925SOL     OW 3673   6.975   2.463   6.831
  925SOL    HW1 3674   7.016   2.536   6.775
  925SOL    HW2 3675   6.995   2.481   6.927
  926SOL     OW 3676   6.448   0.735   1.106
  926SOL    HW1 3677   6.387   0.737   1.027
  926SOL    HW2 3678   6.484   0.826   1.123
  927SOL     OW 3679   5.463   4.294   3.117
  927SOL    HW1 3680   5.421   4.219   3.169
  927SOL    HW2 3681   5.550   4.319   3.160
  928SOL     OW 3682   1.553   5.983   0.295
  928SOL    HW1 3683   1.643   6.009   0.328
  928SOL    HW2 3684   1.514   5.913   0.354
  929SOL     OW 3685   0.563   0.877   6.701
  929SOL    HW1 3686   0.541   0.807   6.633
  929SOL    HW2 3687   0.559   0.836   6.793
  930SOL     OW 3688   5.262   6.580   6.179
  930SOL    HW1 3689   5.290   6.542   6.267
  930SOL    HW2 3690   5.342   6.617   6.132
  931SOL     OW 3691   6.396   1.138   4.750
  931SOL    HW1 3692   6.393   1.153   4.849
  931SOL    HW2 3693   6.468   1.194   4.710
  932SOL     OW 3694   3.340   0.706   3.484
  932SOL    HW1 3695   3.421   0.761   3.505
  932SOL    HW2 3696   3.332   0.632   3.550
  933SOL     OW 3697   1.695   5.930   3.487
  933SOL    HW1 3698   1.602   5.894   3.483
  933SOL    HW2 3699   1.753   5.867   3.540
  934SOL     OW 3700   2.360   6.140   6.920
  934SOL    HW1 3701   2.273   6.167   6.879
  934SOL    HW2 3702   2.384   6.048   6.889
  935SOL     OW 3703   5.013   3.889   4.226
  935SOL    HW1 3704   4.975   3.800   4.252
  935SOL    HW2 3705   5.066   3.926   4.301
  936SOL     OW 3706   6.988   0.495   6.066
  936SOL    HW1 3707   6.935   0.447   5.996
  936SOL    HW2 3708   0.042   0.549   6.021
  937SOL     OW 3709   5.432   1.947   5.834
  937SOL    HW1 3710   5.348   2.000   5.818
  937SOL    HW2 3711   5.411   1.849   5.830
  938SOL     OW 3712   6.007   4.492   6.633
  938SOL    HW1 3713   5.957   4.431   6.572
  938SOL    HW2 3714   6.077   4.440   6.681
  939SOL     OW 3715   0.241   6.986   4.309
  939SOL    HW1 3716   0.157   0.012   4.340
  939SOL    HW2 3717   0.245   6.892   4.342
  940SOL     OW 3718   0.244   4.364   1.524
  940SOL    HW1 3719   0.251   4.265   1.507
  940SOL    HW2 3720   0.317   4.392   1.586
  941SOL     OW 3721   6.042   2.109   6.574
  941SOL    HW1 3722   6.077   2.194   6.612
  941SOL    HW2 3723   5.969   2.073   6.632
  942SOL     OW 3724   6.120   6.893   3.005
  942SOL    HW1 3725   6.064   6.838   3.068
  942SOL    HW2 3726   6.197   6.933   3.055
  943SOL     OW 3727   1.530   3.979   3.094
  943SOL    HW1 3728   1.590   3.923   3.037
  943SOL    HW2 3729   1.583   4.054   3.134
  944SOL     OW 3730   6.914   4.966   5.981
  944SOL    HW1 3731   6.883   4.871   5.987
  944SOL    HW2 3732   7.013   4.967   5.964
  945SOL     OW 3733   0.149   3.909   6.170
  945SOL    HW1 3734   0.134   3.860   6.084
  945SOL    HW2 3735   0.244   3.898   6.199
  946SOL     OW 3736   5.167   4.260   5.354
  946SOL    HW1 3737   5.234   4.314   5.406
  946SOL    HW2 3738   5.162   4.294   5.261
  947SOL     OW 3739   3.752   3.287   3.522
  947SOL    HW1 3740   3.843   3.249   3.541
  947SOL    HW2 3741   3.759   3.385   3.505
  948SOL     OW 3742   5.300   1.083   2.669
  948SOL    HW1 3743   5.204   1.060   2.685
  948SOL    HW2 3744   5.359   1.014   2.712
  949SOL     OW 3745   2.218   5.815   0.814
  949SOL    HW1 3746   2.265   5.765   0.741
  949SOL    HW2 3747   2.207   5.911   0.788
  950SOL     OW 3748   5.702   5.552   2.129
  950SOL    HW1 3749   5.778   5.506   2.084
  950SOL    HW2 3750   5.633   5.485   2.155
  951SOL     OW 3751   1.319   0.267   4.140
  951SOL    HW1 3752   1.379   0.341   4.170
  951SOL    HW2 3753   1.364   0.179   4.158
  952SOL     OW 3754   4.377   2.367   3.403
  952SOL    HW1 3755   4.376   2.372   3.503
  952SOL    HW2 3756   4.469   2.388   3.370
  953SOL     OW 3757   5.691   5.796   4.656
  953SOL    HW1 3758   5.642   5.733   4.717
  953SOL    HW2 3759   5.637   5.879   4.643
  954SOL     OW 3760   3.795   6.148   1.993
  954SOL    HW1 3761   3.760   6.132   1.901
  954SOL    HW2 3762   3.726   6.194   2.048
  955SOL     OW 3763   0.523   3.733   0.938
  955SOL    HW1 3764   0.565   3.698   0.855
  955SOL    HW2 3765   0.512   3.833   0.931
  956SOL     OW 3766   6.198   0.266   1.383
  956SOL    HW1 3767   6.158   0.323   1.454
  956SOL    HW2 3768   6.296   0.284   1.376
  957SOL     OW 3769   5.436   2.981   2.800
  957SOL    HW1 3770   5.387   2.979   2.713
  957SOL    HW2 3771   5.467   2.889   2.823
  958SOL     OW 3772   4.679   1.107   1.420
  958SOL    HW1 3773   4.631   1.100   1.507
  958SOL    HW2 3774   4.669   1.199   1.383
  959SOL     OW 3775   3.261   6.462   4.295
  959SOL    HW1 3776   3.216   6.381   4.257
  959SOL    HW2 3777   3.194   6.534   4.308
  960SOL     OW 3778   0.807   0.366   2.328
  960SOL    HW1 3779   0.827   0.276   2.365
  960SOL    HW2 3780   0.791   0.359   2.230
  961SOL     OW 3781   4.174   6.581   3.336
  961SOL    HW1 3782   4.251   6.621   3.285
  961SOL    HW2 3783   4.193   6.585   3.434
  962SOL     OW 3784   6.790   1.020   4.866
  962SOL    HW1 3785   6.839   1.068   4.939
  962SOL    HW2 3786   6.693   1.015   4.889
  963SOL     OW 3787   5.549   1.463   6.637
  963SOL    HW1 3788   5.494   1.399   6.689
  963SOL    HW2 3789   5.497   1.496   6.558
  964SOL     OW 3790   5.162   5.079   0.093
  964SOL    HW1 3791   5.223   5.020   0.041
  964SOL    HW2 3792   5.176   5.063   0.191
  965SOL     OW 3793   5.750   1.971   2.099
  965SOL    HW1 3794   5.780   1.960   2.193
  965SOL    HW2 3795   5.776   1.890   2.046
  966SOL     OW 3796   5.825   2.880   2.704
  966SOL    HW1 3797   5.827   2.871   2.604
  966SOL    HW2 3798   5.789   2.970   2.728
  967SOL     OW 3799   3.079   4.425   1.377
  967SOL    HW1 3800   3.081   4.440   1.476
  967SOL    HW2 3801   3.041   4.335   1.357
  968SOL     OW 3802   4.554   1.012   1.645
  968SOL    HW1 3803   4.456   1.025   1.630
  968SOL    HW2 3804   4.568   0.970   1.735
  969SOL     OW 3805   2.654   4.580   5.558
  969SOL    HW1 3806   2.586   4.514   5.591
  969SOL    HW2 3807   2.690   4.549   5.471
  970SOL     OW 3808   5.415   1.008   6.640
  970SOL    HW1 3809   5.389   1.055   6.725
  970SOL    HW2 3810   5.505   1.041   6.611
  971SOL     OW 3811   0.063   2.800   2.449
  971SOL    HW1 3812   0.148   2.765   2.488
  971SOL    HW2 3813   0.010   2.847   2.520
  972SOL     OW 3814   6.087   1.724   1.832
  972SOL    HW1 3815   6.112   1.719   1.735
  972SOL    HW2 3816   6.003   1.777   1.842
  973SOL     OW 3817   0.951   5.792   6.496
  973SOL    HW1 3818   0.948   5.889   6.472
  973SOL    HW2 3819   1.040   5.755   6.469
  974SOL     OW 3820   6.065   5.551   2.203
  974SOL    HW1 3821   6.125   5.486   2.157
  974SOL    HW2 3822   6.011   5.504   2.273
  975SOL     OW 3823   2.094   0.227   0.540
  975SOL    HW1 3824   2.110   0.319   0.578
  975SOL    HW2 3825   2.180   0.177   0.538
  976SOL     OW 3826   0.207   3.722   1.435
  976SOL    HW1 3827   0.152   3.749   1.514
  976SOL    HW2 3828   0.155   3.739   1.351
  977SOL     OW 3829   0.092   0.479   1.992
  977SOL    HW1 3830   0.123   0.510   2.082
  977SOL    HW2 3831   0.164   0.425   1.949
  978SOL     OW 3832   5.567   2.307   6.552
  978SOL    HW1 3833   5.603   2.353   6.634
  978SOL    HW2 3834   5.468   2.299   6.559
  979SOL     OW 3835   0.495   2.946   0.008
  979SOL    HW1 3836   0.566   3.016   0.005
  979SOL    HW2 3837   0.478   2.911   6.934
  980SOL     OW 3838   5.019   1.909   3.934
  980SOL    HW1 3839   5.032   1.996   3.981
  980SOL    HW2 3840   4.937   1.915   3.877
  981SOL     OW 3841   6.630   1.343   4.743
  981SOL    HW1 3842   6.729   1.328   4.744
  981SOL    HW2 3843   6.606   1.410   4.812
  982SOL     OW 3844   0.681   1.182   4.782
  982SOL    HW1 3845   0.659   1.280   4.786
  982SOL    HW2 3846   0.638   1.142   4.702
  983SOL     OW 3847   6.492   2.605   3.305
  983SOL    HW1 3848   6.543   2.616   3.220
  983SOL    HW2 3849   6.508   2.684   3.364
  984SOL     OW 3850   2.530   2.541   4.267
  984SOL    HW1 3851   2.555   2.555   4.363
  984SOL    HW2 3852   2.476   2.619   4.235
  985SOL     OW 3853   6.587   3.486   4.936
  985SOL    HW1 3854   6.583   3.550   4.859
  985SOL    HW2 3855   6.672   3.433   4.931
  986SOL     OW 3856   4.590   4.802   1.113
  986SOL    HW1 3857   4.527   4.817   1.188
  986SOL    HW2 3858   4.573   4.868   1.040
  987SOL     OW 3859   4.717   6.472   2.543
  987SOL    HW1 3860   4.638   6.416   2.520
  987SOL    HW2 3861   4.756   6.512   2.459
  988SOL     OW 3862   3.191   4.483   1.135
  988SOL    HW1 3863   3.249   4.402   1.125
  988SOL    HW2 3864   3.133   4.473   1.216
  989SOL     OW 3865   6.801   2.304   6.433
  989SOL    HW1 3866   6.727   2.326   6.369
  989SOL    HW2 3867   6.767   2.241   6.502
  990SOL     OW 3868   3.554   1.104   1.911
  990SOL    HW1 3869   3.638   1.049   1.906
  990SOL    HW2 3870   3.556   1.161   1.993
  991SOL     OW 3871   0.712   3.480   3.897
  991SOL    HW1 3872   0.789   3.539   3.871
  991SOL    HW2 3873   0.681   3.429   3.818
  992SOL     OW 3874   0.516   3.182   2.180
  992SOL    HW1 3875   0.538   3.192   2.277
  992SOL    HW2 3876   0.451   3.253   2.152
  993SOL     OW 3877   6.994   4.407   0.825
  993SOL    HW1 3878   0.030   4.337   0.872
  993SOL    HW2 3879   0.023   4.435   0.742
  994SOL     OW 3880   4.105   4.990   2.073
  994SOL    HW1 3881   4.123   5.088   2.085
  994SOL    HW2 3882   4.008   4.972   2.093
  995SOL     OW 3883   4.104   3.431   5.606
  995SOL    HW1 3884   4.097   3.441   5.706
  995SOL    HW2 3885   4.196   3.455   5.577
  996SOL     OW 3886   3.441   4.990   4.944
  996SOL    HW1 3887   3.360   4.954   4.898
  996SOL    HW2 3888   3.523   4.966   4.891
  997SOL     OW 3889   1.146   0.097   2.686
  997SOL    HW1 3890   1.124   0.112   2.783
  997SOL    HW2 3891   1.104   0.011   2.656
  998SOL     OW 3892   5.608   0.617   5.990
  998SOL    HW1 3893   5.516   0.630   6.027
  998SOL    HW2 3894   5.604   0.607   5.891
  999SOL     OW 3895   5.208   4.123   2.007
  999SOL    HW1 3896   5.151   4.093   2.083
  999SOL    HW2 3897   5.267   4.048   1.979
 1000SOL     OW 3898   4.177   1.868   1.710
 1000SOL    HW1 3899   4.144   1.924   1.786
 1000SOL    HW2 3900   4.100   1.845   1.650
 1001SOL     OW 3901   4.571   5.893   1.636
 1001SOL    HW1 3902   4.555   5.992   1.643
 1001SOL    HW2 3903   4.501   5.844   1.688
 1002SOL     OW 3904   5.853   2.134   0.787
 1002SOL    HW1 3905   5.893   2.086   0.709
 1002SOL    HW2 3906   5.890   2.226   0.792
 1003SOL     OW 3907   2.094   5.651   3.199
 1003SOL    HW1 3908   2.027   5.723   3.219
 1003SOL    HW2 3909   2.168   5.655   3.266
 1004SOL     OW 3910   1.003   1.167   2.139
 1004SOL    HW1 3911   0.951   1.215   2.210
 1004SOL    HW2 3912   0.976   1.200   2.049
 1005SOL     OW 3913   2.039   2.485   4.438
 1005SOL    HW1 3914   1.948   2.452   4.461
 1005SOL    HW2 3915   2.064   2.450   4.347
 1006SOL     OW 3916   1.604   4.208   0.578
 1006SOL    HW1 3917   1.694   4.165   0.581
 1006SOL    HW2 3918   1.607   4.290   0.522
 1007SOL     OW 3919   4.431   1.083   5.404
 1007SOL    HW1 3920   4.481   1.170   5.403
 1007SOL    HW2 3921   4.366   1.084   5.479
 1008SOL     OW 3922   0.496   2.076   5.693
 1008SOL    HW1 3923   0.491   2.147   5.624
 1008SOL    HW2 3924   0.452   2.108   5.777
 1009SOL     OW 3925   0.124   5.484   6.002
 1009SOL    HW1 3926   0.184   5.434   5.940
 1009SOL    HW2 3927   0.140   5.582   5.993
 1010SOL     OW 3928   2.528   2.157   1.026
 1010SOL    HW1 3929   2.534   2.123   1.120
 1010SOL    HW2 3930   2.591   2.106   0.968
 1011SOL     OW 3931   1.322   5.316   3.361
 1011SOL    HW1 3932   1.413   5.280   3.380
 1011SOL    HW2 3933   1.276   5.339   3.446
 1012SOL     OW 3934   0.563   6.859   2.039
 1012SOL    HW1 3935   0.581   6.954   2.015
 1012SOL    HW2 3936   0.588   6.844   2.135
 1013SOL     OW 3937   0.730   1.118   6.276
 1013SOL    HW1 3938   0.811   1.110   6.334
 1013SOL    HW2 3939   0.648   1.104   6.332
 1014SOL     OW 3940   0.559   3.936   5.460
 1014SOL    HW1 3941   0.587   3.986   5.542
 1014SOL    HW2 3942   0.502   3.858   5.485
 1015SOL     OW 3943   2.186   6.769   5.988
 1015SOL    HW1 3944   2.142   6.736   6.072
 1015SOL    HW2 3945   2.192   6.695   5.922
 1016SOL     OW 3946   4.103   3.756   0.261
 1016SOL    HW1 3947   4.157   3.825   0.213
 1016SOL    HW2 3948   4.048   3.800   0.332
 1017SOL     OW 3949   4.282   2.162   1.330
 1017SOL    HW1 3950   4.225   2.083   1.352
 1017SOL    HW2 3951   4.353   2.134   1.264
 1018SOL     OW 3952   0.973   4.160   4.075
 1018SOL    HW1 3953   0.945   4.122   4.164
 1018SOL    HW2 3954   1.008   4.253   4.089
 1019SOL     OW 3955   0.255   6.101   1.307
 1019SOL    HW1 3956   0.214   6.022   1.353
 1019SOL    HW2 3957   0.210   6.116   1.219
 1020SOL     OW 3958   6.249   1.299   1.600
 1020SOL    HW1 3959   6.255   1.240   1.681
 1020SOL    HW2 3960   6.159   1.290   1.559
 1021SOL     OW 3961   5.745   6.803   1.798
 1021SOL    HW1 3962   5.671   6.832   1.859
 1021SOL    HW2 3963   5.707   6.781   1.708
 1022SOL     OW 3964   2.769   4.780   5.288
 1022SOL    HW1 3965   2.803   4.707   5.228
 1022SOL    HW2 3966   2.671   4.770   5.302
 1023SOL     OW 3967   0.234   0.986   2.689
 1023SOL    HW1 3968   0.196   1.062   2.743
 1023SOL    HW2 3969   0.163   0.947   2.632
 1024SOL     OW 3970   0.203   2.121   3.905
 1024SOL    HW1 3971   0.180   2.105   4.001
 1024SOL    HW2 3972   0.254   2.042   3.870
 1025SOL     OW 3973   3.748   3.256   0.954
 1025SOL    HW1 3974   3.737   3.171   1.006
 1025SOL    HW2 3975   3.749   3.333   1.018
 1026SOL     OW 3976   2.740   3.219   1.324
 1026SOL    HW1 3977   2.748   3.230   1.225
 1026SOL    HW2 3978   2.765   3.304   1.369
 1027SOL     OW 3979   3.163   0.224   2.144
 1027SOL    HW1 3980   3.109   0.158   2.197
 1027SOL    HW2 3981   3.132   0.317   2.165
 1028SOL     OW 3982   1.547   6.660   2.754
 1028SOL    HW1 3983   1.599   6.609   2.823
 1028SOL    HW2 3984   1.505   6.740   2.796
 1029SOL     OW 3985   1.329   1.490   6.342
 1029SOL    HW1 3986   1.284   1.402   6.325
 1029SOL    HW2 3987   1.272   1.546   6.401
 1030SOL     OW 3988   3.380   3.217   1.805
 1030SOL    HW1 3989   3.399   3.229   1.902
 1030SOL    HW2 3990   3.293   3.261   1.782
 1031SOL     OW 3991   4.768   3.444   1.816
 1031SOL    HW1 3992   4.694   3.397   1.769
 1031SOL    HW2 3993   4.825   3.378   1.864
 1032SOL     OW 3994   0.527   1.047   5.101
 1032SOL    HW1 3995   0.586   1.100   5.039
 1032SOL    HW2 3996   0.550   1.069   5.196
 1033SOL     OW 3997   1.622   5.563   1.159
 1033SOL    HW1 3998   1.706   5.613   1.140
 1033SOL    HW2 3999   1.593   5.581   1.253
 1034SOL     OW 4000   1.907   5.403   4.376
 1034SOL    HW1 4001   1.918   5.382   4.473
 1034SOL    HW2 4002   1.942   5.495   4.358
 1035SOL     OW 4003   0.043   1.725   6.102
 1035SOL    HW1 4004   0.037   1.745   6.004
 1035SOL    HW2 4005   0.122   1.667   6.121
 1036SOL     OW 4006   3.856   1.069   2.027
 1036SOL    HW1 4007   3.804   1.033   1.949
 1036SOL    HW2 4008   3.952   1.042   2.018
 1037SOL     OW 4009   1.531   1.546   2.609
 1037SOL    HW1 4010   1.586   1.630   2.610
 1037SOL    HW2 4011   1.591   1.467   2.616
 1038SOL     OW 4012   1.818   1.319   5.206
 1038SOL    HW1 4013   1.905   1.367   5.192
 1038SOL    HW2 4014   1.834   1.233   5.255
 1039SOL     OW 4015   3.949   3.792   4.300
 1039SOL    HW1 4016   4.026   3.735   4.329
 1039SOL    HW2 4017   3.934   3.864   4.368
 1040SOL     OW 4018   4.888   0.958   2.224
 1040SOL    HW1 4019   4.942   1.009   2.291
 1040SOL    HW2 4020   4.831   0.891   2.271
 1041SOL     OW 4021   0.195   6.310   3.093
 1041SOL    HW1 4022   0.211   6.214   3.116
 1041SOL    HW2 4023   0.242   6.333   3.008
 1042SOL     OW 4024   3.974   5.008   2.813
 1042SOL    HW1 4025   3.990   5.105   2.834
 1042SOL    HW2 4026   3.898   4.999   2.749
 1043SOL     OW 4027   3.440   2.117   3.131
 1043SOL    HW1 4028   3.343   2.099   3.114
 1043SOL    HW2 4029   3.490   2.114   3.044
 1044SOL     OW 4030   5.854   5.297   2.677
 1044SOL    HW1 4031   5.790   5.299   2.600
 1044SOL    HW2 4032   5.938   5.251   2.649
 1045SOL     OW 4033   4.249   0.798   2.600
 1045SOL    HW1 4034   4.186   0.855   2.547
 1045SOL    HW2 4035   4.204   0.769   2.685
 1046SOL     OW 4036   1.555   1.249   0.351
 1046SOL    HW1 4037   1.533   1.198   0.434
 1046SOL    HW2 4038   1.561   1.346   0.372
 1047SOL     OW 4039   2.424   6.984   4.044
 1047SOL    HW1 4040   2.409   6.941   3.955
 1047SOL    HW2 4041   2.425   6.914   4.115
 1048SOL     OW 4042   3.271   6.370   2.544
 1048SOL    HW1 4043   3.222   6.456   2.532
 1048SOL    HW2 4044   3.291   6.357   2.641
 1049SOL     OW 4045   6.147   6.479   4.033
 1049SOL    HW1 4046   6.166   6.381   4.038
 1049SOL    HW2 4047   6.068   6.501   4.091
 1050SOL     OW 4048   3.622   4.948   2.752
 1050SOL    HW1 4049   3.689   4.967   2.681
 1050SOL    HW2 4050   3.539   5.001   2.736
 1051SOL     OW 4051   0.520   5.053   0.731
 1051SOL    HW1 4052   0.521   5.014   0.823
 1051SOL    HW2 4053   0.607   5.034   0.685
 1052SOL     OW 4054   4.280   1.128   5.610
 1052SOL    HW1 4055   4.321   1.163   5.695
 1052SOL    HW2 4056   4.197   1.179   5.590
 1053SOL     OW 4057   6.340   3.805   2.671
 1053SOL    HW1 4058   6.275   3.755   2.728
 1053SOL    HW2 4059   6.295   3.836   2.588
 1054SOL     OW 4060   2.716   3.619   0.841
 1054SOL    HW1 4061   2.808   3.615   0.801
 1054SOL    HW2 4062   2.723   3.650   0.936
 1055SOL     OW 4063   4.101   6.570   5.282
 1055SOL    HW1 4064   4.099   6.559   5.183
 1055SOL    HW2 4065   4.195   6.587   5.312
 1056SOL     OW 4066   1.540   3.266   0.133
 1056SOL    HW1 4067   1.521   3.189   0.195
 1056SOL    HW2 4068   1.634   3.298   0.149
 1057SOL     OW 4069   3.734   3.479   1.117
 1057SOL    HW1 4070   3.815   3.474   1.174
 1057SOL    HW2 4071   3.660   3.525   1.167
 1058SOL     OW 4072   5.071   2.175   3.736
 1058SOL    HW1 4073   5.110   2.084   3.719
 1058SOL    HW2 4074   5.112   2.215   3.818
 1059SOL     OW 4075   1.971   0.784   2.281
 1059SOL    HW1 4076   1.932   0.694   2.262
 1059SOL    HW2 4077   2.062   0.791   2.240
 1060SOL     OW 4078   0.255   4.807   3.728
 1060SOL    HW1 4079   0.230   4.820   3.632
 1060SOL    HW2 4080   0.340   4.755   3.734
 1061SOL     OW 4081   6.551   3.427   6.328
 1061SOL    HW1 4082   6.609   3.496   6.371
 1061SOL    HW2 4083   6.494   3.469   6.259
 1062SOL     OW 4084   5.084   5.353   5.742
 1062SOL    HW1 4085   5.005   5.326   5.687
 1062SOL    HW2 4086   5.110   5.279   5.803
 1063SOL     OW 4087   0.909   5.626   0.182
 1063SOL    HW1 4088   0.897   5.533   0.147
 1063SOL    HW2 4089   0.988   5.629   0.243
 1064SOL     OW 4090   1.346   4.473   2.953
 1064SOL    HW1 4091   1.289   4.398   2.920
 1064SOL    HW2 4092   1.330   4.486   3.051
 1065SOL     OW 4093   4.460   0.949   2.674
 1065SOL    HW1 4094   4.388   0.886   2.645
 1065SOL    HW2 4095   4.479   0.934   2.771
 1066SOL     OW 4096   4.623   6.725   2.628
 1066SOL    HW1 4097   4.631   6.647   2.566
 1066SOL    HW2 4098   4.654   6.699   2.719
 1067SOL     OW 4099   1.265   2.733   0.062
 1067SOL    HW1 4100   1.271   2.773   0.153
 1067SOL    HW2 4101   1.339   2.767   0.005
 1068SOL     OW 4102   6.930   4.409   1.709
 1068SOL    HW1 4103   6.985   4.482   1.669
 1068SOL    HW2 4104   6.951   4.323   1.663
 1069SOL     OW 4105   5.238   6.012   0.807
 1069SOL    HW1 4106   5.156   6.013   0.749
 1069SOL    HW2 4107   5.212   6.030   0.902
 1070SOL     OW 4108   1.212   0.019   1.444
 1070SOL    HW1 4109   1.273   7.013   1.520
 1070SOL    HW2 4110   1.162   0.102   1.468
 1071SOL     OW 4111   2.045   1.207   3.575
 1071SOL    HW1 4112   2.032   1.163   3.663
 1071SOL    HW2 4113   2.007   1.149   3.502
 1072SOL     OW 4114   2.528   1.095   1.292
 1072SOL    HW1 4115   2.518   1.039   1.374
 1072SOL    HW2 4116   2.556   1.188   1.317
 1073SOL     OW 4117   5.100   0.799   3.609
 1073SOL    HW1 4118   5.010   0.840   3.595
 1073SOL    HW2 4119   5.113   0.723   3.546
 1074SOL     OW 4120   2.600   5.314   1.765
 1074SOL    HW1 4121   2.696   5.288   1.764
 1074SOL    HW2 4122   2.591   5.411   1.786
 1075SOL     OW 4123   5.971   0.054   2.922
 1075SOL    HW1 4124   5.930   0.024   2.836
 1075SOL    HW2 4125   6.038   7.004   2.952
 1076SOL     OW 4126   0.903   2.434   5.574
 1076SOL    HW1 4127   0.850   2.349   5.574
 1076SOL    HW2 4128   0.867   2.496   5.643
 1077SOL     OW 4129   6.259   6.791   0.655
 1077SOL    HW1 4130   6.164   6.814   0.678
 1077SOL    HW2 4131   6.313   6.874   0.645
 1078SOL     OW 4132   6.631   0.989   2.375
 1078SOL    HW1 4133   6.663   1.073   2.332
 1078SOL    HW2 4134   6.532   0.994   2.388
 1079SOL     OW 4135   1.500   5.977   2.163
 1079SOL    HW1 4136   1.519   5.918   2.241
 1079SOL    HW2 4137   1.522   6.072   2.187
 1080SOL     OW 4138   2.152   5.417   3.528
 1080SOL    HW1 4139   2.086   5.492   3.527
 1080SOL    HW2 4140   2.136   5.358   3.449
 1081SOL     OW 4141   6.587   5.447   5.244
 1081SOL    HW1 4142   6.596   5.353   5.211
 1081SOL    HW2 4143   6.649   5.462   5.321
 1082SOL     OW 4144   5.400   2.227   5.808
 1082SOL    HW1 4145   5.420   2.238   5.906
 1082SOL    HW2 4146   5.484   2.202   5.760
 1083SOL     OW 4147   4.736   3.938   0.409
 1083SOL    HW1 4148   4.771   4.009   0.347
 1083SOL    HW2 4149   4.661   3.889   0.365
 1084SOL     OW 4150   6.499   6.545   6.402
 1084SOL    HW1 4151   6.440   6.578   6.476
 1084SOL    HW2 4152   6.457   6.466   6.358
 1085SOL     OW 4153   1.455   3.915   4.403
 1085SOL    HW1 4154   1.542   3.879   4.371
 1085SOL    HW2 4155   1.445   3.896   4.500
 1086SOL     OW 4156   6.911   4.123   0.167
 1086SOL    HW1 4157   6.851   4.135   0.246
 1086SOL    HW2 4158   6.883   4.041   0.116
 1087SOL     OW 4159   0.360   2.100   4.922
 1087SOL    HW1 4160   0.344   2.138   5.014
 1087SOL    HW2 4161   0.454   2.068   4.916
 1088SOL     OW 4162   6.781   3.546   2.491
 1088SOL    HW1 4163   6.731   3.632   2.507
 1088SOL    HW2 4164   6.738   3.472   2.543
 1089SOL     OW 4165   6.460   5.889   4.479
 1089SOL    HW1 4166   6.363   5.909   4.493
 1089SOL    HW2 4167   6.496   5.838   4.557
 1090SOL     OW 4168   3.311   1.844   2.951
 1090SOL    HW1 4169   3.250   1.905   3.001
 1090SOL    HW2 4170   3.258   1.782   2.894
 1091SOL     OW 4171   2.434   2.251   4.658
 1091SOL    HW1 4172   2.397   2.287   4.572
 1091SOL    HW2 4173   2.414   2.153   4.664
 1092SOL     OW 4174   1.005   4.629   0.174
 1092SOL    HW1 4175   0.911   4.638   0.141
 1092SOL    HW2 4176   1.015   4.543   0.224
 1093SOL     OW 4177   2.744   6.734   1.355
 1093SOL    HW1 4178   2.762   6.673   1.432
 1093SOL    HW2 4179   2.661   6.705   1.308
 1094SOL     OW 4180   0.979   6.541   3.349
 1094SOL    HW1 4181   1.068   6.586   3.344
 1094SOL    HW2 4182   0.942   6.529   3.256
 1095SOL     OW 4183   0.594   2.655   5.942
 1095SOL    HW1 4184   0.533   2.590   5.988
 1095SOL    HW2 4185   0.599   2.739   5.995
 1096SOL     OW 4186   3.543   4.431   1.190
 1096SOL    HW1 4187   3.631   4.476   1.208
 1096SOL    HW2 4188   3.486   4.438   1.272
 1097SOL     OW 4189   2.681   4.724   3.901
 1097SOL    HW1 4190   2.682   4.661   3.979
 1097SOL    HW2 4191   2.592   4.718   3.855
 1098SOL     OW 4192   4.974   3.519   6.762
 1098SOL    HW1 4193   4.988   3.581   6.685
 1098SOL    HW2 4194   5.025   3.434   6.748
 1099SOL     OW 4195   3.863   1.038   6.076
 1099SOL    HW1 4196   3.841   1.071   5.984
 1099SOL    HW2 4197   3.804   0.960   6.099
 1100SOL     OW 4198   4.193   1.592   4.329
 1100SOL    HW1 4199   4.189   1.655   4.252
 1100SOL    HW2 4200   4.140   1.510   4.308
 1101SOL     OW 4201   5.536   3.797   5.530
 1101SOL    HW1 4202   5.493   3.741   5.460
 1101SOL    HW2 4203   5.606   3.744   5.578
 1102SOL     OW 4204   1.137   0.898   5.031
 1102SOL    HW1 4205   1.171   0.965   4.965
 1102SOL    HW2 4206   1.120   0.811   4.984
 1103SOL     OW 4207   3.709   1.006   0.351
 1103SOL    HW1 4208   3.778   0.990   0.422
 1103SOL    HW2 4209   3.741   0.969   0.264
 1104SOL     OW 4210   1.856   3.137   4.473
 1104SOL    HW1 4211   1.824   3.098   4.559
 1104SOL    HW2 4212   1.951   3.166   4.483
 1105SOL     OW 4213   5.848   3.140   4.986
 1105SOL    HW1 4214   5.829   3.232   4.951
 1105SOL    HW2 4215   5.804   3.073   4.927
 1106SOL     OW 4216   0.854   2.447   0.630
 1106SOL    HW1 4217   0.821   2.492   0.547
 1106SOL    HW2 4218   0.777   2.408   0.680
 1107SOL     OW 4219   1.325   0.465   0.275
 1107SOL    HW1 4220   1.352   0.438   0.367
 1107SOL    HW2 4221   1.313   0.383   0.219
 1108SOL     OW 4222   3.617   6.944   5.589
 1108SOL    HW1 4223   3.556   6.865   5.579
 1108SOL    HW2 4224   3.670   6.956   5.506
 1109SOL     OW 4225   5.656   1.088   4.209
 1109SOL    HW1 4226   5.709   1.098   4.293
 1109SOL    HW2 4227   5.559   1.101   4.229
 1110SOL     OW 4228   4.204   2.264   3.115
 1110SOL    HW1 4229   4.282   2.311   3.074
 1110SOL    HW2 4230   4.237   2.196   3.181
 1111SOL     OW 4231   5.711   5.564   6.815
 1111SOL    HW1 4232   5.625   5.538   6.859
 1111SOL    HW2 4233   5.694   5.590   6.720
 1112SOL     OW 4234   6.073   1.355   2.419
 1112SOL    HW1 4235   6.059   1.412   2.338
 1112SOL    HW2 4236   6.077   1.414   2.500
 1113SOL     OW 4237   5.618   4.694   1.396
 1113SOL    HW1 4238   5.535   4.746   1.377
 1113SOL    HW2 4239   5.594   4.613   1.450
 1114SOL     OW 4240   2.654   1.096   6.254
 1114SOL    HW1 4241   2.743   1.057   6.276
 1114SOL    HW2 4242   2.664   1.166   6.183
 1115SOL     OW 4243   3.665   3.623   5.542
 1115SOL    HW1 4244   3.751   3.625   5.591
 1115SOL    HW2 4245   3.590   3.648   5.603
 1116SOL     OW 4246   4.893   6.518   6.729
 1116SOL    HW1 4247   4.814   6.456   6.735
 1116SOL    HW2 4248   4.899   6.571   6.814
 1117SOL     OW 4249   0.988   2.315   2.006
 1117SOL    HW1 4250   1.042   2.326   1.922
 1117SOL    HW2 4251   1.025   2.241   2.061
 1118SOL     OW 4252   2.139   4.967   0.400
 1118SOL    HW1 4253   2.045   4.981   0.371
 1118SOL    HW2 4254   2.141   4.908   0.481
 1119SOL     OW 4255   4.075   4.465   1.713
 1119SOL    HW1 4256   4.031   4.552   1.690
 1119SOL    HW2 4257   4.165   4.483   1.754
 1120SOL     OW 4258   5.908   5.825   0.876
 1120SOL    HW1 4259   6.007   5.819   0.881
 1120SOL    HW2 4260   5.881   5.861   0.786
 1121SOL     OW 4261   6.927   4.426   4.691
 1121SOL    HW1 4262   6.843   4.470   4.659
 1121SOL    HW2 4263   7.004   4.488   4.678
 1122SOL     OW 4264   5.279   2.783   1.766
 1122SOL    HW1 4265   5.265   2.880   1.749
 1122SOL    HW2 4266   5.192   2.735   1.758
 1123SOL     OW 4267   5.254   2.493   3.265
 1123SOL    HW1 4268   5.287   2.505   3.171
 1123SOL    HW2 4269   5.332   2.478   3.326
 1124SOL     OW 4270   0.184   3.792   5.267
 1124SOL    HW1 4271   0.222   3.699   5.259
 1124SOL    HW2 4272   0.103   3.789   5.325
 1125SOL     OW 4273   2.057   1.665   3.752
 1125SOL    HW1 4274   2.011   1.646   3.665
 1125SOL    HW2 4275   2.059   1.764   3.767
 1126SOL     OW 4276   5.782   5.791   6.180
 1126SOL    HW1 4277   5.721   5.852   6.231
 1126SOL    HW2 4278   5.872   5.791   6.222
 1127SOL     OW 4279   5.262   6.270   4.615
 1127SOL    HW1 4280   5.330   6.343   4.601
 1127SOL    HW2 4281   5.214   6.286   4.701
 1128SOL     OW 4282   5.544   1.764   3.996
 1128SOL    HW1 4283   5.507   1.678   3.961
 1128SOL    HW2 4284   5.472   1.833   3.998
 1129SOL     OW 4285   1.843   6.844   0.868
 1129SOL    HW1 4286   1.917   6.911   0.867
 1129SOL    HW2 4287   1.797   6.845   0.779
 1130SOL     OW 4288   2.078   5.348   0.561
 1130SOL    HW1 4289   2.119   5.336   0.471
 1130SOL    HW2 4290   2.034   5.263   0.590
 1131SOL     OW 4291   1.172   0.011   5.584
 1131SOL    HW1 4292   1.156   6.932   5.600
 1131SOL    HW2 4293   1.134   0.064   5.661
 1132SOL     OW 4294   4.682   6.983   2.588
 1132SOL    HW1 4295   4.616   0.017   2.534
 1132SOL    HW2 4296   4.641   6.897   2.617
 1133SOL     OW 4297   1.188   1.150   0.200
 1133SOL    HW1 4298   1.248   1.084   0.246
 1133SOL    HW2 4299   1.104   1.161   0.254
 1134SOL     OW 4300   4.947   0.051   2.549
 1134SOL    HW1 4301   5.010   6.993   2.563
 1134SOL    HW2 4302   4.859   0.030   2.592
 1135SOL     OW 4303   2.143   6.562   4.278
 1135SOL    HW1 4304   2.138   6.485   4.341
 1135SOL    HW2 4305   2.186   6.532   4.192
 1136SOL     OW 4306   4.490   4.528   3.301
 1136SOL    HW1 4307   4.489   4.528   3.401
 1136SOL    HW2 4308   4.567   4.474   3.268
 1137SOL     OW 4309   1.321   0.127   0.452
 1137SOL    HW1 4310   1.299   0.091   0.543
 1137SOL    HW2 4311   1.279   0.069   0.382
 1138SOL     OW 4312   0.029   1.164   5.989
 1138SOL    HW1 4313   0.036   1.162   5.889
 1138SOL    HW2 4314   6.990   1.088   6.019
 1139SOL     OW 4315   2.663   4.872   3.128
 1139SOL    HW1 4316   2.650   4.923   3.043
 1139SOL    HW2 4317   2.749   4.900   3.170
 1140SOL     OW 4318   2.871   1.061   2.463
 1140SOL    HW1 4319   2.966   1.060   2.493
 1140SOL    HW2 4320   2.820   1.130   2.516
 1141SOL     OW 4321   0.490   6.195   0.296
 1141SOL    HW1 4322   0.519   6.290   0.288
 1141SOL    HW2 4323   0.550   6.146   0.359
 1142SOL     OW 4324   3.119   0.322   4.065
 1142SOL    HW1 4325   3.214   0.354   4.070
 1142SOL    HW2 4326   3.107   0.266   3.983
 1143SOL     OW 4327   2.424   2.637   2.973
 1143SOL    HW1 4328   2.454   2.608   3.064
 1143SOL    HW2 4329   2.354   2.708   2.982
 1144SOL     OW 4330   6.256   4.497   3.529
 1144SOL    HW1 4331   6.273   4.424   3.595
 1144SOL    HW2 4332   6.291   4.469   3.440
 1145SOL     OW 4333   0.132   2.771   0.854
 1145SOL    HW1 4334   0.139   2.685   0.905
 1145SOL    HW2 4335   0.143   2.848   0.916
 1146SOL     OW 4336   0.143   0.892   1.867
 1146SOL    HW1 4337   0.235   0.858   1.885
 1146SOL    HW2 4338   0.084   0.815   1.841
 1147SOL     OW 4339   3.003   5.447   1.825
 1147SOL    HW1 4340   3.095   5.476   1.852
 1147SOL    HW2 4341   2.947   5.435   1.907
 1148SOL     OW 4342   4.776   6.372   0.565
 1148SOL    HW1 4343   4.770   6.273   0.579
 1148SOL    HW2 4344   4.863   6.394   0.521
 1149SOL     OW 4345   5.513   2.755   2.506
 1149SOL    HW1 4346   5.586   2.686   2.504
 1149SOL    HW2 4347   5.551   2.844   2.479
 1150SOL     OW 4348   0.752   4.438   6.855
 1150SOL    HW1 4349   0.735   4.536   6.868
 1150SOL    HW2 4350   0.846   4.425   6.824
 1151SOL     OW 4351   5.919   4.576   5.537
 1151SOL    HW1 4352   5.854   4.518   5.489
 1151SOL    HW2 4353   5.876   4.613   5.620
 1152SOL     OW 4354   4.516   5.896   6.329
 1152SOL    HW1 4355   4.436   5.886   6.388
 1152SOL    HW2 4356   4.498   5.852   6.241
 1153SOL     OW 4357   0.264   6.817   2.136
 1153SOL    HW1 4358   0.228   6.865   2.056
 1153SOL    HW2 4359   0.309   6.883   2.197
 1154SOL     OW 4360   0.595   4.700   1.081
 1154SOL    HW1 4361   0.682   4.677   1.126
 1154SOL    HW2 4362   0.599   4.794   1.047
 1155SOL     OW 4363   2.819   4.891   5.833
 1155SOL    HW1 4364   2.838   4.983   5.797
 1155SOL    HW2 4365   2.898   4.832   5.817
 1156SOL     OW 4366   4.442   1.753   5.316
 1156SOL    HW1 4367   4.475   1.729   5.407
 1156SOL    HW2 4368   4.462   1.849   5.297
 1157SOL     OW 4369   5.388   1.082   6.087
 1157SOL    HW1 4370   5.350   1.075   6.180
 1157SOL    HW2 4371   5.389   0.992   6.044
 1158SOL     OW 4372   6.552   5.231   5.027
 1158SOL    HW1 4373   6.497   5.302   4.984
 1158SOL    HW2 4374   6.521   5.141   4.996
 1159SOL     OW 4375   6.637   0.069   3.823
 1159SOL    HW1 4376   6.598   7.017   3.763
 1159SOL    HW2 4377   6.611   0.049   3.918
 1160SOL     OW 4378   4.551   5.085   1.451
 1160SOL    HW1 4379   4.529   5.171   1.497
 1160SOL    HW2 4380   4.647   5.085   1.423
 1161SOL     OW 4381   6.850   5.731   5.892
 1161SOL    HW1 4382   6.871   5.635   5.876
 1161SOL    HW2 4383   6.830   5.775   5.804
 1162SOL     OW 4384   2.236   1.867   6.341
 1162SOL    HW1 4385   2.234   1.874   6.441
 1162SOL    HW2 4386   2.202   1.777   6.313
 1163SOL     OW 4387   6.421   4.334   1.922
 1163SOL    HW1 4388   6.458   4.357   2.012
 1163SOL    HW2 4389   6.323   4.356   1.920
 1164SOL     OW 4390   4.809   2.404   3.695
 1164SOL    HW1 4391   4.723   2.452   3.712
 1164SOL    HW2 4392   4.814   2.323   3.754
 1165SOL     OW 4393   4.520   5.692   3.884
 1165SOL    HW1 4394   4.579   5.749   3.826
 1165SOL    HW2 4395   4.433   5.740   3.899
 1166SOL     OW 4396   2.676   6.491   0.250
 1166SOL    HW1 4397   2.776   6.486   0.242
 1166SOL    HW2 4398   2.634   6.441   0.174
 1167SOL     OW 4399   4.187   6.647   0.767
 1167SOL    HW1 4400   4.106   6.589   0.775
 1167SOL    HW2 4401   4.269   6.590   0.776
 1168SOL     OW 4402   5.600   3.010   1.394
 1168SOL    HW1 4403   5.693   2.990   1.366
 1168SOL    HW2 4404   5.556   2.926   1.427
 1169SOL     OW 4405   4.544   1.772   5.840
 1169SOL    HW1 4406   4.504   1.758   5.750
 1169SOL    HW2 4407   4.489   1.725   5.909
 1170SOL     OW 4408   4.929   6.888   2.873
 1170SOL    HW1 4409   4.849   6.861   2.819
 1170SOL    HW2 4410   4.935   6.831   2.954
 1171SOL     OW 4411   3.164   6.471   6.880
 1171SOL    HW1 4412   3.259   6.462   6.850
 1171SOL    HW2 4413   3.151   6.422   6.966
 1172SOL     OW 4414   3.952   4.029   0.709
 1172SOL    HW1 4415   3.948   4.047   0.611
 1172SOL    HW2 4416   4.046   4.043   0.742
 1173SOL     OW 4417   3.796   1.240   0.823
 1173SOL    HW1 4418   3.768   1.312   0.888
 1173SOL    HW2 4419   3.826   1.282   0.738
 1174SOL     OW 4420   2.590   4.217   1.479
 1174SOL    HW1 4421   2.645   4.292   1.442
 1174SOL    HW2 4422   2.644   4.166   1.546
 1175SOL     OW 4423   4.181   3.862   6.215
 1175SOL    HW1 4424   4.255   3.876   6.150
 1175SOL    HW2 4425   4.203   3.906   6.302
 1176SOL     OW 4426   5.246   3.857   0.371
 1176SOL    HW1 4427   5.285   3.767   0.390
 1176SOL    HW2 4428   5.302   3.928   0.413
 1177SOL     OW 4429   6.405   3.739   4.561
 1177SOL    HW1 4430   6.415   3.660   4.501
 1177SOL    HW2 4431   6.309   3.766   4.564
 1178SOL     OW 4432   3.084   4.053   0.850
 1178SOL    HW1 4433   3.016   4.014   0.788
 1178SOL    HW2 4434   3.041   4.122   0.908
 1179SOL     OW 4435   2.810   5.817   0.993
 1179SOL    HW1 4436   2.836   5.875   0.916
 1179SOL    HW2 4437   2.742   5.750   0.962
 1180SOL     OW 4438   2.676   6.048   3.977
 1180SOL    HW1 4439   2.635   6.016   3.891
 1180SOL    HW2 4440   2.776   6.039   3.971
 1181SOL     OW 4441   0.181   5.430   5.052
 1181SOL    HW1 4442   0.163   5.342   5.097
 1181SOL    HW2 4443   0.173   5.418   4.953
 1182SOL     OW 4444   5.341   5.220   3.843
 1182SOL    HW1 4445   5.263   5.251   3.788
 1182SOL    HW2 4446   5.377   5.135   3.804
 1183SOL     OW 4447   2.684   4.824   0.436
 1183SOL    HW1 4448   2.671   4.736   0.481
 1183SOL    HW2 4449   2.704   4.894   0.505
 1184SOL     OW 4450   6.972   1.416   5.070
 1184SOL    HW1 4451   6.893   1.474   5.049
 1184SOL    HW2 4452   6.990   1.419   5.168
 1185SOL     OW 4453   0.749   0.910   1.115
 1185SOL    HW1 4454   0.811   0.971   1.066
 1185SOL    HW2 4455   0.775   0.815   1.097
 1186SOL     OW 4456   4.707   6.128   5.393
 1186SOL    HW1 4457   4.807   6.133   5.404
 1186SOL    HW2 4458   4.673   6.046   5.440
 1187SOL     OW 4459   4.711   0.195   5.777
 1187SOL    HW1 4460   4.658   0.212   5.695
 1187SOL    HW2 4461   4.803   0.235   5.767
 1188SOL     OW 4462   3.297   6.182   6.118
 1188SOL    HW1 4463   3.352   6.174   6.034
 1188SOL    HW2 4464   3.201   6.163   6.096
 1189SOL     OW 4465   6.424   1.589   1.798
 1189SOL    HW1 4466   6.356   1.562   1.729
 1189SOL    HW2 4467   6.401   1.679   1.834
 1190SOL     OW 4468   3.646   5.904   3.835
 1190SOL    HW1 4469   3.712   5.954   3.892
 1190SOL    HW2 4470   3.695   5.847   3.769
 1191SOL     OW 4471   4.281   5.385   4.775
 1191SOL    HW1 4472   4.347   5.329   4.726
 1191SOL    HW2 4473   4.198   5.395   4.721
 1192SOL     OW 4474   5.048   4.521   2.483
 1192SOL    HW1 4475   5.094   4.454   2.542
 1192SOL    HW2 4476   4.950   4.502   2.481
 1193SOL     OW 4477   6.975   1.933   4.683
 1193SOL    HW1 4478   6.990   1.908   4.587
 1193SOL    HW2 4479   0.044   1.933   4.731
 1194SOL     OW 4480   5.647   0.081   1.689
 1194SOL    HW1 4481   5.737   0.056   1.654
 1194SOL    HW2 4482   5.591   7.017   1.701
 1195SOL     OW 4483   0.495   3.997   0.896
 1195SOL    HW1 4484   0.423   4.058   0.929
 1195SOL    HW2 4485   0.490   3.990   0.797
 1196SOL     OW 4486   6.746   5.189   3.531
 1196SOL    HW1 4487   6.691   5.116   3.490
 1196SOL    HW2 4488   6.807   5.228   3.462
 1197SOL     OW 4489   4.545   6.854   5.075
 1197SOL    HW1 4490   4.513   6.949   5.083
 1197SOL    HW2 4491   4.644   6.852   5.086
 1198SOL     OW 4492   1.551   3.249   2.967
 1198SOL    HW1 4493   1.553   3.328   3.028
 1198SOL    HW2 4494   1.643   3.211   2.960
 1199SOL     OW 4495   3.341   4.173   1.069
 1199SOL    HW1 4496   3.334   4.095   1.007
 1199SOL    HW2 4497   3.420   4.161   1.129
 1200SOL     OW 4498   3.436   3.990   4.175
 1200SOL    HW1 4499   3.337   3.976   4.178
 1200SOL    HW2 4500   3.459   4.071   4.230
 1201SOL     OW 4501   0.826   1.498   4.574
 1201SOL    HW1 4502   0.849   1.401   4.574
 1201SOL    HW2 4503   0.767   1.518   4.653
 1202SOL     OW 4504   0.254   5.478   5.733
 1202SOL    HW1 4505   0.318   5.535   5.681
 1202SOL    HW2 4506   0.166   5.475   5.684
 1203SOL     OW 4507   0.072   6.069   0.221
 1203SOL    HW1 4508   0.010   6.144   0.245
 1203SOL    HW2 4509   0.021   5.996   0.175
 1204SOL     OW 4510   4.772   1.467   1.471
 1204SOL    HW1 4511   4.728   1.404   1.535
 1204SOL    HW2 4512   4.752   1.438   1.377
 1205SOL     OW 4513   4.013   3.068   0.746
 1205SOL    HW1 4514   3.916   3.050   0.763
 1205SOL    HW2 4515   4.027   3.166   0.732
 1206SOL     OW 4516   2.787   2.751   5.428
 1206SOL    HW1 4517   2.847   2.817   5.383
 1206SOL    HW2 4518   2.691   2.772   5.406
 1207SOL     OW 4519   2.423   6.454   0.963
 1207SOL    HW1 4520   2.401   6.362   0.929
 1207SOL    HW2 4521   2.339   6.500   0.991
 1208SOL     OW 4522   3.613   3.626   1.386
 1208SOL    HW1 4523   3.674   3.690   1.340
 1208SOL    HW2 4524   3.518   3.652   1.369
 1209SOL     OW 4525   4.308   0.400   4.072
 1209SOL    HW1 4526   4.265   0.372   3.986
 1209SOL    HW2 4527   4.240   0.403   4.144
 1210SOL     OW 4528   3.579   0.085   3.126
 1210SOL    HW1 4529   3.594   7.010   3.092
 1210SOL    HW2 4530   3.665   0.121   3.163
 1211SOL     OW 4531   0.479   3.619   2.904
 1211SOL    HW1 4532   0.439   3.576   2.985
 1211SOL    HW2 4533   0.415   3.610   2.828
 1212SOL     OW 4534   6.225   0.652   0.224
 1212SOL    HW1 4535   6.281   0.719   0.175
 1212SOL    HW2 4536   6.204   0.576   0.163
 1213SOL     OW 4537   6.056   2.508   1.017
 1213SOL    HW1 4538   6.026   2.463   1.101
 1213SOL    HW2 4539   6.009   2.596   1.008
 1214SOL     OW 4540   1.315   2.962   6.851
 1214SOL    HW1 4541   1.400   2.926   6.890
 1214SOL    HW2 4542   1.319   3.062   6.850
 1215SOL     OW 4543   1.120   4.557   3.466
 1215SOL    HW1 4544   1.166   4.488   3.521
 1215SOL    HW2 4545   1.143   4.545   3.370
 1216SOL     OW 4546   4.976   0.188   1.087
 1216SOL    HW1 4547   4.985   0.114   1.021
 1216SOL    HW2 4548   4.881   0.195   1.118
 1217SOL     OW 4549   2.462   4.891   1.117
 1217SOL    HW1 4550   2.369   4.887   1.155
 1217SOL    HW2 4551   2.509   4.972   1.151
 1218SOL     OW 4552   1.418   3.590   4.832
 1218SOL    HW1 4553   1.515   3.578   4.815
 1218SOL    HW2 4554   1.404   3.622   4.926
 1219SOL     OW 4555   5.066   5.959   2.127
 1219SOL    HW1 4556   5.159   5.995   2.126
 1219SOL    HW2 4557   5.052   5.904   2.209
 1220SOL     OW 4558   0.838   4.400   3.346
 1220SOL    HW1 4559   0.863   4.319   3.292
 1220SOL    HW2 4560   0.916   4.426   3.404
 1221SOL     OW 4561   5.046   4.252   6.277
 1221SOL    HW1 4562   5.136   4.290   6.298
 1221SOL    HW2 4563   5.034   4.165   6.324
 1222SOL     OW 4564   6.991   0.573   0.028
 1222SOL    HW1 4565   6.960   0.573   0.123
 1222SOL    HW2 4566   6.945   0.645   6.996
 1223SOL     OW 4567   4.124   1.860   0.033
 1223SOL    HW1 4568   4.102   1.766   0.005
 1223SOL    HW2 4569   4.040   1.908   0.059
 1224SOL     OW 4570   3.608   5.540   0.998
 1224SOL    HW1 4571   3.584   5.458   1.051
 1224SOL    HW2 4572   3.572   5.532   0.905
 1225SOL     OW 4573   3.095   3.297   6.263
 1225SOL    HW1 4574   3.194   3.293   6.277
 1225SOL    HW2 4575   3.075   3.343   6.176
 1226SOL     OW 4576   2.802   6.058   2.021
 1226SOL    HW1 4577   2.720   6.024   1.975
 1226SOL    HW2 4578   2.869   5.984   2.028
 1227SOL     OW 4579   6.549   4.551   5.690
 1227SOL    HW1 4580   6.629   4.492   5.684
 1227SOL    HW2 4581   6.497   4.546   5.605
 1228SOL     OW 4582   3.173   1.567   6.233
 1228SOL    HW1 4583   3.223   1.548   6.149
 1228SOL    HW2 4584   3.125   1.655   6.224
 1229SOL     OW 4585   3.669   4.980   5.622
 1229SOL    HW1 4586   3.578   5.015   5.601
 1229SOL    HW2 4587   3.687   4.990   5.720
 1230SOL     OW 4588   4.448   6.431   2.535
 1230SOL    HW1 4589   4.382   6.356   2.538
 1230SOL    HW2 4590   4.402   6.517   2.561
 1231SOL     OW 4591   2.002   2.875   4.827
 1231SOL    HW1 4592   1.918   2.927   4.840
 1231SOL    HW2 4593   1.993   2.815   4.748
 1232SOL     OW 4594   0.541   1.724   5.173
 1232SOL    HW1 4595   0.528   1.720   5.074
 1232SOL    HW2 4596   0.462   1.769   5.215
 1233SOL     OW 4597   0.844   4.472   5.276
 1233SOL    HW1 4598   0.805   4.495   5.186
 1233SOL    HW2 4599   0.829   4.547   5.339
 1234SOL     OW 4600   6.576   3.641   5.279
 1234SOL    HW1 4601   6.482   3.610   5.282
 1234SOL    HW2 4602   6.600   3.668   5.186
 1235SOL     OW 4603   0.277   5.712   2.526
 1235SOL    HW1 4604   0.334   5.696   2.607
 1235SOL    HW2 4605   0.284   5.808   2.499
 1236SOL     OW 4606   4.360   1.493   6.885
 1236SOL    HW1 4607   4.385   1.399   6.859
 1236SOL    HW2 4608   4.396   1.513   6.976
 1237SOL     OW 4609   2.194   5.393   5.163
 1237SOL    HW1 4610   2.228   5.302   5.187
 1237SOL    HW2 4611   2.124   5.421   5.228
 1238SOL     OW 4612   2.601   1.379   0.383
 1238SOL    HW1 4613   2.632   1.404   0.292
 1238SOL    HW2 4614   2.673   1.397   0.449
 1239SOL     OW 4615   6.693   6.741   6.072
 1239SOL    HW1 4616   6.680   6.646   6.043
 1239SOL    HW2 4617   6.790   6.764   6.068
 1240SOL     OW 4618   5.509   6.882   1.904
 1240SOL    HW1 4619   5.427   6.858   1.956
 1240SOL    HW2 4620   5.542   6.972   1.933
 1241SOL     OW 4621   5.354   3.706   4.194
 1241SOL    HW1 4622   5.405   3.778   4.148
 1241SOL    HW2 4623   5.285   3.668   4.132
 1242SOL     OW 4624   0.555   3.664   1.842
 1242SOL    HW1 4625   0.529   3.741   1.783
 1242SOL    HW2 4626   0.629   3.612   1.798
 1243SOL     OW 4627   6.980   0.078   4.727
 1243SOL    HW1 4628   0.054   0.045   4.709
 1243SOL    HW2 4629   6.968   0.095   4.825
 1244SOL     OW 4630   6.164   0.037   4.239
 1244SOL    HW1 4631   6.243   0.050   4.179
 1244SOL    HW2 4632   6.169   0.101   4.316
 1245SOL     OW 4633   4.690   5.252   0.567
 1245SOL    HW1 4634   4.727   5.165   0.601
 1245SOL    HW2 4635   4.677   5.246   0.468
 1246SOL     OW 4636   2.525   6.228   1.927
 1246SOL    HW1 4637   2.625   6.229   1.923
 1246SOL    HW2 4638   2.495   6.270   2.013
 1247SOL     OW 4639   2.102   0.420   6.744
 1247SOL    HW1 4640   2.061   0.479   6.813
 1247SOL    HW2 4641   2.051   0.429   6.658
 1248SOL     OW 4642   2.585   0.216   5.239
 1248SOL    HW1 4643   2.539   0.247   5.322
 1248SOL    HW2 4644   2.668   0.270   5.224
 1249SOL     OW 4645   5.909   2.188   2.790
 1249SOL    HW1 4646   5.929   2.257   2.721
 1249SOL    HW2 4647   5.880   2.233   2.875
 1250SOL     OW 4648   5.940   4.746   4.689
 1250SOL    HW1 4649   6.008   4.678   4.719
 1250SOL    HW2 4650   5.944   4.826   4.749
 1251SOL     OW 4651   3.653   0.765   4.291
 1251SOL    HW1 4652   3.654   0.667   4.270
 1251SOL    HW2 4653   3.572   0.786   4.346
 1252SOL     OW 4654   3.736   3.407   4.999
 1252SOL    HW1 4655   3.662   3.377   5.060
 1252SOL    HW2 4656   3.790   3.478   5.045
 1253SOL     OW 4657   3.283   5.570   2.239
 1253SOL    HW1 4658   3.342   5.575   2.158
 1253SOL    HW2 4659   3.231   5.655   2.247
 1254SOL     OW 4660   0.993   2.324   2.674
 1254SOL    HW1 4661   0.908   2.294   2.716
 1254SOL    HW2 4662   0.980   2.335   2.576
 1255SOL     OW 4663   6.502   2.174   5.039
 1255SOL    HW1 4664   6.547   2.184   4.950
 1255SOL    HW2 4665   6.571   2.167   5.111
 1256SOL     OW 4666   6.745   6.452   3.544
 1256SOL    HW1 4667   6.799   6.531   3.518
 1256SOL    HW2 4668   6.803   6.370   3.544
 1257SOL     OW 4669   6.989   6.769   4.662
 1257SOL    HW1 4670   6.903   6.819   4.672
 1257SOL    HW2 4671   0.030   6.787   4.740
 1258SOL     OW 4672   1.720   5.279   3.557
 1258SOL    HW1 4673   1.751   5.340   3.484
 1258SOL    HW2 4674   1.707   5.331   3.641
 1259SOL     OW 4675   3.717   1.280   3.972
 1259SOL    HW1 4676   3.766   1.350   3.922
 1259SOL    HW2 4677   3.732   1.191   3.930
 1260SOL     OW 4678   1.577   1.680   0.132
 1260SOL    HW1 4679   1.576   1.621   0.051
 1260SOL    HW2 4680   1.597   1.774   0.105
 1261SOL     OW 4681   0.495   5.603   6.448
 1261SOL    HW1 4682   0.583   5.574   6.411
 1261SOL    HW2 4683   0.508   5.677   6.513
 1262SOL     OW 4684   5.003   4.403   1.474
 1262SOL    HW1 4685   4.985   4.313   1.514
 1262SOL    HW2 4686   5.003   4.395   1.374
 1263SOL     OW 4687   0.244   1.688   2.530
 1263SOL    HW1 4688   0.330   1.638   2.531
 1263SOL    HW2 4689   0.188   1.658   2.452
 1264SOL     OW 4690   6.433   4.404   0.290
 1264SOL    HW1 4691   6.461   4.469   0.360
 1264SOL    HW2 4692   6.424   4.313   0.330
 1265SOL     OW 4693   5.799   4.939   4.944
 1265SOL    HW1 4694   5.881   4.983   4.907
 1265SOL    HW2 4695   5.816   4.912   5.038
 1266SOL     OW 4696   0.383   1.290   4.097
 1266SOL    HW1 4697   0.401   1.358   4.026
 1266SOL    HW2 4698   0.400   1.198   4.061
 1267SOL     OW 4699   5.642   1.358   1.211
 1267SOL    HW1 4700   5.543   1.357   1.195
 1267SOL    HW2 4701   5.675   1.452   1.204
 1268SOL     OW 4702   2.772   2.870   6.390
 1268SOL    HW1 4703   2.746   2.942   6.455
 1268SOL    HW2 4704   2.728   2.784   6.416
 1269SOL     OW 4705   5.763   3.254   4.311
 1269SOL    HW1 4706   5.731   3.165   4.343
 1269SOL    HW2 4707   5.722   3.326   4.366
 1270SOL     OW 4708   1.362   4.262   2.415
 1270SOL    HW1 4709   1.303   4.248   2.495
 1270SOL    HW2 4710   1.448   4.212   2.428
 1271SOL     OW 4711   3.969   1.805   2.550
 1271SOL    HW1 4712   4.041   1.818   2.481
 1271SOL    HW2 4713   3.895   1.870   2.533
 1272SOL     OW 4714   5.777   4.652   6.985
 1272SOL    HW1 4715   5.684   4.687   6.985
 1272SOL    HW2 4716   5.786   4.582   6.914
 1273SOL     OW 4717   1.089   3.762   6.122
 1273SOL    HW1 4718   1.167   3.700   6.130
 1273SOL    HW2 4719   1.009   3.711   6.091
 1274SOL     OW 4720   6.860   4.277   1.229
 1274SOL    HW1 4721   6.947   4.238   1.259
 1274SOL    HW2 4722   6.818   4.328   1.304
 1275SOL     OW 4723   3.658   1.706   3.362
 1275SOL    HW1 4724   3.739   1.679   3.310
 1275SOL    HW2 4725   3.631   1.798   3.334
 1276SOL     OW 4726   5.971   5.346   5.111
 1276SOL    HW1 4727   5.915   5.428   5.099
 1276SOL    HW2 4728   6.023   5.328   5.028
 1277SOL     OW 4729   2.001   5.497   6.297
 1277SOL    HW1 4730   1.996   5.399   6.317
 1277SOL    HW2 4731   2.075   5.538   6.350
 1278SOL     OW 4732   0.850   0.537   5.048
 1278SOL    HW1 4733   0.837   0.636   5.049
 1278SOL    HW2 4734   0.798   0.496   5.122
 1279SOL     OW 4735   1.704   4.986   6.822
 1279SOL    HW1 4736   1.734   5.075   6.787
 1279SOL    HW2 4737   1.782   4.937   6.860
 1280SOL     OW 4738   4.603   6.772   4.060
 1280SOL    HW1 4739   4.526   6.707   4.061
 1280SOL    HW2 4740   4.590   6.839   4.133
 1281SOL     OW 4741   2.364   6.250   3.306
 1281SOL    HW1 4742   2.379   6.244   3.405
 1281SOL    HW2 4743   2.347   6.159   3.269
 1282SOL     OW 4744   6.615   2.357   6.227
 1282SOL    HW1 4745   6.563   2.358   6.312
 1282SOL    HW2 4746   6.557   2.388   6.152
 1283SOL     OW 4747   6.855   2.927   4.992
 1283SOL    HW1 4748   6.820   2.945   5.084
 1283SOL    HW2 4749   6.784   2.884   4.937
 1284SOL     OW 4750   4.821   1.793   2.067
 1284SOL    HW1 4751   4.857   1.713   2.019
 1284SOL    HW2 4752   4.783   1.857   2.002
 1285SOL     OW 4753   4.760   1.507   5.657
 1285SOL    HW1 4754   4.787   1.412   5.638
 1285SOL    HW2 4755   4.841   1.564   5.664
 1286SOL     OW 4756   4.305   3.487   0.910
 1286SOL    HW1 4757   4.216   3.518   0.944
 1286SOL    HW2 4758   4.323   3.395   0.945
 1287SOL     OW 4759   5.268   4.498   5.543
 1287SOL    HW1 4760   5.308   4.516   5.633
 1287SOL    HW2 4761   5.256   4.584   5.494
 1288SOL     OW 4762   3.526   3.955   6.494
 1288SOL    HW1 4763   3.524   3.881   6.426
 1288SOL    HW2 4764   3.493   4.039   6.452
 1289SOL     OW 4765   0.774   0.088   1.304
 1289SOL    HW1 4766   0.771   0.185   1.329
 1289SOL    HW2 4767   0.682   0.058   1.278
 1290SOL     OW 4768   1.095   6.783   0.594
 1290SOL    HW1 4769   1.163   6.721   0.555
 1290SOL    HW2 4770   1.138   6.871   0.616
 1291SOL     OW 4771   0.285   4.274   3.875
 1291SOL    HW1 4772   0.201   4.250   3.827
 1291SOL    HW2 4773   0.358   4.291   3.808
 1292SOL     OW 4774   0.931   5.857   2.467
 1292SOL    HW1 4775   0.866   5.819   2.401
 1292SOL    HW2 4776   1.004   5.906   2.418
 1293SOL     OW 4777   2.338   2.122   0.165
 1293SOL    HW1 4778   2.252   2.124   0.115
 1293SOL    HW2 4779   2.346   2.202   0.223
 1294SOL     OW 4780   0.303   3.026   5.825
 1294SOL    HW1 4781   0.265   3.026   5.733
 1294SOL    HW2 4782   0.311   3.120   5.858
 1295SOL     OW 4783   0.380   3.915   1.301
 1295SOL    HW1 4784   0.449   3.843   1.298
 1295SOL    HW2 4785   0.352   3.938   1.208
 1296SOL     OW 4786   4.022   6.178   5.149
 1296SOL    HW1 4787   3.994   6.149   5.241
 1296SOL    HW2 4788   3.989   6.271   5.132
 1297SOL     OW 4789   1.015   0.014   1.195
 1297SOL    HW1 4790   0.931   0.036   1.243
 1297SOL    HW2 4791   1.089   7.017   1.261
 1298SOL     OW 4792   4.931   5.647   3.486
 1298SOL    HW1 4793   4.984   5.594   3.419
 1298SOL    HW2 4794   4.868   5.587   3.534
 1299SOL     OW 4795   2.547   2.473   4.005
 1299SOL    HW1 4796   2.545   2.512   4.097
 1299SOL    HW2 4797   2.462   2.493   3.957
 1300SOL     OW 4798   2.176   2.877   0.798
 1300SOL    HW1 4799   2.244   2.910   0.733
 1300SOL    HW2 4800   2.184   2.778   0.807
 1301SOL     OW 4801   0.589   6.361   1.814
 1301SOL    HW1 4802   0.525   6.386   1.742
 1301SOL    HW2 4803   0.581   6.426   1.890
 1302SOL     OW 4804   4.869   6.994   5.081
 1302SOL    HW1 4805   4.839   6.911   5.128
 1302SOL    HW2 4806   4.797   0.046   5.087
 1303SOL     OW 4807   4.301   1.212   1.378
 1303SOL    HW1 4808   4.213   1.259   1.377
 1303SOL    HW2 4809   4.312   1.162   1.464
 1304SOL     OW 4810   1.856   0.130   0.613
 1304SOL    HW1 4811   1.836   0.032   0.603
 1304SOL    HW2 4812   1.928   0.155   0.549
 1305SOL     OW 4813   5.978   3.569   0.461
 1305SOL    HW1 4814   6.070   3.582   0.497
 1305SOL    HW2 4815   5.919   3.533   0.533
 1306SOL     OW 4816   1.051   5.912   4.480
 1306SOL    HW1 4817   1.123   5.955   4.534
 1306SOL    HW2 4818   0.966   5.964   4.491
 1307SOL     OW 4819   2.366   4.309   4.109
 1307SOL    HW1 4820   2.401   4.231   4.161
 1307SOL    HW2 4821   2.276   4.286   4.072
 1308SOL     OW 4822   6.587   6.959   6.253
 1308SOL    HW1 4823   6.636   0.015   6.208
 1308SOL    HW2 4824   6.623   6.871   6.222
 1309SOL     OW 4825   5.808   4.685   5.757
 1309SOL    HW1 4826   5.763   4.649   5.838
 1309SOL    HW2 4827   5.794   4.784   5.751
 1310SOL     OW 4828   0.167   3.724   3.112
 1310SOL    HW1 4829   0.185   3.673   3.195
 1310SOL    HW2 4830   0.196   3.819   3.124
 1311SOL     OW 4831   6.692   5.879   6.064
 1311SOL    HW1 4832   6.649   5.962   6.028
 1311SOL    HW2 4833   6.750   5.838   5.993
 1312SOL     OW 4834   1.202   7.004   0.244
 1312SOL    HW1 4835   1.196   6.960   0.155
 1312SOL    HW2 4836   1.112   0.022   0.270
 1313SOL     OW 4837   0.108   5.132   2.600
 1313SOL    HW1 4838   0.150   5.106   2.513
 1313SOL    HW2 4839   0.148   5.078   2.674
 1314SOL     OW 4840   3.945   1.537   4.604
 1314SOL    HW1 4841   4.011   1.606   4.575
 1314SOL    HW2 4842   3.882   1.516   4.529
 1315SOL     OW 4843   6.786   1.860   2.658
 1315SOL    HW1 4844   6.852   1.787   2.672
 1315SOL    HW2 4845   6.832   1.941   2.621
 1316SOL     OW 4846   3.679   0.005   5.836
 1316SOL    HW1 4847   3.754   0.069   5.850
 1316SOL    HW2 4848   3.653   0.006   5.739
 1317SOL     OW 4849   2.124   4.140   5.852
 1317SOL    HW1 4850   2.149   4.185   5.766
 1317SOL    HW2 4851   2.102   4.044   5.835
 1318SOL     OW 4852   1.195   2.435   0.882
 1318SOL    HW1 4853   1.254   2.364   0.842
 1318SOL    HW2 4854   1.155   2.401   0.967
 1319SOL     OW 4855   0.130   6.048   1.070
 1319SOL    HW1 4856   0.066   5.978   1.038
 1319SOL    HW2 4857   0.150   6.112   0.995
 1320SOL     OW 4858   3.776   4.462   6.719
 1320SOL    HW1 4859   3.786   4.489   6.815
 1320SOL    HW2 4860   3.680   4.469   6.692
 1321SOL     OW 4861   4.901   2.944   6.337
 1321SOL    HW1 4862   4.863   2.876   6.400
 1321SOL    HW2 4863   4.990   2.974   6.370
 1322SOL     OW 4864   3.511   1.847   4.201
 1322SOL    HW1 4865   3.458   1.821   4.282
 1322SOL    HW2 4866   3.477   1.796   4.121
 1323SOL     OW 4867   3.706   6.373   6.365
 1323SOL    HW1 4868   3.675   6.287   6.324
 1323SOL    HW2 4869   3.712   6.443   6.294
 1324SOL     OW 4870   0.526   3.236   6.575
 1324SOL    HW1 4871   0.427   3.225   6.575
 1324SOL    HW2 4872   0.564   3.201   6.489
 1325SOL     OW 4873   3.710   6.446   4.770
 1325SOL    HW1 4874   3.792   6.393   4.750
 1325SOL    HW2 4875   3.730   6.543   4.762
 1326SOL     OW 4876   4.922   3.399   5.195
 1326SOL    HW1 4877   4.852   3.452   5.147
 1326SOL    HW2 4878   5.012   3.422   5.159
 1327SOL     OW 4879   1.113   6.429   1.159
 1327SOL    HW1 4880   1.175   6.466   1.228
 1327SOL    HW2 4881   1.164   6.374   1.094
 1328SOL     OW 4882   2.509   3.457   6.996
 1328SOL    HW1 4883   2.566   3.418   0.050
 1328SOL    HW2 4884   2.544   3.548   6.971
 1329SOL     OW 4885   0.761   2.197   2.788
 1329SOL    HW1 4886   0.799   2.176   2.879
 1329SOL    HW2 4887   0.669   2.159   2.782
 1330SOL     OW 4888   1.597   1.605   1.476
 1330SOL    HW1 4889   1.542   1.521   1.474
 1330SOL    HW2 4890   1.595   1.643   1.569
 1331SOL     OW 4891   4.725   2.755   3.241
 1331SOL    HW1 4892   4.822   2.753   3.217
 1331SOL    HW2 4893   4.680   2.672   3.209
 1332SOL     OW 4894   2.523   0.289   0.828
 1332SOL    HW1 4895   2.526   0.317   0.924
 1332SOL    HW2 4896   2.528   0.371   0.770
 1333SOL     OW 4897   2.971   3.626   3.159
 1333SOL    HW1 4898   2.924   3.685   3.093
 1333SOL    HW2 4899   2.944   3.651   3.252
 1334SOL     OW 4900   6.404   1.728   3.893
 1334SOL    HW1 4901   6.375   1.653   3.953
 1334SOL    HW2 4902   6.502   1.743   3.903
 1335SOL     OW 4903   2.611   2.085   2.229
 1335SOL    HW1 4904   2.600   2.046   2.321
 1335SOL    HW2 4905   2.700   2.059   2.192
 1336SOL     OW 4906   2.866   1.594   4.783
 1336SOL    HW1 4907   2.796   1.552   4.842
 1336SOL    HW2 4908   2.879   1.537   4.702
 1337SOL     OW 4909   0.978   1.851   2.885
 1337SOL    HW1 4910   1.043   1.819   2.954
 1337SOL    HW2 4911   0.957   1.947   2.901
 1338SOL     OW 4912   6.792   3.148   4.625
 1338SOL    HW1 4913   6.802   3.053   4.594
 1338SOL    HW2 4914   6.698   3.163   4.657
 1339SOL     OW 4915   6.461   2.131   6.861
 1339SOL    HW1 4916   6.413   2.056   6.905
 1339SOL    HW2 4917   6.543   2.154   6.915
 1340SOL     OW 4918   5.409   1.519   2.660
 1340SOL    HW1 4919   5.337   1.547   2.724
 1340SOL    HW2 4920   5.498   1.543   2.699
 1341SOL     OW 4921   4.269   6.680   6.290
 1341SOL    HW1 4922   4.200   6.625   6.242
 1341SOL    HW2 4923   4.247   6.684   6.387
 1342SOL     OW 4924   3.065   5.369   6.318
 1342SOL    HW1 4925   2.989   5.361   6.382
 1342SOL    HW2 4926   3.103   5.461   6.324
 1343SOL     OW 4927   5.375   5.704   2.829
 1343SOL    HW1 4928   5.382   5.780   2.893
 1343SOL    HW2 4929   5.288   5.656   2.844
 1344SOL     OW 4930   6.969   6.016   4.580
 1344SOL    HW1 4931   0.017   5.941   4.587
 1344SOL    HW2 4932   6.901   6.007   4.653
 1345SOL     OW 4933   0.970   5.477   2.931
 1345SOL    HW1 4934   0.981   5.572   2.962
 1345SOL    HW2 4935   1.044   5.454   2.868
 1346SOL     OW 4936   2.143   5.714   4.932
 1346SOL    HW1 4937   2.219   5.699   4.996
 1346SOL    HW2 4938   2.081   5.782   4.970
 1347SOL     OW 4939   6.722   0.163   5.776
 1347SOL    HW1 4940   6.627   0.130   5.778
 1347SOL    HW2 4941   6.781   0.091   5.741
 1348SOL     OW 4942   6.158   6.543   4.601
 1348SOL    HW1 4943   6.208   6.621   4.562
 1348SOL    HW2 4944   6.066   6.540   4.562
 1349SOL     OW 4945   5.485   2.940   5.011
 1349SOL    HW1 4946   5.431   2.856   5.005
 1349SOL    HW2 4947   5.528   2.945   5.101
 1350SOL     OW 4948   5.278   5.204   5.519
 1350SOL    HW1 4949   5.179   5.189   5.520
 1350SOL    HW2 4950   5.300   5.283   5.577
 1351SOL     OW 4951   5.503   2.284   3.070
 1351SOL    HW1 4952   5.548   2.201   3.036
 1351SOL    HW2 4953   5.571   2.350   3.100
 1352SOL     OW 4954   6.391   5.681   4.058
 1352SOL    HW1 4955   6.326   5.607   4.074
 1352SOL    HW2 4956   6.342   5.768   4.051
 1353SOL     OW 4957   0.776   2.530   0.221
 1353SOL    HW1 4958   0.745   2.592   0.149
 1353SOL    HW2 4959   0.871   2.503   0.203
 1354SOL     OW 4960   0.611   4.793   1.674
 1354SOL    HW1 4961   0.613   4.882   1.629
 1354SOL    HW2 4962   0.587   4.722   1.608
 1355SOL     OW 4963   6.087   3.574   4.519
 1355SOL    HW1 4964   6.085   3.532   4.428
 1355SOL    HW2 4965   5.995   3.598   4.547
 1356SOL     OW 4966   2.957   3.163   1.875
 1356SOL    HW1 4967   2.858   3.160   1.891
 1356SOL    HW2 4968   3.001   3.091   1.928
 1357SOL     OW 4969   0.207   4.312   6.379
 1357SOL    HW1 4970   0.165   4.395   6.414
 1357SOL    HW2 4971   0.154   4.277   6.301
 1358SOL     OW 4972   5.315   6.369   6.717
 1358SOL    HW1 4973   5.410   6.400   6.710
 1358SOL    HW2 4974   5.312   6.283   6.768
 1359SOL     OW 4975   6.058   4.683   2.954
 1359SOL    HW1 4976   6.152   4.708   2.980
 1359SOL    HW2 4977   6.018   4.624   3.024
 1360SOL     OW 4978   2.978   3.740   0.228
 1360SOL    HW1 4979   2.934   3.830   0.221
 1360SOL    HW2 4980   3.048   3.732   0.158
 1361SOL     OW 4981   6.336   5.212   5.230
 1361SOL    HW1 4982   6.436   5.215   5.239
 1361SOL    HW2 4983   6.305   5.117   5.233
 1362SOL     OW 4984   3.728   3.862   3.443
 1362SOL    HW1 4985   3.774   3.899   3.362
 1362SOL    HW2 4986   3.695   3.937   3.500
 1363SOL     OW 4987   0.121   5.180   4.633
 1363SOL    HW1 4988   0.108   5.192   4.534
 1363SOL    HW2 4989   0.193   5.113   4.649
 1364SOL     OW 4990   4.931   4.244   0.744
 1364SOL    HW1 4991   5.023   4.284   0.752
 1364SOL    HW2 4992   4.887   4.280   0.662
 1365SOL     OW 4993   0.101   4.180   6.171
 1365SOL    HW1 4994   0.014   4.191   6.124
 1365SOL    HW2 4995   0.133   4.086   6.162
 1366SOL     OW 4996   1.712   5.557   0.121
 1366SOL    HW1 4997   1.635   5.540   0.059
 1366SOL    HW2 4998   1.797   5.558   0.069
 1367SOL     OW 4999   2.147   0.023   3.275
 1367SOL    HW1 5000   2.226   6.980   3.287
 1367SOL    HW2 5001   2.143   0.087   3.351
 1368SOL     OW 5002   5.561   6.904   3.948
 1368SOL    HW1 5003   5.495   6.955   3.892
 1368SOL    HW2 5004   5.630   6.862   3.888
 1369SOL     OW 5005   1.870   6.393   2.684
 1369SOL    HW1 5006   1.913   6.480   2.708
 1369SOL    HW2 5007   1.938   6.319   2.689
 1370SOL     OW 5008   3.360   1.279   1.126
 1370SOL    HW1 5009   3.351   1.204   1.060
 1370SOL    HW2 5010   3.434   1.340   1.099
 1371SOL     OW 5011   5.174   1.581   4.286
 1371SOL    HW1 5012   5.106   1.599   4.216
 1371SOL    HW2 5013   5.266   1.598   4.249
 1372SOL     OW 5014   1.085   2.710   0.809
 1372SOL    HW1 5015   0.990   2.712   0.841
 1372SOL    HW2 5016   1.123   2.618   0.822
 1373SOL     OW 5017   6.134   3.974   6.586
 1373SOL    HW1 5018   6.208   3.906   6.581
 1373SOL    HW2 5019   6.136   4.019   6.675
 1374SOL     OW 5020   3.959   2.157   0.371
 1374SOL    HW1 5021   3.877   2.206   0.344
 1374SOL    HW2 5022   3.934   2.069   0.412
 1375SOL     OW 5023   0.149   4.588   6.414
 1375SOL    HW1 5024   0.094   4.639   6.480
 1375SOL    HW2 5025   0.215   4.650   6.371
 1376SOL     OW 5026   4.864   3.393   3.716
 1376SOL    HW1 5027   4.862   3.302   3.759
 1376SOL    HW2 5028   4.870   3.383   3.617
 1377SOL     OW 5029   6.428   3.961   5.161
 1377SOL    HW1 5030   6.460   3.930   5.251
 1377SOL    HW2 5031   6.507   3.984   5.104
 1378SOL     OW 5032   6.525   1.987   4.748
 1378SOL    HW1 5033   6.450   2.038   4.705
 1378SOL    HW2 5034   6.583   1.946   4.677
 1379SOL     OW 5035   3.429   0.160   2.131
 1379SOL    HW1 5036   3.426   0.074   2.080
 1379SOL    HW2 5037   3.341   0.206   2.125
 1380SOL     OW 5038   0.231   0.630   2.189
 1380SOL    HW1 5039   0.193   0.704   2.244
 1380SOL    HW2 5040   0.293   0.669   2.120
 1381SOL     OW 5041   5.167   2.554   0.188
 1381SOL    HW1 5042   5.220   2.508   0.259
 1381SOL    HW2 5043   5.107   2.623   0.229
 1382SOL     OW 5044   5.443   4.507   0.017
 1382SOL    HW1 5045   5.359   4.457   7.015
 1382SOL    HW2 5046   5.522   4.450   7.013
 1383SOL     OW 5047   0.623   1.311   0.274
 1383SOL    HW1 5048   0.593   1.367   0.197
 1383SOL    HW2 5049   0.576   1.342   0.357
 1384SOL     OW 5050   3.860   1.249   2.697
 1384SOL    HW1 5051   3.890   1.173   2.755
 1384SOL    HW2 5052   3.861   1.334   2.749
 1385SOL     OW 5053   0.562   2.782   3.028
 1385SOL    HW1 5054   0.468   2.792   2.996
 1385SOL    HW2 5055   0.622   2.843   2.976
 1386SOL     OW 5056   2.356   1.987   4.684
 1386SOL    HW1 5057   2.412   1.951   4.759
 1386SOL    HW2 5058   2.388   1.949   4.597
 1387SOL     OW 5059   3.823   0.494   3.482
 1387SOL    HW1 5060   3.752   0.544   3.433
 1387SOL    HW2 5061   3.838   0.537   3.571
 1388SOL     OW 5062   6.779   6.745   4.122
 1388SOL    HW1 5063   6.819   6.676   4.184
 1388SOL    HW2 5064   6.821   6.736   4.032
 1389SOL     OW 5065   0.536   0.856   3.645
 1389SOL    HW1 5066   0.621   0.850   3.696
 1389SOL    HW2 5067   0.482   0.934   3.677
 1390SOL     OW 5068   4.743   1.502   6.547
 1390SOL    HW1 5069   4.790   1.515   6.634
 1390SOL    HW2 5070   4.808   1.513   6.472
 1391SOL     OW 5071   6.150   1.595   5.732
 1391SOL    HW1 5072   6.137   1.663   5.804
 1391SOL    HW2 5073   6.086   1.614   5.657
 1392SOL     OW 5074   5.058   5.571   5.467
 1392SOL    HW1 5075   5.024   5.477   5.478
 1392SOL    HW2 5076   5.004   5.633   5.524
 1393SOL     OW 5077   5.757   2.892   0.007
 1393SOL    HW1 5078   5.667   2.936   0.003
 1393SOL    HW2 5079   5.770   2.853   0.098
 1394SOL     OW 5080   3.610   6.656   3.637
 1394SOL    HW1 5081   3.640   6.608   3.555
 1394SOL    HW2 5082   3.571   6.745   3.611
 1395SOL     OW 5083   0.290   4.179   2.595
 1395SOL    HW1 5084   0.346   4.256   2.564
 1395SOL    HW2 5085   0.214   4.165   2.531
 1396SOL     OW 5086   1.925   0.077   4.293
 1396SOL    HW1 5087   2.018   0.106   4.270
 1396SOL    HW2 5088   1.874   0.060   4.208
 1397SOL     OW 5089   0.223   6.315   5.071
 1397SOL    HW1 5090   0.250   6.410   5.050
 1397SOL    HW2 5091   0.201   6.268   4.985
 1398SOL     OW 5092   1.654   1.056   1.418
 1398SOL    HW1 5093   1.619   1.006   1.339
 1398SOL    HW2 5094   1.736   1.010   1.453
 1399SOL     OW 5095   4.150   0.548   0.549
 1399SOL    HW1 5096   4.127   0.500   0.633
 1399SOL    HW2 5097   4.248   0.538   0.530
 1400SOL     OW 5098   6.230   0.955   4.027
 1400SOL    HW1 5099   6.242   0.976   3.930
 1400SOL    HW2 5100   6.157   0.888   4.038
 1401SOL     OW 5101   5.786   0.163   3.950
 1401SOL    HW1 5102   5.855   0.187   4.019
 1401SOL    HW2 5103   5.695   0.168   3.992
 1402SOL     OW 5104   6.114   4.113   6.802
 1402SOL    HW1 5105   6.148   4.207   6.801
 1402SOL    HW2 5106   6.016   4.113   6.818
 1403SOL     OW 5107   2.494   3.129   0.289
 1403SOL    HW1 5108   2.575   3.122   0.347
 1403SOL    HW2 5109   2.435   3.202   0.322
 1404SOL     OW 5110   4.704   0.288   1.074
 1404SOL    HW1 5111   4.611   0.267   1.045
 1404SOL    HW2 5112   4.718   0.387   1.072
 1405SOL     OW 5113   1.650   3.646   0.805
 1405SOL    HW1 5114   1.722   3.667   0.870
 1405SOL    HW2 5115   1.561   3.670   0.845
 1406SOL     OW 5116   2.152   4.103   1.467
 1406SOL    HW1 5117   2.066   4.152   1.455
 1406SOL    HW2 5118   2.161   4.074   1.562
 1407SOL     OW 5119   1.261   3.320   2.610
 1407SOL    HW1 5120   1.233   3.224   2.621
 1407SOL    HW2 5121   1.338   3.325   2.547
 1408SOL     OW 5122   6.168   6.712   0.081
 1408SOL    HW1 5123   6.127   6.657   0.008
 1408SOL    HW2 5124   6.213   6.652   0.147
 1409SOL     OW 5125   6.949   0.865   5.744
 1409SOL    HW1 5126   6.942   0.956   5.784
 1409SOL    HW2 5127   0.020   0.855   5.699
 1410SOL     OW 5128   2.825   3.265   6.288
 1410SOL    HW1 5129   2.919   3.284   6.315
 1410SOL    HW2 5130   2.818   3.266   6.188
 1411SOL     OW 5131   3.139   6.234   6.746
 1411SOL    HW1 5132   3.133   6.307   6.814
 1411SOL    HW2 5133   3.218   6.175   6.768
 1412SOL     OW 5134   0.694   3.496   0.819
 1412SOL    HW1 5135   0.769   3.538   0.870
 1412SOL    HW2 5136   0.730   3.425   0.759
 1413SOL     OW 5137   1.809   2.116   4.781
 1413SOL    HW1 5138   1.869   2.090   4.705
 1413SOL    HW2 5139   1.797   2.038   4.843
 1414SOL     OW 5140   1.116   2.953   1.776
 1414SOL    HW1 5141   1.094   3.050   1.785
 1414SOL    HW2 5142   1.213   2.942   1.755
 1415SOL     OW 5143   2.647   1.790   4.548
 1415SOL    HW1 5144   2.641   1.691   4.551
 1415SOL    HW2 5145   2.739   1.817   4.519
 1416SOL     OW 5146   4.512   0.876   5.221
 1416SOL    HW1 5147   4.430   0.819   5.218
 1416SOL    HW2 5148   4.498   0.951   5.286
 1417SOL     OW 5149   3.524   3.348   5.882
 1417SOL    HW1 5150   3.582   3.290   5.938
 1417SOL    HW2 5151   3.488   3.295   5.805
 1418SOL     OW 5152   3.243   3.861   0.947
 1418SOL    HW1 5153   3.323   3.863   0.888
 1418SOL    HW2 5154   3.173   3.923   0.912
 1419SOL     OW 5155   1.742   5.016   4.135
 1419SOL    HW1 5156   1.816   5.057   4.082
 1419SOL    HW2 5157   1.780   4.958   4.206
 1420SOL     OW 5158   4.133   4.896   3.005
 1420SOL    HW1 5159   4.073   4.854   3.073
 1420SOL    HW2 5160   4.078   4.930   2.928
 1421SOL     OW 5161   0.832   4.479   4.435
 1421SOL    HW1 5162   0.898   4.421   4.482
 1421SOL    HW2 5163   0.768   4.423   4.383
 1422SOL     OW 5164   2.350   5.052   5.830
 1422SOL    HW1 5165   2.300   5.134   5.804
 1422SOL    HW2 5166   2.311   5.015   5.915
 1423SOL     OW 5167   3.980   1.955   4.403
 1423SOL    HW1 5168   3.914   1.886   4.374
 1423SOL    HW2 5169   3.968   1.973   4.501
 1424SOL     OW 5170   6.437   3.836   6.579
 1424SOL    HW1 5171   6.530   3.811   6.554
 1424SOL    HW2 5172   6.437   3.926   6.622
 1425SOL     OW 5173   3.276   6.330   5.229
 1425SOL    HW1 5174   3.294   6.410   5.287
 1425SOL    HW2 5175   3.268   6.248   5.286
 1426SOL     OW 5176   2.011   1.511   6.621
 1426SOL    HW1 5177   1.942   1.519   6.549
 1426SOL    HW2 5178   1.966   1.493   6.708
 1427SOL     OW 5179   0.839   0.219   3.353
 1427SOL    HW1 5180   0.914   0.169   3.397
 1427SOL    HW2 5181   0.875   0.303   3.312
 1428SOL     OW 5182   0.246   2.480   1.261
 1428SOL    HW1 5183   0.332   2.446   1.300
 1428SOL    HW2 5184   0.242   2.456   1.164
 1429SOL     OW 5185   6.500   1.130   6.537
 1429SOL    HW1 5186   6.477   1.080   6.620
 1429SOL    HW2 5187   6.577   1.191   6.555
 1430SOL     OW 5188   2.532   4.619   4.357
 1430SOL    HW1 5189   2.493   4.709   4.373
 1430SOL    HW2 5190   2.485   4.552   4.415
 1431SOL     OW 5191   2.843   2.281   5.482
 1431SOL    HW1 5192   2.828   2.356   5.417
 1431SOL    HW2 5193   2.758   2.260   5.529
 1432SOL     OW 5194   1.952   1.316   0.503
 1432SOL    HW1 5195   1.902   1.323   0.589
 1432SOL    HW2 5196   2.044   1.355   0.514
 1433SOL     OW 5197   4.163   0.091   3.431
 1433SOL    HW1 5198   4.151   0.190   3.433
 1433SOL    HW2 5199   4.168   0.056   3.525
 1434SOL     OW 5200   0.277   2.196   6.330
 1434SOL    HW1 5201   0.208   2.132   6.296
 1434SOL    HW2 5202   0.263   2.211   6.428
 1435SOL     OW 5203   0.329   0.504   4.036
 1435SOL    HW1 5204   0.319   0.584   3.977
 1435SOL    HW2 5205   0.238   0.473   4.066
 1436SOL     OW 5206   6.104   3.560   0.931
 1436SOL    HW1 5207   6.080   3.652   0.960
 1436SOL    HW2 5208   6.039   3.528   0.863
 1437SOL     OW 5209   3.196   1.573   5.683
 1437SOL    HW1 5210   3.171   1.587   5.779
 1437SOL    HW2 5211   3.114   1.579   5.626
 1438SOL     OW 5212   3.318   1.166   1.567
 1438SOL    HW1 5213   3.375   1.246   1.549
 1438SOL    HW2 5214   3.230   1.195   1.604
 1439SOL     OW 5215   0.846   5.801   6.994
 1439SOL    HW1 5216   0.930   5.856   6.991
 1439SOL    HW2 5217   0.841   5.752   0.064
 1440SOL     OW 5218   3.658   3.437   4.360
 1440SOL    HW1 5219   3.668   3.385   4.445
 1440SOL    HW2 5220   3.603   3.384   4.295
 1441SOL     OW 5221   6.719   3.606   3.218
 1441SOL    HW1 5222   6.741   3.654   3.304
 1441SOL    HW2 5223   6.770   3.649   3.143
 1442SOL     OW 5224   5.278   5.069   1.039
 1442SOL    HW1 5225   5.323   5.154   1.011
 1442SOL    HW2 5226   5.336   5.021   1.104
 1443SOL     OW 5227   0.798   0.321   3.958
 1443SOL    HW1 5228   0.708   0.309   3.916
 1443SOL    HW2 5229   0.821   0.418   3.958
 1444SOL     OW 5230   3.784   5.881   3.178
 1444SOL    HW1 5231   3.811   5.786   3.162
 1444SOL    HW2 5232   3.813   5.938   3.102
 1445SOL     OW 5233   0.261   2.906   1.819
 1445SOL    HW1 5234   0.239   2.896   1.721
 1445SOL    HW2 5235   0.357   2.883   1.834
 1446SOL     OW 5236   5.009   2.787   0.259
 1446SOL    HW1 5237   4.914   2.763   0.278
 1446SOL    HW2 5238   5.012   2.874   0.209
 1447SOL     OW 5239   6.434   0.478   5.334
 1447SOL    HW1 5240   6.414   0.567   5.375
 1447SOL    HW2 5241   6.349   0.436   5.303
 1448SOL     OW 5242   6.141   1.731   0.197
 1448SOL    HW1 5243   6.218   1.702   0.253
 1448SOL    HW2 5244   6.130   1.830   0.203
 1449SOL     OW 5245   6.019   6.698   0.521
 1449SOL    HW1 5246   5.984   6.791   0.506
 1449SOL    HW2 5247   6.106   6.688   0.472
 1450SOL     OW 5248   6.893   2.639   2.286
 1450SOL    HW1 5249   6.938   2.704   2.348
 1450SOL    HW2 5250   6.944   2.553   2.285
 1451SOL     OW 5251   3.080   0.850   2.916
 1451SOL    HW1 5252   3.074   0.751   2.921
 1451SOL    HW2 5253   3.176   0.877   2.910
 1452SOL     OW 5254   4.826   1.316   4.592
 1452SOL    HW1 5255   4.901   1.333   4.528
 1452SOL    HW2 5256   4.814   1.395   4.652
 1453SOL     OW 5257   5.888   3.364   4.730
 1453SOL    HW1 5258   5.826   3.291   4.701
 1453SOL    HW2 5259   5.958   3.378   4.660
 1454SOL     OW 5260   5.337   2.692   2.701
 1454SOL    HW1 5261   5.342   2.616   2.766
 1454SOL    HW2 5262   5.413   2.684   2.636
 1455SOL     OW 5263   0.971   0.381   1.829
 1455SOL    HW1 5264   1.059   0.429   1.830
 1455SOL    HW2 5265   0.905   0.433   1.774
 1456SOL     OW 5266   6.725   6.772   5.345
 1456SOL    HW1 5267   6.796   6.712   5.308
 1456SOL    HW2 5268   6.748   6.867   5.323
 1457SOL     OW 5269   1.378   6.870   2.859
 1457SOL    HW1 5270   1.279   6.873   2.851
 1457SOL    HW2 5271   1.413   6.961   2.883
 1458SOL     OW 5272   5.407   6.994   4.949
 1458SOL    HW1 5273   5.310   7.012   4.937
 1458SOL    HW2 5274   5.457   0.063   4.954
 1459SOL     OW 5275   2.730   5.120   0.078
 1459SOL    HW1 5276   2.734   5.193   0.145
 1459SOL    HW2 5277   2.769   5.037   0.117
 1460SOL     OW 5278   0.107   5.677   6.272
 1460SOL    HW1 5279   0.019   5.633   6.254
 1460SOL    HW2 5280   0.115   5.760   6.216
 1461SOL     OW 5281   6.532   4.680   3.561
 1461SOL    HW1 5282   6.453   4.636   3.519
 1461SOL    HW2 5283   6.567   4.622   3.635
 1462SOL     OW 5284   6.738   2.069   0.093
 1462SOL    HW1 5285   6.775   2.005   0.026
 1462SOL    HW2 5286   6.811   2.098   0.156
 1463SOL     OW 5287   0.305   7.005   6.000
 1463SOL    HW1 5288   0.351   0.054   5.942
 1463SOL    HW2 5289   0.319   6.913   5.963
 1464SOL     OW 5290   0.469   6.882   0.784
 1464SOL    HW1 5291   0.385   6.866   0.837
 1464SOL    HW2 5292   0.530   6.942   0.837
 1465SOL     OW 5293   1.201   1.384   3.055
 1465SOL    HW1 5294   1.272   1.380   2.985
 1465SOL    HW2 5295   1.238   1.352   3.142
 1466SOL     OW 5296   0.144   6.630   2.902
 1466SOL    HW1 5297   0.237   6.599   2.885
 1466SOL    HW2 5298   0.085   6.605   2.825
 1467SOL     OW 5299   1.554   0.432   2.156
 1467SOL    HW1 5300   1.559   0.416   2.057
 1467SOL    HW2 5301   1.645   0.456   2.190
 1468SOL     OW 5302   5.381   5.890   3.028
 1468SOL    HW1 5303   5.430   5.972   3.056
 1468SOL    HW2 5304   5.282   5.907   3.032
 1469SOL     OW 5305   0.691   0.828   3.075
 1469SOL    HW1 5306   0.755   0.888   3.027
 1469SOL    HW2 5307   0.598   0.863   3.063
 1470SOL     OW 5308   0.999   0.964   2.359
 1470SOL    HW1 5309   1.016   1.046   2.305
 1470SOL    HW2 5310   0.989   0.885   2.298
 1471SOL     OW 5311   0.819   0.689   6.505
 1471SOL    HW1 5312   0.897   0.739   6.544
 1471SOL    HW2 5313   0.777   0.633   6.577
 1472SOL     OW 5314   4.639   6.307   4.545
 1472SOL    HW1 5315   4.727   6.262   4.529
 1472SOL    HW2 5316   4.628   6.384   4.482
 1473SOL     OW 5317   5.986   5.692   3.524
 1473SOL    HW1 5318   6.022   5.644   3.444
 1473SOL    HW2 5319   6.056   5.692   3.596
 1474SOL     OW 5320   6.579   5.907   3.689
 1474SOL    HW1 5321   6.563   5.886   3.592
 1474SOL    HW2 5322   6.567   5.823   3.743
 1475SOL     OW 5323   0.327   0.444   1.649
 1475SOL    HW1 5324   0.312   0.470   1.554
 1475SOL    HW2 5325   0.243   0.403   1.686
 1476SOL     OW 5326   1.261   0.650   1.313
 1476SOL    HW1 5327   1.228   0.698   1.232
 1476SOL    HW2 5328   1.200   0.668   1.390
 1477SOL     OW 5329   2.952   0.125   6.227
 1477SOL    HW1 5330   2.985   0.161   6.314
 1477SOL    HW2 5331   2.946   0.025   6.232
 1478SOL     OW 5332   5.784   4.766   0.805
 1478SOL    HW1 5333   5.808   4.811   0.891
 1478SOL    HW2 5334   5.696   4.801   0.772
 1479SOL     OW 5335   1.352   4.588   0.187
 1479SOL    HW1 5336   1.423   4.553   0.248
 1479SOL    HW2 5337   1.348   4.531   0.105
 1480SOL     OW 5338   2.805   0.748   0.008
 1480SOL    HW1 5339   2.794   0.673   6.960
 1480SOL    HW2 5340   2.832   0.831   6.977
 1481SOL     OW 5341   5.449   1.916   4.999
 1481SOL    HW1 5342   5.537   1.892   5.042
 1481SOL    HW2 5343   5.377   1.914   5.068
 1482SOL     OW 5344   5.865   1.558   0.777
 1482SOL    HW1 5345   5.765   1.566   0.784
 1482SOL    HW2 5346   5.906   1.649   0.777
 1483SOL     OW 5347   0.237   3.354   6.576
 1483SOL    HW1 5348   0.258   3.322   6.668
 1483SOL    HW2 5349   0.262   3.451   6.567
 1484SOL     OW 5350   6.347   4.278   3.691
 1484SOL    HW1 5351   6.423   4.220   3.663
 1484SOL    HW2 5352   6.267   4.221   3.710
 1485SOL     OW 5353   4.625   2.690   2.411
 1485SOL    HW1 5354   4.705   2.732   2.369
 1485SOL    HW2 5355   4.628   2.704   2.510
 1486SOL     OW 5356   4.653   2.450   3.421
 1486SOL    HW1 5357   4.613   2.530   3.465
 1486SOL    HW2 5358   4.707   2.399   3.487
 1487SOL     OW 5359   6.661   2.033   6.155
 1487SOL    HW1 5360   6.685   1.971   6.080
 1487SOL    HW2 5361   6.575   2.079   6.134
 1488SOL     OW 5362   5.931   2.282   3.078
 1488SOL    HW1 5363   6.013   2.334   3.052
 1488SOL    HW2 5364   5.958   2.192   3.111
 1489SOL     OW 5365   3.824   4.891   4.387
 1489SOL    HW1 5366   3.881   4.835   4.446
 1489SOL    HW2 5367   3.825   4.986   4.421
 1490SOL     OW 5368   1.343   2.185   0.791
 1490SOL    HW1 5369   1.355   2.225   0.700
 1490SOL    HW2 5370   1.307   2.092   0.781
 1491SOL     OW 5371   6.903   3.701   3.049
 1491SOL    HW1 5372   6.899   3.692   2.950
 1491SOL    HW2 5373   6.997   3.719   3.077
 1492SOL     OW 5374   5.933   2.206   2.059
 1492SOL    HW1 5375   5.862   2.138   2.079
 1492SOL    HW2 5376   5.979   2.182   1.974
 1493SOL     OW 5377   4.961   0.734   4.717
 1493SOL    HW1 5378   4.938   0.827   4.687
 1493SOL    HW2 5379   4.914   0.714   4.803
 1494SOL     OW 5380   4.089   2.849   5.835
 1494SOL    HW1 5381   4.129   2.868   5.925
 1494SOL    HW2 5382   4.094   2.932   5.779
 1495SOL     OW 5383   0.629   3.376   3.686
 1495SOL    HW1 5384   0.530   3.387   3.689
 1495SOL    HW2 5385   0.655   3.327   3.603
 1496SOL     OW 5386   0.824   0.347   2.045
 1496SOL    HW1 5387   0.744   0.289   2.030
 1496SOL    HW2 5388   0.884   0.343   1.965
 1497SOL     OW 5389   0.229   4.011   3.159
 1497SOL    HW1 5390   0.185   4.034   3.245
 1497SOL    HW2 5391   0.321   3.977   3.177
 1498SOL     OW 5392   1.739   4.950   6.454
 1498SOL    HW1 5393   1.823   4.983   6.496
 1498SOL    HW2 5394   1.761   4.908   6.365
 1499SOL     OW 5395   1.272   3.985   5.020
 1499SOL    HW1 5396   1.293   3.908   5.081
 1499SOL    HW2 5397   1.178   4.015   5.036
 1500SOL     OW 5398   5.956   6.977   0.483
 1500SOL    HW1 5399   6.004   0.036   0.527
 1500SOL    HW2 5400   5.868   6.963   0.527
 1501SOL     OW 5401   4.320   0.691   5.895
 1501SOL    HW1 5402   4.379   0.771   5.904
 1501SOL    HW2 5403   4.377   0.608   5.891
 1502SOL     OW 5404   6.261   6.606   0.412
 1502SOL    HW1 5405   6.291   6.510   0.418
 1502SOL    HW2 5406   6.303   6.658   0.486
 1503SOL     OW 5407   2.395   2.582   1.260
 1503SOL    HW1 5408   2.429   2.528   1.337
 1503SOL    HW2 5409   2.460   2.574   1.184
 1504SOL     OW 5410   2.890   0.562   5.066
 1504SOL    HW1 5411   2.947   0.583   4.986
 1504SOL    HW2 5412   2.841   0.477   5.051
 1505SOL     OW 5413   5.118   0.153   6.319
 1505SOL    HW1 5414   5.124   0.251   6.337
 1505SOL    HW2 5415   5.118   0.137   6.220
 1506SOL     OW 5416   1.138   4.804   3.564
 1506SOL    HW1 5417   1.121   4.712   3.529
 1506SOL    HW2 5418   1.237   4.820   3.567
 1507SOL     OW 5419   1.672   1.631   4.749
 1507SOL    HW1 5420   1.709   1.684   4.673
 1507SOL    HW2 5421   1.572   1.638   4.748
 1508SOL     OW 5422   4.464   0.331   1.308
 1508SOL    HW1 5423   4.562   0.314   1.294
 1508SOL    HW2 5424   4.429   0.268   1.377
 1509SOL     OW 5425   4.465   2.834   6.103
 1509SOL    HW1 5426   4.531   2.899   6.142
 1509SOL    HW2 5427   4.487   2.742   6.134
 1510SOL     OW 5428   5.414   2.248   3.971
 1510SOL    HW1 5429   5.432   2.155   3.939
 1510SOL    HW2 5430   5.346   2.291   3.912
 1511SOL     OW 5431   2.319   1.798   6.994
 1511SOL    HW1 5432   2.264   1.726   6.952
 1511SOL    HW2 5433   2.373   1.844   6.924
 1512SOL     OW 5434   6.799   6.535   1.697
 1512SOL    HW1 5435   6.886   6.525   1.648
 1512SOL    HW2 5436   6.802   6.619   1.752
 1513SOL     OW 5437   4.755   1.042   3.753
 1513SOL    HW1 5438   4.751   0.959   3.810
 1513SOL    HW2 5439   4.689   1.109   3.787
 1514SOL     OW 5440   5.394   1.821   4.761
 1514SOL    HW1 5441   5.401   1.861   4.853
 1514SOL    HW2 5442   5.477   1.841   4.710
 1515SOL     OW 5443   0.136   2.574   5.525
 1515SOL    HW1 5444   0.214   2.635   5.520
 1515SOL    HW2 5445   0.098   2.575   5.617
 1516SOL     OW 5446   0.387   0.662   0.758
 1516SOL    HW1 5447   0.303   0.713   0.740
 1516SOL    HW2 5448   0.388   0.579   0.702
 1517SOL     OW 5449   4.629   5.433   3.986
 1517SOL    HW1 5450   4.716   5.474   4.015
 1517SOL    HW2 5451   4.585   5.493   3.919
 1518SOL     OW 5452   0.339   3.288   6.835
 1518SOL    HW1 5453   0.268   3.229   6.876
 1518SOL    HW2 5454   0.377   3.348   6.905
 1519SOL     OW 5455   6.990   4.185   1.572
 1519SOL    HW1 5456   0.006   4.150   1.485
 1519SOL    HW2 5457   6.892   4.168   1.579
 1520SOL     OW 5458   1.838   3.289   2.270
 1520SOL    HW1 5459   1.926   3.334   2.258
 1520SOL    HW2 5460   1.771   3.355   2.303
 1521SOL     OW 5461   2.043   3.216   6.786
 1521SOL    HW1 5462   2.082   3.186   6.699
 1521SOL    HW2 5463   2.066   3.149   6.857
 1522SOL     OW 5464   6.779   1.644   5.586
 1522SOL    HW1 5465   6.870   1.654   5.626
 1522SOL    HW2 5466   6.754   1.729   5.538
 1523SOL     OW 5467   4.878   4.107   6.800
 1523SOL    HW1 5468   4.822   4.180   6.760
 1523SOL    HW2 5469   4.850   4.019   6.763
 1524SOL     OW 5470   0.725   2.215   1.713
 1524SOL    HW1 5471   0.812   2.167   1.700
 1524SOL    HW2 5472   0.734   2.279   1.789
 1525SOL     OW 5473   4.828   2.074   5.647
 1525SOL    HW1 5474   4.730   2.094   5.647
 1525SOL    HW2 5475   4.867   2.102   5.735
 1526SOL     OW 5476   0.628   1.120   1.243
 1526SOL    HW1 5477   0.681   1.044   1.206
 1526SOL    HW2 5478   0.573   1.088   1.320
 1527SOL     OW 5479   3.959   1.136   4.620
 1527SOL    HW1 5480   3.955   1.037   4.604
 1527SOL    HW2 5481   3.872   1.178   4.595
 1528SOL     OW 5482   4.558   5.899   3.065
 1528SOL    HW1 5483   4.627   5.882   3.135
 1528SOL    HW2 5484   4.523   5.992   3.075
 1529SOL     OW 5485   4.568   1.451   5.873
 1529SOL    HW1 5486   4.636   1.465   5.800
 1529SOL    HW2 5487   4.508   1.375   5.847
 1530SOL     OW 5488   3.108   0.589   1.273
 1530SOL    HW1 5489   3.197   0.595   1.227
 1530SOL    HW2 5490   3.122   0.602   1.372
 1531SOL     OW 5491   5.932   1.119   5.275
 1531SOL    HW1 5492   5.932   1.076   5.365
 1531SOL    HW2 5493   6.020   1.102   5.230
 1532SOL     OW 5494   2.682   2.359   4.666
 1532SOL    HW1 5495   2.596   2.309   4.652
 1532SOL    HW2 5496   2.736   2.357   4.582
 1533SOL     OW 5497   0.138   3.663   6.511
 1533SOL    HW1 5498   0.103   3.754   6.487
 1533SOL    HW2 5499   0.186   3.667   6.598
 1534SOL     OW 5500   1.518   5.138   0.309
 1534SOL    HW1 5501   1.607   5.169   0.343
 1534SOL    HW2 5502   1.530   5.090   0.222
 1535SOL     OW 5503   5.726   5.559   4.221
 1535SOL    HW1 5504   5.738   5.564   4.320
 1535SOL    HW2 5505   5.813   5.536   4.178
 1536SOL     OW 5506   3.169   5.282   4.661
 1536SOL    HW1 5507   3.147   5.206   4.599
 1536SOL    HW2 5508   3.268   5.287   4.675
 1537SOL     OW 5509   3.840   5.722   3.734
 1537SOL    HW1 5510   3.869   5.685   3.822
 1537SOL    HW2 5511   3.912   5.709   3.666
 1538SOL     OW 5512   3.490   4.892   5.909
 1538SOL    HW1 5513   3.407   4.948   5.901
 1538SOL    HW2 5514   3.467   4.797   5.890
 1539SOL     OW 5515   4.262   4.256   1.450
 1539SOL    HW1 5516   4.341   4.318   1.445
 1539SOL    HW2 5517   4.265   4.205   1.536
 1540SOL     OW 5518   0.487   0.048   5.025
 1540SOL    HW1 5519   0.505   0.133   4.976
 1540SOL    HW2 5520   0.565   0.025   5.083
 1541SOL     OW 5521   3.846   2.553   1.136
 1541SOL    HW1 5522   3.924   2.608   1.108
 1541SOL    HW2 5523   3.811   2.500   1.059
 1542SOL     OW 5524   0.170   6.443   1.804
 1542SOL    HW1 5525   0.200   6.348   1.814
 1542SOL    HW2 5526   0.184   6.473   1.710
 1543SOL     OW 5527   2.946   3.813   3.433
 1543SOL    HW1 5528   2.973   3.877   3.360
 1543SOL    HW2 5529   2.987   3.841   3.519
 1544SOL     OW 5530   3.004   3.855   2.325
 1544SOL    HW1 5531   3.016   3.779   2.261
 1544SOL    HW2 5532   2.943   3.827   2.399
 1545SOL     OW 5533   5.493   0.675   5.291
 1545SOL    HW1 5534   5.422   0.667   5.222
 1545SOL    HW2 5535   5.571   0.618   5.266
 1546SOL     OW 5536   5.015   0.305   6.017
 1546SOL    HW1 5537   4.934   0.263   6.056
 1546SOL    HW2 5538   5.091   0.240   6.019
 1547SOL     OW 5539   2.287   4.172   2.452
 1547SOL    HW1 5540   2.263   4.083   2.415
 1547SOL    HW2 5541   2.294   4.166   2.552
 1548SOL     OW 5542   4.413   4.238   5.288
 1548SOL    HW1 5543   4.366   4.153   5.263
 1548SOL    HW2 5544   4.368   4.315   5.243
 1549SOL     OW 5545   6.430   1.277   2.091
 1549SOL    HW1 5546   6.450   1.195   2.037
 1549SOL    HW2 5547   6.377   1.342   2.036
 1550SOL     OW 5548   2.898   6.661   6.024
 1550SOL    HW1 5549   2.912   6.634   5.928
 1550SOL    HW2 5550   2.856   6.586   6.074
 1551SOL     OW 5551   1.541   3.461   1.382
 1551SOL    HW1 5552   1.471   3.485   1.314
 1551SOL    HW2 5553   1.631   3.487   1.348
 1552SOL     OW 5554   1.052   6.759   1.532
 1552SOL    HW1 5555   1.007   6.840   1.494
 1552SOL    HW2 5556   1.025   6.748   1.628
 1553SOL     OW 5557   6.388   2.073   6.070
 1553SOL    HW1 5558   6.393   2.123   5.983
 1553SOL    HW2 5559   6.390   1.975   6.052
 1554SOL     OW 5560   3.811   1.942   3.050
 1554SOL    HW1 5561   3.719   1.969   3.022
 1554SOL    HW2 5562   3.878   1.999   3.001
 1555SOL     OW 5563   4.979   2.276   5.179
 1555SOL    HW1 5564   4.975   2.177   5.190
 1555SOL    HW2 5565   5.073   2.304   5.158
 1556SOL     OW 5566   3.569   0.622   0.549
 1556SOL    HW1 5567   3.575   0.674   0.634
 1556SOL    HW2 5568   3.635   0.548   0.550
 1557SOL     OW 5569   2.554   2.650   1.050
 1557SOL    HW1 5570   2.617   2.726   1.063
 1557SOL    HW2 5571   2.604   2.569   1.022
 1558SOL     OW 5572   5.980   2.368   4.601
 1558SOL    HW1 5573   6.032   2.348   4.518
 1558SOL    HW2 5574   5.952   2.464   4.601
 1559SOL     OW 5575   0.375   3.480   1.416
 1559SOL    HW1 5576   0.322   3.450   1.496
 1559SOL    HW2 5577   0.329   3.559   1.374
 1560SOL     OW 5578   3.101   1.243   6.572
 1560SOL    HW1 5579   3.167   1.293   6.516
 1560SOL    HW2 5580   3.083   1.295   6.656
 1561SOL     OW 5581   4.743   5.814   3.257
 1561SOL    HW1 5582   4.712   5.825   3.352
 1561SOL    HW2 5583   4.729   5.720   3.228
 1562SOL     OW 5584   3.285   6.230   2.309
 1562SOL    HW1 5585   3.273   6.291   2.387
 1562SOL    HW2 5586   3.199   6.225   2.258
 1563SOL     OW 5587   2.870   2.005   4.975
 1563SOL    HW1 5588   2.771   2.006   4.961
 1563SOL    HW2 5589   2.890   1.986   5.071
 1564SOL     OW 5590   1.417   1.424   2.179
 1564SOL    HW1 5591   1.336   1.482   2.166
 1564SOL    HW2 5592   1.389   1.334   2.211
 1565SOL     OW 5593   4.147   5.436   5.040
 1565SOL    HW1 5594   4.151   5.375   4.961
 1565SOL    HW2 5595   4.088   5.396   5.110
 1566SOL     OW 5596   6.193   4.831   4.154
 1566SOL    HW1 5597   6.245   4.818   4.069
 1566SOL    HW2 5598   6.242   4.788   4.230
 1567SOL     OW 5599   5.842   5.045   6.936
 1567SOL    HW1 5600   5.779   5.059   7.012
 1567SOL    HW2 5601   5.915   4.983   6.964
 1568SOL     OW 5602   2.712   6.031   3.663
 1568SOL    HW1 5603   2.723   5.934   3.681
 1568SOL    HW2 5604   2.615   6.054   3.658
 1569SOL     OW 5605   3.637   0.629   3.345
 1569SOL    HW1 5606   3.642   0.694   3.269
 1569SOL    HW2 5607   3.575   0.664   3.415
 1570SOL     OW 5608   2.387   6.618   6.506
 1570SOL    HW1 5609   2.411   6.687   6.438
 1570SOL    HW2 5610   2.370   6.531   6.460
 1571SOL     OW 5611   1.058   3.070   3.523
 1571SOL    HW1 5612   1.105   3.010   3.587
 1571SOL    HW2 5613   1.072   3.037   3.430
 1572SOL     OW 5614   1.921   5.406   2.204
 1572SOL    HW1 5615   1.926   5.349   2.285
 1572SOL    HW2 5616   2.005   5.460   2.195
 1573SOL     OW 5617   5.604   4.871   2.336
 1573SOL    HW1 5618   5.575   4.776   2.333
 1573SOL    HW2 5619   5.640   4.898   2.247
 1574SOL     OW 5620   6.323   3.040   2.157
 1574SOL    HW1 5621   6.358   3.019   2.066
 1574SOL    HW2 5622   6.238   3.091   2.149
 1575SOL     OW 5623   2.217   0.630   1.889
 1575SOL    HW1 5624   2.283   0.599   1.821
 1575SOL    HW2 5625   2.149   0.689   1.845
 1576SOL     OW 5626   1.220   6.239   3.042
 1576SOL    HW1 5627   1.236   6.243   2.943
 1576SOL    HW2 5628   1.124   6.219   3.059
 1577SOL     OW 5629   2.433   0.498   6.277
 1577SOL    HW1 5630   2.433   0.433   6.201
 1577SOL    HW2 5631   2.344   0.544   6.281
 1578SOL     OW 5632   4.714   0.930   6.606
 1578SOL    HW1 5633   4.775   0.889   6.673
 1578SOL    HW2 5634   4.719   1.030   6.614
 1579SOL     OW 5635   0.250   2.679   1.484
 1579SOL    HW1 5636   0.348   2.694   1.496
 1579SOL    HW2 5637   0.234   2.623   1.403
 1580SOL     OW 5638   3.045   3.965   2.808
 1580SOL    HW1 5639   3.085   4.011   2.729
 1580SOL    HW2 5640   3.085   4.002   2.892
 1581SOL     OW 5641   6.886   4.419   5.392
 1581SOL    HW1 5642   6.905   4.331   5.348
 1581SOL    HW2 5643   6.817   4.468   5.338
 1582SOL     OW 5644   3.709   5.563   4.817
 1582SOL    HW1 5645   3.702   5.638   4.752
 1582SOL    HW2 5646   3.777   5.586   4.887
 1583SOL     OW 5647   0.623   5.532   4.748
 1583SOL    HW1 5648   0.532   5.541   4.706
 1583SOL    HW2 5649   0.617   5.471   4.827
 1584SOL     OW 5650   2.010   5.071   6.974
 1584SOL    HW1 5651   1.989   5.037   0.047
 1584SOL    HW2 5652   2.109   5.081   6.964
 1585SOL     OW 5653   4.340   1.217   2.969
 1585SOL    HW1 5654   4.256   1.262   2.938
 1585SOL    HW2 5655   4.355   1.238   3.066
 1586SOL     OW 5656   2.909   4.807   3.277
 1586SOL    HW1 5657   2.999   4.850   3.264
 1586SOL    HW2 5658   2.921   4.708   3.289
 1587SOL     OW 5659   1.767   5.299   5.360
 1587SOL    HW1 5660   1.735   5.306   5.455
 1587SOL    HW2 5661   1.761   5.204   5.331
 1588SOL     OW 5662   4.568   0.724   2.308
 1588SOL    HW1 5663   4.581   0.820   2.334
 1588SOL    HW2 5664   4.605   0.709   2.217
 1589SOL     OW 5665   6.746   3.375   3.048
 1589SOL    HW1 5666   6.729   3.454   3.107
 1589SOL    HW2 5667   6.840   3.380   3.013
 1590SOL     OW 5668   5.400   1.302   3.422
 1590SOL    HW1 5669   5.335   1.323   3.349
 1590SOL    HW2 5670   5.428   1.206   3.415
 1591SOL     OW 5671   6.876   5.661   1.523
 1591SOL    HW1 5672   6.853   5.689   1.616
 1591SOL    HW2 5673   6.840   5.729   1.458
 1592SOL     OW 5674   1.718   4.216   0.091
 1592SOL    HW1 5675   1.631   4.206   0.140
 1592SOL    HW2 5676   1.721   4.151   0.015
 1593SOL     OW 5677   0.755   0.080   6.546
 1593SOL    HW1 5678   0.703   0.165   6.555
 1593SOL    HW2 5679   0.712   0.008   6.599
 1594SOL     OW 5680   0.294   6.136   1.775
 1594SOL    HW1 5681   0.337   6.101   1.692
 1594SOL    HW2 5682   0.229   6.068   1.810
 1595SOL     OW 5683   1.160   4.323   0.770
 1595SOL    HW1 5684   1.190   4.369   0.686
 1595SOL    HW2 5685   1.240   4.290   0.821
 1596SOL     OW 5686   6.307   2.937   2.388
 1596SOL    HW1 5687   6.209   2.945   2.407
 1596SOL    HW2 5688   6.325   2.964   2.293
 1597SOL     OW 5689   2.988   5.991   1.352
 1597SOL    HW1 5690   2.890   5.974   1.354
 1597SOL    HW2 5691   3.019   5.998   1.257
 1598SOL     OW 5692   1.277   5.473   6.328
 1598SOL    HW1 5693   1.308   5.447   6.420
 1598SOL    HW2 5694   1.303   5.401   6.263
 1599SOL     OW 5695   4.707   4.925   5.217
 1599SOL    HW1 5696   4.678   5.021   5.209
 1599SOL    HW2 5697   4.676   4.889   5.305
 1600SOL     OW 5698   2.815   0.958   2.197
 1600SOL    HW1 5699   2.893   0.900   2.173
 1600SOL    HW2 5700   2.831   1.000   2.286
 1601SOL     OW 5701   0.105   6.712   4.163
 1601SOL    HW1 5702   0.106   6.649   4.086
 1601SOL    HW2 5703   0.019   6.703   4.213
 1602SOL     OW 5704   4.663   5.319   4.503
 1602SOL    HW1 5705   4.600   5.396   4.493
 1602SOL    HW2 5706   4.688   5.284   4.413
 1603SOL     OW 5707   2.771   5.231   3.975
 1603SOL    HW1 5708   2.799   5.139   3.950
 1603SOL    HW2 5709   2.674   5.244   3.956
 1604SOL     OW 5710   3.934   5.047   1.565
 1604SOL    HW1 5711   3.927   5.058   1.664
 1604SOL    HW2 5712   4.029   5.062   1.536
 1605SOL     OW 5713   6.371   5.531   1.452
 1605SOL    HW1 5714   6.412   5.622   1.455
 1605SOL    HW2 5715   6.275   5.537   1.481
 1606SOL     OW 5716   3.894   5.555   5.331
 1606SOL    HW1 5717   3.888   5.507   5.243
 1606SOL    HW2 5718   3.988   5.587   5.345
 1607SOL     OW 5719   4.424   0.288   0.974
 1607SOL    HW1 5720   4.361   0.305   1.049
 1607SOL    HW2 5721   4.378   0.236   0.902
 1608SOL     OW 5722   6.860   1.171   2.759
 1608SOL    HW1 5723   6.812   1.240   2.813
 1608SOL    HW2 5724   6.848   1.191   2.661
 1609SOL     OW 5725   3.331   0.292   0.821
 1609SOL    HW1 5726   3.316   0.301   0.723
 1609SOL    HW2 5727   3.395   0.218   0.839
 1610SOL     OW 5728   5.072   6.292   0.979
 1610SOL    HW1 5729   4.983   6.332   0.999
 1610SOL    HW2 5730   5.060   6.202   0.938
 1611SOL     OW 5731   1.549   3.384   0.710
 1611SOL    HW1 5732   1.517   3.318   0.777
 1611SOL    HW2 5733   1.603   3.455   0.756
 1612SOL     OW 5734   3.264   6.573   1.212
 1612SOL    HW1 5735   3.185   6.564   1.273
 1612SOL    HW2 5736   3.338   6.619   1.260
 1613SOL     OW 5737   0.717   5.757   2.318
 1613SOL    HW1 5738   0.687   5.826   2.384
 1613SOL    HW2 5739   0.645   5.689   2.306
 1614SOL     OW 5740   5.591   2.008   6.044
 1614SOL    HW1 5741   5.532   1.970   5.973
 1614SOL    HW2 5742   5.540   2.017   6.130
 1615SOL     OW 5743   6.508   5.540   6.463
 1615SOL    HW1 5744   6.435   5.490   6.510
 1615SOL    HW2 5745   6.597   5.506   6.494
 1616SOL     OW 5746   4.507   0.601   3.480
 1616SOL    HW1 5747   4.554   0.651   3.553
 1616SOL    HW2 5748   4.441   0.660   3.436
 1617SOL     OW 5749   4.645   6.116   3.255
 1617SOL    HW1 5750   4.687   6.179   3.189
 1617SOL    HW2 5751   4.690   6.027   3.247
 1618SOL     OW 5752   1.121   5.654   2.309
 1618SOL    HW1 5753   1.154   5.744   2.335
 1618SOL    HW2 5754   1.177   5.619   2.234
 1619SOL     OW 5755   0.370   5.591   0.060
 1619SOL    HW1 5756   0.368   5.496   0.030
 1619SOL    HW2 5757   0.457   5.633   0.034
 1620SOL     OW 5758   3.141   4.719   1.671
 1620SOL    HW1 5759   3.232   4.712   1.631
 1620SOL    HW2 5760   3.105   4.628   1.688
 1621SOL     OW 5761   5.702   0.255   0.632
 1621SOL    HW1 5762   5.672   0.343   0.596
 1621SOL    HW2 5763   5.636   0.184   0.606
 1622SOL     OW 5764   0.771   3.653   5.472
 1622SOL    HW1 5765   0.833   3.640   5.395
 1622SOL    HW2 5766   0.689   3.700   5.440
 1623SOL     OW 5767   0.515   2.161   4.580
 1623SOL    HW1 5768   0.441   2.140   4.644
 1623SOL    HW2 5769   0.512   2.099   4.502
 1624SOL     OW 5770   4.241   1.429   6.415
 1624SOL    HW1 5771   4.171   1.496   6.438
 1624SOL    HW2 5772   4.237   1.352   6.479
 1625SOL     OW 5773   1.413   5.174   6.720
 1625SOL    HW1 5774   1.451   5.148   6.632
 1625SOL    HW2 5775   1.317   5.200   6.709
 1626SOL     OW 5776   3.438   1.592   1.409
 1626SOL    HW1 5777   3.445   1.671   1.348
 1626SOL    HW2 5778   3.418   1.624   1.502
 1627SOL     OW 5779   5.506   2.812   3.437
 1627SOL    HW1 5780   5.492   2.907   3.409
 1627SOL    HW2 5781   5.604   2.794   3.447
 1628SOL     OW 5782   4.705   5.170   6.953
 1628SOL    HW1 5783   4.772   5.154   0.007
 1628SOL    HW2 5784   4.673   5.264   6.957
 1629SOL     OW 5785   2.408   1.069   3.624
 1629SOL    HW1 5786   2.390   1.065   3.723
 1629SOL    HW2 5787   2.341   1.012   3.576
 1630SOL     OW 5788   0.254   4.516   5.331
 1630SOL    HW1 5789   0.185   4.463   5.380
 1630SOL    HW2 5790   0.325   4.454   5.298
 1631SOL     OW 5791   0.380   2.810   0.692
 1631SOL    HW1 5792   0.366   2.902   0.728
 1631SOL    HW2 5793   0.417   2.751   0.764
 1632SOL     OW 5794   4.935   3.714   3.039
 1632SOL    HW1 5795   4.888   3.629   3.059
 1632SOL    HW2 5796   4.985   3.745   3.120
 1633SOL     OW 5797   5.293   4.133   4.867
 1633SOL    HW1 5798   5.377   4.085   4.895
 1633SOL    HW2 5799   5.239   4.074   4.808
 1634SOL     OW 5800   4.466   0.814   4.074
 1634SOL    HW1 5801   4.376   0.812   4.030
 1634SOL    HW2 5802   4.462   0.873   4.155
 1635SOL     OW 5803   1.102   4.998   6.444
 1635SOL    HW1 5804   1.138   4.956   6.360
 1635SOL    HW2 5805   1.069   5.090   6.423
 1636SOL     OW 5806   3.348   5.514   1.480
 1636SOL    HW1 5807   3.412   5.452   1.433
 1636SOL    HW2 5808   3.369   5.608   1.454
 1637SOL     OW 5809   6.543   0.012   3.560
 1637SOL    HW1 5810   6.541   6.934   3.533
 1637SOL    HW2 5811   6.637   0.044   3.566
 1638SOL     OW 5812   0.776   3.200   2.030
 1638SOL    HW1 5813   0.683   3.189   2.064
 1638SOL    HW2 5814   0.840   3.195   2.107
 1639SOL     OW 5815   5.862   4.760   1.942
 1639SOL    HW1 5816   5.946   4.814   1.941
 1639SOL    HW2 5817   5.845   4.723   1.851
 1640SOL     OW 5818   6.576   0.094   0.199
 1640SOL    HW1 5819   6.569   0.091   0.099
 1640SOL    HW2 5820   6.486   0.083   0.240
 1641SOL     OW 5821   6.908   2.914   3.684
 1641SOL    HW1 5822   6.913   2.815   3.678
 1641SOL    HW2 5823   7.000   2.953   3.691
 1642SOL     OW 5824   6.995   2.927   6.502
 1642SOL    HW1 5825   6.956   2.917   6.411
 1642SOL    HW2 5826   6.929   2.895   6.571
 1643SOL     OW 5827   2.639   4.612   3.266
 1643SOL    HW1 5828   2.695   4.542   3.222
 1643SOL    HW2 5829   2.642   4.695   3.212
 1644SOL     OW 5830   5.514   3.067   6.686
 1644SOL    HW1 5831   5.591   3.128   6.705
 1644SOL    HW2 5832   5.509   2.998   6.758
 1645SOL     OW 5833   3.153   6.636   6.203
 1645SOL    HW1 5834   3.205   6.704   6.253
 1645SOL    HW2 5835   3.065   6.621   6.247
 1646SOL     OW 5836   1.652   6.438   0.303
 1646SOL    HW1 5837   1.703   6.375   0.360
 1646SOL    HW2 5838   1.695   6.446   0.213
 1647SOL     OW 5839   5.941   2.433   3.939
 1647SOL    HW1 5840   6.020   2.493   3.950
 1647SOL    HW2 5841   5.864   2.486   3.904
 1648SOL     OW 5842   5.538   6.647   0.581
 1648SOL    HW1 5843   5.509   6.553   0.602
 1648SOL    HW2 5844   5.571   6.691   0.664
 1649SOL     OW 5845   3.791   1.553   4.378
 1649SOL    HW1 5846   3.782   1.651   4.359
 1649SOL    HW2 5847   3.825   1.507   4.295
 1650SOL     OW 5848   1.110   6.096   5.328
 1650SOL    HW1 5849   1.106   6.027   5.256
 1650SOL    HW2 5850   1.196   6.147   5.321
 1651SOL     OW 5851   0.331   1.952   2.860
 1651SOL    HW1 5852   0.273   1.916   2.933
 1651SOL    HW2 5853   0.404   1.887   2.841
 1652SOL     OW 5854   1.223   3.684   2.275
 1652SOL    HW1 5855   1.294   3.735   2.226
 1652SOL    HW2 5856   1.188   3.740   2.350
 1653SOL     OW 5857   0.127   5.887   1.493
 1653SOL    HW1 5858   0.049   5.899   1.555
 1653SOL    HW2 5859   0.211   5.880   1.547
 1654SOL     OW 5860   7.006   3.301   1.232
 1654SOL    HW1 5861   6.998   3.388   1.280
 1654SOL    HW2 5862   0.053   3.310   1.157
 1655SOL     OW 5863   6.583   1.448   4.083
 1655SOL    HW1 5864   6.541   1.382   4.020
 1655SOL    HW2 5865   6.575   1.413   4.176
 1656SOL     OW 5866   2.177   5.397   3.101
 1656SOL    HW1 5867   2.141   5.482   3.140
 1656SOL    HW2 5868   2.258   5.417   3.046
 1657SOL     OW 5869   5.984   0.237   4.132
 1657SOL    HW1 5870   6.006   0.305   4.202
 1657SOL    HW2 5871   6.049   0.162   4.138
 1658SOL     OW 5872   6.369   0.428   0.993
 1658SOL    HW1 5873   6.422   0.454   0.913
 1658SOL    HW2 5874   6.427   0.432   1.074
 1659SOL     OW 5875   3.766   6.813   6.899
 1659SOL    HW1 5876   3.751   6.909   6.920
 1659SOL    HW2 5877   3.688   6.759   6.931
 1660SOL     OW 5878   1.685   6.415   2.902
 1660SOL    HW1 5879   1.617   6.345   2.925
 1660SOL    HW2 5880   1.717   6.402   2.809
 1661SOL     OW 5881   2.843   5.932   1.755
 1661SOL    HW1 5882   2.753   5.890   1.744
 1661SOL    HW2 5883   2.874   5.919   1.849
 1662SOL     OW 5884   6.836   0.515   4.663
 1662SOL    HW1 5885   6.847   0.556   4.753
 1662SOL    HW2 5886   6.765   0.565   4.612
 1663SOL     OW 5887   4.780   5.290   2.745
 1663SOL    HW1 5888   4.870   5.248   2.738
 1663SOL    HW2 5889   4.762   5.346   2.663
 1664SOL     OW 5890   2.286   6.059   5.682
 1664SOL    HW1 5891   2.295   5.960   5.693
 1664SOL    HW2 5892   2.370   6.104   5.711
 1665SOL     OW 5893   0.068   3.745   1.677
 1665SOL    HW1 5894   6.989   3.731   1.657
 1665SOL    HW2 5895   0.107   3.660   1.711
 1666SOL     OW 5896   5.739   0.128   0.286
 1666SOL    HW1 5897   5.759   0.162   0.377
 1666SOL    HW2 5898   5.661   0.065   0.290
 1667SOL     OW 5899   6.674   6.115   1.826
 1667SOL    HW1 5900   6.639   6.081   1.913
 1667SOL    HW2 5901   6.758   6.166   1.841
 1668SOL     OW 5902   4.731   4.935   3.522
 1668SOL    HW1 5903   4.673   4.887   3.588
 1668SOL    HW2 5904   4.701   4.913   3.429
 1669SOL     OW 5905   6.789   4.465   5.654
 1669SOL    HW1 5906   6.859   4.475   5.725
 1669SOL    HW2 5907   6.833   4.443   5.567
 1670SOL     OW 5908   0.426   4.497   5.000
 1670SOL    HW1 5909   0.372   4.567   5.046
 1670SOL    HW2 5910   0.411   4.408   5.044
 1671SOL     OW 5911   5.666   1.180   3.229
 1671SOL    HW1 5912   5.697   1.275   3.221
 1671SOL    HW2 5913   5.687   1.146   3.321
 1672SOL     OW 5914   2.344   4.258   6.476
 1672SOL    HW1 5915   2.348   4.212   6.387
 1672SOL    HW2 5916   2.255   4.240   6.518
 1673SOL     OW 5917   1.447   1.435   4.932
 1673SOL    HW1 5918   1.507   1.372   4.982
 1673SOL    HW2 5919   1.494   1.468   4.851
 1674SOL     OW 5920   0.142   3.406   2.397
 1674SOL    HW1 5921   0.090   3.349   2.333
 1674SOL    HW2 5922   0.113   3.502   2.386
 1675SOL     OW 5923   5.005   0.184   6.748
 1675SOL    HW1 5924   4.956   0.194   6.835
 1675SOL    HW2 5925   5.047   0.272   6.724
 1676SOL     OW 5926   2.320   2.382   1.954
 1676SOL    HW1 5927   2.330   2.282   1.953
 1676SOL    HW2 5928   2.334   2.418   1.862
 1677SOL     OW 5929   4.037   3.899   3.461
 1677SOL    HW1 5930   4.008   3.840   3.537
 1677SOL    HW2 5931   4.051   3.992   3.495
 1678SOL     OW 5932   0.074   5.482   1.905
 1678SOL    HW1 5933   0.012   5.540   1.957
 1678SOL    HW2 5934   0.143   5.539   1.859
 1679SOL     OW 5935   2.049   1.409   5.090
 1679SOL    HW1 5936   2.015   1.468   5.016
 1679SOL    HW2 5937   2.081   1.322   5.051
 1680SOL     OW 5938   6.114   3.819   5.440
 1680SOL    HW1 5939   6.086   3.915   5.453
 1680SOL    HW2 5940   6.184   3.815   5.369
 1681SOL     OW 5941   1.561   6.106   5.422
 1681SOL    HW1 5942   1.634   6.098   5.489
 1681SOL    HW2 5943   1.517   6.196   5.432
 1682SOL     OW 5944   2.189   0.720   5.620
 1682SOL    HW1 5945   2.267   0.664   5.592
 1682SOL    HW2 5946   2.135   0.671   5.689
 1683SOL     OW 5947   6.304   5.468   2.726
 1683SOL    HW1 5948   6.274   5.536   2.794
 1683SOL    HW2 5949   6.309   5.511   2.636
 1684SOL     OW 5950   0.359   5.663   2.133
 1684SOL    HW1 5951   0.267   5.649   2.171
 1684SOL    HW2 5952   0.394   5.752   2.163
 1685SOL     OW 5953   2.177   1.477   6.001
 1685SOL    HW1 5954   2.198   1.572   5.977
 1685SOL    HW2 5955   2.261   1.424   6.001
 1686SOL     OW 5956   3.413   6.122   4.356
 1686SOL    HW1 5957   3.503   6.079   4.346
 1686SOL    HW2 5958   3.405   6.163   4.447
 1687SOL     OW 5959   0.550   2.929   1.786
 1687SOL    HW1 5960   0.626   2.882   1.740
 1687SOL    HW2 5961   0.509   2.994   1.723
 1688SOL     OW 5962   1.627   1.503   4.131
 1688SOL    HW1 5963   1.575   1.532   4.051
 1688SOL    HW2 5964   1.723   1.527   4.119
 1689SOL     OW 5965   6.410   0.610   2.258
 1689SOL    HW1 5966   6.419   0.526   2.313
 1689SOL    HW2 5967   6.474   0.679   2.292
 1690SOL     OW 5968   0.996   3.025   4.801
 1690SOL    HW1 5969   1.051   3.091   4.852
 1690SOL    HW2 5970   1.055   2.957   4.759
 1691SOL     OW 5971   5.335   3.347   4.009
 1691SOL    HW1 5972   5.323   3.310   3.917
 1691SOL    HW2 5973   5.259   3.317   4.067
 1692SOL     OW 5974   4.854   6.187   1.773
 1692SOL    HW1 5975   4.790   6.259   1.802
 1692SOL    HW2 5976   4.911   6.221   1.698
 1693SOL     OW 5977   6.985   2.147   3.528
 1693SOL    HW1 5978   6.998   2.051   3.552
 1693SOL    HW2 5979   6.902   2.181   3.572
 1694SOL     OW 5980   6.166   1.385   4.004
 1694SOL    HW1 5981   6.079   1.341   4.023
 1694SOL    HW2 5982   6.162   1.481   4.031
 1695SOL     OW 5983   3.459   0.229   6.576
 1695SOL    HW1 5984   3.556   0.252   6.567
 1695SOL    HW2 5985   3.407   0.313   6.594
 1696SOL     OW 5986   3.788   5.992   0.898
 1696SOL    HW1 5987   3.823   6.075   0.941
 1696SOL    HW2 5988   3.747   6.016   0.810
 1697SOL     OW 5989   6.212   1.900   1.325
 1697SOL    HW1 5990   6.269   1.982   1.317
 1697SOL    HW2 5991   6.205   1.856   1.236
 1698SOL     OW 5992   4.170   0.852   1.224
 1698SOL    HW1 5993   4.193   0.838   1.321
 1698SOL    HW2 5994   4.143   0.947   1.210
 1699SOL     OW 5995   2.163   1.928   5.903
 1699SOL    HW1 5996   2.131   1.993   5.972
 1699SOL    HW2 5997   2.225   1.975   5.840
 1700SOL     OW 5998   6.227   3.862   3.195
 1700SOL    HW1 5999   6.184   3.890   3.109
 1700SOL    HW2 6000   6.312   3.814   3.175
 1701SOL     OW 6001   6.016   5.908   5.414
 1701SOL    HW1 6002   6.009   5.836   5.483
 1701SOL    HW2 6003   6.016   5.997   5.459
 1702SOL     OW 6004   0.402   1.130   1.060
 1702SOL    HW1 6005   0.401   1.035   1.029
 1702SOL    HW2 6006   0.464   1.139   1.138
 1703SOL     OW 6007   3.720   1.149   6.684
 1703SOL    HW1 6008   3.664   1.134   6.603
 1703SOL    HW2 6009   3.735   1.247   6.697
 1704SOL     OW 6010   1.637   2.355   0.349
 1704SOL    HW1 6011   1.587   2.373   0.434
 1704SOL    HW2 6012   1.638   2.437   0.292
 1705SOL     OW 6013   3.415   2.439   1.727
 1705SOL    HW1 6014   3.340   2.374   1.734
 1705SOL    HW2 6015   3.492   2.407   1.781
 1706SOL     OW 6016   4.339   2.241   1.582
 1706SOL    HW1 6017   4.262   2.266   1.640
 1706SOL    HW2 6018   4.308   2.226   1.489
 1707SOL     OW 6019   4.699   2.752   2.668
 1707SOL    HW1 6020   4.735   2.660   2.682
 1707SOL    HW2 6021   4.686   2.797   2.756
 1708SOL     OW 6022   4.128   5.329   1.492
 1708SOL    HW1 6023   4.144   5.393   1.568
 1708SOL    HW2 6024   4.179   5.244   1.509
 1709SOL     OW 6025   3.462   6.741   1.309
 1709SOL    HW1 6026   3.526   6.701   1.244
 1709SOL    HW2 6027   3.447   6.837   1.286
 1710SOL     OW 6028   3.571   5.257   3.638
 1710SOL    HW1 6029   3.565   5.357   3.636
 1710SOL    HW2 6030   3.656   5.230   3.683
 1711SOL     OW 6031   2.376   4.893   4.990
 1711SOL    HW1 6032   2.437   4.826   4.948
 1711SOL    HW2 6033   2.305   4.847   5.043
 1712SOL     OW 6034   6.922   1.654   4.802
 1712SOL    HW1 6035   6.915   1.558   4.774
 1712SOL    HW2 6036   6.907   1.713   4.723
 1713SOL     OW 6037   4.299   1.616   2.566
 1713SOL    HW1 6038   4.218   1.561   2.543
 1713SOL    HW2 6039   4.330   1.595   2.658
 1714SOL     OW 6040   4.283   1.796   6.113
 1714SOL    HW1 6041   4.352   1.727   6.092
 1714SOL    HW2 6042   4.221   1.762   6.183
 1715SOL     OW 6043   2.433   5.442   3.004
 1715SOL    HW1 6044   2.432   5.542   3.000
 1715SOL    HW2 6045   2.475   5.413   3.091
 1716SOL     OW 6046   4.418   0.328   3.653
 1716SOL    HW1 6047   4.438   0.409   3.598
 1716SOL    HW2 6048   4.423   0.247   3.594
 1717SOL     OW 6049   3.452   5.510   4.776
 1717SOL    HW1 6050   3.550   5.511   4.793
 1717SOL    HW2 6051   3.434   5.473   4.685
 1718SOL     OW 6052   2.732   1.612   2.381
 1718SOL    HW1 6053   2.819   1.572   2.409
 1718SOL    HW2 6054   2.742   1.650   2.289
 1719SOL     OW 6055   2.058   3.524   0.911
 1719SOL    HW1 6056   2.002   3.601   0.943
 1719SOL    HW2 6057   1.999   3.445   0.894
 1720SOL     OW 6058   0.049   2.702   5.955
 1720SOL    HW1 6059   0.086   2.612   5.981
 1720SOL    HW2 6060   6.970   2.693   5.932
 1721SOL     OW 6061   1.758   0.040   1.191
 1721SOL    HW1 6062   1.738   0.031   1.288
 1721SOL    HW2 6063   1.738   6.972   1.144
 1722SOL     OW 6064   4.335   1.305   3.555
 1722SOL    HW1 6065   4.407   1.236   3.560
 1722SOL    HW2 6066   4.330   1.342   3.461
 1723SOL     OW 6067   4.438   2.489   0.197
 1723SOL    HW1 6068   4.485   2.455   0.279
 1723SOL    HW2 6069   4.403   2.411   0.144
 1724SOL     OW 6070   6.495   2.474   1.854
 1724SOL    HW1 6071   6.406   2.431   1.867
 1724SOL    HW2 6072   6.496   2.563   1.901
 1725SOL     OW 6073   1.848   5.266   6.869
 1725SOL    HW1 6074   1.846   5.304   6.777
 1725SOL    HW2 6075   1.924   5.201   6.877
 1726SOL     OW 6076   5.219   3.681   4.720
 1726SOL    HW1 6077   5.129   3.673   4.764
 1726SOL    HW2 6078   5.281   3.612   4.756
 1727SOL     OW 6079   3.827   3.571   3.470
 1727SOL    HW1 6080   3.781   3.655   3.439
 1727SOL    HW2 6081   3.924   3.575   3.445
 1728SOL     OW 6082   4.936   4.606   5.408
 1728SOL    HW1 6083   5.019   4.632   5.456
 1728SOL    HW2 6084   4.943   4.632   5.311
 1729SOL     OW 6085   1.408   3.685   3.079
 1729SOL    HW1 6086   1.350   3.687   2.997
 1729SOL    HW2 6087   1.431   3.779   3.106
 1730SOL     OW 6088   2.914   0.310   5.305
 1730SOL    HW1 6089   2.961   0.267   5.228
 1730SOL    HW2 6090   2.977   0.318   5.383
 1731SOL     OW 6091   6.064   4.694   3.524
 1731SOL    HW1 6092   6.003   4.714   3.601
 1731SOL    HW2 6093   6.118   4.613   3.545
 1732SOL     OW 6094   1.935   4.272   6.349
 1732SOL    HW1 6095   1.987   4.228   6.276
 1732SOL    HW2 6096   1.964   4.367   6.359
 1733SOL     OW 6097   2.243   3.822   1.777
 1733SOL    HW1 6098   2.279   3.914   1.767
 1733SOL    HW2 6099   2.278   3.782   1.861
 1734SOL     OW 6100   5.521   2.762   1.889
 1734SOL    HW1 6101   5.425   2.774   1.861
 1734SOL    HW2 6102   5.545   2.665   1.882
 1735SOL     OW 6103   4.179   5.461   5.898
 1735SOL    HW1 6104   4.151   5.554   5.877
 1735SOL    HW2 6105   4.274   5.461   5.928
 1736SOL     OW 6106   3.554   3.648   0.299
 1736SOL    HW1 6107   3.573   3.550   0.290
 1736SOL    HW2 6108   3.603   3.684   0.379
 1737SOL     OW 6109   4.850   6.925   4.568
 1737SOL    HW1 6110   4.794   6.906   4.649
 1737SOL    HW2 6111   4.945   6.902   4.588
 1738SOL     OW 6112   1.821   3.574   4.221
 1738SOL    HW1 6113   1.918   3.596   4.225
 1738SOL    HW2 6114   1.808   3.476   4.238
 1739SOL     OW 6115   6.033   0.718   4.284
 1739SOL    HW1 6116   5.947   0.702   4.236
 1739SOL    HW2 6117   6.109   0.688   4.226
 1740SOL     OW 6118   6.263   1.854   4.900
 1740SOL    HW1 6119   6.232   1.801   4.821
 1740SOL    HW2 6120   6.360   1.875   4.889
 1741SOL     OW 6121   2.975   1.143   4.245
 1741SOL    HW1 6122   3.019   1.195   4.318
 1741SOL    HW2 6123   3.011   1.174   4.157
 1742SOL     OW 6124   5.773   0.830   5.941
 1742SOL    HW1 6125   5.702   0.766   5.971
 1742SOL    HW2 6126   5.792   0.895   6.015
 1743SOL     OW 6127   0.911   1.006   2.611
 1743SOL    HW1 6128   0.955   0.977   2.526
 1743SOL    HW2 6129   0.894   1.104   2.608
 1744SOL     OW 6130   5.863   2.692   2.917
 1744SOL    HW1 6131   5.926   2.759   2.957
 1744SOL    HW2 6132   5.844   2.717   2.822
 1745SOL     OW 6133   6.113   6.246   2.216
 1745SOL    HW1 6134   6.150   6.209   2.301
 1745SOL    HW2 6135   6.046   6.181   2.179
 1746SOL     OW 6136   1.883   3.887   4.000
 1746SOL    HW1 6137   1.803   3.919   3.948
 1746SOL    HW2 6138   1.874   3.917   4.095
 1747SOL     OW 6139   3.308   1.780   2.108
 1747SOL    HW1 6140   3.326   1.709   2.176
 1747SOL    HW2 6141   3.248   1.849   2.148
 1748SOL     OW 6142   5.913   1.647   4.216
 1748SOL    HW1 6143   5.906   1.556   4.258
 1748SOL    HW2 6144   6.002   1.687   4.238
 1749SOL     OW 6145   2.649   6.987   6.723
 1749SOL    HW1 6146   2.580   0.038   6.703
 1749SOL    HW2 6147   2.604   6.900   6.747
 1750SOL     OW 6148   5.303   0.339   3.853
 1750SOL    HW1 6149   5.377   0.311   3.792
 1750SOL    HW2 6150   5.295   0.439   3.852
 1751SOL     OW 6151   5.742   1.743   5.061
 1751SOL    HW1 6152   5.839   1.767   5.065
 1751SOL    HW2 6153   5.710   1.719   5.152
 1752SOL     OW 6154   5.894   0.337   1.411
 1752SOL    HW1 6155   5.829   0.262   1.398
 1752SOL    HW2 6156   5.986   0.306   1.387
 1753SOL     OW 6157   6.734   1.066   1.820
 1753SOL    HW1 6158   6.778   0.977   1.828
 1753SOL    HW2 6159   6.780   1.131   1.882
 1754SOL     OW 6160   1.701   5.608   6.271
 1754SOL    HW1 6161   1.654   5.534   6.319
 1754SOL    HW2 6162   1.641   5.646   6.201
 1755SOL     OW 6163   0.002   5.690   6.523
 1755SOL    HW1 6164   0.039   5.692   6.430
 1755SOL    HW2 6165   6.943   5.754   6.529
 1756SOL     OW 6166   3.982   6.119   6.533
 1756SOL    HW1 6167   3.926   6.125   6.616
 1756SOL    HW2 6168   3.979   6.025   6.498
 1757SOL     OW 6169   3.405   5.010   5.403
 1757SOL    HW1 6170   3.424   5.089   5.345
 1757SOL    HW2 6171   3.423   4.926   5.351
 1758SOL     OW 6172   1.796   0.395   4.742
 1758SOL    HW1 6173   1.718   0.366   4.798
 1758SOL    HW2 6174   1.764   0.416   4.650
 1759SOL     OW 6175   1.294   6.819   5.183
 1759SOL    HW1 6176   1.290   6.811   5.084
 1759SOL    HW2 6177   1.250   6.739   5.225
 1760SOL     OW 6178   5.789   0.647   4.176
 1760SOL    HW1 6179   5.742   0.613   4.258
 1760SOL    HW2 6180   5.744   0.730   4.144
 1761SOL     OW 6181   6.547   0.499   1.186
 1761SOL    HW1 6182   6.611   0.511   1.262
 1761SOL    HW2 6183   6.516   0.589   1.154
 1762SOL     OW 6184   6.695   1.525   4.473
 1762SOL    HW1 6185   6.635   1.590   4.520
 1762SOL    HW2 6186   6.769   1.498   4.534
 1763SOL     OW 6187   1.097   4.675   4.876
 1763SOL    HW1 6188   1.097   4.593   4.819
 1763SOL    HW2 6189   1.005   4.714   4.879
 1764SOL     OW 6190   0.605   3.257   2.456
 1764SOL    HW1 6191   0.597   3.158   2.466
 1764SOL    HW2 6192   0.652   3.295   2.537
 1765SOL     OW 6193   3.666   1.947   1.204
 1765SOL    HW1 6194   3.617   1.936   1.291
 1765SOL    HW2 6195   3.623   2.019   1.151
 1766SOL     OW 6196   5.141   4.621   3.906
 1766SOL    HW1 6197   5.215   4.573   3.860
 1766SOL    HW2 6198   5.179   4.697   3.960
 1767SOL     OW 6199   0.919   4.457   2.978
 1767SOL    HW1 6200   0.976   4.479   2.899
 1767SOL    HW2 6201   0.921   4.358   2.993
 1768SOL     OW 6202   4.317   0.494   6.706
 1768SOL    HW1 6203   4.254   0.429   6.747
 1768SOL    HW2 6204   4.330   0.472   6.609
 1769SOL     OW 6205   5.687   0.865   0.537
 1769SOL    HW1 6206   5.668   0.832   0.445
 1769SOL    HW2 6207   5.724   0.790   0.593
 1770SOL     OW 6208   0.555   4.108   5.242
 1770SOL    HW1 6209   0.558   4.036   5.310
 1770SOL    HW2 6210   0.579   4.196   5.284
 1771SOL     OW 6211   1.914   4.935   0.192
 1771SOL    HW1 6212   1.857   5.008   0.230
 1771SOL    HW2 6213   1.862   4.850   0.187
 1772SOL     OW 6214   4.117   5.254   4.376
 1772SOL    HW1 6215   4.145   5.206   4.459
 1772SOL    HW2 6216   4.187   5.244   4.306
 1773SOL     OW 6217   1.006   1.946   5.344
 1773SOL    HW1 6218   0.923   1.959   5.291
 1773SOL    HW2 6219   1.056   2.033   5.349
 1774SOL     OW 6220   5.387   6.339   2.243
 1774SOL    HW1 6221   5.443   6.283   2.304
 1774SOL    HW2 6222   5.290   6.318   2.258
 1775SOL     OW 6223   1.896   5.588   6.773
 1775SOL    HW1 6224   1.932   5.550   6.858
 1775SOL    HW2 6225   1.897   5.517   6.702
 1776SOL     OW 6226   5.127   0.799   5.840
 1776SOL    HW1 6227   5.129   0.819   5.743
 1776SOL    HW2 6228   5.088   0.876   5.890
 1777SOL     OW 6229   3.921   6.948   6.244
 1777SOL    HW1 6230   3.854   6.885   6.282
 1777SOL    HW2 6231   3.971   6.993   6.319
 1778SOL     OW 6232   4.661   1.120   4.456
 1778SOL    HW1 6233   4.642   1.092   4.550
 1778SOL    HW2 6234   4.732   1.189   4.455
 1779SOL     OW 6235   4.930   6.671   5.654
 1779SOL    HW1 6236   5.016   6.718   5.670
 1779SOL    HW2 6237   4.942   6.573   5.669
 1780SOL     OW 6238   1.737   3.918   4.669
 1780SOL    HW1 6239   1.736   4.018   4.678
 1780SOL    HW2 6240   1.650   3.887   4.631
 1781SOL     OW 6241   4.997   0.248   4.930
 1781SOL    HW1 6242   4.949   0.172   4.973
 1781SOL    HW2 6243   5.024   0.315   5.000
 1782SOL     OW 6244   1.962   1.633   2.664
 1782SOL    HW1 6245   2.010   1.611   2.749
 1782SOL    HW2 6246   1.999   1.577   2.590
 1783SOL     OW 6247   2.370   3.772   6.098
 1783SOL    HW1 6248   2.276   3.800   6.082
 1783SOL    HW2 6249   2.386   3.681   6.061
 1784SOL     OW 6250   2.552   1.270   2.226
 1784SOL    HW1 6251   2.544   1.173   2.251
 1784SOL    HW2 6252   2.636   1.283   2.174
 1785SOL     OW 6253   6.862   6.591   4.328
 1785SOL    HW1 6254   6.877   6.577   4.426
 1785SOL    HW2 6255   6.891   6.510   4.277
 1786SOL     OW 6256   1.911   5.560   0.527
 1786SOL    HW1 6257   1.973   5.482   0.534
 1786SOL    HW2 6258   1.860   5.569   0.612
 1787SOL     OW 6259   2.156   2.293   6.002
 1787SOL    HW1 6260   2.069   2.243   5.998
 1787SOL    HW2 6261   2.183   2.322   5.910
 1788SOL     OW 6262   4.613   3.328   0.328
 1788SOL    HW1 6263   4.514   3.338   0.343
 1788SOL    HW2 6264   4.663   3.381   0.397
 1789SOL     OW 6265   6.369   2.926   1.654
 1789SOL    HW1 6266   6.392   2.909   1.750
 1789SOL    HW2 6267   6.370   3.024   1.636
 1790SOL     OW 6268   3.443   1.111   4.381
 1790SOL    HW1 6269   3.380   1.117   4.303
 1790SOL    HW2 6270   3.537   1.102   4.347
 1791SOL     OW 6271   6.341   1.122   3.423
 1791SOL    HW1 6272   6.372   1.098   3.515
 1791SOL    HW2 6273   6.412   1.096   3.357
 1792SOL     OW 6274   6.780   1.822   4.305
 1792SOL    HW1 6275   6.788   1.899   4.241
 1792SOL    HW2 6276   6.767   1.857   4.397
 1793SOL     OW 6277   6.090   1.434   4.478
 1793SOL    HW1 6278   6.008   1.397   4.436
 1793SOL    HW2 6279   6.167   1.425   4.414
 1794SOL     OW 6280   5.889   0.248   6.001
 1794SOL    HW1 6281   5.955   0.269   6.073
 1794SOL    HW2 6282   5.877   0.328   5.943
 1795SOL     OW 6283   6.178   5.246   1.174
 1795SOL    HW1 6284   6.249   5.310   1.202
 1795SOL    HW2 6285   6.180   5.166   1.233
 1796SOL     OW 6286   1.908   1.093   5.343
 1796SOL    HW1 6287   1.928   1.135   5.432
 1796SOL    HW2 6288   1.827   1.034   5.352
 1797SOL     OW 6289   1.221   0.453   5.004
 1797SOL    HW1 6290   1.191   0.363   5.036
 1797SOL    HW2 6291   1.195   0.523   5.070
 1798SOL     OW 6292   3.439   3.212   4.466
 1798SOL    HW1 6293   3.412   3.196   4.561
 1798SOL    HW2 6294   3.469   3.126   4.425
 1799SOL     OW 6295   4.551   2.486   6.669
 1799SOL    HW1 6296   4.519   2.496   6.575
 1799SOL    HW2 6297   4.574   2.576   6.705
 1800SOL     OW 6298   5.298   4.498   3.741
 1800SOL    HW1 6299   5.302   4.405   3.779
 1800SOL    HW2 6300   5.377   4.512   3.681
 1801SOL     OW 6301   0.480   1.923   1.802
 1801SOL    HW1 6302   0.388   1.951   1.828
 1801SOL    HW2 6303   0.546   1.964   1.866
 1802SOL     OW 6304   6.311   5.729   3.458
 1802SOL    HW1 6305   6.242   5.706   3.527
 1802SOL    HW2 6306   6.265   5.771   3.379
 1803SOL     OW 6307   6.865   6.821   2.368
 1803SOL    HW1 6308   6.824   6.740   2.411
 1803SOL    HW2 6309   6.925   6.867   2.433
 1804SOL     OW 6310   3.302   3.468   5.587
 1804SOL    HW1 6311   3.273   3.450   5.493
 1804SOL    HW2 6312   3.354   3.390   5.622
 1805SOL     OW 6313   0.992   6.036   5.978
 1805SOL    HW1 6314   0.941   5.975   6.037
 1805SOL    HW2 6315   0.935   6.064   5.901
 1806SOL     OW 6316   7.014   2.409   2.285
 1806SOL    HW1 6317   0.012   2.377   2.378
 1806SOL    HW2 6318   6.971   2.335   2.232
 1807SOL     OW 6319   6.365   3.728   0.093
 1807SOL    HW1 6320   6.329   3.735   0.000
 1807SOL    HW2 6321   6.309   3.663   0.146
 1808SOL     OW 6322   5.638   3.452   4.428
 1808SOL    HW1 6323   5.586   3.489   4.351
 1808SOL    HW2 6324   5.578   3.438   4.506
 1809SOL     OW 6325   2.967   1.671   5.465
 1809SOL    HW1 6326   2.952   1.769   5.478
 1809SOL    HW2 6327   2.880   1.623   5.465
 1810SOL     OW 6328   6.930   0.857   4.686
 1810SOL    HW1 6329   6.858   0.895   4.743
 1810SOL    HW2 6330   6.891   0.825   4.600
 1811SOL     OW 6331   4.827   4.668   1.629
 1811SOL    HW1 6332   4.817   4.579   1.584
 1811SOL    HW2 6333   4.752   4.728   1.601
 1812SOL     OW 6334   4.330   6.731   5.923
 1812SOL    HW1 6335   4.305   6.782   6.005
 1812SOL    HW2 6336   4.308   6.786   5.842
 1813SOL     OW 6337   4.440   4.487   2.303
 1813SOL    HW1 6338   4.423   4.393   2.274
 1813SOL    HW2 6339   4.380   4.549   2.253
 1814SOL     OW 6340   6.461   6.710   0.224
 1814SOL    HW1 6341   6.386   6.704   0.289
 1814SOL    HW2 6342   6.546   6.732   0.272
 1815SOL     OW 6343   5.997   5.705   2.895
 1815SOL    HW1 6344   6.004   5.792   2.846
 1815SOL    HW2 6345   5.941   5.641   2.841
 1816SOL     OW 6346   4.156   6.057   5.891
 1816SOL    HW1 6347   4.088   5.988   5.865
 1816SOL    HW2 6348   4.157   6.130   5.823
 1817SOL     OW 6349   3.268   1.681   2.739
 1817SOL    HW1 6350   3.355   1.637   2.714
 1817SOL    HW2 6351   3.219   1.707   2.656
 1818SOL     OW 6352   1.534   6.594   0.474
 1818SOL    HW1 6353   1.551   6.691   0.462
 1818SOL    HW2 6354   1.564   6.544   0.393
 1819SOL     OW 6355   1.873   5.378   1.917
 1819SOL    HW1 6356   1.900   5.370   2.013
 1819SOL    HW2 6357   1.781   5.343   1.904
 1820SOL     OW 6358   4.140   0.732   3.127
 1820SOL    HW1 6359   4.061   0.691   3.081
 1820SOL    HW2 6360   4.224   0.692   3.090
 1821SOL     OW 6361   3.572   1.340   1.750
 1821SOL    HW1 6362   3.525   1.408   1.806
 1821SOL    HW2 6363   3.579   1.254   1.802
 1822SOL     OW 6364   0.897   3.481   1.964
 1822SOL    HW1 6365   0.944   3.569   1.956
 1822SOL    HW2 6366   0.835   3.485   2.043
 1823SOL     OW 6367   3.312   6.384   2.823
 1823SOL    HW1 6368   3.370   6.457   2.856
 1823SOL    HW2 6369   3.331   6.300   2.874
 1824SOL     OW 6370   3.465   3.876   0.786
 1824SOL    HW1 6371   3.426   3.961   0.751
 1824SOL    HW2 6372   3.557   3.893   0.820
 1825SOL     OW 6373   0.408   3.397   4.926
 1825SOL    HW1 6374   0.370   3.328   4.989
 1825SOL    HW2 6375   0.502   3.417   4.952
 1826SOL     OW 6376   3.894   1.526   0.927
 1826SOL    HW1 6377   3.834   1.594   0.885
 1826SOL    HW2 6378   3.857   1.498   1.015
 1827SOL     OW 6379   4.974   5.393   1.128
 1827SOL    HW1 6380   4.885   5.396   1.172
 1827SOL    HW2 6381   5.046   5.399   1.198
 1828SOL     OW 6382   1.801   3.357   6.390
 1828SOL    HW1 6383   1.789   3.269   6.437
 1828SOL    HW2 6384   1.753   3.354   6.302
 1829SOL     OW 6385   3.905   0.782   3.311
 1829SOL    HW1 6386   3.960   0.773   3.229
 1829SOL    HW2 6387   3.876   0.692   3.343
 1830SOL     OW 6388   5.706   6.608   4.893
 1830SOL    HW1 6389   5.795   6.593   4.937
 1830SOL    HW2 6390   5.647   6.529   4.911
 1831SOL     OW 6391   5.060   5.853   2.966
 1831SOL    HW1 6392   5.052   5.840   2.867
 1831SOL    HW2 6393   5.017   5.939   2.992
 1832SOL     OW 6394   3.150   3.828   0.025
 1832SOL    HW1 6395   3.193   3.760   6.983
 1832SOL    HW2 6396   3.212   3.906   0.036
 1833SOL     OW 6397   4.738   0.191   1.338
 1833SOL    HW1 6398   4.782   0.241   1.263
 1833SOL    HW2 6399   4.769   0.229   1.425
 1834SOL     OW 6400   3.365   2.991   1.139
 1834SOL    HW1 6401   3.285   2.932   1.151
 1834SOL    HW2 6402   3.445   2.934   1.119
 1835SOL     OW 6403   0.906   5.164   1.067
 1835SOL    HW1 6404   0.848   5.193   1.143
 1835SOL    HW2 6405   1.002   5.164   1.097
 1836SOL     OW 6406   5.116   1.593   2.217
 1836SOL    HW1 6407   5.120   1.556   2.124
 1836SOL    HW2 6408   5.100   1.692   2.213
 1837SOL     OW 6409   1.808   0.751   5.531
 1837SOL    HW1 6410   1.888   0.760   5.471
 1837SOL    HW2 6411   1.733   0.805   5.494
 1838SOL     OW 6412   6.663   0.833   6.672
 1838SOL    HW1 6413   6.574   0.857   6.710
 1838SOL    HW2 6414   6.672   0.734   6.668
 1839SOL     OW 6415   6.382   1.720   6.495
 1839SOL    HW1 6416   6.378   1.693   6.592
 1839SOL    HW2 6417   6.407   1.817   6.489
 1840SOL     OW 6418   3.812   0.411   3.150
 1840SOL    HW1 6419   3.713   0.420   3.146
 1840SOL    HW2 6420   3.837   0.339   3.214
 1841SOL     OW 6421   2.520   0.391   2.454
 1841SOL    HW1 6422   2.426   0.419   2.440
 1841SOL    HW2 6423   2.581   0.454   2.406
 1842SOL     OW 6424   1.797   5.143   0.407
 1842SOL    HW1 6425   1.776   5.241   0.406
 1842SOL    HW2 6426   1.836   5.118   0.495
 1843SOL     OW 6427   4.138   1.315   4.479
 1843SOL    HW1 6428   4.079   1.236   4.500
 1843SOL    HW2 6429   4.089   1.399   4.501
 1844SOL     OW 6430   4.639   2.125   5.400
 1844SOL    HW1 6431   4.581   2.117   5.481
 1844SOL    HW2 6432   4.609   2.203   5.344
 1845SOL     OW 6433   2.917   0.766   3.605
 1845SOL    HW1 6434   2.820   0.745   3.591
 1845SOL    HW2 6435   2.954   0.709   3.679
 1846SOL     OW 6436   5.143   0.757   2.695
 1846SOL    HW1 6437   5.172   0.680   2.751
 1846SOL    HW2 6438   5.140   0.729   2.599
 1847SOL     OW 6439   1.377   0.795   5.141
 1847SOL    HW1 6440   1.337   0.886   5.126
 1847SOL    HW2 6441   1.416   0.762   5.055
 1848SOL     OW 6442   2.315   6.227   4.233
 1848SOL    HW1 6443   2.401   6.277   4.225
 1848SOL    HW2 6444   2.335   6.131   4.254
 1849SOL     OW 6445   4.877   3.079   2.238
 1849SOL    HW1 6446   4.811   3.065   2.165
 1849SOL    HW2 6447   4.969   3.057   2.205
 1850SOL     OW 6448   5.446   1.848   2.539
 1850SOL    HW1 6449   5.534   1.803   2.523
 1850SOL    HW2 6450   5.401   1.807   2.618
 1851SOL     OW 6451   0.479   3.403   6.293
 1851SOL    HW1 6452   0.402   3.392   6.232
 1851SOL    HW2 6453   0.473   3.337   6.368
 1852SOL     OW 6454   0.100   4.740   1.331
 1852SOL    HW1 6455   0.012   4.716   1.290
 1852SOL    HW2 6456   0.101   4.710   1.426
 1853SOL     OW 6457   6.678   2.590   3.998
 1853SOL    HW1 6458   6.719   2.499   3.990
 1853SOL    HW2 6459   6.626   2.610   3.915
 1854SOL     OW 6460   1.302   5.376   3.613
 1854SOL    HW1 6461   1.341   5.298   3.663
 1854SOL    HW2 6462   1.212   5.398   3.650
 1855SOL     OW 6463   5.743   3.174   4.643
 1855SOL    HW1 6464   5.761   3.082   4.680
 1855SOL    HW2 6465   5.647   3.181   4.618
 1856SOL     OW 6466   4.395   2.950   6.694
 1856SOL    HW1 6467   4.389   2.984   6.600
 1856SOL    HW2 6468   4.332   3.002   6.752
 1857SOL     OW 6469   5.824   1.374   0.377
 1857SOL    HW1 6470   5.912   1.420   0.364
 1857SOL    HW2 6471   5.830   1.280   0.345
 1858SOL     OW 6472   5.191   2.369   3.876
 1858SOL    HW1 6473   5.168   2.397   3.783
 1858SOL    HW2 6474   5.210   2.450   3.932
 1859SOL     OW 6475   5.279   2.141   4.720
 1859SOL    HW1 6476   5.370   2.113   4.689
 1859SOL    HW2 6477   5.255   2.088   4.801
 1860SOL     OW 6478   0.812   1.770   5.040
 1860SOL    HW1 6479   0.811   1.671   5.026
 1860SOL    HW2 6480   0.732   1.810   4.995
 1861SOL     OW 6481   5.601   0.281   2.942
 1861SOL    HW1 6482   5.699   0.298   2.933
 1861SOL    HW2 6483   5.586   0.188   2.977
 1862SOL     OW 6484   1.611   6.822   6.910
 1862SOL    HW1 6485   1.563   6.849   6.826
 1862SOL    HW2 6486   1.615   6.901   6.972
 1863SOL     OW 6487   0.173   2.891   1.155
 1863SOL    HW1 6488   0.101   2.830   1.187
 1863SOL    HW2 6489   0.187   2.964   1.221
 1864SOL     OW 6490   3.029   5.787   4.039
 1864SOL    HW1 6491   2.937   5.807   4.073
 1864SOL    HW2 6492   3.023   5.728   3.959
 1865SOL     OW 6493   4.278   1.208   0.960
 1865SOL    HW1 6494   4.299   1.273   0.887
 1865SOL    HW2 6495   4.292   1.115   0.926
 1866SOL     OW 6496   6.203   4.179   4.369
 1866SOL    HW1 6497   6.154   4.217   4.448
 1866SOL    HW2 6498   6.186   4.237   4.289
 1867SOL     OW 6499   2.694   2.736   1.401
 1867SOL    HW1 6500   2.705   2.784   1.314
 1867SOL    HW2 6501   2.669   2.802   1.473
 1868SOL     OW 6502   4.733   4.079   5.042
 1868SOL    HW1 6503   4.719   4.018   5.120
 1868SOL    HW2 6504   4.696   4.169   5.063
 1869SOL     OW 6505   5.290   2.621   4.016
 1869SOL    HW1 6506   5.200   2.656   3.994
 1869SOL    HW2 6507   5.359   2.691   3.998
 1870SOL     OW 6508   0.438   3.270   4.486
 1870SOL    HW1 6509   0.494   3.323   4.423
 1870SOL    HW2 6510   0.384   3.332   4.543
 1871SOL     OW 6511   6.890   6.239   0.378
 1871SOL    HW1 6512   6.849   6.183   0.450
 1871SOL    HW2 6513   6.823   6.305   0.344
 1872SOL     OW 6514   3.010   2.712   0.618
 1872SOL    HW1 6515   3.105   2.716   0.588
 1872SOL    HW2 6516   2.963   2.638   0.570
 1873SOL     OW 6517   6.423   0.967   6.766
 1873SOL    HW1 6518   6.325   0.952   6.759
 1873SOL    HW2 6519   6.445   0.998   6.859
 1874SOL     OW 6520   0.863   0.921   6.737
 1874SOL    HW1 6521   0.768   0.937   6.710
 1874SOL    HW2 6522   0.865   0.889   6.832
 1875SOL     OW 6523   6.511   6.140   0.759
 1875SOL    HW1 6524   6.574   6.210   0.792
 1875SOL    HW2 6525   6.428   6.141   0.815
 1876SOL     OW 6526   5.466   6.670   6.019
 1876SOL    HW1 6527   5.553   6.634   5.986
 1876SOL    HW2 6528   5.454   6.763   5.985
 1877SOL     OW 6529   6.667   1.202   2.209
 1877SOL    HW1 6530   6.742   1.217   2.145
 1877SOL    HW2 6531   6.585   1.249   2.176
 1878SOL     OW 6532   6.980   4.385   3.363
 1878SOL    HW1 6533   0.029   4.451   3.328
 1878SOL    HW2 6534   6.888   4.415   3.340
 1879SOL     OW 6535   2.766   5.110   4.462
 1879SOL    HW1 6536   2.726   5.087   4.551
 1879SOL    HW2 6537   2.734   5.200   4.432
 1880SOL     OW 6538   0.280   2.261   3.233
 1880SOL    HW1 6539   0.367   2.229   3.194
 1880SOL    HW2 6540   0.209   2.258   3.162
 1881SOL     OW 6541   0.863   2.457   3.715
 1881SOL    HW1 6542   0.769   2.450   3.747
 1881SOL    HW2 6543   0.866   2.437   3.617
 1882SOL     OW 6544   1.122   5.893   0.022
 1882SOL    HW1 6545   1.122   5.975   6.983
 1882SOL    HW2 6546   1.139   5.919   0.117
 1883SOL     OW 6547   1.349   3.654   2.577
 1883SOL    HW1 6548   1.302   3.585   2.521
 1883SOL    HW2 6549   1.307   3.743   2.562
 1884SOL     OW 6550   4.880   0.527   1.154
 1884SOL    HW1 6551   4.935   0.499   1.233
 1884SOL    HW2 6552   4.798   0.575   1.185
 1885SOL     OW 6553   6.455   2.187   0.833
 1885SOL    HW1 6554   6.364   2.220   0.860
 1885SOL    HW2 6555   6.505   2.159   0.914
 1886SOL     OW 6556   1.782   2.047   7.014
 1886SOL    HW1 6557   1.710   2.114   6.996
 1886SOL    HW2 6558   1.759   1.996   0.079
 1887SOL     OW 6559   0.142   4.260   5.903
 1887SOL    HW1 6560   0.138   4.175   5.955
 1887SOL    HW2 6561   0.149   4.240   5.805
 1888SOL     OW 6562   2.022   1.324   5.789
 1888SOL    HW1 6563   1.938   1.337   5.843
 1888SOL    HW2 6564   2.093   1.386   5.823
 1889SOL     OW 6565   4.389   3.523   0.186
 1889SOL    HW1 6566   4.361   3.566   0.101
 1889SOL    HW2 6567   4.311   3.515   0.248
 1890SOL     OW 6568   1.539   5.693   6.054
 1890SOL    HW1 6569   1.449   5.734   6.072
 1890SOL    HW2 6570   1.576   5.730   5.969
 1891SOL     OW 6571   5.375   3.014   5.341
 1891SOL    HW1 6572   5.334   2.936   5.389
 1891SOL    HW2 6573   5.470   2.994   5.319
 1892SOL     OW 6574   3.769   6.259   1.548
 1892SOL    HW1 6575   3.841   6.312   1.503
 1892SOL    HW2 6576   3.686   6.259   1.492
 1893SOL     OW 6577   3.446   2.149   4.405
 1893SOL    HW1 6578   3.539   2.134   4.373
 1893SOL    HW2 6579   3.442   2.132   4.504
 1894SOL     OW 6580   4.409   3.680   1.678
 1894SOL    HW1 6581   4.498   3.713   1.710
 1894SOL    HW2 6582   4.353   3.758   1.649
 1895SOL     OW 6583   6.144   0.675   2.212
 1895SOL    HW1 6584   6.128   0.660   2.115
 1895SOL    HW2 6585   6.242   0.667   2.231
 1896SOL     OW 6586   6.540   1.296   3.841
 1896SOL    HW1 6587   6.454   1.254   3.813
 1896SOL    HW2 6588   6.617   1.247   3.800
 1897SOL     OW 6589   6.956   5.503   3.536
 1897SOL    HW1 6590   0.029   5.464   3.553
 1897SOL    HW2 6591   6.899   5.435   3.489
 1898SOL     OW 6592   4.143   6.087   1.507
 1898SOL    HW1 6593   4.225   6.062   1.455
 1898SOL    HW2 6594   4.160   6.171   1.559
 1899SOL     OW 6595   0.337   3.873   2.578
 1899SOL    HW1 6596   0.278   3.876   2.498
 1899SOL    HW2 6597   0.358   3.966   2.608
 1900SOL     OW 6598   0.960   0.131   6.353
 1900SOL    HW1 6599   0.889   0.087   6.407
 1900SOL    HW2 6600   0.959   0.229   6.369
 1901SOL     OW 6601   2.093   1.495   0.210
 1901SOL    HW1 6602   2.168   1.472   0.272
 1901SOL    HW2 6603   2.099   1.437   0.129
 1902SOL     OW 6604   1.080   2.679   4.530
 1902SOL    HW1 6605   1.176   2.682   4.501
 1902SOL    HW2 6606   1.067   2.738   4.609
 1903SOL     OW 6607   6.751   3.951   3.130
 1903SOL    HW1 6608   6.735   4.012   3.053
 1903SOL    HW2 6609   6.825   3.888   3.108
 1904SOL     OW 6610   6.634   6.892   4.626
 1904SOL    HW1 6611   6.575   6.970   4.647
 1904SOL    HW2 6612   6.674   6.903   4.536
 1905SOL     OW 6613   0.178   2.501   3.645
 1905SOL    HW1 6614   0.226   2.571   3.591
 1905SOL    HW2 6615   0.143   2.430   3.584
 1906SOL     OW 6616   2.740   0.199   5.547
 1906SOL    HW1 6617   2.817   0.254   5.517
 1906SOL    HW2 6618   2.761   0.102   5.533
 1907SOL     OW 6619   2.806   0.139   3.694
 1907SOL    HW1 6620   2.813   0.062   3.757
 1907SOL    HW2 6621   2.771   0.219   3.743
 1908SOL     OW 6622   4.393   1.143   5.853
 1908SOL    HW1 6623   4.440   1.056   5.840
 1908SOL    HW2 6624   4.325   1.133   5.926
 1909SOL     OW 6625   2.133   4.390   4.291
 1909SOL    HW1 6626   2.041   4.350   4.288
 1909SOL    HW2 6627   2.200   4.322   4.261
 1910SOL     OW 6628   5.331   2.726   6.478
 1910SOL    HW1 6629   5.422   2.693   6.502
 1910SOL    HW2 6630   5.279   2.653   6.436
 1911SOL     OW 6631   6.413   1.947   5.126
 1911SOL    HW1 6632   6.332   1.960   5.183
 1911SOL    HW2 6633   6.431   2.029   5.073
 1912SOL     OW 6634   3.774   6.420   2.374
 1912SOL    HW1 6635   3.698   6.462   2.423
 1912SOL    HW2 6636   3.775   6.452   2.279
 1913SOL     OW 6637   1.784   6.361   5.575
 1913SOL    HW1 6638   1.828   6.359   5.486
 1913SOL    HW2 6639   1.779   6.455   5.608
 1914SOL     OW 6640   2.459   2.147   6.380
 1914SOL    HW1 6641   2.419   2.230   6.340
 1914SOL    HW2 6642   2.388   2.077   6.389
 1915SOL     OW 6643   3.709   1.627   5.524
 1915SOL    HW1 6644   3.651   1.657   5.600
 1915SOL    HW2 6645   3.804   1.626   5.553
 1916SOL     OW 6646   4.303   5.883   1.126
 1916SOL    HW1 6647   4.221   5.858   1.075
 1916SOL    HW2 6648   4.358   5.946   1.071
 1917SOL     OW 6649   3.663   3.296   4.603
 1917SOL    HW1 6650   3.622   3.358   4.670
 1917SOL    HW2 6651   3.592   3.237   4.565
 1918SOL     OW 6652   5.994   6.703   5.903
 1918SOL    HW1 6653   5.967   6.748   5.818
 1918SOL    HW2 6654   5.942   6.742   5.979
 1919SOL     OW 6655   1.531   6.098   1.927
 1919SOL    HW1 6656   1.577   6.187   1.922
 1919SOL    HW2 6657   1.540   6.061   2.019
 1920SOL     OW 6658   0.271   4.556   3.448
 1920SOL    HW1 6659   0.224   4.537   3.534
 1920SOL    HW2 6660   0.369   4.570   3.467
 1921SOL     OW 6661   6.904   4.995   6.834
 1921SOL    HW1 6662   6.916   5.094   6.842
 1921SOL    HW2 6663   6.858   4.974   6.747
 1922SOL     OW 6664   4.182   3.208   1.263
 1922SOL    HW1 6665   4.254   3.155   1.307
 1922SOL    HW2 6666   4.157   3.285   1.321
 1923SOL     OW 6667   3.327   1.213   0.238
 1923SOL    HW1 6668   3.278   1.205   0.325
 1923SOL    HW2 6669   3.377   1.128   0.220
 1924SOL     OW 6670   6.012   4.558   2.018
 1924SOL    HW1 6671   5.959   4.643   2.014
 1924SOL    HW2 6672   5.956   4.485   2.058
 1925SOL     OW 6673   2.965   3.773   1.639
 1925SOL    HW1 6674   2.928   3.846   1.581
 1925SOL    HW2 6675   3.032   3.812   1.702
 1926SOL     OW 6676   1.424   7.006   4.905
 1926SOL    HW1 6677   1.337   6.964   4.880
 1926SOL    HW2 6678   1.485   6.937   4.942
 1927SOL     OW 6679   3.320   4.357   6.200
 1927SOL    HW1 6680   3.360   4.351   6.109
 1927SOL    HW2 6681   3.228   4.396   6.194
 1928SOL     OW 6682   6.385   3.265   5.928
 1928SOL    HW1 6683   6.312   3.313   5.978
 1928SOL    HW2 6684   6.443   3.332   5.882
 1929SOL     OW 6685   0.726   5.593   1.586
 1929SOL    HW1 6686   0.793   5.667   1.592
 1929SOL    HW2 6687   0.705   5.575   1.490
 1930SOL     OW 6688   5.739   4.292   0.219
 1930SOL    HW1 6689   5.817   4.232   0.204
 1930SOL    HW2 6690   5.720   4.343   0.135
 1931SOL     OW 6691   6.999   3.377   2.918
 1931SOL    HW1 6692   0.014   3.453   2.973
 1931SOL    HW2 6693   0.026   3.378   2.828
 1932SOL     OW 6694   5.434   3.836   2.692
 1932SOL    HW1 6695   5.487   3.816   2.774
 1932SOL    HW2 6696   5.348   3.784   2.695
 1933SOL     OW 6697   2.698   4.716   1.308
 1933SOL    HW1 6698   2.701   4.812   1.280
 1933SOL    HW2 6699   2.614   4.699   1.360
 1934SOL     OW 6700   0.886   0.179   5.338
 1934SOL    HW1 6701   0.878   0.181   5.438
 1934SOL    HW2 6702   0.970   0.131   5.312
 1935SOL     OW 6703   3.440   0.139   4.911
 1935SOL    HW1 6704   3.457   0.141   5.010
 1935SOL    HW2 6705   3.489   0.062   4.870
 1936SOL     OW 6706   5.660   5.193   4.474
 1936SOL    HW1 6707   5.642   5.099   4.503
 1936SOL    HW2 6708   5.758   5.204   4.456
 1937SOL     OW 6709   3.864   0.266   2.059
 1937SOL    HW1 6710   3.805   0.292   1.983
 1937SOL    HW2 6711   3.910   0.348   2.094
 1938SOL     OW 6712   4.383   1.541   2.830
 1938SOL    HW1 6713   4.470   1.504   2.863
 1938SOL    HW2 6714   4.310   1.473   2.843
 1939SOL     OW 6715   0.657   6.560   4.051
 1939SOL    HW1 6716   0.667   6.542   4.148
 1939SOL    HW2 6717   0.564   6.593   4.033
 1940SOL     OW 6718   5.167   5.660   6.346
 1940SOL    HW1 6719   5.187   5.757   6.362
 1940SOL    HW2 6720   5.107   5.652   6.266
 1941SOL     OW 6721   6.784   4.033   2.869
 1941SOL    HW1 6722   6.700   3.991   2.835
 1941SOL    HW2 6723   6.858   4.014   2.804
 1942SOL     OW 6724   6.392   6.465   2.553
 1942SOL    HW1 6725   6.309   6.455   2.498
 1942SOL    HW2 6726   6.408   6.562   2.571
 1943SOL     OW 6727   3.216   6.020   1.884
 1943SOL    HW1 6728   3.305   5.977   1.871
 1943SOL    HW2 6729   3.194   6.077   1.805
 1944SOL     OW 6730   5.172   2.089   6.187
 1944SOL    HW1 6731   5.152   2.132   6.099
 1944SOL    HW2 6732   5.209   1.997   6.172
 1945SOL     OW 6733   4.477   5.394   3.049
 1945SOL    HW1 6734   4.414   5.425   2.979
 1945SOL    HW2 6735   4.571   5.414   3.021
 1946SOL     OW 6736   0.402   0.771   0.137
 1946SOL    HW1 6737   0.442   0.701   0.196
 1946SOL    HW2 6738   0.307   0.746   0.117
 1947SOL     OW 6739   5.393   6.540   4.248
 1947SOL    HW1 6740   5.426   6.634   4.237
 1947SOL    HW2 6741   5.293   6.540   4.243
 1948SOL     OW 6742   6.560   5.407   3.445
 1948SOL    HW1 6743   6.577   5.506   3.449
 1948SOL    HW2 6744   6.640   5.358   3.478
 1949SOL     OW 6745   4.268   4.519   5.537
 1949SOL    HW1 6746   4.244   4.586   5.607
 1949SOL    HW2 6747   4.350   4.548   5.489
 1950SOL     OW 6748   3.906   3.805   0.970
 1950SOL    HW1 6749   3.903   3.881   1.036
 1950SOL    HW2 6750   3.893   3.841   0.878
 1951SOL     OW 6751   6.668   3.064   0.539
 1951SOL    HW1 6752   6.637   3.002   0.467
 1951SOL    HW2 6753   6.696   3.151   0.498
 1952SOL     OW 6754   3.519   2.143   6.954
 1952SOL    HW1 6755   3.429   2.102   6.942
 1952SOL    HW2 6756   3.509   2.240   6.976
 1953SOL     OW 6757   6.431   2.377   6.427
 1953SOL    HW1 6758   6.407   2.373   6.524
 1953SOL    HW2 6759   6.392   2.299   6.379
 1954SOL     OW 6760   5.537   1.392   4.381
 1954SOL    HW1 6761   5.450   1.360   4.420
 1954SOL    HW2 6762   5.522   1.478   4.332
 1955SOL     OW 6763   1.465   0.058   2.120
 1955SOL    HW1 6764   1.402   0.134   2.101
 1955SOL    HW2 6765   1.413   6.998   2.155
 1956SOL     OW 6766   5.751   6.418   2.989
 1956SOL    HW1 6767   5.720   6.386   3.078
 1956SOL    HW2 6768   5.675   6.416   2.924
 1957SOL     OW 6769   6.471   4.639   4.900
 1957SOL    HW1 6770   6.497   4.711   4.835
 1957SOL    HW2 6771   6.441   4.558   4.850
 1958SOL     OW 6772   6.198   2.572   3.890
 1958SOL    HW1 6773   6.233   2.554   3.799
 1958SOL    HW2 6774   6.256   2.527   3.958
 1959SOL     OW 6775   0.375   2.144   5.923
 1959SOL    HW1 6776   0.338   2.063   5.967
 1959SOL    HW2 6777   0.302   2.209   5.905
 1960SOL     OW 6778   6.226   5.075   1.365
 1960SOL    HW1 6779   6.173   4.991   1.361
 1960SOL    HW2 6780   6.310   5.064   1.312
 1961SOL     OW 6781   5.308   4.374   4.088
 1961SOL    HW1 6782   5.272   4.408   4.175
 1961SOL    HW2 6783   5.408   4.370   4.093
 1962SOL     OW 6784   2.303   6.125   2.615
 1962SOL    HW1 6785   2.340   6.037   2.644
 1962SOL    HW2 6786   2.342   6.150   2.526
 1963SOL     OW 6787   0.644   1.002   1.657
 1963SOL    HW1 6788   0.691   0.915   1.642
 1963SOL    HW2 6789   0.706   1.077   1.635
 1964SOL     OW 6790   4.669   2.789   1.477
 1964SOL    HW1 6791   4.719   2.707   1.451
 1964SOL    HW2 6792   4.613   2.770   1.558
 1965SOL     OW 6793   0.965   3.139   2.984
 1965SOL    HW1 6794   1.048   3.093   2.954
 1965SOL    HW2 6795   0.987   3.233   3.011
 1966SOL     OW 6796   6.823   5.297   5.126
 1966SOL    HW1 6797   6.842   5.391   5.099
 1966SOL    HW2 6798   6.748   5.261   5.071
 1967SOL     OW 6799   4.498   2.070   5.619
 1967SOL    HW1 6800   4.550   2.073   5.704
 1967SOL    HW2 6801   4.428   1.999   5.625
 1968SOL     OW 6802   2.980   6.041   0.335
 1968SOL    HW1 6803   2.952   6.110   0.402
 1968SOL    HW2 6804   2.900   5.993   0.300
 1969SOL     OW 6805   0.603   1.717   1.390
 1969SOL    HW1 6806   0.605   1.760   1.481
 1969SOL    HW2 6807   0.562   1.780   1.324
 1970SOL     OW 6808   2.488   1.081   6.466
 1970SOL    HW1 6809   2.549   1.104   6.389
 1970SOL    HW2 6810   2.417   1.019   6.434
 1971SOL     OW 6811   6.266   6.711   6.276
 1971SOL    HW1 6812   6.274   6.658   6.361
 1971SOL    HW2 6813   6.294   6.655   6.199
 1972SOL     OW 6814   6.904   2.543   3.042
 1972SOL    HW1 6815   6.916   2.500   3.132
 1972SOL    HW2 6816   6.919   2.642   3.051
 1973SOL     OW 6817   2.698   3.246   1.051
 1973SOL    HW1 6818   2.658   3.172   0.998
 1973SOL    HW2 6819   2.626   3.303   1.090
 1974SOL     OW 6820   6.205   5.889   4.079
 1974SOL    HW1 6821   6.119   5.860   4.121
 1974SOL    HW2 6822   6.261   5.938   4.146
 1975SOL     OW 6823   2.433   0.939   2.926
 1975SOL    HW1 6824   2.439   0.854   2.874
 1975SOL    HW2 6825   2.498   0.936   3.002
 1976SOL     OW 6826   0.799   5.679   6.700
 1976SOL    HW1 6827   0.853   5.701   6.619
 1976SOL    HW2 6828   0.814   5.748   6.771
 1977SOL     OW 6829   1.604   2.473   3.479
 1977SOL    HW1 6830   1.608   2.484   3.380
 1977SOL    HW2 6831   1.661   2.543   3.522
 1978SOL     OW 6832   0.543   0.304   4.292
 1978SOL    HW1 6833   0.530   0.377   4.225
 1978SOL    HW2 6834   0.542   0.216   4.245
 1979SOL     OW 6835   6.465   4.107   4.721
 1979SOL    HW1 6836   6.490   4.204   4.722
 1979SOL    HW2 6837   6.371   4.096   4.752
 1980SOL     OW 6838   3.413   0.810   6.486
 1980SOL    HW1 6839   3.384   0.836   6.393
 1980SOL    HW2 6840   3.363   0.866   6.552
 1981SOL     OW 6841   5.927   2.497   2.345
 1981SOL    HW1 6842   5.872   2.448   2.278
 1981SOL    HW2 6843   6.017   2.454   2.352
 1982SOL     OW 6844   6.532   4.246   5.909
 1982SOL    HW1 6845   6.558   4.245   6.006
 1982SOL    HW2 6846   6.472   4.324   5.892
 1983SOL     OW 6847   1.114   2.053   2.695
 1983SOL    HW1 6848   1.075   2.141   2.667
 1983SOL    HW2 6849   1.067   1.979   2.646
 1984SOL     OW 6850   5.349   0.297   5.120
 1984SOL    HW1 6851   5.436   0.268   5.081
 1984SOL    HW2 6852   5.312   0.223   5.177
 1985SOL     OW 6853   1.301   0.754   2.223
 1985SOL    HW1 6854   1.205   0.772   2.203
 1985SOL    HW2 6855   1.323   0.659   2.201
 1986SOL     OW 6856   1.265   0.688   0.496
 1986SOL    HW1 6857   1.284   0.599   0.453
 1986SOL    HW2 6858   1.352   0.734   0.516
 1987SOL     OW 6859   1.932   3.621   2.334
 1987SOL    HW1 6860   1.863   3.606   2.263
 1987SOL    HW2 6861   2.015   3.660   2.292
 1988SOL     OW 6862   4.247   4.537   0.997
 1988SOL    HW1 6863   4.180   4.550   0.924
 1988SOL    HW2 6864   4.269   4.440   1.006
 1989SOL     OW 6865   2.840   6.578   5.339
 1989SOL    HW1 6866   2.811   6.590   5.435
 1989SOL    HW2 6867   2.854   6.481   5.321
 1990SOL     OW 6868   3.524   0.135   0.989
 1990SOL    HW1 6869   3.570   0.214   1.030
 1990SOL    HW2 6870   3.464   0.093   1.058
 1991SOL     OW 6871   3.945   5.200   6.181
 1991SOL    HW1 6872   4.005   5.281   6.177
 1991SOL    HW2 6873   3.980   5.130   6.119
 1992SOL     OW 6874   1.598   0.178   6.906
 1992SOL    HW1 6875   1.533   0.119   6.954
 1992SOL    HW2 6876   1.564   0.197   6.814
 1993SOL     OW 6877   4.241   3.529   5.235
 1993SOL    HW1 6878   4.179   3.576   5.297
 1993SOL    HW2 6879   4.220   3.554   5.141
 1994SOL     OW 6880   1.672   2.139   1.213
 1994SOL    HW1 6881   1.612   2.071   1.255
 1994SOL    HW2 6882   1.656   2.142   1.115
 1995SOL     OW 6883   6.034   2.672   1.325
 1995SOL    HW1 6884   6.123   2.702   1.360
 1995SOL    HW2 6885   6.039   2.575   1.303
 1996SOL     OW 6886   2.944   3.638   0.712
 1996SOL    HW1 6887   2.982   3.718   0.665
 1996SOL    HW2 6888   3.016   3.570   0.725
 1997SOL     OW 6889   5.002   0.374   5.762
 1997SOL    HW1 6890   5.015   0.336   5.854
 1997SOL    HW2 6891   5.076   0.342   5.703
 1998SOL     OW 6892   3.429   3.701   5.696
 1998SOL    HW1 6893   3.379   3.751   5.766
 1998SOL    HW2 6894   3.378   3.619   5.671
 1999SOL     OW 6895   2.688   6.905   1.790
 1999SOL    HW1 6896   2.690   6.988   1.845
 1999SOL    HW2 6897   2.663   6.827   1.849
 2000SOL     OW 6898   3.664   2.034   5.754
 2000SOL    HW1 6899   3.612   2.036   5.839
 2000SOL    HW2 6900   3.604   2.010   5.678
 2001SOL     OW 6901   3.505   2.126   1.721
 2001SOL    HW1 6902   3.553   2.199   1.769
 2001SOL    HW2 6903   3.460   2.163   1.640
 2002SOL     OW 6904   0.791   5.881   6.087
 2002SOL    HW1 6905   0.842   5.821   6.026
 2002SOL    HW2 6906   0.696   5.851   6.094
 2003SOL     OW 6907   5.239   6.830   3.235
 2003SOL    HW1 6908   5.296   6.749   3.238
 2003SOL    HW2 6909   5.169   6.819   3.165
 2004SOL     OW 6910   5.137   1.136   5.079
 2004SOL    HW1 6911   5.077   1.191   5.020
 2004SOL    HW2 6912   5.202   1.195   5.125
 2005SOL     OW 6913   0.945   5.267   6.843
 2005SOL    HW1 6914   0.968   5.344   6.902
 2005SOL    HW2 6915   0.878   5.295   6.775
 2006SOL     OW 6916   4.994   4.317   3.775
 2006SOL    HW1 6917   4.987   4.231   3.723
 2006SOL    HW2 6918   4.968   4.301   3.870
 2007SOL     OW 6919   4.592   6.027   0.887
 2007SOL    HW1 6920   4.566   6.123   0.875
 2007SOL    HW2 6921   4.540   5.970   0.823
 2008SOL     OW 6922   0.996   5.732   3.028
 2008SOL    HW1 6923   0.957   5.769   3.112
 2008SOL    HW2 6924   1.004   5.805   2.960
 2009SOL     OW 6925   6.934   6.934   1.277
 2009SOL    HW1 6926   6.977   6.919   1.366
 2009SOL    HW2 6927   6.906   6.846   1.238
 2010SOL     OW 6928   0.934   1.016   0.943
 2010SOL    HW1 6929   1.026   1.048   0.920
 2010SOL    HW2 6930   0.881   1.003   0.860
 2011SOL     OW 6931   7.009   1.751   4.480
 2011SOL    HW1 6932   6.939   1.719   4.416
 2011SOL    HW2 6933   0.067   1.790   4.429
 2012SOL     OW 6934   0.807   3.031   1.381
 2012SOL    HW1 6935   0.863   3.051   1.301
 2012SOL    HW2 6936   0.799   3.113   1.438
 2013SOL     OW 6937   5.610   0.604   3.414
 2013SOL    HW1 6938   5.590   0.633   3.321
 2013SOL    HW2 6939   5.708   0.606   3.429
 2014SOL     OW 6940   1.810   5.166   3.138
 2014SOL    HW1 6941   1.849   5.141   3.226
 2014SOL    HW2 6942   1.721   5.209   3.151
 2015SOL     OW 6943   2.636   1.168   6.853
 2015SOL    HW1 6944   2.553   1.151   6.800
 2015SOL    HW2 6945   2.684   1.248   6.817
 2016SOL     OW 6946   0.833   5.248   5.401
 2016SOL    HW1 6947   0.841   5.151   5.421
 2016SOL    HW2 6948   0.810   5.298   5.485
 2017SOL     OW 6949   2.963   6.647   4.533
 2017SOL    HW1 6950   2.932   6.555   4.557
 2017SOL    HW2 6951   2.904   6.714   4.579
 2018SOL     OW 6952   5.876   6.156   6.379
 2018SOL    HW1 6953   5.889   6.083   6.446
 2018SOL    HW2 6954   5.870   6.244   6.425
 2019SOL     OW 6955   4.719   2.651   2.118
 2019SOL    HW1 6956   4.661   2.634   2.038
 2019SOL    HW2 6957   4.727   2.567   2.172
 2020SOL     OW 6958   1.053   5.072   5.064
 2020SOL    HW1 6959   1.124   5.048   5.129
 2020SOL    HW2 6960   1.083   5.050   4.971
 2021SOL     OW 6961   2.317   6.620   3.509
 2021SOL    HW1 6962   2.380   6.694   3.483
 2021SOL    HW2 6963   2.354   6.533   3.478
 2022SOL     OW 6964   2.076   3.331   2.516
 2022SOL    HW1 6965   2.065   3.306   2.419
 2022SOL    HW2 6966   2.083   3.430   2.524
 2023SOL     OW 6967   0.176   1.575   7.011
 2023SOL    HW1 6968   0.117   1.638   6.961
 2023SOL    HW2 6969   0.242   1.533   6.949
 2024SOL     OW 6970   7.012   0.990   2.527
 2024SOL    HW1 6971   6.995   1.088   2.519
 2024SOL    HW2 6972   6.928   0.944   2.556
 2025SOL     OW 6973   1.809   2.845   2.240
 2025SOL    HW1 6974   1.907   2.829   2.229
 2025SOL    HW2 6975   1.786   2.938   2.210
 2026SOL     OW 6976   1.727   2.263   5.712
 2026SOL    HW1 6977   1.758   2.298   5.800
 2026SOL    HW2 6978   1.699   2.339   5.653
 2027SOL     OW 6979   1.306   1.287   1.085
 2027SOL    HW1 6980   1.376   1.217   1.071
 2027SOL    HW2 6981   1.287   1.296   1.182
 2028SOL     OW 6982   3.268   1.418   6.455
 2028SOL    HW1 6983   3.245   1.480   6.380
 2028SOL    HW2 6984   3.344   1.455   6.507
 2029SOL     OW 6985   6.894   0.608   0.527
 2029SOL    HW1 6986   6.864   0.516   0.551
 2029SOL    HW2 6987   6.864   0.672   0.599
 2030SOL     OW 6988   2.391   0.602   3.618
 2030SOL    HW1 6989   2.297   0.632   3.637
 2030SOL    HW2 6990   2.390   0.530   3.549
 2031SOL     OW 6991   4.915   6.263   2.449
 2031SOL    HW1 6992   4.824   6.298   2.473
 2031SOL    HW2 6993   4.929   6.174   2.491
 2032SOL     OW 6994   3.872   6.578   1.609
 2032SOL    HW1 6995   3.781   6.608   1.579
 2032SOL    HW2 6996   3.924   6.548   1.530
 2033SOL     OW 6997   3.541   5.048   6.667
 2033SOL    HW1 6998   3.634   5.014   6.656
 2033SOL    HW2 6999   3.523   5.065   6.764
 2034SOL     OW 7000   3.443   0.266   4.596
 2034SOL    HW1 7001   3.428   0.168   4.592
 2034SOL    HW2 7002   3.365   0.310   4.641
 2035SOL     OW 7003   0.690   0.792   2.249
 2035SOL    HW1 7004   0.654   0.881   2.220
 2035SOL    HW2 7005   0.693   0.789   2.349
 2036SOL     OW 7006   0.719   5.871   3.366
 2036SOL    HW1 7007   0.803   5.909   3.327
 2036SOL    HW2 7008   0.648   5.942   3.366
 2037SOL     OW 7009   0.481   2.224   6.155
 2037SOL    HW1 7010   0.412   2.222   6.227
 2037SOL    HW2 7011   0.446   2.176   6.074
 2038SOL     OW 7012   1.012   1.411   6.589
 2038SOL    HW1 7013   0.973   1.500   6.567
 2038SOL    HW2 7014   1.055   1.414   6.679
 2039SOL     OW 7015   6.952   5.121   2.361
 2039SOL    HW1 7016   6.989   5.153   2.449
 2039SOL    HW2 7017   0.009   5.095   2.301
 2040SOL     OW 7018   3.283   2.813   5.077
 2040SOL    HW1 7019   3.283   2.813   5.177
 2040SOL    HW2 7020   3.249   2.725   5.043
 2041SOL     OW 7021   6.629   6.131   5.782
 2041SOL    HW1 7022   6.581   6.195   5.722
 2041SOL    HW2 7023   6.665   6.055   5.728
 2042SOL     OW 7024   5.866   5.421   0.150
 2042SOL    HW1 7025   5.947   5.475   0.174
 2042SOL    HW2 7026   5.888   5.324   0.155
 2043SOL     OW 7027   6.601   3.990   2.148
 2043SOL    HW1 7028   6.553   3.951   2.069
 2043SOL    HW2 7029   6.619   3.918   2.215
 2044SOL     OW 7030   4.612   0.243   1.997
 2044SOL    HW1 7031   4.538   0.231   1.930
 2044SOL    HW2 7032   4.604   0.334   2.039
 2045SOL     OW 7033   1.761   4.686   4.868
 2045SOL    HW1 7034   1.762   4.614   4.936
 2045SOL    HW2 7035   1.749   4.647   4.777
 2046SOL     OW 7036   6.432   0.918   4.187
 2046SOL    HW1 7037   6.503   0.875   4.131
 2046SOL    HW2 7038   6.373   0.974   4.129
 2047SOL     OW 7039   4.485   2.139   0.363
 2047SOL    HW1 7040   4.571   2.101   0.397
 2047SOL    HW2 7041   4.408   2.095   0.410
 2048SOL     OW 7042   2.313   5.438   0.768
 2048SOL    HW1 7043   2.236   5.386   0.732
 2048SOL    HW2 7044   2.397   5.386   0.756
 2049SOL     OW 7045   4.566   1.487   6.313
 2049SOL    HW1 7046   4.492   1.443   6.364
 2049SOL    HW2 7047   4.639   1.513   6.376
 2050SOL     OW 7048   6.051   2.345   3.422
 2050SOL    HW1 7049   5.996   2.422   3.455
 2050SOL    HW2 7050   5.991   2.266   3.405
 2051SOL     OW 7051   0.105   5.072   0.640
 2051SOL    HW1 7052   0.141   5.166   0.642
 2051SOL    HW2 7053   0.022   5.068   0.696
 2052SOL     OW 7054   0.592   4.216   0.601
 2052SOL    HW1 7055   0.672   4.200   0.659
 2052SOL    HW2 7056   0.593   4.151   0.525
 2053SOL     OW 7057   6.194   0.611   6.657
 2053SOL    HW1 7058   6.267   0.581   6.596
 2053SOL    HW2 7059   6.120   0.543   6.656
 2054SOL     OW 7060   4.743   3.018   1.632
 2054SOL    HW1 7061   4.728   2.924   1.600
 2054SOL    HW2 7062   4.693   3.033   1.717
 2055SOL     OW 7063   6.093   3.037   2.814
 2055SOL    HW1 7064   6.163   3.108   2.814
 2055SOL    HW2 7065   6.003   3.080   2.818
 2056SOL     OW 7066   2.190   1.071   3.016
 2056SOL    HW1 7067   2.288   1.061   3.002
 2056SOL    HW2 7068   2.143   0.986   2.992
 2057SOL     OW 7069   5.504   2.516   3.383
 2057SOL    HW1 7070   5.578   2.468   3.430
 2057SOL    HW2 7071   5.537   2.605   3.351
 2058SOL     OW 7072   1.070   1.638   3.075
 2058SOL    HW1 7073   1.134   1.588   3.017
 2058SOL    HW2 7074   1.093   1.622   3.171
 2059SOL     OW 7075   2.785   6.348   6.434
 2059SOL    HW1 7076   2.720   6.378   6.505
 2059SOL    HW2 7077   2.876   6.337   6.474
 2060SOL     OW 7078   6.394   4.304   0.673
 2060SOL    HW1 7079   6.481   4.263   0.646
 2060SOL    HW2 7080   6.348   4.245   0.739
 2061SOL     OW 7081   0.789   1.657   2.932
 2061SOL    HW1 7082   0.858   1.726   2.910
 2061SOL    HW2 7083   0.828   1.589   2.994
 2062SOL     OW 7084   5.659   6.992   3.351
 2062SOL    HW1 7085   5.700   7.007   3.261
 2062SOL    HW2 7086   5.729   6.957   3.413
 2063SOL     OW 7087   1.818   0.326   6.016
 2063SOL    HW1 7088   1.777   0.361   6.100
 2063SOL    HW2 7089   1.867   0.401   5.970
 2064SOL     OW 7090   0.883   1.632   5.755
 2064SOL    HW1 7091   0.923   1.546   5.725
 2064SOL    HW2 7092   0.904   1.704   5.689
 2065SOL     OW 7093   6.636   3.461   2.751
 2065SOL    HW1 7094   6.542   3.430   2.763
 2065SOL    HW2 7095   6.694   3.420   2.821
 2066SOL     OW 7096   0.448   6.035   3.675
 2066SOL    HW1 7097   0.375   6.004   3.735
 2066SOL    HW2 7098   0.496   5.956   3.637
 2067SOL     OW 7099   6.426   5.938   0.612
 2067SOL    HW1 7100   6.515   5.903   0.582
 2067SOL    HW2 7101   6.437   6.031   0.647
 2068SOL     OW 7102   1.418   1.643   5.120
 2068SOL    HW1 7103   1.433   1.561   5.065
 2068SOL    HW2 7104   1.333   1.688   5.091
 2069SOL     OW 7105   0.790   2.999   3.636
 2069SOL    HW1 7106   0.887   3.020   3.619
 2069SOL    HW2 7107   0.775   2.901   3.626
 2070SOL     OW 7108   1.515   0.511   2.554
 2070SOL    HW1 7109   1.505   0.530   2.651
 2070SOL    HW2 7110   1.471   0.584   2.501
 2071SOL     OW 7111   6.702   6.099   5.440
 2071SOL    HW1 7112   6.627   6.046   5.480
 2071SOL    HW2 7113   6.676   6.129   5.348
 2072SOL     OW 7114   4.260   6.599   2.086
 2072SOL    HW1 7115   4.339   6.577   2.144
 2072SOL    HW2 7116   4.181   6.618   2.144
 2073SOL     OW 7117   3.765   0.169   4.298
 2073SOL    HW1 7118   3.820   0.250   4.318
 2073SOL    HW2 7119   3.826   0.091   4.285
 2074SOL     OW 7120   1.106   3.413   0.645
 2074SOL    HW1 7121   1.111   3.452   0.737
 2074SOL    HW2 7122   1.194   3.423   0.600
 2075SOL     OW 7123   5.051   3.150   1.708
 2075SOL    HW1 7124   5.144   3.118   1.689
 2075SOL    HW2 7125   5.003   3.166   1.622
 2076SOL     OW 7126   4.786   0.013   6.741
 2076SOL    HW1 7127   4.820   6.939   6.717
 2076SOL    HW2 7128   4.862   0.078   6.734
 2077SOL     OW 7129   5.321   2.153   2.799
 2077SOL    HW1 7130   5.345   2.196   2.885
 2077SOL    HW2 7131   5.229   2.114   2.805
 2078SOL     OW 7132   1.518   6.326   6.443
 2078SOL    HW1 7133   1.486   6.243   6.397
 2078SOL    HW2 7134   1.446   6.360   6.503
 2079SOL     OW 7135   5.675   1.641   3.259
 2079SOL    HW1 7136   5.616   1.717   3.233
 2079SOL    HW2 7137   5.638   1.596   3.340
 2080SOL     OW 7138   1.229   0.781   4.521
 2080SOL    HW1 7139   1.135   0.769   4.554
 2080SOL    HW2 7140   1.290   0.797   4.599
 2081SOL     OW 7141   2.195   5.573   4.709
 2081SOL    HW1 7142   2.169   5.615   4.796
 2081SOL    HW2 7143   2.272   5.511   4.723
 2082SOL     OW 7144   6.933   0.320   3.042
 2082SOL    HW1 7145   6.920   0.384   3.117
 2082SOL    HW2 7146   6.881   0.237   3.059
 2083SOL     OW 7147   4.780   4.736   6.505
 2083SOL    HW1 7148   4.829   4.806   6.558
 2083SOL    HW2 7149   4.764   4.769   6.412
 2084SOL     OW 7150   6.870   4.132   4.488
 2084SOL    HW1 7151   6.821   4.211   4.523
 2084SOL    HW2 7152   6.863   4.130   4.388
 2085SOL     OW 7153   4.866   0.859   6.832
 2085SOL    HW1 7154   4.953   0.819   6.804
 2085SOL    HW2 7155   4.881   0.919   6.911
 2086SOL     OW 7156   3.316   6.814   5.331
 2086SOL    HW1 7157   3.404   6.855   5.357
 2086SOL    HW2 7158   3.332   6.738   5.268
 2087SOL     OW 7159   5.195   6.904   1.768
 2087SOL    HW1 7160   5.207   6.910   1.867
 2087SOL    HW2 7161   5.108   6.861   1.747
 2088SOL     OW 7162   2.676   6.260   0.890
 2088SOL    HW1 7163   2.623   6.206   0.825
 2088SOL    HW2 7164   2.707   6.201   0.964
 2089SOL     OW 7165   5.292   2.331   6.615
 2089SOL    HW1 7166   5.232   2.262   6.574
 2089SOL    HW2 7167   5.242   2.416   6.629
 2090SOL     OW 7168   3.498   3.671   5.304
 2090SOL    HW1 7169   3.551   3.653   5.387
 2090SOL    HW2 7170   3.421   3.608   5.299
 2091SOL     OW 7171   6.697   5.320   0.346
 2091SOL    HW1 7172   6.723   5.392   0.410
 2091SOL    HW2 7173   6.615   5.274   0.379
 2092SOL     OW 7174   4.431   4.635   0.140
 2092SOL    HW1 7175   4.483   4.550   0.129
 2092SOL    HW2 7176   4.362   4.622   0.212
 2093SOL     OW 7177   2.654   2.345   1.902
 2093SOL    HW1 7178   2.720   2.331   1.975
 2093SOL    HW2 7179   2.661   2.439   1.869
 2094SOL     OW 7180   6.002   1.794   0.754
 2094SOL    HW1 7181   5.964   1.843   0.676
 2094SOL    HW2 7182   6.098   1.771   0.735
 2095SOL     OW 7183   5.229   0.445   4.939
 2095SOL    HW1 7184   5.290   0.389   4.995
 2095SOL    HW2 7185   5.203   0.394   4.857
 2096SOL     OW 7186   4.631   4.284   2.855
 2096SOL    HW1 7187   4.578   4.356   2.900
 2096SOL    HW2 7188   4.582   4.253   2.773
 2097SOL     OW 7189   1.799   3.058   6.717
 2097SOL    HW1 7190   1.710   3.099   6.737
 2097SOL    HW2 7191   1.867   3.095   6.780
 2098SOL     OW 7192   4.085   5.464   3.473
 2098SOL    HW1 7193   4.087   5.432   3.568
 2098SOL    HW2 7194   4.011   5.419   3.424
 2099SOL     OW 7195   2.729   3.151   5.323
 2099SOL    HW1 7196   2.799   3.089   5.287
 2099SOL    HW2 7197   2.640   3.127   5.285
 2100SOL     OW 7198   4.377   3.214   5.653
 2100SOL    HW1 7199   4.380   3.219   5.553
 2100SOL    HW2 7200   4.295   3.165   5.682
 2101SOL     OW 7201   1.781   5.754   3.039
 2101SOL    HW1 7202   1.716   5.678   3.049
 2101SOL    HW2 7203   1.858   5.724   2.983
 2102SOL     OW 7204   6.166   4.811   1.936
 2102SOL    HW1 7205   6.241   4.757   1.897
 2102SOL    HW2 7206   6.202   4.869   2.010
 2103SOL     OW 7207   3.110   3.781   6.171
 2103SOL    HW1 7208   3.069   3.704   6.123
 2103SOL    HW2 7209   3.139   3.752   6.262
 2104SOL     OW 7210   1.344   3.205   0.732
 2104SOL    HW1 7211   1.251   3.207   0.768
 2104SOL    HW2 7212   1.360   3.287   0.677
 2105SOL     OW 7213   5.118   5.567   4.815
 2105SOL    HW1 7214   5.198   5.618   4.782
 2105SOL    HW2 7215   5.115   5.477   4.771
 2106SOL     OW 7216   4.568   4.301   0.702
 2106SOL    HW1 7217   4.624   4.352   0.638
 2106SOL    HW2 7218   4.626   4.267   0.777
 2107SOL     OW 7219   5.311   2.812   5.522
 2107SOL    HW1 7220   5.380   2.750   5.560
 2107SOL    HW2 7221   5.268   2.863   5.597
 2108SOL     OW 7222   6.965   6.372   5.204
 2108SOL    HW1 7223   6.983   6.388   5.107
 2108SOL    HW2 7224   6.965   6.273   5.222
 2109SOL     OW 7225   4.413   6.386   3.278
 2109SOL    HW1 7226   4.348   6.428   3.342
 2109SOL    HW2 7227   4.377   6.299   3.245
 2110SOL     OW 7228   2.958   2.243   6.467
 2110SOL    HW1 7229   3.058   2.240   6.467
 2110SOL    HW2 7230   2.923   2.178   6.399
 2111SOL     OW 7231   1.546   2.221   0.029
 2111SOL    HW1 7232   1.472   2.258   0.086
 2111SOL    HW2 7233   1.615   2.292   0.014
 2112SOL     OW 7234   5.202   2.461   0.470
 2112SOL    HW1 7235   5.200   2.395   0.545
 2112SOL    HW2 7236   5.160   2.547   0.500
 2113SOL     OW 7237   0.830   0.942   5.347
 2113SOL    HW1 7238   0.744   0.993   5.350
 2113SOL    HW2 7239   0.811   0.845   5.332
 2114SOL     OW 7240   1.917   2.815   0.680
 2114SOL    HW1 7241   1.866   2.900   0.690
 2114SOL    HW2 7242   2.015   2.834   0.693
 2115SOL     OW 7243   1.933   3.292   2.756
 2115SOL    HW1 7244   1.941   3.210   2.812
 2115SOL    HW2 7245   2.014   3.301   2.697
 2116SOL     OW 7246   0.656   5.140   3.278
 2116SOL    HW1 7247   0.737   5.104   3.233
 2116SOL    HW2 7248   0.611   5.207   3.219
 2117SOL     OW 7249   6.723   4.615   1.768
 2117SOL    HW1 7250   6.765   4.528   1.794
 2117SOL    HW2 7251   6.716   4.674   1.849
 2118SOL     OW 7252   6.591   3.207   1.344
 2118SOL    HW1 7253   6.535   3.127   1.367
 2118SOL    HW2 7254   6.662   3.180   1.278
 2119SOL     OW 7255   2.433   5.859   1.220
 2119SOL    HW1 7256   2.371   5.893   1.149
 2119SOL    HW2 7257   2.387   5.788   1.273
 2120SOL     OW 7258   0.227   4.827   4.177
 2120SOL    HW1 7259   0.293   4.901   4.168
 2120SOL    HW2 7260   0.275   4.740   4.182
 2121SOL     OW 7261   1.094   3.913   5.726
 2121SOL    HW1 7262   1.001   3.937   5.755
 2121SOL    HW2 7263   1.119   3.825   5.766
 2122SOL     OW 7264   5.372   4.237   5.929
 2122SOL    HW1 7265   5.303   4.237   5.857
 2122SOL    HW2 7266   5.343   4.177   6.003
 2123SOL     OW 7267   6.885   5.577   2.065
 2123SOL    HW1 7268   6.804   5.551   2.011
 2123SOL    HW2 7269   6.868   5.557   2.161
 2124SOL     OW 7270   2.975   1.722   1.802
 2124SOL    HW1 7271   2.983   1.651   1.872
 2124SOL    HW2 7272   3.034   1.699   1.725
 2125SOL     OW 7273   2.010   0.600   1.622
 2125SOL    HW1 7274   2.087   0.619   1.561
 2125SOL    HW2 7275   1.945   0.539   1.576
 2126SOL     OW 7276   3.980   0.749   6.860
 2126SOL    HW1 7277   4.076   0.722   6.866
 2126SOL    HW2 7278   3.974   0.849   6.851
 2127SOL     OW 7279   6.478   3.240   4.244
 2127SOL    HW1 7280   6.572   3.272   4.233
 2127SOL    HW2 7281   6.465   3.207   4.337
 2128SOL     OW 7282   6.476   3.587   3.564
 2128SOL    HW1 7283   6.414   3.636   3.624
 2128SOL    HW2 7284   6.462   3.488   3.574
 2129SOL     OW 7285   4.464   3.727   5.809
 2129SOL    HW1 7286   4.409   3.672   5.747
 2129SOL    HW2 7287   4.521   3.791   5.756
 2130SOL     OW 7288   3.312   0.970   1.945
 2130SOL    HW1 7289   3.385   1.038   1.940
 2130SOL    HW2 7290   3.330   0.908   2.021
 2131SOL     OW 7291   6.339   0.063   0.330
 2131SOL    HW1 7292   6.332   0.026   0.423
 2131SOL    HW2 7293   6.263   0.029   0.275
 2132SOL     OW 7294   3.967   1.799   1.544
 2132SOL    HW1 7295   3.889   1.739   1.523
 2132SOL    HW2 7296   3.951   1.889   1.504
 2133SOL     OW 7297   2.726   3.278   6.740
 2133SOL    HW1 7298   2.667   3.274   6.820
 2133SOL    HW2 7299   2.725   3.371   6.702
 2134SOL     OW 7300   0.048   2.677   0.232
 2134SOL    HW1 7301   0.124   2.740   0.218
 2134SOL    HW2 7302   6.986   2.707   0.179
 2135SOL     OW 7303   6.911   4.119   4.198
 2135SOL    HW1 7304   6.913   4.019   4.189
 2135SOL    HW2 7305   6.906   4.160   4.107
 2136SOL     OW 7306   1.656   4.247   2.616
 2136SOL    HW1 7307   1.612   4.335   2.635
 2136SOL    HW2 7308   1.746   4.245   2.658
 2137SOL     OW 7309   2.809   5.814   5.539
 2137SOL    HW1 7310   2.889   5.873   5.548
 2137SOL    HW2 7311   2.835   5.719   5.555
 2138SOL     OW 7312   6.765   6.667   2.761
 2138SOL    HW1 7313   6.674   6.681   2.722
 2138SOL    HW2 7314   6.756   6.636   2.856
 2139SOL     OW 7315   4.463   0.692   3.765
 2139SOL    HW1 7316   4.524   0.770   3.779
 2139SOL    HW2 7317   4.383   0.702   3.825
 2140SOL     OW 7318   3.399   0.368   4.066
 2140SOL    HW1 7319   3.413   0.328   4.157
 2140SOL    HW2 7320   3.448   0.314   3.998
 2141SOL     OW 7321   6.566   3.167   2.358
 2141SOL    HW1 7322   6.479   3.170   2.309
 2141SOL    HW2 7323   6.616   3.085   2.333
 2142SOL     OW 7324   1.329   1.249   3.292
 2142SOL    HW1 7325   1.363   1.174   3.348
 2142SOL    HW2 7326   1.399   1.321   3.286
 2143SOL     OW 7327   3.161   4.748   1.379
 2143SOL    HW1 7328   3.249   4.765   1.334
 2143SOL    HW2 7329   3.143   4.650   1.379
 2144SOL     OW 7330   0.349   5.535   4.634
 2144SOL    HW1 7331   0.312   5.582   4.555
 2144SOL    HW2 7332   0.282   5.470   4.670
 2145SOL     OW 7333   3.909   6.596   4.078
 2145SOL    HW1 7334   3.846   6.579   4.002
 2145SOL    HW2 7335   3.875   6.550   4.160
 2146SOL     OW 7336   2.257   3.521   0.721
 2146SOL    HW1 7337   2.201   3.531   0.803
 2146SOL    HW2 7338   2.318   3.442   0.732
 2147SOL     OW 7339   6.252   1.599   6.153
 2147SOL    HW1 7340   6.321   1.602   6.226
 2147SOL    HW2 7341   6.174   1.655   6.179
 2148SOL     OW 7342   6.152   3.411   6.076
 2148SOL    HW1 7343   6.133   3.451   6.166
 2148SOL    HW2 7344   6.189   3.482   6.015
 2149SOL     OW 7345   2.620   1.560   1.000
 2149SOL    HW1 7346   2.568   1.516   0.927
 2149SOL    HW2 7347   2.697   1.610   0.960
 2150SOL     OW 7348   2.441   2.514   2.200
 2150SOL    HW1 7349   2.527   2.468   2.223
 2150SOL    HW2 7350   2.393   2.464   2.128
 2151SOL     OW 7351   1.804   6.656   6.015
 2151SOL    HW1 7352   1.848   6.724   6.074
 2151SOL    HW2 7353   1.856   6.571   6.018
 2152SOL     OW 7354   3.548   5.185   2.450
 2152SOL    HW1 7355   3.470   5.242   2.424
 2152SOL    HW2 7356   3.628   5.212   2.397
 2153SOL     OW 7357   4.638   1.459   2.866
 2153SOL    HW1 7358   4.701   1.385   2.843
 2153SOL    HW2 7359   4.690   1.542   2.887
 2154SOL     OW 7360   5.187   0.557   4.323
 2154SOL    HW1 7361   5.204   0.599   4.412
 2154SOL    HW2 7362   5.113   0.490   4.331
 2155SOL     OW 7363   3.984   6.563   1.283
 2155SOL    HW1 7364   4.053   6.635   1.276
 2155SOL    HW2 7365   3.912   6.578   1.215
 2156SOL     OW 7366   0.466   1.328   4.960
 2156SOL    HW1 7367   0.408   1.247   4.967
 2156SOL    HW2 7368   0.459   1.381   5.044
 2157SOL     OW 7369   6.156   6.766   2.765
 2157SOL    HW1 7370   6.090   6.789   2.836
 2157SOL    HW2 7371   6.110   6.720   2.689
 2158SOL     OW 7372   3.535   6.007   1.026
 2158SOL    HW1 7373   3.626   5.999   0.986
 2158SOL    HW2 7374   3.498   5.916   1.044
 2159SOL     OW 7375   1.507   0.729   4.906
 2159SOL    HW1 7376   1.467   0.797   4.845
 2159SOL    HW2 7377   1.607   0.737   4.904
 2160SOL     OW 7378   4.726   4.157   0.024
 2160SOL    HW1 7379   4.755   4.068   0.060
 2160SOL    HW2 7380   4.778   4.178   6.959
 2161SOL     OW 7381   5.883   4.423   2.206
 2161SOL    HW1 7382   5.926   4.343   2.247
 2161SOL    HW2 7383   5.891   4.501   2.268
 2162SOL     OW 7384   3.614   0.732   1.900
 2162SOL    HW1 7385   3.567   0.759   1.984
 2162SOL    HW2 7386   3.582   0.642   1.871
 2163SOL     OW 7387   1.870   4.359   0.282
 2163SOL    HW1 7388   1.842   4.279   0.230
 2163SOL    HW2 7389   1.804   4.375   0.356
 2164SOL     OW 7390   1.657   1.890   6.340
 2164SOL    HW1 7391   1.672   1.884   6.439
 2164SOL    HW2 7392   1.739   1.857   6.293
 2165SOL     OW 7393   6.988   2.055   3.267
 2165SOL    HW1 7394   6.971   2.077   3.363
 2165SOL    HW2 7395   6.923   1.986   3.237
 2166SOL     OW 7396   1.488   2.739   4.770
 2166SOL    HW1 7397   1.472   2.838   4.769
 2166SOL    HW2 7398   1.464   2.702   4.859
 2167SOL     OW 7399   2.039   2.143   3.644
 2167SOL    HW1 7400   2.050   2.153   3.743
 2167SOL    HW2 7401   1.942   2.132   3.622
 2168SOL     OW 7402   0.881   1.701   3.378
 2168SOL    HW1 7403   0.810   1.664   3.318
 2168SOL    HW2 7404   0.957   1.636   3.384
 2169SOL     OW 7405   5.585   2.381   6.850
 2169SOL    HW1 7406   5.649   2.455   6.872
 2169SOL    HW2 7407   5.530   2.360   6.931
 2170SOL     OW 7408   6.695   3.993   4.773
 2170SOL    HW1 7409   6.748   3.962   4.693
 2170SOL    HW2 7410   6.607   4.029   4.743
 2171SOL     OW 7411   0.290   5.237   1.521
 2171SOL    HW1 7412   0.241   5.310   1.472
 2171SOL    HW2 7413   0.255   5.148   1.492
 2172SOL     OW 7414   2.156   1.757   6.615
 2172SOL    HW1 7415   2.105   1.674   6.638
 2172SOL    HW2 7416   2.254   1.740   6.629
 2173SOL     OW 7417   4.306   0.593   5.613
 2173SOL    HW1 7418   4.277   0.549   5.698
 2173SOL    HW2 7419   4.395   0.637   5.628
 2174SOL     OW 7420   6.722   5.544   4.983
 2174SOL    HW1 7421   6.639   5.505   5.023
 2174SOL    HW2 7422   6.722   5.529   4.884
 2175SOL     OW 7423   1.623   2.433   4.388
 2175SOL    HW1 7424   1.696   2.390   4.440
 2175SOL    HW2 7425   1.548   2.457   4.450
 2176SOL     OW 7426   5.469   2.314   0.626
 2176SOL    HW1 7427   5.377   2.287   0.654
 2176SOL    HW2 7428   5.465   2.355   0.535
 2177SOL     OW 7429   6.898   1.479   2.500
 2177SOL    HW1 7430   6.934   1.541   2.570
 2177SOL    HW2 7431   6.912   1.519   2.410
 2178SOL     OW 7432   1.737   1.889   1.996
 2178SOL    HW1 7433   1.784   1.804   2.020
 2178SOL    HW2 7434   1.648   1.892   2.042
 2179SOL     OW 7435   1.868   5.051   5.693
 2179SOL    HW1 7436   1.936   5.070   5.763
 2179SOL    HW2 7437   1.822   5.136   5.667
 2180SOL     OW 7438   1.668   2.672   2.086
 2180SOL    HW1 7439   1.715   2.746   2.134
 2180SOL    HW2 7440   1.689   2.585   2.130
 2181SOL     OW 7441   4.668   4.901   4.665
 2181SOL    HW1 7442   4.676   5.000   4.680
 2181SOL    HW2 7443   4.759   4.861   4.657
 2182SOL     OW 7444   1.541   3.959   3.438
 2182SOL    HW1 7445   1.470   3.906   3.392
 2182SOL    HW2 7446   1.520   3.965   3.536
 2183SOL     OW 7447   2.313   4.747   6.772
 2183SOL    HW1 7448   2.231   4.789   6.811
 2183SOL    HW2 7449   2.287   4.693   6.692
 2184SOL     OW 7450   4.768   1.029   5.902
 2184SOL    HW1 7451   4.775   1.110   5.960
 2184SOL    HW2 7452   4.785   1.055   5.807
 2185SOL     OW 7453   0.651   0.344   0.995
 2185SOL    HW1 7454   0.677   0.368   0.901
 2185SOL    HW2 7455   0.586   0.411   1.030
 2186SOL     OW 7456   6.370   5.367   0.549
 2186SOL    HW1 7457   6.279   5.339   0.580
 2186SOL    HW2 7458   6.367   5.462   0.517
 2187SOL     OW 7459   6.952   5.784   2.466
 2187SOL    HW1 7460   0.019   5.747   2.429
 2187SOL    HW2 7461   6.972   5.843   2.544
 2188SOL     OW 7462   6.992   5.610   5.101
 2188SOL    HW1 7463   0.049   5.549   5.076
 2188SOL    HW2 7464   6.942   5.637   5.018
 2189SOL     OW 7465   2.275   0.138   1.583
 2189SOL    HW1 7466   2.186   0.184   1.590
 2189SOL    HW2 7467   2.328   0.156   1.666
 2190SOL     OW 7468   7.007   3.407   1.944
 2190SOL    HW1 7469   0.081   3.442   1.926
 2190SOL    HW2 7470   7.012   3.340   2.018
 2191SOL     OW 7471   2.666   1.645   6.473
 2191SOL    HW1 7472   2.689   1.735   6.511
 2191SOL    HW2 7473   2.749   1.591   6.462
 2192SOL     OW 7474   4.879   1.270   2.480
 2192SOL    HW1 7475   4.871   1.332   2.558
 2192SOL    HW2 7476   4.793   1.271   2.428
 2193SOL     OW 7477   5.759   6.964   6.895
 2193SOL    HW1 7478   5.701   6.987   6.817
 2193SOL    HW2 7479   5.734   0.003   6.973
 2194SOL     OW 7480   2.042   4.537   6.091
 2194SOL    HW1 7481   2.141   4.554   6.090
 2194SOL    HW2 7482   2.007   4.537   5.997
 2195SOL     OW 7483   6.730   0.048   5.294
 2195SOL    HW1 7484   6.646   0.065   5.346
 2195SOL    HW2 7485   6.807   0.095   5.338
 2196SOL     OW 7486   3.870   0.386   4.514
 2196SOL    HW1 7487   3.923   0.457   4.560
 2196SOL    HW2 7488   3.802   0.349   4.577
 2197SOL     OW 7489   3.028   3.340   6.789
 2197SOL    HW1 7490   3.088   3.371   6.862
 2197SOL    HW2 7491   2.933   3.344   6.820
 2198SOL     OW 7492   5.441   0.240   0.941
 2198SOL    HW1 7493   5.478   0.177   0.872
 2198SOL    HW2 7494   5.474   0.214   1.031
 2199SOL     OW 7495   5.496   6.403   3.709
 2199SOL    HW1 7496   5.489   6.502   3.725
 2199SOL    HW2 7497   5.412   6.359   3.741
 2200SOL     OW 7498   2.168   1.903   3.878
 2200SOL    HW1 7499   2.135   1.996   3.899
 2200SOL    HW2 7500   2.141   1.841   3.952
 2201SOL     OW 7501   6.561   2.809   3.506
 2201SOL    HW1 7502   6.468   2.842   3.520
 2201SOL    HW2 7503   6.626   2.870   3.551
 2202SOL     OW 7504   3.578   5.619   2.363
 2202SOL    HW1 7505   3.491   5.596   2.319
 2202SOL    HW2 7506   3.641   5.655   2.295
 2203SOL     OW 7507   2.122   3.024   1.008
 2203SOL    HW1 7508   2.207   2.992   1.049
 2203SOL    HW2 7509   2.106   2.976   0.922
 2204SOL     OW 7510   4.992   2.090   1.064
 2204SOL    HW1 7511   5.078   2.047   1.038
 2204SOL    HW2 7512   4.919   2.022   1.062
 2205SOL     OW 7513   0.649   6.596   6.525
 2205SOL    HW1 7514   0.699   6.610   6.611
 2205SOL    HW2 7515   0.551   6.594   6.544
 2206SOL     OW 7516   3.430   5.279   5.668
 2206SOL    HW1 7517   3.372   5.360   5.660
 2206SOL    HW2 7518   3.392   5.216   5.736
 2207SOL     OW 7519   2.634   5.112   6.369
 2207SOL    HW1 7520   2.671   5.161   6.289
 2207SOL    HW2 7521   2.701   5.044   6.400
 2208SOL     OW 7522   1.468   5.113   3.025
 2208SOL    HW1 7523   1.454   5.046   3.097
 2208SOL    HW2 7524   1.409   5.192   3.040
 2209SOL     OW 7525   1.454   0.140   5.548
 2209SOL    HW1 7526   1.482   0.110   5.457
 2209SOL    HW2 7527   1.355   0.134   5.557
 2210SOL     OW 7528   0.167   4.197   4.307
 2210SOL    HW1 7529   0.173   4.256   4.226
 2210SOL    HW2 7530   0.095   4.128   4.293
 2211SOL     OW 7531   6.420   0.537   0.671
 2211SOL    HW1 7532   6.321   0.524   0.681
 2211SOL    HW2 7533   6.444   0.526   0.574
 2212SOL     OW 7534   2.691   5.791   0.673
 2212SOL    HW1 7535   2.781   5.820   0.708
 2212SOL    HW2 7536   2.646   5.733   0.741
 2213SOL     OW 7537   3.354   1.493   5.039
 2213SOL    HW1 7538   3.260   1.471   5.062
 2213SOL    HW2 7539   3.391   1.556   5.107
 2214SOL     OW 7540   3.151   3.982   4.680
 2214SOL    HW1 7541   3.148   3.886   4.709
 2214SOL    HW2 7542   3.145   4.041   4.760
 2215SOL     OW 7543   5.772   1.594   0.073
 2215SOL    HW1 7544   5.734   1.558   7.005
 2215SOL    HW2 7545   5.862   1.555   0.088
 2216SOL     OW 7546   1.609   0.829   6.800
 2216SOL    HW1 7547   1.579   0.898   6.734
 2216SOL    HW2 7548   1.593   0.737   6.762
 2217SOL     OW 7549   4.201   0.098   2.572
 2217SOL    HW1 7550   4.145   0.107   2.489
 2217SOL    HW2 7551   4.297   0.084   2.546
 2218SOL     OW 7552   6.605   5.268   0.103
 2218SOL    HW1 7553   6.653   5.278   0.190
 2218SOL    HW2 7554   6.645   5.329   0.034
 2219SOL     OW 7555   5.605   1.597   0.769
 2219SOL    HW1 7556   5.577   1.610   0.864
 2219SOL    HW2 7557   5.542   1.645   0.708
 2220SOL     OW 7558   2.329   6.508   5.120
 2220SOL    HW1 7559   2.308   6.507   5.217
 2220SOL    HW2 7560   2.346   6.414   5.089
 2221SOL     OW 7561   6.072   1.617   5.455
 2221SOL    HW1 7562   6.018   1.565   5.389
 2221SOL    HW2 7563   6.147   1.560   5.490
 2222SOL     OW 7564   5.348   0.640   0.610
 2222SOL    HW1 7565   5.272   0.593   0.653
 2222SOL    HW2 7566   5.355   0.733   0.646
 2223SOL     OW 7567   5.675   1.485   5.459
 2223SOL    HW1 7568   5.768   1.463   5.430
 2223SOL    HW2 7569   5.634   1.404   5.501
 2224SOL     OW 7570   6.988   3.373   0.609
 2224SOL    HW1 7571   6.932   3.343   0.532
 2224SOL    HW2 7572   6.986   3.303   0.681
 2225SOL     OW 7573   6.215   6.694   3.758
 2225SOL    HW1 7574   6.187   6.634   3.833
 2225SOL    HW2 7575   6.139   6.752   3.732
 2226SOL     OW 7576   3.859   5.415   0.670
 2226SOL    HW1 7577   3.920   5.432   0.747
 2226SOL    HW2 7578   3.792   5.346   0.695
 2227SOL     OW 7579   5.484   2.980   6.964
 2227SOL    HW1 7580   5.504   3.078   6.955
 2227SOL    HW2 7581   5.390   2.968   6.993
 2228SOL     OW 7582   4.204   5.249   1.063
 2228SOL    HW1 7583   4.255   5.307   1.000
 2228SOL    HW2 7584   4.177   5.302   1.143
 2229SOL     OW 7585   4.349   2.587   5.455
 2229SOL    HW1 7586   4.379   2.682   5.460
 2229SOL    HW2 7587   4.301   2.563   5.539
 2230SOL     OW 7588   5.990   6.441   0.487
 2230SOL    HW1 7589   6.084   6.416   0.465
 2230SOL    HW2 7590   5.986   6.538   0.511
 2231SOL     OW 7591   0.166   0.786   1.553
 2231SOL    HW1 7592   0.096   0.841   1.598
 2231SOL    HW2 7593   0.171   0.811   1.456
 2232SOL     OW 7594   0.946   2.249   4.442
 2232SOL    HW1 7595   0.864   2.199   4.470
 2232SOL    HW2 7596   0.993   2.199   4.370
 2233SOL     OW 7597   2.269   2.887   0.452
 2233SOL    HW1 7598   2.326   2.889   0.370
 2233SOL    HW2 7599   2.180   2.848   0.429
 2234SOL     OW 7600   4.572   1.748   1.293
 2234SOL    HW1 7601   4.518   1.665   1.307
 2234SOL    HW2 7602   4.622   1.770   1.377
 2235SOL     OW 7603   3.013   0.374   1.553
 2235SOL    HW1 7604   3.023   0.346   1.458
 2235SOL    HW2 7605   3.103   0.390   1.594
 2236SOL     OW 7606   2.294   3.962   6.795
 2236SOL    HW1 7607   2.310   3.864   6.809
 2236SOL    HW2 7608   2.367   4.001   6.740
 2237SOL     OW 7609   5.950   4.534   3.806
 2237SOL    HW1 7610   5.929   4.437   3.799
 2237SOL    HW2 7611   5.871   4.588   3.775
 2238SOL     OW 7612   4.615   4.823   1.859
 2238SOL    HW1 7613   4.564   4.777   1.931
 2238SOL    HW2 7614   4.605   4.772   1.773
 2239SOL     OW 7615   3.925   4.985   4.153
 2239SOL    HW1 7616   3.873   4.946   4.229
 2239SOL    HW2 7617   3.876   5.064   4.116
 2240SOL     OW 7618   3.438   5.694   3.505
 2240SOL    HW1 7619   3.458   5.791   3.515
 2240SOL    HW2 7620   3.489   5.658   3.427
 2241SOL     OW 7621   0.807   5.451   3.642
 2241SOL    HW1 7622   0.793   5.509   3.722
 2241SOL    HW2 7623   0.818   5.509   3.561
 2242SOL     OW 7624   5.760   3.429   2.628
 2242SOL    HW1 7625   5.697   3.372   2.681
 2242SOL    HW2 7626   5.772   3.390   2.537
 2243SOL     OW 7627   1.619   6.377   6.000
 2243SOL    HW1 7628   1.521   6.369   5.983
 2243SOL    HW2 7629   1.660   6.435   5.930
 2244SOL     OW 7630   2.188   6.430   1.205
 2244SOL    HW1 7631   2.166   6.348   1.257
 2244SOL    HW2 7632   2.255   6.485   1.255
 2245SOL     OW 7633   0.524   1.851   1.136
 2245SOL    HW1 7634   0.483   1.935   1.171
 2245SOL    HW2 7635   0.537   1.859   1.037
 2246SOL     OW 7636   1.722   0.802   4.392
 2246SOL    HW1 7637   1.711   0.900   4.373
 2246SOL    HW2 7638   1.632   0.759   4.399
 2247SOL     OW 7639   3.329   3.021   3.801
 2247SOL    HW1 7640   3.346   3.028   3.702
 2247SOL    HW2 7641   3.416   3.022   3.850
 2248SOL     OW 7642   6.520   3.865   5.423
 2248SOL    HW1 7643   6.552   3.778   5.385
 2248SOL    HW2 7644   6.454   3.847   5.496
 2249SOL     OW 7645   5.705   6.522   3.988
 2249SOL    HW1 7646   5.717   6.550   3.893
 2249SOL    HW2 7647   5.608   6.507   4.007
 2250SOL     OW 7648   3.199   3.473   5.321
 2250SOL    HW1 7649   3.124   3.540   5.318
 2250SOL    HW2 7650   3.207   3.429   5.232
 2251SOL     OW 7651   5.216   0.484   6.468
 2251SOL    HW1 7652   5.194   0.533   6.383
 2251SOL    HW2 7653   5.302   0.435   6.457
 2252SOL     OW 7654   4.607   2.330   2.467
 2252SOL    HW1 7655   4.577   2.307   2.560
 2252SOL    HW2 7656   4.543   2.395   2.427
 2253SOL     OW 7657   0.098   3.920   6.786
 2253SOL    HW1 7658   0.123   4.007   6.742
 2253SOL    HW2 7659   0.049   3.939   6.871
 2254SOL     OW 7660   3.479   3.065   5.076
 2254SOL    HW1 7661   3.393   3.056   5.026
 2254SOL    HW2 7662   3.554   3.078   5.011
 2255SOL     OW 7663   3.980   3.206   5.949
 2255SOL    HW1 7664   3.900   3.151   5.926
 2255SOL    HW2 7665   3.951   3.285   6.004
 2256SOL     OW 7666   4.549   6.061   2.334
 2256SOL    HW1 7667   4.496   5.976   2.342
 2256SOL    HW2 7668   4.492   6.131   2.292
 2257SOL     OW 7669   0.208   2.508   4.369
 2257SOL    HW1 7670   0.286   2.458   4.408
 2257SOL    HW2 7671   0.229   2.606   4.369
 2258SOL     OW 7672   1.452   5.175   4.552
 2258SOL    HW1 7673   1.477   5.263   4.513
 2258SOL    HW2 7674   1.352   5.167   4.554
 2259SOL     OW 7675   5.257   3.498   6.192
 2259SOL    HW1 7676   5.286   3.407   6.220
 2259SOL    HW2 7677   5.322   3.566   6.226
 2260SOL     OW 7678   0.485   4.595   1.520
 2260SOL    HW1 7679   0.474   4.533   1.598
 2260SOL    HW2 7680   0.482   4.541   1.435
 2261SOL     OW 7681   5.805   4.704   0.362
 2261SOL    HW1 7682   5.871   4.664   0.299
 2261SOL    HW2 7683   5.853   4.751   0.436
 2262SOL     OW 7684   5.889   0.901   3.509
 2262SOL    HW1 7685   5.862   0.900   3.605
 2262SOL    HW2 7686   5.864   0.813   3.466
 2263SOL     OW 7687   2.943   5.858   6.384
 2263SOL    HW1 7688   2.936   5.889   6.290
 2263SOL    HW2 7689   2.999   5.921   6.437
 2264SOL     OW 7690   2.720   5.312   0.280
 2264SOL    HW1 7691   2.696   5.409   0.285
 2264SOL    HW2 7692   2.796   5.292   0.342
 2265SOL     OW 7693   1.434   0.737   4.339
 2265SOL    HW1 7694   1.366   0.741   4.412
 2265SOL    HW2 7695   1.449   0.642   4.313
 2266SOL     OW 7696   5.055   1.782   0.089
 2266SOL    HW1 7697   5.047   1.684   0.106
 2266SOL    HW2 7698   4.986   1.831   0.143
 2267SOL     OW 7699   5.023   2.459   4.823
 2267SOL    HW1 7700   5.010   2.556   4.841
 2267SOL    HW2 7701   4.935   2.415   4.810
 2268SOL     OW 7702   6.327   4.014   0.173
 2268SOL    HW1 7703   6.355   4.073   0.097
 2268SOL    HW2 7704   6.342   3.918   0.147
 2269SOL     OW 7705   6.705   4.827   5.246
 2269SOL    HW1 7706   6.761   4.891   5.300
 2269SOL    HW2 7707   6.626   4.798   5.301
 2270SOL     OW 7708   3.056   2.832   5.937
 2270SOL    HW1 7709   3.130   2.866   5.879
 2270SOL    HW2 7710   3.095   2.785   6.017
 2271SOL     OW 7711   5.438   4.232   0.212
 2271SOL    HW1 7712   5.407   4.325   0.229
 2271SOL    HW2 7713   5.538   4.228   0.220
 2272SOL     OW 7714   6.532   2.580   6.770
 2272SOL    HW1 7715   6.564   2.630   6.850
 2272SOL    HW2 7716   6.556   2.631   6.687
 2273SOL     OW 7717   1.650   2.145   2.156
 2273SOL    HW1 7718   1.650   2.161   2.255
 2273SOL    HW2 7719   1.734   2.098   2.130
 2274SOL     OW 7720   0.607   2.450   6.396
 2274SOL    HW1 7721   0.582   2.385   6.324
 2274SOL    HW2 7722   0.589   2.543   6.365
 2275SOL     OW 7723   6.411   6.591   4.013
 2275SOL    HW1 7724   6.348   6.514   4.020
 2275SOL    HW2 7725   6.421   6.635   4.102
 2276SOL     OW 7726   2.069   5.820   1.370
 2276SOL    HW1 7727   2.027   5.911   1.367
 2276SOL    HW2 7728   2.166   5.829   1.395
 2277SOL     OW 7729   3.948   3.445   4.307
 2277SOL    HW1 7730   3.974   3.391   4.387
 2277SOL    HW2 7731   3.866   3.497   4.327
 2278SOL     OW 7732   6.254   4.519   4.484
 2278SOL    HW1 7733   6.192   4.523   4.406
 2278SOL    HW2 7734   6.329   4.456   4.463
 2279SOL     OW 7735   5.983   6.715   5.426
 2279SOL    HW1 7736   5.963   6.618   5.439
 2279SOL    HW2 7737   5.928   6.769   5.489
 2280SOL     OW 7738   6.745   6.931   4.385
 2280SOL    HW1 7739   6.713   6.978   4.303
 2280SOL    HW2 7740   6.740   6.832   4.372
 2281SOL     OW 7741   3.351   1.565   1.910
 2281SOL    HW1 7742   3.304   1.494   1.964
 2281SOL    HW2 7743   3.345   1.652   1.958
 2282SOL     OW 7744   5.730   0.350   5.368
 2282SOL    HW1 7745   5.691   0.261   5.390
 2282SOL    HW2 7746   5.694   0.382   5.281
 2283SOL     OW 7747   0.763   4.930   1.409
 2283SOL    HW1 7748   0.846   4.986   1.403
 2283SOL    HW2 7749   0.685   4.987   1.432
 2284SOL     OW 7750   1.090   2.926   6.710
 2284SOL    HW1 7751   1.041   3.011   6.731
 2284SOL    HW2 7752   1.176   2.924   6.761
 2285SOL     OW 7753   2.087   2.416   1.216
 2285SOL    HW1 7754   2.100   2.339   1.278
 2285SOL    HW2 7755   2.169   2.428   1.160
 2286SOL     OW 7756   6.292   0.135   3.531
 2286SOL    HW1 7757   6.378   0.086   3.546
 2286SOL    HW2 7758   6.307   0.207   3.463
 2287SOL     OW 7759   1.842   0.221   2.994
 2287SOL    HW1 7760   1.818   0.198   2.900
 2287SOL    HW2 7761   1.874   0.139   3.041
 2288SOL     OW 7762   6.068   4.575   4.284
 2288SOL    HW1 7763   6.031   4.654   4.333
 2288SOL    HW2 7764   6.075   4.597   4.187
 2289SOL     OW 7765   1.049   4.820   1.346
 2289SOL    HW1 7766   1.024   4.906   1.390
 2289SOL    HW2 7767   1.075   4.753   1.416
 2290SOL     OW 7768   0.785   4.411   0.526
 2290SOL    HW1 7769   0.715   4.352   0.566
 2290SOL    HW2 7770   0.876   4.378   0.554
 2291SOL     OW 7771   2.532   2.409   6.099
 2291SOL    HW1 7772   2.546   2.505   6.075
 2291SOL    HW2 7773   2.618   2.371   6.134
 2292SOL     OW 7774   0.150   2.706   4.786
 2292SOL    HW1 7775   0.227   2.762   4.755
 2292SOL    HW2 7776   0.110   2.747   4.868
 2293SOL     OW 7777   4.531   6.198   1.787
 2293SOL    HW1 7778   4.531   6.127   1.857
 2293SOL    HW2 7779   4.449   6.255   1.798
 2294SOL     OW 7780   3.460   0.185   6.944
 2294SOL    HW1 7781   3.376   0.197   6.996
 2294SOL    HW2 7782   3.488   0.273   6.905
 2295SOL     OW 7783   0.465   2.173   2.758
 2295SOL    HW1 7784   0.400   2.106   2.795
 2295SOL    HW2 7785   0.435   2.202   2.667
 2296SOL     OW 7786   4.652   5.366   0.953
 2296SOL    HW1 7787   4.655   5.266   0.962
 2296SOL    HW2 7788   4.678   5.408   1.040
 2297SOL     OW 7789   4.046   4.227   5.244
 2297SOL    HW1 7790   3.958   4.263   5.215
 2297SOL    HW2 7791   4.109   4.303   5.261
 2298SOL     OW 7792   3.963   3.198   1.594
 2298SOL    HW1 7793   4.029   3.238   1.530
 2298SOL    HW2 7794   3.927   3.270   1.654
 2299SOL     OW 7795   4.459   6.043   5.070
 2299SOL    HW1 7796   4.532   6.107   5.094
 2299SOL    HW2 7797   4.445   6.044   4.971
 2300SOL     OW 7798   2.417   5.639   2.277
 2300SOL    HW1 7799   2.371   5.551   2.288
 2300SOL    HW2 7800   2.475   5.636   2.196
 2301SOL     OW 7801   3.457   2.843   2.933
 2301SOL    HW1 7802   3.469   2.898   2.850
 2301SOL    HW2 7803   3.422   2.753   2.908
 2302SOL     OW 7804   3.864   0.207   1.189
 2302SOL    HW1 7805   3.841   0.241   1.280
 2302SOL    HW2 7806   3.810   0.255   1.121
 2303SOL     OW 7807   2.167   2.836   6.059
 2303SOL    HW1 7808   2.202   2.784   6.137
 2303SOL    HW2 7809   2.236   2.838   5.987
 2304SOL     OW 7810   4.777   6.888   3.879
 2304SOL    HW1 7811   4.695   6.880   3.936
 2304SOL    HW2 7812   4.786   6.983   3.847
 2305SOL     OW 7813   2.359   6.716   3.095
 2305SOL    HW1 7814   2.424   6.791   3.089
 2305SOL    HW2 7815   2.266   6.752   3.080
 2306SOL     OW 7816   3.185   5.399   2.466
 2306SOL    HW1 7817   3.160   5.307   2.497
 2306SOL    HW2 7818   3.256   5.392   2.396
 2307SOL     OW 7819   6.872   4.001   2.356
 2307SOL    HW1 7820   6.805   3.928   2.340
 2307SOL    HW2 7821   6.828   4.090   2.347
 2308SOL     OW 7822   0.999   6.076   0.631
 2308SOL    HW1 7823   1.014   6.054   0.728
 2308SOL    HW2 7824   1.023   5.997   0.575
 2309SOL     OW 7825   1.290   0.308   6.439
 2309SOL    HW1 7826   1.318   0.403   6.451
 2309SOL    HW2 7827   1.191   0.303   6.432
 2310SOL     OW 7828   4.820   6.282   1.413
 2310SOL    HW1 7829   4.810   6.373   1.373
 2310SOL    HW2 7830   4.890   6.285   1.485
 2311SOL     OW 7831   2.198   5.990   2.038
 2311SOL    HW1 7832   2.213   5.944   2.126
 2311SOL    HW2 7833   2.133   6.065   2.050
 2312SOL     OW 7834   3.765   0.036   4.009
 2312SOL    HW1 7835   3.682   0.003   4.055
 2312SOL    HW2 7836   3.741   0.109   3.945
 2313SOL     OW 7837   5.109   5.555   1.711
 2313SOL    HW1 7838   5.038   5.531   1.645
 2313SOL    HW2 7839   5.198   5.526   1.676
 2314SOL     OW 7840   5.905   7.015   5.273
 2314SOL    HW1 7841   5.871   6.929   5.311
 2314SOL    HW2 7842   5.941   6.999   5.181
 2315SOL     OW 7843   4.853   3.047   5.352
 2315SOL    HW1 7844   4.796   2.991   5.292
 2315SOL    HW2 7845   4.869   2.998   5.438
 2316SOL     OW 7846   3.405   0.775   4.393
 2316SOL    HW1 7847   3.379   0.751   4.486
 2316SOL    HW2 7848   3.329   0.754   4.331
 2317SOL     OW 7849   0.524   6.272   3.782
 2317SOL    HW1 7850   0.490   6.357   3.743
 2317SOL    HW2 7851   0.479   6.194   3.738
 2318SOL     OW 7852   2.345   2.766   4.500
 2318SOL    HW1 7853   2.436   2.729   4.481
 2318SOL    HW2 7854   2.300   2.708   4.568
 2319SOL     OW 7855   2.130   4.989   4.113
 2319SOL    HW1 7856   2.107   4.907   4.062
 2319SOL    HW2 7857   2.080   4.991   4.199
 2320SOL     OW 7858   0.486   3.082   4.825
 2320SOL    HW1 7859   0.583   3.106   4.829
 2320SOL    HW2 7860   0.433   3.165   4.806
 2321SOL     OW 7861   2.322   6.632   0.090
 2321SOL    HW1 7862   2.389   6.623   0.164
 2321SOL    HW2 7863   2.302   6.729   0.074
 2322SOL     OW 7864   1.828   2.516   4.238
 2322SOL    HW1 7865   1.836   2.615   4.235
 2322SOL    HW2 7866   1.740   2.490   4.279
 2323SOL     OW 7867   3.232   5.129   1.880
 2323SOL    HW1 7868   3.180   5.181   1.948
 2323SOL    HW2 7869   3.253   5.038   1.917
 2324SOL     OW 7870   6.734   6.520   1.143
 2324SOL    HW1 7871   6.634   6.524   1.147
 2324SOL    HW2 7872   6.768   6.461   1.216
 2325SOL     OW 7873   0.780   4.392   1.315
 2325SOL    HW1 7874   0.814   4.364   1.225
 2325SOL    HW2 7875   0.775   4.492   1.319
 2326SOL     OW 7876   3.774   5.415   6.173
 2326SOL    HW1 7877   3.853   5.359   6.200
 2326SOL    HW2 7878   3.699   5.356   6.145
 2327SOL     OW 7879   6.789   2.280   3.650
 2327SOL    HW1 7880   6.812   2.374   3.626
 2327SOL    HW2 7881   6.691   2.266   3.641
 2328SOL     OW 7882   2.209   1.905   2.746
 2328SOL    HW1 7883   2.181   2.000   2.757
 2328SOL    HW2 7884   2.175   1.869   2.660
 2329SOL     OW 7885   1.649   4.621   4.290
 2329SOL    HW1 7886   1.594   4.636   4.208
 2329SOL    HW2 7887   1.746   4.635   4.268
 2330SOL     OW 7888   1.191   3.794   1.404
 2330SOL    HW1 7889   1.251   3.833   1.474
 2330SOL    HW2 7890   1.126   3.732   1.447
 2331SOL     OW 7891   3.951   5.640   6.639
 2331SOL    HW1 7892   3.965   5.640   6.540
 2331SOL    HW2 7893   4.026   5.592   6.683
 2332SOL     OW 7894   5.214   1.701   5.220
 2332SOL    HW1 7895   5.140   1.716   5.154
 2332SOL    HW2 7896   5.280   1.636   5.183
 2333SOL     OW 7897   0.236   4.980   2.820
 2333SOL    HW1 7898   0.317   4.950   2.871
 2333SOL    HW2 7899   0.203   4.904   2.764
 2334SOL     OW 7900   2.086   0.464   0.669
 2334SOL    HW1 7901   2.059   0.543   0.614
 2334SOL    HW2 7902   2.017   0.447   0.740
 2335SOL     OW 7903   6.763   0.843   2.588
 2335SOL    HW1 7904   6.704   0.768   2.619
 2335SOL    HW2 7905   6.718   0.893   2.515
 2336SOL     OW 7906   4.641   2.549   4.702
 2336SOL    HW1 7907   4.576   2.485   4.742
 2336SOL    HW2 7908   4.650   2.629   4.761
 2337SOL     OW 7909   4.706   1.457   2.098
 2337SOL    HW1 7910   4.663   1.521   2.034
 2337SOL    HW2 7911   4.787   1.416   2.057
 2338SOL     OW 7912   1.124   2.197   5.349
 2338SOL    HW1 7913   1.175   2.210   5.264
 2338SOL    HW2 7914   1.185   2.210   5.427
 2339SOL     OW 7915   3.527   3.750   4.759
 2339SOL    HW1 7916   3.555   3.707   4.673
 2339SOL    HW2 7917   3.608   3.786   4.806
 2340SOL     OW 7918   6.121   4.630   0.701
 2340SOL    HW1 7919   6.025   4.602   0.708
 2340SOL    HW2 7920   6.166   4.576   0.631
 2341SOL     OW 7921   4.424   4.855   1.345
 2341SOL    HW1 7922   4.356   4.911   1.298
 2341SOL    HW2 7923   4.494   4.915   1.385
 2342SOL     OW 7924   6.914   6.910   5.644
 2342SOL    HW1 7925   6.980   6.835   5.639
 2342SOL    HW2 7926   6.828   6.876   5.682
 2343SOL     OW 7927   2.620   5.637   2.511
 2343SOL    HW1 7928   2.678   5.556   2.522
 2343SOL    HW2 7929   2.566   5.630   2.428
 2344SOL     OW 7930   1.796   6.823   0.214
 2344SOL    HW1 7931   1.786   6.743   0.155
 2344SOL    HW2 7932   1.822   6.794   0.306
 2345SOL     OW 7933   3.075   5.516   4.550
 2345SOL    HW1 7934   3.020   5.489   4.472
 2345SOL    HW2 7935   3.118   5.434   4.590
 2346SOL     OW 7936   4.485   2.832   5.425
 2346SOL    HW1 7937   4.580   2.843   5.453
 2346SOL    HW2 7938   4.482   2.779   5.340
 2347SOL     OW 7939   2.521   3.152   1.570
 2347SOL    HW1 7940   2.538   3.234   1.515
 2347SOL    HW2 7941   2.456   3.173   1.643
 2348SOL     OW 7942   2.816   6.723   3.754
 2348SOL    HW1 7943   2.750   6.689   3.686
 2348SOL    HW2 7944   2.848   6.646   3.810
 2349SOL     OW 7945   0.818   4.125   6.124
 2349SOL    HW1 7946   0.783   4.100   6.033
 2349SOL    HW2 7947   0.914   4.151   6.117
 2350SOL     OW 7948   4.684   6.093   6.789
 2350SOL    HW1 7949   4.647   6.184   6.810
 2350SOL    HW2 7950   4.696   6.084   6.690
 2351SOL     OW 7951   2.868   5.082   3.421
 2351SOL    HW1 7952   2.788   5.022   3.419
 2351SOL    HW2 7953   2.933   5.049   3.489
 2352SOL     OW 7954   0.415   5.056   2.029
 2352SOL    HW1 7955   0.355   5.130   2.058
 2352SOL    HW2 7956   0.508   5.075   2.062
 2353SOL     OW 7957   3.104   4.305   5.687
 2353SOL    HW1 7958   3.119   4.212   5.654
 2353SOL    HW2 7959   3.191   4.348   5.709
 2354SOL     OW 7960   2.683   1.483   5.872
 2354SOL    HW1 7961   2.649   1.462   5.780
 2354SOL    HW2 7962   2.644   1.570   5.902
 2355SOL     OW 7963   2.256   5.651   0.579
 2355SOL    HW1 7964   2.268   5.590   0.656
 2355SOL    HW2 7965   2.228   5.599   0.498
 2356SOL     OW 7966   1.666   3.655   0.056
 2356SOL    HW1 7967   1.587   3.594   0.045
 2356SOL    HW2 7968   1.633   3.750   0.063
 2357SOL     OW 7969   4.763   6.099   3.609
 2357SOL    HW1 7970   4.807   6.033   3.548
 2357SOL    HW2 7971   4.722   6.171   3.554
 2358SOL     OW 7972   3.911   5.047   5.496
 2358SOL    HW1 7973   3.891   5.051   5.398
 2358SOL    HW2 7974   3.830   5.015   5.545
 2359SOL     OW 7975   0.277   1.125   6.079
 2359SOL    HW1 7976   0.261   1.033   6.114
 2359SOL    HW2 7977   0.195   1.158   6.032
 2360SOL     OW 7978   6.074   4.742   6.645
 2360SOL    HW1 7979   6.051   4.645   6.638
 2360SOL    HW2 7980   6.013   4.795   6.586
 2361SOL     OW 7981   2.350   0.728   4.909
 2361SOL    HW1 7982   2.273   0.679   4.951
 2361SOL    HW2 7983   2.363   0.693   4.816
 2362SOL     OW 7984   2.488   0.284   5.477
 2362SOL    HW1 7985   2.579   0.276   5.519
 2362SOL    HW2 7986   2.448   0.372   5.501
 2363SOL     OW 7987   4.274   2.232   5.322
 2363SOL    HW1 7988   4.339   2.181   5.265
 2363SOL    HW2 7989   4.197   2.173   5.345
 2364SOL     OW 7990   0.518   1.840   2.596
 2364SOL    HW1 7991   0.529   1.753   2.548
 2364SOL    HW2 7992   0.439   1.889   2.559
 2365SOL     OW 7993   6.591   3.112   6.635
 2365SOL    HW1 7994   6.529   3.171   6.583
 2365SOL    HW2 7995   6.562   3.016   6.625
 2366SOL     OW 7996   1.613   5.024   6.005
 2366SOL    HW1 7997   1.637   4.927   6.005
 2366SOL    HW2 7998   1.697   5.079   6.006
 2367SOL     OW 7999   3.101   4.382   0.767
 2367SOL    HW1 8000   3.196   4.389   0.798
 2367SOL    HW2 8001   3.049   4.329   0.834
 2368SOL     OW 8002   4.698   0.148   2.805
 2368SOL    HW1 8003   4.695   0.090   2.886
 2368SOL    HW2 8004   4.680   0.093   2.723
 2369SOL     OW 8005   1.111   2.730   6.064
 2369SOL    HW1 8006   1.151   2.701   6.150
 2369SOL    HW2 8007   1.098   2.651   6.004
 2370SOL     OW 8008   4.851   3.880   6.640
 2370SOL    HW1 8009   4.911   3.800   6.639
 2370SOL    HW2 8010   4.767   3.861   6.589
 2371SOL     OW 8011   0.761   6.619   1.949
 2371SOL    HW1 8012   0.784   6.626   2.046
 2371SOL    HW2 8013   0.662   6.624   1.938
 2372SOL     OW 8014   6.406   2.532   1.596
 2372SOL    HW1 8015   6.484   2.560   1.541
 2372SOL    HW2 8016   6.436   2.509   1.689
 2373SOL     OW 8017   0.318   1.214   0.191
 2373SOL    HW1 8018   0.359   1.197   0.101
 2373SOL    HW2 8019   0.334   1.135   0.250
 2374SOL     OW 8020   6.281   1.391   3.430
 2374SOL    HW1 8021   6.276   1.291   3.428
 2374SOL    HW2 8022   6.361   1.420   3.483
 2375SOL     OW 8023   2.517   0.129   4.400
 2375SOL    HW1 8024   2.523   0.029   4.403
 2375SOL    HW2 8025   2.598   0.166   4.355
 2376SOL     OW 8026   6.707   2.206   4.699
 2376SOL    HW1 8027   6.613   2.229   4.724
 2376SOL    HW2 8028   6.770   2.252   4.762
 2377SOL     OW 8029   3.383   4.128   3.010
 2377SOL    HW1 8030   3.289   4.114   3.042
 2377SOL    HW2 8031   3.384   4.127   2.910
 2378SOL     OW 8032   4.961   3.064   0.237
 2378SOL    HW1 8033   4.950   3.087   0.140
 2378SOL    HW2 8034   4.873   3.072   0.284
 2379SOL     OW 8035   5.602   2.682   6.574
 2379SOL    HW1 8036   5.573   2.667   6.669
 2379SOL    HW2 8037   5.694   2.721   6.573
 2380SOL     OW 8038   0.061   0.047   5.476
 2380SOL    HW1 8039   0.118   6.994   5.435
 2380SOL    HW2 8040   0.006   0.007   5.550
 2381SOL     OW 8041   2.131   3.686   4.411
 2381SOL    HW1 8042   2.117   3.652   4.317
 2381SOL    HW2 8043   2.109   3.613   4.476
 2382SOL     OW 8044   2.201   4.564   3.594
 2382SOL    HW1 8045   2.235   4.601   3.680
 2382SOL    HW2 8046   2.248   4.477   3.575
 2383SOL     OW 8047   5.985   6.429   0.985
 2383SOL    HW1 8048   6.012   6.339   0.951
 2383SOL    HW2 8049   6.002   6.498   0.915
 2384SOL     OW 8050   6.505   6.731   1.953
 2384SOL    HW1 8051   6.538   6.763   1.864
 2384SOL    HW2 8052   6.440   6.656   1.940
 2385SOL     OW 8053   0.346   6.512   1.180
 2385SOL    HW1 8054   0.356   6.531   1.082
 2385SOL    HW2 8055   0.353   6.413   1.195
 2386SOL     OW 8056   5.189   4.950   4.288
 2386SOL    HW1 8057   5.091   4.937   4.305
 2386SOL    HW2 8058   5.230   5.000   4.364
 2387SOL     OW 8059   0.887   1.414   3.845
 2387SOL    HW1 8060   0.894   1.364   3.932
 2387SOL    HW2 8061   0.976   1.455   3.824
 2388SOL     OW 8062   1.735   1.934   3.555
 2388SOL    HW1 8063   1.757   1.911   3.649
 2388SOL    HW2 8064   1.762   2.028   3.536
 2389SOL     OW 8065   5.256   3.535   3.236
 2389SOL    HW1 8066   5.218   3.570   3.322
 2389SOL    HW2 8067   5.187   3.544   3.163
 2390SOL     OW 8068   3.476   3.766   3.371
 2390SOL    HW1 8069   3.477   3.791   3.274
 2390SOL    HW2 8070   3.560   3.799   3.415
 2391SOL     OW 8071   5.042   4.924   5.948
 2391SOL    HW1 8072   5.031   4.902   6.045
 2391SOL    HW2 8073   5.124   4.878   5.913
 2392SOL     OW 8074   3.536   0.110   5.169
 2392SOL    HW1 8075   3.540   0.180   5.240
 2392SOL    HW2 8076   3.598   0.035   5.191
 2393SOL     OW 8077   4.599   4.339   6.093
 2393SOL    HW1 8078   4.666   4.379   6.156
 2393SOL    HW2 8079   4.645   4.271   6.035
 2394SOL     OW 8080   2.067   3.541   4.673
 2394SOL    HW1 8081   2.076   3.614   4.741
 2394SOL    HW2 8082   2.088   3.453   4.717
 2395SOL     OW 8083   6.610   2.627   6.498
 2395SOL    HW1 8084   6.658   2.670   6.422
 2395SOL    HW2 8085   6.543   2.562   6.462
 2396SOL     OW 8086   3.878   5.465   1.613
 2396SOL    HW1 8087   3.926   5.412   1.543
 2396SOL    HW2 8088   3.785   5.430   1.624
 2397SOL     OW 8089   0.360   4.140   6.725
 2397SOL    HW1 8090   0.353   4.052   6.680
 2397SOL    HW2 8091   0.410   4.130   6.811
 2398SOL     OW 8092   3.289   3.870   6.650
 2398SOL    HW1 8093   3.346   3.815   6.589
 2398SOL    HW2 8094   3.339   3.953   6.676
 2399SOL     OW 8095   4.628   1.277   2.331
 2399SOL    HW1 8096   4.545   1.323   2.364
 2399SOL    HW2 8097   4.666   1.328   2.254
 2400SOL     OW 8098   3.673   5.217   0.295
 2400SOL    HW1 8099   3.701   5.266   0.213
 2400SOL    HW2 8100   3.628   5.131   0.270
 2401SOL     OW 8101   4.416   6.694   6.633
 2401SOL    HW1 8102   4.406   6.612   6.690
 2401SOL    HW2 8103   4.364   6.769   6.673
 2402SOL     OW 8104   0.615   0.843   4.142
 2402SOL    HW1 8105   0.640   0.796   4.057
 2402SOL    HW2 8106   0.641   0.786   4.220
 2403SOL     OW 8107   2.319   2.340   1.071
 2403SOL    HW1 8108   2.391   2.275   1.046
 2403SOL    HW2 8109   2.333   2.425   1.020
 2404SOL     OW 8110   5.378   1.063   1.316
 2404SOL    HW1 8111   5.379   0.971   1.277
 2404SOL    HW2 8112   5.435   1.065   1.398
 2405SOL     OW 8113   3.617   3.543   2.941
 2405SOL    HW1 8114   3.612   3.577   3.035
 2405SOL    HW2 8115   3.683   3.468   2.936
 2406SOL     OW 8116   2.712   0.148   3.249
 2406SOL    HW1 8117   2.781   0.083   3.278
 2406SOL    HW2 8118   2.698   0.141   3.151
 2407SOL     OW 8119   5.450   2.454   2.825
 2407SOL    HW1 8120   5.515   2.416   2.891
 2407SOL    HW2 8121   5.465   2.411   2.736
 2408SOL     OW 8122   4.339   4.779   3.594
 2408SOL    HW1 8123   4.262   4.775   3.658
 2408SOL    HW2 8124   4.313   4.832   3.513
 2409SOL     OW 8125   0.971   3.259   1.817
 2409SOL    HW1 8126   0.976   3.343   1.871
 2409SOL    HW2 8127   0.908   3.195   1.860
 2410SOL     OW 8128   4.879   2.245   6.360
 2410SOL    HW1 8129   4.892   2.218   6.264
 2410SOL    HW2 8130   4.856   2.165   6.415
 2411SOL     OW 8131   4.412   5.146   5.674
 2411SOL    HW1 8132   4.345   5.165   5.602
 2411SOL    HW2 8133   4.364   5.132   5.761
 2412SOL     OW 8134   4.270   5.016   1.199
 2412SOL    HW1 8135   4.222   4.942   1.152
 2412SOL    HW2 8136   4.253   5.102   1.151
 2413SOL     OW 8137   6.382   2.213   0.238
 2413SOL    HW1 8138   6.434   2.245   0.317
 2413SOL    HW2 8139   6.302   2.272   0.225
 2414SOL     OW 8140   5.033   3.972   2.195
 2414SOL    HW1 8141   5.074   3.934   2.278
 2414SOL    HW2 8142   4.960   3.911   2.164
 2415SOL     OW 8143   0.172   0.197   2.245
 2415SOL    HW1 8144   0.264   0.235   2.252
 2415SOL    HW2 8145   0.114   0.236   2.317
 2416SOL     OW 8146   3.500   2.146   4.678
 2416SOL    HW1 8147   3.544   2.205   4.745
 2416SOL    HW2 8148   3.401   2.148   4.693
 2417SOL     OW 8149   4.339   3.557   5.604
 2417SOL    HW1 8150   4.432   3.551   5.568
 2417SOL    HW2 8151   4.296   3.641   5.573
 2418SOL     OW 8152   3.151   3.941   4.187
 2418SOL    HW1 8153   3.063   3.895   4.172
 2418SOL    HW2 8154   3.150   3.985   4.276
 2419SOL     OW 8155   0.552   5.924   4.548
 2419SOL    HW1 8156   0.584   5.922   4.643
 2419SOL    HW2 8157   0.614   5.980   4.493
 2420SOL     OW 8158   3.755   1.620   1.556
 2420SOL    HW1 8159   3.780   1.537   1.607
 2420SOL    HW2 8160   3.665   1.652   1.586
 2421SOL     OW 8161   2.768   1.408   5.230
 2421SOL    HW1 8162   2.765   1.400   5.329
 2421SOL    HW2 8163   2.795   1.501   5.205
 2422SOL     OW 8164   5.897   0.017   1.596
 2422SOL    HW1 8165   5.898   6.946   1.550
 2422SOL    HW2 8166   5.991   0.045   1.615
 2423SOL     OW 8167   1.362   6.393   3.614
 2423SOL    HW1 8168   1.451   6.349   3.604
 2423SOL    HW2 8169   1.305   6.372   3.535
 2424SOL     OW 8170   5.996   6.440   6.142
 2424SOL    HW1 8171   5.983   6.462   6.238
 2424SOL    HW2 8172   5.988   6.523   6.087
 2425SOL     OW 8173   6.552   0.363   3.849
 2425SOL    HW1 8174   6.453   0.354   3.864
 2425SOL    HW2 8175   6.596   0.275   3.865
 2426SOL     OW 8176   1.056   5.396   4.561
 2426SOL    HW1 8177   0.986   5.463   4.541
 2426SOL    HW2 8178   1.137   5.414   4.505
 2427SOL     OW 8179   5.313   5.491   6.555
 2427SOL    HW1 8180   5.409   5.518   6.549
 2427SOL    HW2 8181   5.260   5.542   6.487
 2428SOL     OW 8182   6.139   0.928   3.388
 2428SOL    HW1 8183   6.043   0.918   3.417
 2428SOL    HW2 8184   6.163   1.025   3.387
 2429SOL     OW 8185   6.388   5.297   4.132
 2429SOL    HW1 8186   6.333   5.365   4.182
 2429SOL    HW2 8187   6.484   5.309   4.154
 2430SOL     OW 8188   6.244   1.590   0.915
 2430SOL    HW1 8189   6.265   1.503   0.870
 2430SOL    HW2 8190   6.171   1.576   0.982
 2431SOL     OW 8191   3.993   0.476   2.139
 2431SOL    HW1 8192   4.036   0.458   2.228
 2431SOL    HW2 8193   3.936   0.559   2.146
 2432SOL     OW 8194   3.192   6.989   2.878
 2432SOL    HW1 8195   3.174   6.991   2.976
 2432SOL    HW2 8196   3.116   0.014   2.829
 2433SOL     OW 8197   3.163   0.280   1.035
 2433SOL    HW1 8198   3.084   0.342   1.043
 2433SOL    HW2 8199   3.222   0.311   0.961
 2434SOL     OW 8200   4.191   1.130   4.279
 2434SOL    HW1 8201   4.102   1.086   4.292
 2434SOL    HW2 8202   4.207   1.197   4.352
 2435SOL     OW 8203   4.180   5.077   5.996
 2435SOL    HW1 8204   4.205   4.981   5.984
 2435SOL    HW2 8205   4.132   5.110   5.915
 2436SOL     OW 8206   1.919   6.868   2.147
 2436SOL    HW1 8207   1.893   6.783   2.101
 2436SOL    HW2 8208   1.838   6.922   2.166
 2437SOL     OW 8209   4.453   5.840   0.755
 2437SOL    HW1 8210   4.447   5.748   0.718
 2437SOL    HW2 8211   4.388   5.899   0.708
 2438SOL     OW 8212   3.451   1.504   6.132
 2438SOL    HW1 8213   3.429   1.427   6.192
 2438SOL    HW2 8214   3.538   1.487   6.086
 2439SOL     OW 8215   0.712   4.352   6.558
 2439SOL    HW1 8216   0.620   4.367   6.522
 2439SOL    HW2 8217   0.709   4.354   6.658
 2440SOL     OW 8218   4.968   6.185   5.424
 2440SOL    HW1 8219   5.043   6.246   5.400
 2440SOL    HW2 8220   4.997   6.123   5.497
 2441SOL     OW 8221   6.740   7.006   0.403
 2441SOL    HW1 8222   6.685   0.028   0.330
 2441SOL    HW2 8223   6.835   0.017   0.392
 2442SOL     OW 8224   6.520   5.020   4.547
 2442SOL    HW1 8225   6.445   5.078   4.517
 2442SOL    HW2 8226   6.544   4.956   4.473
 2443SOL     OW 8227   3.998   6.399   5.466
 2443SOL    HW1 8228   4.030   6.467   5.400
 2443SOL    HW2 8229   4.009   6.434   5.559
 2444SOL     OW 8230   3.026   4.194   5.966
 2444SOL    HW1 8231   2.994   4.185   5.871
 2444SOL    HW2 8232   3.126   4.193   5.967
 2445SOL     OW 8233   0.580   0.664   1.907
 2445SOL    HW1 8234   0.502   0.725   1.924
 2445SOL    HW2 8235   0.664   0.709   1.938
 2446SOL     OW 8236   0.364   4.279   3.596
 2446SOL    HW1 8237   0.363   4.322   3.506
 2446SOL    HW2 8238   0.314   4.192   3.593
 2447SOL     OW 8239   2.827   1.744   0.887
 2447SOL    HW1 8240   2.859   1.752   0.981
 2447SOL    HW2 8241   2.880   1.805   0.828
 2448SOL     OW 8242   6.654   0.947   5.456
 2448SOL    HW1 8243   6.711   0.876   5.416
 2448SOL    HW2 8244   6.624   0.920   5.547
 2449SOL     OW 8245   0.433   5.050   1.179
 2449SOL    HW1 8246   0.344   5.075   1.140
 2449SOL    HW2 8247   0.419   4.993   1.260
 2450SOL     OW 8248   2.762   4.756   4.538
 2450SOL    HW1 8249   2.701   4.688   4.496
 2450SOL    HW2 8250   2.735   4.769   4.634
 2451SOL     OW 8251   0.578   0.232   3.295
 2451SOL    HW1 8252   0.550   0.287   3.216
 2451SOL    HW2 8253   0.677   0.219   3.293
 2452SOL     OW 8254   1.630   2.753   2.755
 2452SOL    HW1 8255   1.729   2.749   2.772
 2452SOL    HW2 8256   1.612   2.742   2.658
 2453SOL     OW 8257   6.433   3.707   0.646
 2453SOL    HW1 8258   6.484   3.644   0.588
 2453SOL    HW2 8259   6.398   3.783   0.591
 2454SOL     OW 8260   3.795   1.484   0.355
 2454SOL    HW1 8261   3.810   1.402   0.410
 2454SOL    HW2 8262   3.880   1.510   0.309
 2455SOL     OW 8263   5.488   6.615   0.960
 2455SOL    HW1 8264   5.435   6.556   1.020
 2455SOL    HW2 8265   5.427   6.678   0.912
 2456SOL     OW 8266   6.113   0.198   0.525
 2456SOL    HW1 8267   6.119   0.219   0.427
 2456SOL    HW2 8268   6.045   0.258   0.567
 2457SOL     OW 8269   6.734   6.109   0.566
 2457SOL    HW1 8270   6.767   6.041   0.631
 2457SOL    HW2 8271   6.645   6.143   0.595
 2458SOL     OW 8272   2.768   5.768   3.740
 2458SOL    HW1 8273   2.721   5.699   3.795
 2458SOL    HW2 8274   2.867   5.755   3.747
 2459SOL     OW 8275   2.651   6.858   0.549
 2459SOL    HW1 8276   2.607   6.910   0.623
 2459SOL    HW2 8277   2.581   6.808   0.498
 2460SOL     OW 8278   2.158   0.656   1.327
 2460SOL    HW1 8279   2.188   0.746   1.361
 2460SOL    HW2 8280   2.182   0.648   1.230
 2461SOL     OW 8281   4.902   0.870   2.511
 2461SOL    HW1 8282   4.921   0.778   2.477
 2461SOL    HW2 8283   4.840   0.864   2.590
 2462SOL     OW 8284   2.139   5.890   6.884
 2462SOL    HW1 8285   2.065   5.859   6.945
 2462SOL    HW2 8286   2.099   5.935   6.804
 2463SOL     OW 8287   5.741   2.601   3.755
 2463SOL    HW1 8288   5.648   2.567   3.770
 2463SOL    HW2 8289   5.785   2.549   3.682
 2464SOL     OW 8290   1.521   4.935   1.440
 2464SOL    HW1 8291   1.546   5.021   1.484
 2464SOL    HW2 8292   1.593   4.908   1.377
 2465SOL     OW 8293   6.754   5.659   0.937
 2465SOL    HW1 8294   6.730   5.609   0.854
 2465SOL    HW2 8295   6.757   5.596   1.014
 2466SOL     OW 8296   3.267   0.900   1.345
 2466SOL    HW1 8297   3.312   0.815   1.374
 2466SOL    HW2 8298   3.337   0.971   1.332
 2467SOL     OW 8299   5.349   1.667   5.549
 2467SOL    HW1 8300   5.438   1.683   5.591
 2467SOL    HW2 8301   5.291   1.747   5.561
 2468SOL     OW 8302   6.323   6.217   2.053
 2468SOL    HW1 8303   6.378   6.139   2.083
 2468SOL    HW2 8304   6.247   6.232   2.117
 2469SOL     OW 8305   3.434   4.769   5.246
 2469SOL    HW1 8306   3.381   4.692   5.283
 2469SOL    HW2 8307   3.515   4.734   5.200
 2470SOL     OW 8308   3.114   4.060   6.229
 2470SOL    HW1 8309   3.096   3.971   6.186
 2470SOL    HW2 8310   3.076   4.132   6.172
 2471SOL     OW 8311   2.335   6.546   1.723
 2471SOL    HW1 8312   2.375   6.570   1.635
 2471SOL    HW2 8313   2.299   6.453   1.720
 2472SOL     OW 8314   5.794   1.226   4.705
 2472SOL    HW1 8315   5.890   1.221   4.732
 2472SOL    HW2 8316   5.774   1.319   4.674
 2473SOL     OW 8317   1.927   3.964   4.478
 2473SOL    HW1 8318   1.856   3.902   4.512
 2473SOL    HW2 8319   2.010   3.954   4.534
 2474SOL     OW 8320   0.019   5.603   0.411
 2474SOL    HW1 8321   0.062   5.516   0.433
 2474SOL    HW2 8322   0.082   5.659   0.357
 2475SOL     OW 8323   4.458   1.969   1.171
 2475SOL    HW1 8324   4.503   1.892   1.217
 2475SOL    HW2 8325   4.368   1.941   1.140
 2476SOL     OW 8326   0.445   2.528   3.452
 2476SOL    HW1 8327   0.412   2.603   3.510
 2476SOL    HW2 8328   0.370   2.496   3.394
 2477SOL     OW 8329   6.160   0.370   1.851
 2477SOL    HW1 8330   6.132   0.287   1.899
 2477SOL    HW2 8331   6.249   0.400   1.884
 2478SOL     OW 8332   5.445   6.482   2.653
 2478SOL    HW1 8333   5.454   6.553   2.584
 2478SOL    HW2 8334   5.362   6.428   2.635
 2479SOL     OW 8335   0.774   3.582   1.616
 2479SOL    HW1 8336   0.748   3.516   1.687
 2479SOL    HW2 8337   0.723   3.563   1.532
 2480SOL     OW 8338   6.312   3.391   0.992
 2480SOL    HW1 8339   6.256   3.309   1.005
 2480SOL    HW2 8340   6.253   3.472   0.988
 2481SOL     OW 8341   3.790   6.469   0.231
 2481SOL    HW1 8342   3.814   6.535   0.160
 2481SOL    HW2 8343   3.837   6.383   0.213
 2482SOL     OW 8344   4.910   2.928   5.581
 2482SOL    HW1 8345   4.948   2.851   5.529
 2482SOL    HW2 8346   4.868   2.893   5.665
 2483SOL     OW 8347   2.119   1.469   0.890
 2483SOL    HW1 8348   2.034   1.520   0.884
 2483SOL    HW2 8349   2.194   1.524   0.852
 2484SOL     OW 8350   1.988   0.892   0.679
 2484SOL    HW1 8351   1.960   0.852   0.766
 2484SOL    HW2 8352   2.040   0.825   0.626
 2485SOL     OW 8353   4.602   5.154   2.592
 2485SOL    HW1 8354   4.679   5.200   2.635
 2485SOL    HW2 8355   4.532   5.134   2.660
 2486SOL     OW 8356   2.461   6.068   2.916
 2486SOL    HW1 8357   2.414   6.002   2.858
 2486SOL    HW2 8358   2.553   6.035   2.937
 2487SOL     OW 8359   4.009   5.955   0.445
 2487SOL    HW1 8360   4.089   5.907   0.409
 2487SOL    HW2 8361   3.939   5.889   0.471
 2488SOL     OW 8362   2.329   4.324   1.583
 2488SOL    HW1 8363   2.251   4.269   1.614
 2488SOL    HW2 8364   2.396   4.264   1.539
 2489SOL     OW 8365   2.379   4.899   4.405
 2489SOL    HW1 8366   2.314   4.950   4.462
 2489SOL    HW2 8367   2.391   4.947   4.318
 2490SOL     OW 8368   6.638   5.287   1.106
 2490SOL    HW1 8369   6.666   5.260   1.198
 2490SOL    HW2 8370   6.602   5.381   1.108
 2491SOL     OW 8371   2.178   5.784   2.952
 2491SOL    HW1 8372   2.144   5.725   3.026
 2491SOL    HW2 8373   2.276   5.770   2.941
 2492SOL     OW 8374   3.829   2.974   6.545
 2492SOL    HW1 8375   3.791   2.923   6.467
 2492SOL    HW2 8376   3.889   2.915   6.598
 2493SOL     OW 8377   5.864   0.292   2.938
 2493SOL    HW1 8378   5.908   0.324   2.854
 2493SOL    HW2 8379   5.873   0.193   2.945
 2494SOL     OW 8380   5.265   2.991   2.600
 2494SOL    HW1 8381   5.201   3.061   2.569
 2494SOL    HW2 8382   5.277   2.922   2.529
 2495SOL     OW 8383   4.918   0.650   5.408
 2495SOL    HW1 8384   4.843   0.717   5.411
 2495SOL    HW2 8385   4.940   0.630   5.312
 2496SOL     OW 8386   0.464   5.065   0.177
 2496SOL    HW1 8387   0.515   5.124   0.113
 2496SOL    HW2 8388   0.459   5.110   0.266
 2497SOL     OW 8389   0.609   2.241   6.584
 2497SOL    HW1 8390   0.531   2.278   6.633
 2497SOL    HW2 8391   0.635   2.304   6.511
 2498SOL     OW 8392   2.172   2.553   3.610
 2498SOL    HW1 8393   2.111   2.609   3.554
 2498SOL    HW2 8394   2.132   2.462   3.623
 2499SOL     OW 8395   5.714   0.501   4.394
 2499SOL    HW1 8396   5.660   0.539   4.470
 2499SOL    HW2 8397   5.668   0.421   4.357
 2500SOL     OW 8398   4.399   3.947   5.309
 2500SOL    HW1 8399   4.374   3.853   5.285
 2500SOL    HW2 8400   4.498   3.953   5.321
 2501SOL     OW 8401   6.325   4.620   6.852
 2501SOL    HW1 8402   6.349   4.690   6.919
 2501SOL    HW2 8403   6.290   4.664   6.769
 2502SOL     OW 8404   2.753   6.404   3.461
 2502SOL    HW1 8405   2.715   6.332   3.403
 2502SOL    HW2 8406   2.852   6.394   3.466
 2503SOL     OW 8407   3.958   6.039   5.386
 2503SOL    HW1 8408   3.879   6.023   5.445
 2503SOL    HW2 8409   4.026   5.967   5.399
 2504SOL     OW 8410   2.692   5.503   5.063
 2504SOL    HW1 8411   2.709   5.504   5.162
 2504SOL    HW2 8412   2.693   5.409   5.030
 2505SOL     OW 8413   3.352   6.251   4.638
 2505SOL    HW1 8414   3.351   6.345   4.672
 2505SOL    HW2 8415   3.259   6.213   4.642
 2506SOL     OW 8416   6.868   3.267   6.163
 2506SOL    HW1 8417   6.959   3.225   6.158
 2506SOL    HW2 8418   6.877   3.366   6.167
 2507SOL     OW 8419   6.234   5.073   0.096
 2507SOL    HW1 8420   6.214   5.155   0.043
 2507SOL    HW2 8421   6.149   5.029   0.123
 2508SOL     OW 8422   2.866   1.951   2.089
 2508SOL    HW1 8423   2.842   1.988   1.999
 2508SOL    HW2 8424   2.917   2.020   2.140
 2509SOL     OW 8425   5.358   2.104   2.515
 2509SOL    HW1 8426   5.335   2.128   2.609
 2509SOL    HW2 8427   5.376   2.006   2.509
 2510SOL     OW 8428   2.536   4.286   0.680
 2510SOL    HW1 8429   2.483   4.201   0.676
 2510SOL    HW2 8430   2.479   4.362   0.650
 2511SOL     OW 8431   1.398   1.551   4.633
 2511SOL    HW1 8432   1.338   1.477   4.601
 2511SOL    HW2 8433   1.454   1.583   4.556
 2512SOL     OW 8434   5.753   4.332   5.063
 2512SOL    HW1 8435   5.794   4.288   5.143
 2512SOL    HW2 8436   5.798   4.420   5.048
 2513SOL     OW 8437   1.180   2.232   5.954
 2513SOL    HW1 8438   1.175   2.328   5.982
 2513SOL    HW2 8439   1.275   2.210   5.932
 2514SOL     OW 8440   7.002   2.654   3.757
 2514SOL    HW1 8441   0.041   2.698   3.826
 2514SOL    HW2 8442   0.039   2.586   3.707
 2515SOL     OW 8443   1.365   6.713   1.035
 2515SOL    HW1 8444   1.276   6.684   0.999
 2515SOL    HW2 8445   1.352   6.789   1.097
 2516SOL     OW 8446   5.899   5.473   3.295
 2516SOL    HW1 8447   5.882   5.555   3.241
 2516SOL    HW2 8448   5.835   5.401   3.268
 2517SOL     OW 8449   2.159   5.018   6.325
 2517SOL    HW1 8450   2.111   4.969   6.253
 2517SOL    HW2 8451   2.226   4.957   6.368
 2518SOL     OW 8452   2.095   2.975   6.940
 2518SOL    HW1 8453   2.194   2.982   6.936
 2518SOL    HW2 8454   2.068   2.879   6.951
 2519SOL     OW 8455   4.718   5.008   4.188
 2519SOL    HW1 8456   4.812   5.041   4.185
 2519SOL    HW2 8457   4.715   4.910   4.169
 2520SOL     OW 8458   1.787   2.648   1.001
 2520SOL    HW1 8459   1.794   2.604   1.091
 2520SOL    HW2 8460   1.844   2.599   0.935
 2521SOL     OW 8461   0.982   0.053   5.812
 2521SOL    HW1 8462   1.007   6.975   5.828
 2521SOL    HW2 8463   1.003   0.107   5.893
 2522SOL     OW 8464   0.906   3.162   4.397
 2522SOL    HW1 8465   0.946   3.200   4.480
 2522SOL    HW2 8466   0.870   3.070   4.417
 2523SOL     OW 8467   6.967   3.133   0.736
 2523SOL    HW1 8468   6.950   3.038   0.710
 2523SOL    HW2 8469   0.040   3.140   0.776
 2524SOL     OW 8470   0.139   6.309   4.503
 2524SOL    HW1 8471   0.158   6.293   4.600
 2524SOL    HW2 8472   0.140   6.223   4.454
 2525SOL     OW 8473   1.512   3.213   4.419
 2525SOL    HW1 8474   1.550   3.192   4.328
 2525SOL    HW2 8475   1.564   3.288   4.460
 2526SOL     OW 8476   0.500   3.169   5.512
 2526SOL    HW1 8477   0.550   3.089   5.544
 2526SOL    HW2 8478   0.528   3.190   5.418
 2527SOL     OW 8479   6.223   6.833   5.651
 2527SOL    HW1 8480   6.182   6.836   5.560
 2527SOL    HW2 8481   6.174   6.896   5.712
 2528SOL     OW 8482   5.501   5.029   1.220
 2528SOL    HW1 8483   5.459   4.942   1.248
 2528SOL    HW2 8484   5.597   5.013   1.197
 2529SOL     OW 8485   5.300   4.660   6.239
 2529SOL    HW1 8486   5.223   4.673   6.302
 2529SOL    HW2 8487   5.359   4.740   6.243
 2530SOL     OW 8488   0.818   6.110   4.462
 2530SOL    HW1 8489   0.889   6.181   4.470
 2530SOL    HW2 8490   0.748   6.125   4.531
 2531SOL     OW 8491   5.647   6.880   4.915
 2531SOL    HW1 8492   5.650   6.785   4.885
 2531SOL    HW2 8493   5.556   6.900   4.952
 2532SOL     OW 8494   0.555   5.726   0.540
 2532SOL    HW1 8495   0.587   5.680   0.457
 2532SOL    HW2 8496   0.628   5.784   0.576
 2533SOL     OW 8497   5.197   6.591   5.183
 2533SOL    HW1 8498   5.136   6.567   5.107
 2533SOL    HW2 8499   5.203   6.691   5.190
 2534SOL     OW 8500   2.356   0.651   2.942
 2534SOL    HW1 8501   2.344   0.606   3.030
 2534SOL    HW2 8502   2.267   0.658   2.896
 2535SOL     OW 8503   1.873   1.800   6.185
 2535SOL    HW1 8504   1.884   1.715   6.134
 2535SOL    HW2 8505   1.962   1.832   6.217
 2536SOL     OW 8506   6.846   1.659   3.515
 2536SOL    HW1 8507   6.776   1.630   3.449
 2536SOL    HW2 8508   6.895   1.579   3.549
 2537SOL     OW 8509   5.172   6.444   0.777
 2537SOL    HW1 8510   5.158   6.388   0.859
 2537SOL    HW2 8511   5.248   6.406   0.724
 2538SOL     OW 8512   2.010   4.326   4.800
 2538SOL    HW1 8513   2.107   4.310   4.817
 2538SOL    HW2 8514   1.997   4.361   4.708
 2539SOL     OW 8515   4.347   6.947   5.329
 2539SOL    HW1 8516   4.253   6.919   5.308
 2539SOL    HW2 8517   4.386   6.884   5.396
 2540SOL     OW 8518   5.676   1.286   1.467
 2540SOL    HW1 8519   5.694   1.323   1.376
 2540SOL    HW2 8520   5.674   1.186   1.462
 2541SOL     OW 8521   1.529   0.453   5.446
 2541SOL    HW1 8522   1.515   0.544   5.408
 2541SOL    HW2 8523   1.446   0.398   5.436
 2542SOL     OW 8524   3.994   2.005   4.138
 2542SOL    HW1 8525   3.981   1.984   4.235
 2542SOL    HW2 8526   3.919   2.064   4.107
 2543SOL     OW 8527   1.423   0.581   2.804
 2543SOL    HW1 8528   1.416   0.594   2.903
 2543SOL    HW2 8529   1.341   0.535   2.771
 2544SOL     OW 8530   0.660   5.127   2.095
 2544SOL    HW1 8531   0.693   5.214   2.057
 2544SOL    HW2 8532   0.732   5.085   2.150
 2545SOL     OW 8533   1.707   1.309   1.449
 2545SOL    HW1 8534   1.664   1.229   1.408
 2545SOL    HW2 8535   1.681   1.390   1.397
 2546SOL     OW 8536   6.802   3.130   1.145
 2546SOL    HW1 8537   6.784   3.152   1.049
 2546SOL    HW2 8538   6.868   3.196   1.182
 2547SOL     OW 8539   5.452   5.295   0.953
 2547SOL    HW1 8540   5.454   5.306   0.853
 2547SOL    HW2 8541   5.545   5.301   0.989
 2548SOL     OW 8542   2.200   0.460   4.983
 2548SOL    HW1 8543   2.280   0.400   4.986
 2548SOL    HW2 8544   2.168   0.466   4.888
 2549SOL     OW 8545   2.355   2.839   1.384
 2549SOL    HW1 8546   2.350   2.837   1.484
 2549SOL    HW2 8547   2.373   2.747   1.349
 2550SOL     OW 8548   5.497   0.316   6.674
 2550SOL    HW1 8549   5.511   0.400   6.622
 2550SOL    HW2 8550   5.419   0.266   6.637
 2551SOL     OW 8551   4.031   5.203   7.006
 2551SOL    HW1 8552   4.102   5.254   6.956
 2551SOL    HW2 8553   4.013   5.249   0.075
 2552SOL     OW 8554   2.246   5.372   6.716
 2552SOL    HW1 8555   2.217   5.371   6.812
 2552SOL    HW2 8556   2.248   5.278   6.681
 2553SOL     OW 8557   3.423   2.794   5.979
 2553SOL    HW1 8558   3.374   2.838   5.905
 2553SOL    HW2 8559   3.402   2.696   5.980
 2554SOL     OW 8560   1.466   5.919   6.655
 2554SOL    HW1 8561   1.485   5.833   6.702
 2554SOL    HW2 8562   1.505   5.917   6.563
 2555SOL     OW 8563   6.133   5.997   6.900
 2555SOL    HW1 8564   6.042   6.023   6.869
 2555SOL    HW2 8565   6.157   5.907   6.862
 2556SOL     OW 8566   4.018   0.284   1.496
 2556SOL    HW1 8567   4.078   0.318   1.424
 2556SOL    HW2 8568   3.996   0.188   1.478
 2557SOL     OW 8569   2.710   1.153   0.115
 2557SOL    HW1 8570   2.788   1.215   0.116
 2557SOL    HW2 8571   2.683   1.135   0.021
 2558SOL     OW 8572   4.714   3.734   5.945
 2558SOL    HW1 8573   4.745   3.816   5.897
 2558SOL    HW2 8574   4.633   3.697   5.899
 2559SOL     OW 8575   6.834   3.206   3.806
 2559SOL    HW1 8576   6.811   3.127   3.749
 2559SOL    HW2 8577   6.817   3.184   3.902
 2560SOL     OW 8578   5.152   3.554   3.509
 2560SOL    HW1 8579   5.125   3.465   3.471
 2560SOL    HW2 8580   5.085   3.582   3.578
 2561SOL     OW 8581   3.865   1.449   2.874
 2561SOL    HW1 8582   3.796   1.444   2.947
 2561SOL    HW2 8583   3.866   1.541   2.836
 2562SOL     OW 8584   3.276   5.839   3.211
 2562SOL    HW1 8585   3.281   5.791   3.123
 2562SOL    HW2 8586   3.201   5.801   3.265
 2563SOL     OW 8587   3.472   1.594   6.544
 2563SOL    HW1 8588   3.433   1.681   6.515
 2563SOL    HW2 8589   3.572   1.600   6.542
 2564SOL     OW 8590   1.840   6.876   0.593
 2564SOL    HW1 8591   1.911   6.819   0.551
 2564SOL    HW2 8592   1.753   6.860   0.547
 2565SOL     OW 8593   0.155   1.281   6.761
 2565SOL    HW1 8594   0.060   1.289   6.730
 2565SOL    HW2 8595   0.165   1.198   6.816
 2566SOL     OW 8596   2.766   6.610   1.594
 2566SOL    HW1 8597   2.711   6.533   1.626
 2566SOL    HW2 8598   2.817   6.648   1.671
 2567SOL     OW 8599   1.510   1.091   1.060
 2567SOL    HW1 8600   1.453   1.009   1.065
 2567SOL    HW2 8601   1.605   1.065   1.044
 2568SOL     OW 8602   3.127   6.874   0.699
 2568SOL    HW1 8603   3.103   6.831   0.786
 2568SOL    HW2 8604   3.104   6.972   0.703
 2569SOL     OW 8605   2.903   2.115   1.883
 2569SOL    HW1 8606   2.981   2.091   1.825
 2569SOL    HW2 8607   2.925   2.196   1.937
 2570SOL     OW 8608   5.098   6.152   6.274
 2570SOL    HW1 8609   5.026   6.175   6.340
 2570SOL    HW2 8610   5.105   6.224   6.205
 2571SOL     OW 8611   3.295   2.925   4.461
 2571SOL    HW1 8612   3.344   2.913   4.548
 2571SOL    HW2 8613   3.246   3.012   4.463
 2572SOL     OW 8614   2.561   6.080   1.402
 2572SOL    HW1 8615   2.574   5.984   1.375
 2572SOL    HW2 8616   2.596   6.140   1.331
 2573SOL     OW 8617   6.509   2.258   3.621
 2573SOL    HW1 8618   6.489   2.163   3.646
 2573SOL    HW2 8619   6.514   2.266   3.521
 2574SOL     OW 8620   6.168   3.225   0.743
 2574SOL    HW1 8621   6.191   3.319   0.768
 2574SOL    HW2 8622   6.250   3.179   0.708
 2575SOL     OW 8623   5.542   3.839   1.230
 2575SOL    HW1 8624   5.483   3.779   1.177
 2575SOL    HW2 8625   5.626   3.791   1.254
 2576SOL     OW 8626   3.482   0.241   3.841
 2576SOL    HW1 8627   3.427   0.172   3.793
 2576SOL    HW2 8628   3.570   0.251   3.794
 2577SOL     OW 8629   4.826   0.581   3.638
 2577SOL    HW1 8630   4.897   0.511   3.648
 2577SOL    HW2 8631   4.776   0.591   3.724
 2578SOL     OW 8632   5.182   2.968   5.122
 2578SOL    HW1 8633   5.100   3.024   5.119
 2578SOL    HW2 8634   5.245   3.004   5.191
 2579SOL     OW 8635   1.019   1.548   5.522
 2579SOL    HW1 8636   1.073   1.489   5.461
 2579SOL    HW2 8637   1.017   1.640   5.485
 2580SOL     OW 8638   2.147   2.755   5.725
 2580SOL    HW1 8639   2.152   2.667   5.679
 2580SOL    HW2 8640   2.236   2.777   5.765
 2581SOL     OW 8641   5.614   4.592   1.786
 2581SOL    HW1 8642   5.711   4.615   1.777
 2581SOL    HW2 8643   5.563   4.673   1.817
 2582SOL     OW 8644   2.083   4.444   3.193
 2582SOL    HW1 8645   2.109   4.531   3.235
 2582SOL    HW2 8646   2.143   4.371   3.227
 2583SOL     OW 8647   1.098   0.737   1.116
 2583SOL    HW1 8648   1.018   0.761   1.171
 2583SOL    HW2 8649   1.078   0.754   1.019
 2584SOL     OW 8650   4.196   6.303   0.958
 2584SOL    HW1 8651   4.238   6.336   1.043
 2584SOL    HW2 8652   4.242   6.345   0.880
 2585SOL     OW 8653   2.955   0.549   0.383
 2585SOL    HW1 8654   2.874   0.491   0.393
 2585SOL    HW2 8655   2.927   0.645   0.378
 2586SOL     OW 8656   5.544   1.611   4.909
 2586SOL    HW1 8657   5.531   1.655   4.820
 2586SOL    HW2 8658   5.599   1.670   4.968
 2587SOL     OW 8659   6.562   0.163   4.641
 2587SOL    HW1 8660   6.514   0.240   4.682
 2587SOL    HW2 8661   6.653   0.192   4.610
 2588SOL     OW 8662   4.867   6.846   0.711
 2588SOL    HW1 8663   4.864   6.746   0.719
 2588SOL    HW2 8664   4.778   6.883   0.736
 2589SOL     OW 8665   0.260   6.925   5.327
 2589SOL    HW1 8666   0.270   6.842   5.380
 2589SOL    HW2 8667   0.261   6.903   5.229
 2590SOL     OW 8668   3.861   0.296   2.894
 2590SOL    HW1 8669   3.824   0.315   2.985
 2590SOL    HW2 8670   3.961   0.286   2.901
 2591SOL     OW 8671   5.898   5.958   2.321
 2591SOL    HW1 8672   5.844   5.920   2.245
 2591SOL    HW2 8673   5.851   5.941   2.407
 2592SOL     OW 8674   3.010   6.557   1.784
 2592SOL    HW1 8675   3.015   6.494   1.706
 2592SOL    HW2 8676   3.102   6.591   1.805
 2593SOL     OW 8677   3.550   6.750   2.197
 2593SOL    HW1 8678   3.590   6.764   2.106
 2593SOL    HW2 8679   3.485   6.674   2.193
 2594SOL     OW 8680   0.488   6.647   6.090
 2594SOL    HW1 8681   0.423   6.687   6.155
 2594SOL    HW2 8682   0.529   6.720   6.035
 2595SOL     OW 8683   0.026   2.059   5.447
 2595SOL    HW1 8684   0.026   2.043   5.348
 2595SOL    HW2 8685   0.098   2.123   5.470
 2596SOL     OW 8686   3.791   2.304   1.627
 2596SOL    HW1 8687   3.727   2.328   1.701
 2596SOL    HW2 8688   3.874   2.359   1.636
 2597SOL     OW 8689   2.057   3.900   0.742
 2597SOL    HW1 8690   2.039   3.993   0.774
 2597SOL    HW2 8691   2.133   3.861   0.794
 2598SOL     OW 8692   5.893   2.916   4.571
 2598SOL    HW1 8693   5.813   2.859   4.592
 2598SOL    HW2 8694   5.915   2.907   4.474
 2599SOL     OW 8695   3.575   5.611   6.968
 2599SOL    HW1 8696   3.558   5.567   0.038
 2599SOL    HW2 8697   3.667   5.650   6.967
 2600SOL     OW 8698   4.938   3.503   4.080
 2600SOL    HW1 8699   4.945   3.462   4.171
 2600SOL    HW2 8700   4.884   3.444   4.020
 2601SOL     OW 8701   3.520   2.342   6.538
 2601SOL    HW1 8702   3.575   2.296   6.608
 2601SOL    HW2 8703   3.559   2.433   6.521
 2602SOL     OW 8704   6.825   4.784   3.534
 2602SOL    HW1 8705   6.727   4.772   3.550
 2602SOL    HW2 8706   6.870   4.804   3.621
 2603SOL     OW 8707   2.851   2.012   1.491
 2603SOL    HW1 8708   2.910   2.027   1.570
 2603SOL    HW2 8709   2.809   2.098   1.464
 2604SOL     OW 8710   4.992   1.338   1.613
 2604SOL    HW1 8711   4.905   1.370   1.575
 2604SOL    HW2 8712   5.062   1.408   1.600
 2605SOL     OW 8713   3.828   4.965   3.358
 2605SOL    HW1 8714   3.843   5.054   3.315
 2605SOL    HW2 8715   3.835   4.974   3.457
 2606SOL     OW 8716   6.349   4.949   0.655
 2606SOL    HW1 8717   6.343   4.893   0.737
 2606SOL    HW2 8718   6.404   5.030   0.674
 2607SOL     OW 8719   0.454   1.973   5.434
 2607SOL    HW1 8720   0.464   1.962   5.533
 2607SOL    HW2 8721   0.460   2.070   5.411
 2608SOL     OW 8722   4.756   6.261   3.028
 2608SOL    HW1 8723   4.839   6.211   3.003
 2608SOL    HW2 8724   4.683   6.239   2.963
 2609SOL     OW 8725   0.897   2.163   0.893
 2609SOL    HW1 8726   0.805   2.196   0.874
 2609SOL    HW2 8727   0.944   2.227   0.954
 2610SOL     OW 8728   6.674   5.235   4.632
 2610SOL    HW1 8729   6.749   5.223   4.568
 2610SOL    HW2 8730   6.609   5.160   4.623
 2611SOL     OW 8731   6.363   6.711   0.907
 2611SOL    HW1 8732   6.309   6.679   0.829
 2611SOL    HW2 8733   6.355   6.811   0.915
 2612SOL     OW 8734   6.615   6.517   5.018
 2612SOL    HW1 8735   6.676   6.461   4.962
 2612SOL    HW2 8736   6.628   6.614   4.994
 2613SOL     OW 8737   3.194   6.895   2.141
 2613SOL    HW1 8738   3.095   6.876   2.145
 2613SOL    HW2 8739   3.229   6.910   2.233
 2614SOL     OW 8740   6.439   6.112   5.955
 2614SOL    HW1 8741   6.522   6.118   5.899
 2614SOL    HW2 8742   6.360   6.143   5.902
 2615SOL     OW 8743   5.370   5.008   3.163
 2615SOL    HW1 8744   5.291   5.067   3.150
 2615SOL    HW2 8745   5.348   4.915   3.135
 2616SOL     OW 8746   3.833   3.572   3.937
 2616SOL    HW1 8747   3.925   3.601   3.966
 2616SOL    HW2 8748   3.811   3.484   3.980
 2617SOL     OW 8749   3.260   6.308   1.083
 2617SOL    HW1 8750   3.258   6.397   1.130
 2617SOL    HW2 8751   3.170   6.290   1.043
 2618SOL     OW 8752   0.133   6.559   3.950
 2618SOL    HW1 8753   0.153   6.467   3.984
 2618SOL    HW2 8754   0.037   6.564   3.921
 2619SOL     OW 8755   3.234   1.120   2.918
 2619SOL    HW1 8756   3.319   1.088   2.961
 2619SOL    HW2 8757   3.215   1.214   2.947
 2620SOL     OW 8758   0.966   5.777   3.749
 2620SOL    HW1 8759   1.015   5.775   3.661
 2620SOL    HW2 8760   1.019   5.727   3.817
 2621SOL     OW 8761   1.809   5.740   3.647
 2621SOL    HW1 8762   1.883   5.779   3.701
 2621SOL    HW2 8763   1.734   5.712   3.707
 2622SOL     OW 8764   2.353   2.346   6.592
 2622SOL    HW1 8765   2.334   2.279   6.521
 2622SOL    HW2 8766   2.272   2.357   6.650
 2623SOL     OW 8767   3.900   1.788   4.910
 2623SOL    HW1 8768   3.802   1.808   4.911
 2623SOL    HW2 8769   3.914   1.689   4.911
 2624SOL     OW 8770   6.765   3.114   4.040
 2624SOL    HW1 8771   6.759   3.163   4.127
 2624SOL    HW2 8772   6.789   3.019   4.057
 2625SOL     OW 8773   2.538   2.836   5.381
 2625SOL    HW1 8774   2.539   2.924   5.333
 2625SOL    HW2 8775   2.491   2.768   5.325
 2626SOL     OW 8776   0.430   0.080   4.149
 2626SOL    HW1 8777   0.435   0.015   4.073
 2626SOL    HW2 8778   0.344   0.067   4.198
 2627SOL     OW 8779   0.406   0.959   4.009
 2627SOL    HW1 8780   0.383   0.892   3.938
 2627SOL    HW2 8781   0.488   0.928   4.058
 2628SOL     OW 8782   3.606   5.519   6.636
 2628SOL    HW1 8783   3.671   5.461   6.685
 2628SOL    HW2 8784   3.603   5.610   6.680
 2629SOL     OW 8785   3.639   3.745   2.165
 2629SOL    HW1 8786   3.629   3.843   2.183
 2629SOL    HW2 8787   3.550   3.706   2.145
 2630SOL     OW 8788   3.683   1.847   2.311
 2630SOL    HW1 8789   3.736   1.911   2.367
 2630SOL    HW2 8790   3.607   1.895   2.268
 2631SOL     OW 8791   4.493   6.802   3.515
 2631SOL    HW1 8792   4.587   6.825   3.539
 2631SOL    HW2 8793   4.449   6.757   3.593
 2632SOL     OW 8794   2.796   2.232   6.049
 2632SOL    HW1 8795   2.893   2.247   6.072
 2632SOL    HW2 8796   2.787   2.222   5.950
 2633SOL     OW 8797   6.489   2.399   5.985
 2633SOL    HW1 8798   6.459   2.493   5.998
 2633SOL    HW2 8799   6.431   2.354   5.917
 2634SOL     OW 8800   2.104   3.723   3.004
 2634SOL    HW1 8801   2.058   3.742   3.091
 2634SOL    HW2 8802   2.083   3.630   2.974
 2635SOL     OW 8803   5.629   5.866   4.377
 2635SOL    HW1 8804   5.720   5.826   4.370
 2635SOL    HW2 8805   5.580   5.824   4.453
 2636SOL     OW 8806   5.205   0.514   5.969
 2636SOL    HW1 8807   5.162   0.601   5.944
 2636SOL    HW2 8808   5.133   0.445   5.982
 2637SOL     OW 8809   6.340   1.027   3.694
 2637SOL    HW1 8810   6.281   1.106   3.709
 2637SOL    HW2 8811   6.284   0.945   3.682
 2638SOL     OW 8812   6.874   6.909   2.819
 2638SOL    HW1 8813   6.823   6.830   2.786
 2638SOL    HW2 8814   6.916   6.886   2.907
 2639SOL     OW 8815   0.111   6.880   1.886
 2639SOL    HW1 8816   0.036   6.815   1.873
 2639SOL    HW2 8817   0.180   6.866   1.814
 2640SOL     OW 8818   6.903   6.511   5.828
 2640SOL    HW1 8819   6.927   6.574   5.754
 2640SOL    HW2 8820   6.806   6.519   5.849
 2641SOL     OW 8821   5.301   3.050   1.736
 2641SOL    HW1 8822   5.304   3.072   1.834
 2641SOL    HW2 8823   5.381   3.090   1.690
 2642SOL     OW 8824   5.162   0.616   4.605
 2642SOL    HW1 8825   5.089   0.662   4.654
 2642SOL    HW2 8826   5.155   0.517   4.617
 2643SOL     OW 8827   1.127   4.564   3.184
 2643SOL    HW1 8828   1.174   4.646   3.150
 2643SOL    HW2 8829   1.046   4.546   3.127
 2644SOL     OW 8830   0.325   4.267   5.177
 2644SOL    HW1 8831   0.407   4.211   5.174
 2644SOL    HW2 8832   0.244   4.209   5.167
 2645SOL     OW 8833   4.839   6.622   4.815
 2645SOL    HW1 8834   4.851   6.587   4.722
 2645SOL    HW2 8835   4.794   6.711   4.812
 2646SOL     OW 8836   5.972   6.688   6.611
 2646SOL    HW1 8837   5.931   6.686   6.702
 2646SOL    HW2 8838   5.996   6.782   6.587
 2647SOL     OW 8839   5.396   0.939   0.648
 2647SOL    HW1 8840   5.478   0.902   0.606
 2647SOL    HW2 8841   5.409   0.944   0.748
 2648SOL     OW 8842   6.680   7.011   4.101
 2648SOL    HW1 8843   6.707   6.915   4.104
 2648SOL    HW2 8844   6.761   0.051   4.098
 2649SOL     OW 8845   4.348   2.054   6.249
 2649SOL    HW1 8846   4.440   2.058   6.288
 2649SOL    HW2 8847   4.339   1.972   6.193
 2650SOL     OW 8848   0.470   4.124   4.053
 2650SOL    HW1 8849   0.432   4.127   4.145
 2650SOL    HW2 8850   0.401   4.153   3.987
 2651SOL     OW 8851   1.201   1.768   0.438
 2651SOL    HW1 8852   1.205   1.827   0.358
 2651SOL    HW2 8853   1.199   1.672   0.410
 2652SOL     OW 8854   3.113   4.010   3.311
 2652SOL    HW1 8855   3.093   4.080   3.380
 2652SOL    HW2 8856   3.173   3.940   3.350
 2653SOL     OW 8857   5.121   0.001   4.929
 2653SOL    HW1 8858   5.110   0.100   4.921
 2653SOL    HW2 8859   5.055   6.983   4.995
 2654SOL     OW 8860   4.680   3.109   0.202
 2654SOL    HW1 8861   4.646   3.019   0.231
 2654SOL    HW2 8862   4.645   3.179   0.265
 2655SOL     OW 8863   4.717   4.595   4.605
 2655SOL    HW1 8864   4.794   4.627   4.549
 2655SOL    HW2 8865   4.636   4.649   4.584
 2656SOL     OW 8866   4.228   4.896   4.229
 2656SOL    HW1 8867   4.129   4.891   4.236
 2656SOL    HW2 8868   4.254   4.931   4.139
 2657SOL     OW 8869   2.765   4.603   6.561
 2657SOL    HW1 8870   2.718   4.682   6.599
 2657SOL    HW2 8871   2.697   4.535   6.531
 2658SOL     OW 8872   5.357   4.092   0.480
 2658SOL    HW1 8873   5.355   4.084   0.579
 2658SOL    HW2 8874   5.443   4.134   0.452
 2659SOL     OW 8875   6.319   2.210   4.252
 2659SOL    HW1 8876   6.399   2.258   4.286
 2659SOL    HW2 8877   6.346   2.120   4.219
 2660SOL     OW 8878   0.807   1.767   1.143
 2660SOL    HW1 8879   0.709   1.749   1.154
 2660SOL    HW2 8880   0.821   1.830   1.067
 2661SOL     OW 8881   2.214   6.385   2.125
 2661SOL    HW1 8882   2.297   6.441   2.119
 2661SOL    HW2 8883   2.216   6.332   2.210
 2662SOL     OW 8884   4.408   0.465   4.928
 2662SOL    HW1 8885   4.391   0.369   4.905
 2662SOL    HW2 8886   4.505   0.477   4.950
 2663SOL     OW 8887   2.750   4.627   1.066
 2663SOL    HW1 8888   2.711   4.676   1.144
 2663SOL    HW2 8889   2.783   4.537   1.096
 2664SOL     OW 8890   3.982   3.700   3.661
 2664SOL    HW1 8891   3.914   3.638   3.621
 2664SOL    HW2 8892   3.935   3.773   3.712
 2665SOL     OW 8893   3.136   1.870   4.637
 2665SOL    HW1 8894   3.116   1.837   4.730
 2665SOL    HW2 8895   3.139   1.792   4.574
 2666SOL     OW 8896   4.586   3.780   1.444
 2666SOL    HW1 8897   4.622   3.782   1.537
 2666SOL    HW2 8898   4.493   3.817   1.443
 2667SOL     OW 8899   1.830   5.829   4.761
 2667SOL    HW1 8900   1.769   5.859   4.688
 2667SOL    HW2 8901   1.807   5.735   4.787
 2668SOL     OW 8902   6.659   3.171   3.365
 2668SOL    HW1 8903   6.750   3.132   3.353
 2668SOL    HW2 8904   6.654   3.260   3.321
 2669SOL     OW 8905   2.694   5.047   5.176
 2669SOL    HW1 8906   2.677   5.060   5.274
 2669SOL    HW2 8907   2.734   4.956   5.161
 2670SOL     OW 8908   6.122   0.898   6.465
 2670SOL    HW1 8909   6.164   0.851   6.388
 2670SOL    HW2 8910   6.165   0.988   6.476
 2671SOL     OW 8911   3.269   5.201   0.497
 2671SOL    HW1 8912   3.238   5.137   0.428
 2671SOL    HW2 8913   3.210   5.195   0.578
 2672SOL     OW 8914   0.448   5.800   6.632
 2672SOL    HW1 8915   0.477   5.791   6.728
 2672SOL    HW2 8916   0.478   5.889   6.597
 2673SOL     OW 8917   5.358   2.224   3.634
 2673SOL    HW1 8918   5.286   2.173   3.681
 2673SOL    HW2 8919   5.405   2.164   3.569
 2674SOL     OW 8920   2.283   4.152   4.334
 2674SOL    HW1 8921   2.275   4.062   4.292
 2674SOL    HW2 8922   2.266   4.145   4.432
 2675SOL     OW 8923   0.567   4.867   5.449
 2675SOL    HW1 8924   0.547   4.937   5.380
 2675SOL    HW2 8925   0.491   4.802   5.454
 2676SOL     OW 8926   4.608   0.764   3.005
 2676SOL    HW1 8927   4.549   0.841   2.982
 2676SOL    HW2 8928   4.648   0.727   2.921
 2677SOL     OW 8929   3.015   5.498   0.797
 2677SOL    HW1 8930   3.086   5.554   0.756
 2677SOL    HW2 8931   2.967   5.447   0.725
 2678SOL     OW 8932   0.145   4.000   0.881
 2678SOL    HW1 8933   0.190   3.954   0.804
 2678SOL    HW2 8934   0.061   3.951   0.904
 2679SOL     OW 8935   4.061   5.390   1.237
 2679SOL    HW1 8936   3.967   5.404   1.203
 2679SOL    HW2 8937   4.058   5.366   1.334
 2680SOL     OW 8938   1.545   1.294   0.862
 2680SOL    HW1 8939   1.516   1.230   0.933
 2680SOL    HW2 8940   1.500   1.383   0.878
 2681SOL     OW 8941   1.337   2.177   4.490
 2681SOL    HW1 8942   1.306   2.245   4.556
 2681SOL    HW2 8943   1.434   2.157   4.506
 2682SOL     OW 8944   5.661   3.261   2.063
 2682SOL    HW1 8945   5.661   3.161   2.058
 2682SOL    HW2 8946   5.568   3.295   2.051
 2683SOL     OW 8947   1.712   3.628   0.322
 2683SOL    HW1 8948   1.760   3.540   0.330
 2683SOL    HW2 8949   1.691   3.645   0.226
 2684SOL     OW 8950   4.077   5.114   3.264
 2684SOL    HW1 8951   4.014   5.120   3.186
 2684SOL    HW2 8952   4.151   5.180   3.251
 2685SOL     OW 8953   6.897   6.906   5.983
 2685SOL    HW1 8954   6.934   6.998   5.993
 2685SOL    HW2 8955   6.822   6.907   5.918
 2686SOL     OW 8956   1.687   2.030   5.561
 2686SOL    HW1 8957   1.670   2.121   5.599
 2686SOL    HW2 8958   1.786   2.017   5.551
 2687SOL     OW 8959   4.250   4.632   3.253
 2687SOL    HW1 8960   4.241   4.701   3.324
 2687SOL    HW2 8961   4.331   4.576   3.270
 2688SOL     OW 8962   4.404   5.432   6.356
 2688SOL    HW1 8963   4.370   5.338   6.355
 2688SOL    HW2 8964   4.328   5.495   6.368
 2689SOL     OW 8965   2.137   2.214   3.391
 2689SOL    HW1 8966   2.133   2.127   3.341
 2689SOL    HW2 8967   2.106   2.199   3.485
 2690SOL     OW 8968   3.003   3.865   3.710
 2690SOL    HW1 8969   3.078   3.804   3.737
 2690SOL    HW2 8970   2.917   3.830   3.746
 2691SOL     OW 8971   1.351   5.328   2.226
 2691SOL    HW1 8972   1.441   5.288   2.243
 2691SOL    HW2 8973   1.284   5.286   2.287
 2692SOL     OW 8974   4.921   5.660   4.297
 2692SOL    HW1 8975   4.982   5.581   4.301
 2692SOL    HW2 8976   4.944   5.723   4.371
 2693SOL     OW 8977   1.990   4.220   2.794
 2693SOL    HW1 8978   2.078   4.182   2.764
 2693SOL    HW2 8979   2.004   4.314   2.825
 2694SOL     OW 8980   3.923   0.630   3.017
 2694SOL    HW1 8981   3.886   0.614   2.926
 2694SOL    HW2 8982   3.907   0.549   3.074
 2695SOL     OW 8983   5.672   1.712   2.500
 2695SOL    HW1 8984   5.731   1.643   2.543
 2695SOL    HW2 8985   5.722   1.758   2.428
 2696SOL     OW 8986   3.522   3.319   5.184
 2696SOL    HW1 8987   3.463   3.391   5.148
 2696SOL    HW2 8988   3.491   3.231   5.150
 2697SOL     OW 8989   4.324   2.105   3.316
 2697SOL    HW1 8990   4.412   2.152   3.327
 2697SOL    HW2 8991   4.263   2.130   3.391
 2698SOL     OW 8992   1.914   5.378   1.021
 2698SOL    HW1 8993   1.842   5.365   1.089
 2698SOL    HW2 8994   1.912   5.472   0.986
 2699SOL     OW 8995   3.193   5.596   0.214
 2699SOL    HW1 8996   3.179   5.578   0.117
 2699SOL    HW2 8997   3.229   5.514   0.259
 2700SOL     OW 8998   2.018   3.395   1.887
 2700SOL    HW1 8999   2.110   3.424   1.913
 2700SOL    HW2 9000   1.996   3.431   1.796
 2701SOL     OW 9001   4.093   0.013   6.437
 2701SOL    HW1 9002   4.160   7.002   6.505
 2701SOL    HW2 9003   4.106   0.110   6.416
 2702SOL     OW 9004   0.587   1.841   3.600
 2702SOL    HW1 9005   0.596   1.933   3.636
 2702SOL    HW2 9006   0.663   1.784   3.633
 2703SOL     OW 9007   2.246   0.913   2.626
 2703SOL    HW1 9008   2.241   0.814   2.640
 2703SOL    HW2 9009   2.320   0.934   2.562
 2704SOL     OW 9010   1.034   5.210   0.806
 2704SOL    HW1 9011   1.063   5.302   0.780
 2704SOL    HW2 9012   0.989   5.213   0.895
 2705SOL     OW 9013   1.246   5.486   4.377
 2705SOL    HW1 9014   1.169   5.521   4.324
 2705SOL    HW2 9015   1.329   5.534   4.351
 2706SOL     OW 9016   0.696   0.587   1.437
 2706SOL    HW1 9017   0.707   0.581   1.536
 2706SOL    HW2 9018   0.604   0.620   1.415
 2707SOL     OW 9019   2.430   0.554   5.505
 2707SOL    HW1 9020   2.516   0.600   5.524
 2707SOL    HW2 9021   2.410   0.561   5.407
 2708SOL     OW 9022   1.509   2.605   1.446
 2708SOL    HW1 9023   1.514   2.543   1.368
 2708SOL    HW2 9024   1.591   2.594   1.502
 2709SOL     OW 9025   5.276   6.558   1.281
 2709SOL    HW1 9026   5.355   6.616   1.300
 2709SOL    HW2 9027   5.210   6.566   1.356
 2710SOL     OW 9028   6.839   2.652   2.722
 2710SOL    HW1 9029   6.812   2.632   2.816
 2710SOL    HW2 9030   6.765   2.626   2.660
 2711SOL     OW 9031   3.081   0.957   3.174
 2711SOL    HW1 9032   3.080   0.874   3.230
 2711SOL    HW2 9033   3.088   0.931   3.077
 2712SOL     OW 9034   3.542   5.260   1.107
 2712SOL    HW1 9035   3.588   5.200   1.172
 2712SOL    HW2 9036   3.447   5.272   1.134
 2713SOL     OW 9037   1.678   2.352   4.759
 2713SOL    HW1 9038   1.712   2.262   4.785
 2713SOL    HW2 9039   1.579   2.357   4.774
 2714SOL     OW 9040   5.028   1.927   6.854
 2714SOL    HW1 9041   4.957   1.997   6.859
 2714SOL    HW2 9042   5.023   1.868   6.934
 2715SOL     OW 9043   6.036   0.247   0.260
 2715SOL    HW1 9044   6.015   0.342   0.235
 2715SOL    HW2 9045   5.952   0.197   0.277
 2716SOL     OW 9046   5.888   5.339   2.005
 2716SOL    HW1 9047   5.896   5.308   2.100
 2716SOL    HW2 9048   5.977   5.329   1.960
 2717SOL     OW 9049   1.119   5.294   1.961
 2717SOL    HW1 9050   1.101   5.235   2.040
 2717SOL    HW2 9051   1.054   5.369   1.960
 2718SOL     OW 9052   2.147   3.879   4.605
 2718SOL    HW1 9053   2.142   3.854   4.702
 2718SOL    HW2 9054   2.155   3.796   4.550
 2719SOL     OW 9055   5.256   4.949   1.758
 2719SOL    HW1 9056   5.329   4.955   1.690
 2719SOL    HW2 9057   5.173   4.989   1.721
 2720SOL     OW 9058   1.865   6.126   3.421
 2720SOL    HW1 9059   1.797   6.054   3.438
 2720SOL    HW2 9060   1.928   6.130   3.498
 2721SOL     OW 9061   2.804   0.314   5.052
 2721SOL    HW1 9062   2.829   0.320   5.149
 2721SOL    HW2 9063   2.811   0.219   5.022
 2722SOL     OW 9064   6.589   5.612   2.901
 2722SOL    HW1 9065   6.502   5.615   2.851
 2722SOL    HW2 9066   6.661   5.653   2.846
 2723SOL     OW 9067   1.469   6.862   5.640
 2723SOL    HW1 9068   1.454   6.959   5.618
 2723SOL    HW2 9069   1.384   6.822   5.675
 2724SOL     OW 9070   3.127   6.767   5.897
 2724SOL    HW1 9071   3.072   6.751   5.979
 2724SOL    HW2 9072   3.075   6.737   5.816
 2725SOL     OW 9073   6.151   5.112   3.108
 2725SOL    HW1 9074   6.145   5.200   3.062
 2725SOL    HW2 9075   6.180   5.126   3.203
 2726SOL     OW 9076   6.103   4.302   1.030
 2726SOL    HW1 9077   6.052   4.268   0.951
 2726SOL    HW2 9078   6.077   4.397   1.048
 2727SOL     OW 9079   0.129   4.799   2.599
 2727SOL    HW1 9080   0.149   4.701   2.608
 2727SOL    HW2 9081   0.074   4.813   2.517
 2728SOL     OW 9082   3.668   0.273   5.525
 2728SOL    HW1 9083   3.740   0.259   5.594
 2728SOL    HW2 9084   3.589   0.216   5.547
 2729SOL     OW 9085   6.830   5.844   2.028
 2729SOL    HW1 9086   6.815   5.869   2.123
 2729SOL    HW2 9087   6.835   5.744   2.020
 2730SOL     OW 9088   1.686   6.310   1.283
 2730SOL    HW1 9089   1.654   6.404   1.294
 2730SOL    HW2 9090   1.771   6.310   1.229
 2731SOL     OW 9091   4.020   3.680   1.848
 2731SOL    HW1 9092   4.066   3.617   1.911
 2731SOL    HW2 9093   3.923   3.684   1.870
 2732SOL     OW 9094   6.093   3.131   1.567
 2732SOL    HW1 9095   6.043   3.047   1.587
 2732SOL    HW2 9096   6.135   3.124   1.477
 2733SOL     OW 9097   0.218   0.056   5.036
 2733SOL    HW1 9098   0.316   0.052   5.053
 2733SOL    HW2 9099   0.174   0.113   5.106
 2734SOL     OW 9100   2.011   5.163   2.348
 2734SOL    HW1 9101   2.091   5.169   2.407
 2734SOL    HW2 9102   2.040   5.146   2.254
 2735SOL     OW 9103   0.796   3.709   3.096
 2735SOL    HW1 9104   0.896   3.708   3.089
 2735SOL    HW2 9105   0.763   3.615   3.108
 2736SOL     OW 9106   5.039   0.423   3.577
 2736SOL    HW1 9107   5.022   0.356   3.505
 2736SOL    HW2 9108   5.120   0.477   3.554
 2737SOL     OW 9109   3.429   3.240   5.651
 2737SOL    HW1 9110   3.509   3.239   5.592
 2737SOL    HW2 9111   3.370   3.163   5.629
 2738SOL     OW 9112   5.071   5.331   4.668
 2738SOL    HW1 9113   4.982   5.302   4.702
 2738SOL    HW2 9114   5.143   5.290   4.724
 2739SOL     OW 9115   5.947   4.833   0.549
 2739SOL    HW1 9116   6.016   4.774   0.590
 2739SOL    HW2 9117   5.918   4.902   0.615
 2740SOL     OW 9118   5.912   2.464   2.649
 2740SOL    HW1 9119   5.826   2.476   2.598
 2740SOL    HW2 9120   5.930   2.545   2.704
 2741SOL     OW 9121   6.790   1.506   6.023
 2741SOL    HW1 9122   6.726   1.582   6.010
 2741SOL    HW2 9123   6.781   1.470   6.116
 2742SOL     OW 9124   1.896   5.371   6.599
 2742SOL    HW1 9125   1.797   5.380   6.584
 2742SOL    HW2 9126   1.933   5.303   6.536
 2743SOL     OW 9127   6.317   4.977   2.113
 2743SOL    HW1 9128   6.366   5.029   2.183
 2743SOL    HW2 9129   6.378   4.959   2.036
 2744SOL     OW 9130   4.039   2.497   6.836
 2744SOL    HW1 9131   4.131   2.466   6.812
 2744SOL    HW2 9132   3.987   2.422   6.875
 2745SOL     OW 9133   1.328   0.435   6.804
 2745SOL    HW1 9134   1.234   0.469   6.792
 2745SOL    HW2 9135   1.383   0.507   6.846
 2746SOL     OW 9136   2.205   1.977   4.354
 2746SOL    HW1 9137   2.276   1.909   4.374
 2746SOL    HW2 9138   2.247   2.057   4.312
 2747SOL     OW 9139   5.435   4.058   5.550
 2747SOL    HW1 9140   5.339   4.060   5.580
 2747SOL    HW2 9141   5.457   3.966   5.517
 2748SOL     OW 9142   3.815   1.346   1.142
 2748SOL    HW1 9143   3.828   1.418   1.211
 2748SOL    HW2 9144   3.899   1.291   1.136
 2749SOL     OW 9145   5.906   4.280   4.079
 2749SOL    HW1 9146   6.002   4.265   4.103
 2749SOL    HW2 9147   5.874   4.363   4.124
 2750SOL     OW 9148   0.583   5.208   1.532
 2750SOL    HW1 9149   0.485   5.224   1.532
 2750SOL    HW2 9150   0.623   5.243   1.617
 2751SOL     OW 9151   1.586   6.899   0.483
 2751SOL    HW1 9152   1.552   6.945   0.565
 2751SOL    HW2 9153   1.592   6.965   0.408
 2752SOL     OW 9154   5.515   5.471   5.120
 2752SOL    HW1 9155   5.424   5.452   5.084
 2752SOL    HW2 9156   5.536   5.407   5.194
 2753SOL     OW 9157   1.554   6.815   6.055
 2753SOL    HW1 9158   1.475   6.756   6.042
 2753SOL    HW2 9159   1.633   6.760   6.082
 2754SOL     OW 9160   6.307   0.931   4.439
 2754SOL    HW1 9161   6.361   0.980   4.508
 2754SOL    HW2 9162   6.357   0.930   4.352
 2755SOL     OW 9163   3.074   6.951   3.107
 2755SOL    HW1 9164   3.069   0.032   3.123
 2755SOL    HW2 9165   3.125   6.908   3.181
 2756SOL     OW 9166   6.052   3.740   4.217
 2756SOL    HW1 9167   6.133   3.744   4.158
 2756SOL    HW2 9168   6.043   3.648   4.256
 2757SOL     OW 9169   2.549   1.564   6.745
 2757SOL    HW1 9170   2.632   1.510   6.732
 2757SOL    HW2 9171   2.550   1.604   6.837
 2758SOL     OW 9172   5.700   6.112   3.754
 2758SOL    HW1 9173   5.618   6.113   3.812
 2758SOL    HW2 9174   5.727   6.018   3.736
 2759SOL     OW 9175   3.622   5.117   5.101
 2759SOL    HW1 9176   3.646   5.190   5.037
 2759SOL    HW2 9177   3.551   5.060   5.061
 2760SOL     OW 9178   0.140   5.216   2.974
 2760SOL    HW1 9179   0.197   5.204   3.055
 2760SOL    HW2 9180   0.138   5.131   2.921
 2761SOL     OW 9181   1.864   4.120   3.701
 2761SOL    HW1 9182   1.941   4.059   3.681
 2761SOL    HW2 9183   1.889   4.214   3.679
 2762SOL     OW 9184   1.143   2.109   6.889
 2762SOL    HW1 9185   1.217   2.089   6.954
 2762SOL    HW2 9186   1.070   2.158   6.936
 2763SOL     OW 9187   4.999   2.263   5.492
 2763SOL    HW1 9188   4.943   2.208   5.554
 2763SOL    HW2 9189   4.945   2.292   5.414
 2764SOL     OW 9190   0.461   5.413   2.790
 2764SOL    HW1 9191   0.534   5.371   2.736
 2764SOL    HW2 9192   0.483   5.509   2.806
 2765SOL     OW 9193   6.940   0.153   1.129
 2765SOL    HW1 9194   6.870   0.213   1.168
 2765SOL    HW2 9195   6.947   0.070   1.185
 2766SOL     OW 9196   4.168   1.168   6.511
 2766SOL    HW1 9197   4.109   1.108   6.458
 2766SOL    HW2 9198   4.133   1.175   6.604
 2767SOL     OW 9199   5.968   5.849   6.643
 2767SOL    HW1 9200   5.888   5.875   6.697
 2767SOL    HW2 9201   5.955   5.756   6.608
 2768SOL     OW 9202   4.206   1.192   0.030
 2768SOL    HW1 9203   4.135   1.173   0.097
 2768SOL    HW2 9204   4.290   1.220   0.077
 2769SOL     OW 9205   2.580   4.544   6.203
 2769SOL    HW1 9206   2.596   4.514   6.109
 2769SOL    HW2 9207   2.584   4.644   6.207
 2770SOL     OW 9208   4.299   6.079   6.333
 2770SOL    HW1 9209   4.282   6.177   6.346
 2770SOL    HW2 9210   4.325   6.061   6.238
 2771SOL     OW 9211   5.865   0.293   4.901
 2771SOL    HW1 9212   5.954   0.272   4.941
 2771SOL    HW2 9213   5.872   0.292   4.801
 2772SOL     OW 9214   3.019   1.705   2.292
 2772SOL    HW1 9215   3.007   1.776   2.360
 2772SOL    HW2 9216   2.956   1.721   2.215
 2773SOL     OW 9217   0.065   2.761   3.991
 2773SOL    HW1 9218   0.125   2.723   4.062
 2773SOL    HW2 9219   7.004   2.804   4.034
 2774SOL     OW 9220   5.089   3.109   2.803
 2774SOL    HW1 9221   5.142   3.033   2.767
 2774SOL    HW2 9222   5.126   3.136   2.892
 2775SOL     OW 9223   6.330   3.757   3.699
 2775SOL    HW1 9224   6.279   3.812   3.632
 2775SOL    HW2 9225   6.272   3.739   3.778
 2776SOL     OW 9226   5.620   4.893   5.951
 2776SOL    HW1 9227   5.544   4.955   5.972
 2776SOL    HW2 9228   5.649   4.907   5.856
 2777SOL     OW 9229   2.326   1.432   6.620
 2777SOL    HW1 9230   2.345   1.415   6.524
 2777SOL    HW2 9231   2.408   1.465   6.666
 2778SOL     OW 9232   1.895   6.075   6.387
 2778SOL    HW1 9233   1.855   5.985   6.408
 2778SOL    HW2 9234   1.829   6.147   6.408
 2779SOL     OW 9235   5.746   6.601   2.008
 2779SOL    HW1 9236   5.831   6.559   2.041
 2779SOL    HW2 9237   5.767   6.666   1.935
 2780SOL     OW 9238   6.794   0.250   6.185
 2780SOL    HW1 9239   6.874   0.209   6.228
 2780SOL    HW2 9240   6.801   0.239   6.086
 2781SOL     OW 9241   6.028   0.471   3.130
 2781SOL    HW1 9242   6.068   0.551   3.085
 2781SOL    HW2 9243   5.997   0.405   3.062
 2782SOL     OW 9244   4.357   1.427   5.491
 2782SOL    HW1 9245   4.304   1.392   5.568
 2782SOL    HW2 9246   4.305   1.414   5.406
 2783SOL     OW 9247   6.752   3.826   1.342
 2783SOL    HW1 9248   6.688   3.789   1.275
 2783SOL    HW2 9249   6.833   3.862   1.294
 2784SOL     OW 9250   3.355   1.726   1.626
 2784SOL    HW1 9251   3.262   1.705   1.595
 2784SOL    HW2 9252   3.350   1.790   1.703
 2785SOL     OW 9253   5.574   2.088   1.060
 2785SOL    HW1 9254   5.538   2.058   0.971
 2785SOL    HW2 9255   5.504   2.073   1.130
 2786SOL     OW 9256   6.752   6.174   1.104
 2786SOL    HW1 9257   6.830   6.223   1.143
 2786SOL    HW2 9258   6.780   6.080   1.081
 2787SOL     OW 9259   6.732   5.885   5.644
 2787SOL    HW1 9260   6.665   5.849   5.579
 2787SOL    HW2 9261   6.824   5.868   5.609
 2788SOL     OW 9262   2.872   5.970   6.140
 2788SOL    HW1 9263   2.946   6.038   6.135
 2788SOL    HW2 9264   2.889   5.897   6.074
 2789SOL     OW 9265   1.768   2.185   3.530
 2789SOL    HW1 9266   1.672   2.212   3.525
 2789SOL    HW2 9267   1.826   2.267   3.537
 2790SOL     OW 9268   3.348   5.091   0.782
 2790SOL    HW1 9269   3.346   5.183   0.821
 2790SOL    HW2 9270   3.443   5.059   0.775
 2791SOL     OW 9271   0.212   4.234   2.072
 2791SOL    HW1 9272   0.172   4.225   1.981
 2791SOL    HW2 9273   0.296   4.179   2.077
 2792SOL     OW 9274   3.149   1.222   4.477
 2792SOL    HW1 9275   3.123   1.312   4.510
 2792SOL    HW2 9276   3.249   1.217   4.466
 2793SOL     OW 9277   5.084   3.905   1.765
 2793SOL    HW1 9278   5.153   3.883   1.834
 2793SOL    HW2 9279   5.031   3.823   1.743
 2794SOL     OW 9280   6.556   1.985   5.597
 2794SOL    HW1 9281   6.492   1.907   5.601
 2794SOL    HW2 9282   6.641   1.956   5.554
 2795SOL     OW 9283   0.625   4.963   1.017
 2795SOL    HW1 9284   0.708   5.014   1.038
 2795SOL    HW2 9285   0.554   4.984   1.085
 2796SOL     OW 9286   0.543   5.311   4.423
 2796SOL    HW1 9287   0.477   5.236   4.428
 2796SOL    HW2 9288   0.609   5.303   4.497
 2797SOL     OW 9289   5.128   5.780   5.871
 2797SOL    HW1 9290   5.093   5.782   5.778
 2797SOL    HW2 9291   5.196   5.707   5.880
 2798SOL     OW 9292   6.733   5.562   2.463
 2798SOL    HW1 9293   6.799   5.636   2.453
 2798SOL    HW2 9294   6.778   5.480   2.496
 2799SOL     OW 9295   4.634   5.557   5.541
 2799SOL    HW1 9296   4.728   5.534   5.568
 2799SOL    HW2 9297   4.634   5.597   5.450
 2800SOL     OW 9298   6.270   0.782   6.228
 2800SOL    HW1 9299   6.349   0.728   6.256
 2800SOL    HW2 9300   6.289   0.824   6.139
 2801SOL     OW 9301   1.915   5.620   5.664
 2801SOL    HW1 9302   1.977   5.672   5.605
 2801SOL    HW2 9303   1.821   5.636   5.636
 2802SOL     OW 9304   6.528   6.701   5.513
 2802SOL    HW1 9305   6.611   6.739   5.471
 2802SOL    HW2 9306   6.552   6.618   5.564
 2803SOL     OW 9307   3.527   4.165   5.602
 2803SOL    HW1 9308   3.483   4.086   5.559
 2803SOL    HW2 9309   3.463   4.242   5.605
 2804SOL     OW 9310   0.238   3.588   4.110
 2804SOL    HW1 9311   0.197   3.499   4.093
 2804SOL    HW2 9312   0.335   3.577   4.131
 2805SOL     OW 9313   6.096   3.832   2.521
 2805SOL    HW1 9314   6.063   3.891   2.448
 2805SOL    HW2 9315   6.019   3.796   2.573
 2806SOL     OW 9316   1.533   4.696   6.949
 2806SOL    HW1 9317   1.632   4.686   6.951
 2806SOL    HW2 9318   1.506   4.761   6.878
 2807SOL     OW 9319   4.093   0.254   3.016
 2807SOL    HW1 9320   4.056   0.172   3.059
 2807SOL    HW2 9321   4.113   0.323   3.086
 2808SOL     OW 9322   6.049   6.169   0.954
 2808SOL    HW1 9323   6.000   6.118   1.025
 2808SOL    HW2 9324   5.999   6.163   0.868
 2809SOL     OW 9325   6.186   2.680   1.729
 2809SOL    HW1 9326   6.261   2.667   1.664
 2809SOL    HW2 9327   6.191   2.773   1.766
 2810SOL     OW 9328   2.574   5.141   2.679
 2810SOL    HW1 9329   2.550   5.045   2.688
 2810SOL    HW2 9330   2.494   5.197   2.699
 2811SOL     OW 9331   0.900   1.341   2.332
 2811SOL    HW1 9332   0.943   1.427   2.305
 2811SOL    HW2 9333   0.906   1.330   2.431
 2812SOL     OW 9334   6.349   3.305   0.447
 2812SOL    HW1 9335   6.303   3.221   0.477
 2812SOL    HW2 9336   6.377   3.295   0.352
 2813SOL     OW 9337   0.537   1.431   0.514
 2813SOL    HW1 9338   0.448   1.440   0.469
 2813SOL    HW2 9339   0.524   1.392   0.605
 2814SOL     OW 9340   3.152   3.986   5.554
 2814SOL    HW1 9341   3.128   3.937   5.638
 2814SOL    HW2 9342   3.230   3.942   5.510
 2815SOL     OW 9343   0.258   6.183   6.131
 2815SOL    HW1 9344   0.219   6.267   6.169
 2815SOL    HW2 9345   0.345   6.203   6.086
 2816SOL     OW 9346   6.812   5.982   5.065
 2816SOL    HW1 9347   6.743   5.927   5.112
 2816SOL    HW2 9348   6.861   6.038   5.132
 2817SOL     OW 9349   3.595   1.598   2.424
 2817SOL    HW1 9350   3.636   1.685   2.395
 2817SOL    HW2 9351   3.549   1.556   2.346
 2818SOL     OW 9352   6.980   1.071   1.404
 2818SOL    HW1 9353   6.900   1.016   1.426
 2818SOL    HW2 9354   6.988   1.146   1.469
 2819SOL     OW 9355   1.335   0.192   1.128
 2819SOL    HW1 9356   1.254   0.211   1.074
 2819SOL    HW2 9357   1.356   0.272   1.185
 2820SOL     OW 9358   0.662   2.016   2.305
 2820SOL    HW1 9359   0.680   1.920   2.282
 2820SOL    HW2 9360   0.581   2.022   2.363
 2821SOL     OW 9361   3.014   5.120   5.965
 2821SOL    HW1 9362   3.042   5.209   5.931
 2821SOL    HW2 9363   2.922   5.098   5.931
 2822SOL     OW 9364   4.081   2.429   0.151
 2822SOL    HW1 9365   4.121   2.498   0.091
 2822SOL    HW2 9366   4.142   2.350   0.157
 2823SOL     OW 9367   5.483   0.919   0.059
 2823SOL    HW1 9368   5.568   0.877   0.026
 2823SOL    HW2 9369   5.505   1.005   0.105
 2824SOL     OW 9370   1.745   3.508   5.302
 2824SOL    HW1 9371   1.718   3.556   5.219
 2824SOL    HW2 9372   1.698   3.420   5.306
 2825SOL     OW 9373   5.585   0.708   6.641
 2825SOL    HW1 9374   5.586   0.651   6.723
 2825SOL    HW2 9375   5.536   0.793   6.660
 2826SOL     OW 9376   1.904   2.603   6.081
 2826SOL    HW1 9377   1.862   2.512   6.087
 2826SOL    HW2 9378   1.837   2.672   6.106
 2827SOL     OW 9379   0.492   1.085   6.491
 2827SOL    HW1 9380   0.528   1.046   6.576
 2827SOL    HW2 9381   0.424   1.155   6.512
 2828SOL     OW 9382   1.797   3.565   1.390
 2828SOL    HW1 9383   1.864   3.509   1.342
 2828SOL    HW2 9384   1.825   3.576   1.486
 2829SOL     OW 9385   3.559   3.316   3.221
 2829SOL    HW1 9386   3.593   3.410   3.217
 2829SOL    HW2 9387   3.613   3.258   3.160
 2830SOL     OW 9388   3.627   4.354   5.379
 2830SOL    HW1 9389   3.550   4.313   5.330
 2830SOL    HW2 9390   3.622   4.329   5.475
 2831SOL     OW 9391   0.012   2.093   2.851
 2831SOL    HW1 9392   0.034   2.058   2.760
 2831SOL    HW2 9393   6.972   2.174   2.842
 2832SOL     OW 9394   0.725   3.256   1.521
 2832SOL    HW1 9395   0.686   3.335   1.474
 2832SOL    HW2 9396   0.755   3.283   1.613
 2833SOL     OW 9397   2.229   1.561   2.352
 2833SOL    HW1 9398   2.293   1.522   2.285
 2833SOL    HW2 9399   2.231   1.661   2.346
 2834SOL     OW 9400   4.887   6.174   4.820
 2834SOL    HW1 9401   4.865   6.196   4.725
 2834SOL    HW2 9402   4.802   6.152   4.869
 2835SOL     OW 9403   0.856   6.712   0.468
 2835SOL    HW1 9404   0.796   6.787   0.439
 2835SOL    HW2 9405   0.948   6.747   0.483
 2836SOL     OW 9406   2.984   6.106   2.940
 2836SOL    HW1 9407   2.988   6.146   2.848
 2836SOL    HW2 9408   3.043   6.025   2.943
 2837SOL     OW 9409   5.628   4.373   2.292
 2837SOL    HW1 9410   5.617   4.279   2.325
 2837SOL    HW2 9411   5.718   4.383   2.248
 2838SOL     OW 9412   5.158   4.197   0.049
 2838SOL    HW1 9413   5.143   4.181   0.146
 2838SOL    HW2 9414   5.152   4.296   0.030
 2839SOL     OW 9415   6.919   2.334   3.273
 2839SOL    HW1 9416   6.960   2.244   3.257
 2839SOL    HW2 9417   6.829   2.323   3.315
 2840SOL     OW 9418   1.630   5.153   2.707
 2840SOL    HW1 9419   1.572   5.082   2.747
 2840SOL    HW2 9420   1.725   5.120   2.702
 2841SOL     OW 9421   6.213   2.487   0.241
 2841SOL    HW1 9422   6.150   2.561   0.218
 2841SOL    HW2 9423   6.290   2.488   0.177
 2842SOL     OW 9424   1.460   5.681   5.078
 2842SOL    HW1 9425   1.362   5.690   5.058
 2842SOL    HW2 9426   1.510   5.753   5.030
 2843SOL     OW 9427   2.549   2.513   2.738
 2843SOL    HW1 9428   2.502   2.544   2.820
 2843SOL    HW2 9429   2.639   2.556   2.732
 2844SOL     OW 9430   4.963   4.697   1.265
 2844SOL    HW1 9431   5.013   4.728   1.346
 2844SOL    HW2 9432   4.987   4.755   1.187
 2845SOL     OW 9433   5.344   2.647   3.614
 2845SOL    HW1 9434   5.275   2.595   3.564
 2845SOL    HW2 9435   5.404   2.693   3.549
 2846SOL     OW 9436   3.559   0.723   0.285
 2846SOL    HW1 9437   3.556   0.712   0.385
 2846SOL    HW2 9438   3.649   0.696   0.251
 2847SOL     OW 9439   4.688   4.322   2.243
 2847SOL    HW1 9440   4.677   4.299   2.146
 2847SOL    HW2 9441   4.614   4.383   2.271
 2848SOL     OW 9442   1.509   1.932   5.304
 2848SOL    HW1 9443   1.525   1.961   5.210
 2848SOL    HW2 9444   1.595   1.933   5.354
 2849SOL     OW 9445   3.778   1.276   1.449
 2849SOL    HW1 9446   3.689   1.256   1.408
 2849SOL    HW2 9447   3.766   1.296   1.546
 2850SOL     OW 9448   1.886   6.916   3.738
 2850SOL    HW1 9449   1.969   6.913   3.683
 2850SOL    HW2 9450   1.816   6.970   3.691
 2851SOL     OW 9451   4.323   3.454   6.569
 2851SOL    HW1 9452   4.385   3.517   6.616
 2851SOL    HW2 9453   4.233   3.457   6.613
 2852SOL     OW 9454   6.663   4.295   0.075
 2852SOL    HW1 9455   6.735   4.237   0.038
 2852SOL    HW2 9456   6.701   4.385   0.098
 2853SOL     OW 9457   0.665   3.427   7.006
 2853SOL    HW1 9458   0.585   3.481   6.978
 2853SOL    HW2 9459   0.743   3.488   7.017
 2854SOL     OW 9460   3.528   1.158   6.058
 2854SOL    HW1 9461   3.601   1.121   6.115
 2854SOL    HW2 9462   3.450   1.183   6.115
 2855SOL     OW 9463   0.880   2.327   4.087
 2855SOL    HW1 9464   0.877   2.425   4.107
 2855SOL    HW2 9465   0.956   2.286   4.137
 2856SOL     OW 9466   1.562   2.554   3.239
 2856SOL    HW1 9467   1.544   2.652   3.247
 2856SOL    HW2 9468   1.611   2.536   3.154
 2857SOL     OW 9469   0.143   3.367   1.022
 2857SOL    HW1 9470   0.113   3.451   0.976
 2857SOL    HW2 9471   0.239   3.376   1.048
 2858SOL     OW 9472   5.208   6.369   2.565
 2858SOL    HW1 9473   5.174   6.284   2.607
 2858SOL    HW2 9474   5.204   6.361   2.466
 2859SOL     OW 9475   5.418   5.377   0.652
 2859SOL    HW1 9476   5.432   5.474   0.672
 2859SOL    HW2 9477   5.365   5.368   0.567
 2860SOL     OW 9478   1.960   6.574   2.351
 2860SOL    HW1 9479   1.920   6.483   2.349
 2860SOL    HW2 9480   1.953   6.611   2.444
 2861SOL     OW 9481   3.014   5.209   5.469
 2861SOL    HW1 9482   3.005   5.140   5.397
 2861SOL    HW2 9483   3.077   5.280   5.440
 2862SOL     OW 9484   4.580   2.595   1.887
 2862SOL    HW1 9485   4.529   2.515   1.920
 2862SOL    HW2 9486   4.517   2.658   1.842
 2863SOL     OW 9487   5.626   1.263   6.430
 2863SOL    HW1 9488   5.670   1.269   6.341
 2863SOL    HW2 9489   5.650   1.344   6.485
 2864SOL     OW 9490   4.354   3.252   1.028
 2864SOL    HW1 9491   4.387   3.160   1.044
 2864SOL    HW2 9492   4.349   3.302   1.114
 2865SOL     OW 9493   4.554   7.014   4.255
 2865SOL    HW1 9494   4.525   0.068   4.192
 2865SOL    HW2 9495   4.647   0.014   4.286
 2866SOL     OW 9496   5.691   3.900   0.124
 2866SOL    HW1 9497   5.698   3.832   0.052
 2866SOL    HW2 9498   5.614   3.961   0.105
 2867SOL     OW 9499   6.609   6.339   2.192
 2867SOL    HW1 9500   6.578   6.426   2.155
 2867SOL    HW2 9501   6.653   6.285   2.120
 2868SOL     OW 9502   1.095   1.327   5.347
 2868SOL    HW1 9503   1.191   1.349   5.330
 2868SOL    HW2 9504   1.075   1.234   5.317
 2869SOL     OW 9505   5.803   0.397   3.716
 2869SOL    HW1 9506   5.854   0.429   3.796
 2869SOL    HW2 9507   5.853   0.322   3.672
 2870SOL     OW 9508   0.645   1.605   6.735
 2870SOL    HW1 9509   0.668   1.570   6.826
 2870SOL    HW2 9510   0.607   1.531   6.680
 2871SOL     OW 9511   6.588   0.738   0.263
 2871SOL    HW1 9512   6.526   0.673   0.308
 2871SOL    HW2 9513   6.563   0.747   0.167
 2872SOL     OW 9514   2.556   1.348   1.319
 2872SOL    HW1 9515   2.628   1.374   1.384
 2872SOL    HW2 9516   2.485   1.419   1.318
 2873SOL     OW 9517   0.053   5.477   1.555
 2873SOL    HW1 9518   0.135   5.532   1.572
 2873SOL    HW2 9519   6.991   5.537   1.550
 2874SOL     OW 9520   4.365   0.041   2.933
 2874SOL    HW1 9521   4.444   0.102   2.934
 2874SOL    HW2 9522   4.347   0.009   3.027
 2875SOL     OW 9523   3.751   6.918   2.954
 2875SOL    HW1 9524   3.737   6.892   2.859
 2875SOL    HW2 9525   3.826   6.984   2.960
 2876SOL     OW 9526   1.250   6.126   1.936
 2876SOL    HW1 9527   1.224   6.043   1.986
 2876SOL    HW2 9528   1.350   6.136   1.940
 2877SOL     OW 9529   2.050   1.219   6.697
 2877SOL    HW1 9530   2.064   1.317   6.684
 2877SOL    HW2 9531   2.059   1.196   6.794
 2878SOL     OW 9532   2.918   3.800   4.195
 2878SOL    HW1 9533   2.919   3.810   4.295
 2878SOL    HW2 9534   2.823   3.801   4.163
 2879SOL     OW 9535   4.051   5.213   5.791
 2879SOL    HW1 9536   3.954   5.235   5.797
 2879SOL    HW2 9537   4.104   5.298   5.789
 2880SOL     OW 9538   0.826   1.752   3.772
 2880SOL    HW1 9539   0.879   1.688   3.717
 2880SOL    HW2 9540   0.820   1.717   3.866
 2881SOL     OW 9541   3.428   5.762   0.311
 2881SOL    HW1 9542   3.394   5.774   0.217
 2881SOL    HW2 9543   3.379   5.824   0.372
 2882SOL     OW 9544   5.997   6.376   1.444
 2882SOL    HW1 9545   6.092   6.354   1.466
 2882SOL    HW2 9546   5.936   6.311   1.489
 2883SOL     OW 9547   6.061   6.453   3.666
 2883SOL    HW1 9548   6.075   6.368   3.716
 2883SOL    HW2 9549   6.146   6.481   3.622
 2884SOL     OW 9550   6.583   5.209   2.019
 2884SOL    HW1 9551   6.539   5.132   1.973
 2884SOL    HW2 9552   6.519   5.285   2.025
 2885SOL     OW 9553   1.591   1.877   4.139
 2885SOL    HW1 9554   1.537   1.794   4.154
 2885SOL    HW2 9555   1.530   1.955   4.129
 2886SOL     OW 9556   2.807   4.509   0.126
 2886SOL    HW1 9557   2.717   4.490   0.166
 2886SOL    HW2 9558   2.842   4.426   0.084
 2887SOL     OW 9559   6.921   6.385   4.158
 2887SOL    HW1 9560   7.013   6.358   4.130
 2887SOL    HW2 9561   6.856   6.315   4.127
 2888SOL     OW 9562   6.801   4.887   0.045
 2888SOL    HW1 9563   6.855   4.924   6.988
 2888SOL    HW2 9564   6.704   4.903   0.027
 2889SOL     OW 9565   3.175   6.672   2.939
 2889SOL    HW1 9566   3.268   6.660   2.973
 2889SOL    HW2 9567   3.160   6.769   2.916
 2890SOL     OW 9568   2.417   5.532   1.010
 2890SOL    HW1 9569   2.348   5.586   1.059
 2890SOL    HW2 9570   2.381   5.505   0.921
 2891SOL     OW 9571   0.781   3.174   3.233
 2891SOL    HW1 9572   0.793   3.271   3.209
 2891SOL    HW2 9573   0.815   3.117   3.158
 2892SOL     OW 9574   6.040   2.937   0.877
 2892SOL    HW1 9575   6.132   2.963   0.906
 2892SOL    HW2 9576   6.000   2.876   0.946
 2893SOL     OW 9577   1.777   5.561   4.773
 2893SOL    HW1 9578   1.701   5.535   4.833
 2893SOL    HW2 9579   1.828   5.479   4.746
 2894SOL     OW 9580   1.790   3.944   1.763
 2894SOL    HW1 9581   1.746   3.904   1.684
 2894SOL    HW2 9582   1.735   3.927   1.845
 2895SOL     OW 9583   3.989   1.038   6.350
 2895SOL    HW1 9584   3.927   0.999   6.418
 2895SOL    HW2 9585   3.940   1.049   6.264
 2896SOL     OW 9586   5.409   0.229   6.225
 2896SOL    HW1 9587   5.491   0.279   6.199
 2896SOL    HW2 9588   5.356   0.207   6.142
 2897SOL     OW 9589   4.278   4.657   2.983
 2897SOL    HW1 9590   4.251   4.753   2.982
 2897SOL    HW2 9591   4.261   4.619   3.074
 2898SOL     OW 9592   5.337   3.768   3.816
 2898SOL    HW1 9593   5.270   3.740   3.885
 2898SOL    HW2 9594   5.299   3.842   3.761
 2899SOL     OW 9595   6.394   1.907   1.082
 2899SOL    HW1 9596   6.443   1.994   1.077
 2899SOL    HW2 9597   6.313   1.911   1.024
 2900SOL     OW 9598   4.105   4.951   0.033
 2900SOL    HW1 9599   4.073   5.046   0.030
 2900SOL    HW2 9600   4.168   4.939   0.109
 2901SOL     OW 9601   1.405   4.843   3.519
 2901SOL    HW1 9602   1.433   4.753   3.483
 2901SOL    HW2 9603   1.477   4.910   3.502
 2902SOL     OW 9604   0.204   5.753   3.537
 2902SOL    HW1 9605   0.158   5.778   3.451
 2902SOL    HW2 9606   0.138   5.756   3.612
 2903SOL     OW 9607   4.597   6.170   1.200
 2903SOL    HW1 9608   4.643   6.258   1.203
 2903SOL    HW2 9609   4.648   6.107   1.141
 2904SOL     OW 9610   2.982   4.850   4.990
 2904SOL    HW1 9611   2.913   4.778   5.000
 2904SOL    HW2 9612   3.056   4.834   5.056
 2905SOL     OW 9613   1.216   4.130   3.939
 2905SOL    HW1 9614   1.144   4.147   4.006
 2905SOL    HW2 9615   1.175   4.100   3.853
 2906SOL     OW 9616   4.959   5.963   2.492
 2906SOL    HW1 9617   5.023   5.926   2.424
 2906SOL    HW2 9618   4.979   5.923   2.582
 2907SOL     OW 9619   0.866   1.631   4.036
 2907SOL    HW1 9620   0.855   1.571   3.957
 2907SOL    HW2 9621   0.872   1.576   4.120
 2908SOL     OW 9622   5.577   7.005   4.339
 2908SOL    HW1 9623   5.673   7.014   4.312
 2908SOL    HW2 9624   5.570   7.011   4.438
 2909SOL     OW 9625   1.324   6.492   3.217
 2909SOL    HW1 9626   1.419   6.480   3.185
 2909SOL    HW2 9627   1.283   6.402   3.232
 2910SOL     OW 9628   6.651   1.084   3.626
 2910SOL    HW1 9629   6.647   1.160   3.561
 2910SOL    HW2 9630   6.558   1.056   3.650
 2911SOL     OW 9631   1.013   5.012   4.063
 2911SOL    HW1 9632   0.991   5.106   4.089
 2911SOL    HW2 9633   0.937   4.973   4.010
 2912SOL     OW 9634   6.711   6.307   6.820
 2912SOL    HW1 9635   6.752   6.392   6.786
 2912SOL    HW2 9636   6.779   6.255   6.872
 2913SOL     OW 9637   2.673   4.628   2.573
 2913SOL    HW1 9638   2.698   4.630   2.669
 2913SOL    HW2 9639   2.734   4.688   2.521
 2914SOL     OW 9640   5.359   5.452   1.423
 2914SOL    HW1 9641   5.395   5.359   1.421
 2914SOL    HW2 9642   5.379   5.495   1.511
 2915SOL     OW 9643   2.895   1.923   3.722
 2915SOL    HW1 9644   2.895   1.917   3.622
 2915SOL    HW2 9645   2.831   1.995   3.751
 2916SOL     OW 9646   2.090   5.600   0.326
 2916SOL    HW1 9647   2.077   5.687   0.279
 2916SOL    HW2 9648   2.010   5.580   0.382
 2917SOL     OW 9649   2.990   0.664   3.883
 2917SOL    HW1 9650   3.015   0.583   3.831
 2917SOL    HW2 9651   2.894   0.659   3.911
 2918SOL     OW 9652   6.042   3.672   0.090
 2918SOL    HW1 9653   6.070   3.742   0.024
 2918SOL    HW2 9654   5.949   3.643   0.071
 2919SOL     OW 9655   6.511   6.478   3.679
 2919SOL    HW1 9656   6.604   6.484   3.644
 2919SOL    HW2 9657   6.495   6.552   3.745
 2920SOL     OW 9658   3.083   0.493   2.391
 2920SOL    HW1 9659   2.996   0.476   2.345
 2920SOL    HW2 9660   3.069   0.497   2.489
 2921SOL     OW 9661   6.980   0.155   5.965
 2921SOL    HW1 9662   6.960   0.253   5.971
 2921SOL    HW2 9663   7.011   0.133   5.873
 2922SOL     OW 9664   4.000   6.939   2.159
 2922SOL    HW1 9665   3.905   6.968   2.168
 2922SOL    HW2 9666   4.020   6.921   2.062
 2923SOL     OW 9667   6.349   5.251   4.457
 2923SOL    HW1 9668   6.273   5.274   4.518
 2923SOL    HW2 9669   6.402   5.334   4.438
 2924SOL     OW 9670   6.444   1.586   4.609
 2924SOL    HW1 9671   6.424   1.503   4.558
 2924SOL    HW2 9672   6.426   1.571   4.706
 2925SOL     OW 9673   5.796   1.780   6.871
 2925SOL    HW1 9674   5.707   1.785   6.826
 2925SOL    HW2 9675   5.790   1.720   6.951
 2926SOL     OW 9676   6.867   2.335   6.069
 2926SOL    HW1 9677   6.848   2.428   6.037
 2926SOL    HW2 9678   6.792   2.304   6.127
 2927SOL     OW 9679   1.984   3.257   0.725
 2927SOL    HW1 9680   2.031   3.308   0.653
 2927SOL    HW2 9681   2.049   3.203   0.777
 2928SOL     OW 9682   6.665   1.318   6.687
 2928SOL    HW1 9683   6.617   1.312   6.775
 2928SOL    HW2 9684   6.714   1.405   6.682
 2929SOL     OW 9685   1.407   2.692   5.054
 2929SOL    HW1 9686   1.460   2.753   5.112
 2929SOL    HW2 9687   1.317   2.676   5.094
 2930SOL     OW 9688   5.616   6.143   5.259
 2930SOL    HW1 9689   5.659   6.216   5.206
 2930SOL    HW2 9690   5.616   6.059   5.206
 2931SOL     OW 9691   3.945   4.900   0.269
 2931SOL    HW1 9692   3.996   4.899   0.183
 2931SOL    HW2 9693   3.914   4.808   0.291
 2932SOL     OW 9694   6.585   5.081   1.634
 2932SOL    HW1 9695   6.563   5.150   1.565
 2932SOL    HW2 9696   6.684   5.069   1.638
 2933SOL     OW 9697   0.682   0.092   2.104
 2933SOL    HW1 9698   0.599   0.147   2.092
 2933SOL    HW2 9699   0.697   0.076   2.202
 2934SOL     OW 9700   4.892   2.999   1.197
 2934SOL    HW1 9701   4.890   3.088   1.152
 2934SOL    HW2 9702   4.825   2.938   1.154
 2935SOL     OW 9703   1.138   2.345   6.324
 2935SOL    HW1 9704   1.073   2.392   6.384
 2935SOL    HW2 9705   1.089   2.272   6.274
 2936SOL     OW 9706   3.975   6.453   0.811
 2936SOL    HW1 9707   4.038   6.419   0.881
 2936SOL    HW2 9708   3.973   6.389   0.734
 2937SOL     OW 9709   4.696   5.109   1.075
 2937SOL    HW1 9710   4.766   5.045   1.043
 2937SOL    HW2 9711   4.722   5.145   1.164
 2938SOL     OW 9712   6.376   5.453   0.023
 2938SOL    HW1 9713   6.444   5.390   0.062
 2938SOL    HW2 9714   6.310   5.479   0.094
 2939SOL     OW 9715   0.925   0.125   1.715
 2939SOL    HW1 9716   0.905   0.168   1.803
 2939SOL    HW2 9717   0.987   0.184   1.663
 2940SOL     OW 9718   6.168   5.794   4.598
 2940SOL    HW1 9719   6.166   5.843   4.685
 2940SOL    HW2 9720   6.157   5.858   4.522
 2941SOL     OW 9721   2.285   2.410   2.911
 2941SOL    HW1 9722   2.336   2.496   2.913
 2941SOL    HW2 9723   2.240   2.396   2.999
 2942SOL     OW 9724   3.485   2.679   0.354
 2942SOL    HW1 9725   3.509   2.582   0.350
 2942SOL    HW2 9726   3.443   2.706   0.267
 2943SOL     OW 9727   6.243   5.067   3.554
 2943SOL    HW1 9728   6.173   5.061   3.625
 2943SOL    HW2 9729   6.321   5.009   3.578
 2944SOL     OW 9730   2.672   6.317   3.932
 2944SOL    HW1 9731   2.589   6.369   3.951
 2944SOL    HW2 9732   2.670   6.231   3.984
 2945SOL     OW 9733   5.217   3.450   1.756
 2945SOL    HW1 9734   5.175   3.468   1.667
 2945SOL    HW2 9735   5.149   3.411   1.818
 2946SOL     OW 9736   1.900   4.044   5.622
 2946SOL    HW1 9737   1.827   4.027   5.687
 2946SOL    HW2 9738   1.953   3.961   5.607
 2947SOL     OW 9739   0.161   5.368   0.356
 2947SOL    HW1 9740   0.237   5.379   0.292
 2947SOL    HW2 9741   0.083   5.330   0.307
 2948SOL     OW 9742   6.901   4.639   3.256
 2948SOL    HW1 9743   6.848   4.686   3.186
 2948SOL    HW2 9744   6.901   4.694   3.340
 2949SOL     OW 9745   0.379   6.131   6.525
 2949SOL    HW1 9746   0.350   6.222   6.493
 2949SOL    HW2 9747   0.471   6.137   6.563
 2950SOL     OW 9748   5.566   5.047   3.326
 2950SOL    HW1 9749   5.572   5.144   3.352
 2950SOL    HW2 9750   5.492   5.034   3.261
 2951SOL     OW 9751   5.409   1.330   2.062
 2951SOL    HW1 9752   5.365   1.307   2.149
 2951SOL    HW2 9753   5.342   1.323   1.989
 2952SOL     OW 9754   6.463   6.881   5.001
 2952SOL    HW1 9755   6.397   6.890   4.926
 2952SOL    HW2 9756   6.504   6.971   5.021
 2953SOL     OW 9757   0.154   4.513   3.212
 2953SOL    HW1 9758   0.229   4.536   3.274
 2953SOL    HW2 9759   0.173   4.425   3.169
 2954SOL     OW 9760   6.750   4.778   6.640
 2954SOL    HW1 9761   6.693   4.697   6.652
 2954SOL    HW2 9762   6.691   4.859   6.636
 2955SOL     OW 9763   1.288   4.422   0.554
 2955SOL    HW1 9764   1.289   4.513   0.594
 2955SOL    HW2 9765   1.382   4.388   0.546
 2956SOL     OW 9766   0.066   5.572   3.957
 2956SOL    HW1 9767   7.014   5.551   3.889
 2956SOL    HW2 9768   0.026   5.628   4.030
 2957SOL     OW 9769   4.214   5.068   1.520
 2957SOL    HW1 9770   4.268   5.055   1.437
 2957SOL    HW2 9771   4.246   5.004   1.591
 2958SOL     OW 9772   2.352   4.971   3.636
 2958SOL    HW1 9773   2.365   4.982   3.537
 2958SOL    HW2 9774   2.430   5.010   3.684
 2959SOL     OW 9775   4.966   2.795   2.894
 2959SOL    HW1 9776   5.004   2.739   2.821
 2959SOL    HW2 9777   4.911   2.869   2.855
 2960SOL     OW 9778   3.614   6.991   0.046
 2960SOL    HW1 9779   3.555   0.051   0.028
 2960SOL    HW2 9780   3.575   6.936   0.119
 2961SOL     OW 9781   6.637   4.982   3.405
 2961SOL    HW1 9782   6.617   5.022   3.316
 2961SOL    HW2 9783   6.731   4.948   3.405
 2962SOL     OW 9784   4.950   6.475   3.103
 2962SOL    HW1 9785   4.961   6.457   3.201
 2962SOL    HW2 9786   4.856   6.455   3.076
 2963SOL     OW 9787   1.117   0.816   6.568
 2963SOL    HW1 9788   1.190   0.847   6.628
 2963SOL    HW2 9789   1.135   0.847   6.474
 2964SOL     OW 9790   0.315   2.707   6.249
 2964SOL    HW1 9791   0.410   2.676   6.255
 2964SOL    HW2 9792   0.299   2.750   6.160
 2965SOL     OW 9793   1.067   0.242   4.321
 2965SOL    HW1 9794   1.119   0.234   4.406
 2965SOL    HW2 9795   1.131   0.244   4.244
 2966SOL     OW 9796   4.971   5.473   3.836
 2966SOL    HW1 9797   5.000   5.568   3.822
 2966SOL    HW2 9798   4.934   5.463   3.929
 2967SOL     OW 9799   6.138   1.297   5.771
 2967SOL    HW1 9800   6.077   1.230   5.815
 2967SOL    HW2 9801   6.095   1.387   5.773
 2968SOL     OW 9802   1.851   2.571   0.717
 2968SOL    HW1 9803   1.881   2.663   0.690
 2968SOL    HW2 9804   1.929   2.510   0.720
 2969SOL     OW 9805   4.894   3.686   4.689
 2969SOL    HW1 9806   4.841   3.664   4.771
 2969SOL    HW2 9807   4.871   3.778   4.659
 2970SOL     OW 9808   2.957   2.923   5.301
 2970SOL    HW1 9809   3.025   2.973   5.353
 2970SOL    HW2 9810   2.996   2.893   5.214
 2971SOL     OW 9811   5.895   4.083   0.142
 2971SOL    HW1 9812   5.987   4.060   0.173
 2971SOL    HW2 9813   5.832   4.010   0.170
 2972SOL     OW 9814   5.652   5.126   0.104
 2972SOL    HW1 9815   5.698   5.116   0.192
 2972SOL    HW2 9816   5.562   5.169   0.117
 2973SOL     OW 9817   4.865   6.865   2.280
 2973SOL    HW1 9818   4.885   6.935   2.348
 2973SOL    HW2 9819   4.849   6.909   2.191
 2974SOL     OW 9820   6.060   4.348   3.201
 2974SOL    HW1 9821   6.086   4.445   3.206
 2974SOL    HW2 9822   6.097   4.308   3.117
 2975SOL     OW 9823   4.956   4.681   4.457
 2975SOL    HW1 9824   5.012   4.621   4.514
 2975SOL    HW2 9825   4.934   4.635   4.371
 2976SOL     OW 9826   5.235   2.224   3.155
 2976SOL    HW1 9827   5.334   2.239   3.143
 2976SOL    HW2 9828   5.194   2.306   3.195
 2977SOL     OW 9829   0.965   0.587   2.404
 2977SOL    HW1 9830   0.973   0.646   2.323
 2977SOL    HW2 9831   0.901   0.513   2.386
 2978SOL     OW 9832   4.312   3.998   0.186
 2978SOL    HW1 9833   4.391   4.002   0.125
 2978SOL    HW2 9834   4.255   4.080   0.171
 2979SOL     OW 9835   3.205   1.529   4.158
 2979SOL    HW1 9836   3.206   1.432   4.135
 2979SOL    HW2 9837   3.274   1.577   4.103
 2980SOL     OW 9838   2.364   5.198   6.295
 2980SOL    HW1 9839   2.286   5.136   6.306
 2980SOL    HW2 9840   2.435   5.174   6.361
 2981SOL     OW 9841   2.529   1.825   0.184
 2981SOL    HW1 9842   2.494   1.871   0.266
 2981SOL    HW2 9843   2.460   1.828   0.112
 2982SOL     OW 9844   1.883   6.075   2.341
 2982SOL    HW1 9845   1.952   6.013   2.380
 2982SOL    HW2 9846   1.902   6.087   2.244
 2983SOL     OW 9847   6.943   2.407   0.978
 2983SOL    HW1 9848   6.934   2.464   0.896
 2983SOL    HW2 9849   6.941   2.311   0.953
 2984SOL     OW 9850   5.710   5.170   6.398
 2984SOL    HW1 9851   5.724   5.106   6.322
 2984SOL    HW2 9852   5.747   5.130   6.482
 2985SOL     OW 9853   0.467   1.255   4.510
 2985SOL    HW1 9854   0.383   1.228   4.463
 2985SOL    HW2 9855   0.538   1.275   4.443
 2986SOL     OW 9856   3.563   4.023   2.246
 2986SOL    HW1 9857   3.470   4.052   2.223
 2986SOL    HW2 9858   3.585   4.052   2.339
 2987SOL     OW 9859   1.728   1.325   4.485
 2987SOL    HW1 9860   1.651   1.388   4.500
 2987SOL    HW2 9861   1.696   1.243   4.437
 2988SOL     OW 9862   1.796   6.821   1.491
 2988SOL    HW1 9863   1.707   6.793   1.456
 2988SOL    HW2 9864   1.785   6.871   1.577
 2989SOL     OW 9865   5.114   3.884   5.149
 2989SOL    HW1 9866   5.092   3.968   5.200
 2989SOL    HW2 9867   5.070   3.887   5.060
 2990SOL     OW 9868   5.140   2.526   4.395
 2990SOL    HW1 9869   5.198   2.470   4.455
 2990SOL    HW2 9870   5.130   2.617   4.433
 2991SOL     OW 9871   6.270   3.326   6.656
 2991SOL    HW1 9872   6.326   3.269   6.597
 2991SOL    HW2 9873   6.275   3.421   6.625
 2992SOL     OW 9874   1.518   4.752   4.493
 2992SOL    HW1 9875   1.559   4.791   4.575
 2992SOL    HW2 9876   1.588   4.706   4.438
 2993SOL     OW 9877   0.119   4.946   0.391
 2993SOL    HW1 9878   0.106   5.002   0.473
 2993SOL    HW2 9879   0.035   4.948   0.337
 2994SOL     OW 9880   4.479   5.864   6.870
 2994SOL    HW1 9881   4.470   5.946   6.925
 2994SOL    HW2 9882   4.529   5.885   6.786
 2995SOL     OW 9883   4.478   6.936   0.223
 2995SOL    HW1 9884   4.405   6.886   0.178
 2995SOL    HW2 9885   4.518   6.880   0.295
 2996SOL     OW 9886   1.063   1.836   4.745
 2996SOL    HW1 9887   1.099   1.924   4.774
 2996SOL    HW2 9888   0.963   1.841   4.737
 2997SOL     OW 9889   4.797   0.388   2.912
 2997SOL    HW1 9890   4.791   0.312   2.847
 2997SOL    HW2 9891   4.816   0.473   2.863
 2998SOL     OW 9892   3.721   0.118   3.708
 2998SOL    HW1 9893   3.676   0.184   3.649
 2998SOL    HW2 9894   3.820   0.132   3.704
 2999SOL     OW 9895   3.214   4.642   5.979
 2999SOL    HW1 9896   3.204   4.738   6.004
 2999SOL    HW2 9897   3.302   4.607   6.011
 3000SOL     OW 9898   2.945   4.542   6.750
 3000SOL    HW1 9899   2.879   4.554   6.676
 3000SOL    HW2 9900   2.923   4.459   6.801
 3001SOL     OW 9901   6.199   2.071   0.431
 3001SOL    HW1 9902   6.279   2.011   0.440
 3001SOL    HW2 9903   6.165   2.095   0.523
 3002SOL     OW 9904   3.157   1.568   0.319
 3002SOL    HW1 9905   3.228   1.611   0.263
 3002SOL    HW2 9906   3.076   1.627   0.321
 3003SOL     OW 9907   0.664   6.325   1.379
 3003SOL    HW1 9908   0.629   6.418   1.370
 3003SOL    HW2 9909   0.593   6.265   1.416
 3004SOL     OW 9910   1.885   4.826   3.250
 3004SOL    HW1 9911   1.841   4.833   3.160
 3004SOL    HW2 9912   1.822   4.783   3.315
 3005SOL     OW 9913   1.384   3.082   6.103
 3005SOL    HW1 9914   1.354   3.068   6.008
 3005SOL    HW2 9915   1.327   3.027   6.164
 3006SOL     OW 9916   5.470   1.239   5.128
 3006SOL    HW1 9917   5.567   1.260   5.137
 3006SOL    HW2 9918   5.459   1.146   5.091
 3007SOL     OW 9919   4.710   5.108   0.292
 3007SOL    HW1 9920   4.800   5.148   0.270
 3007SOL    HW2 9921   4.720   5.011   0.311
 3008SOL     OW 9922   3.573   2.499   6.255
 3008SOL    HW1 9923   3.663   2.512   6.297
 3008SOL    HW2 9924   3.511   2.571   6.285
 3009SOL     OW 9925   0.102   2.278   3.042
 3009SOL    HW1 9926   0.071   2.190   3.005
 3009SOL    HW2 9927   0.150   2.329   2.971
 3010SOL     OW 9928   3.257   5.613   4.972
 3010SOL    HW1 9929   3.289   5.608   4.878
 3010SOL    HW2 9930   3.212   5.527   4.997
 3011SOL     OW 9931   6.510   6.915   1.434
 3011SOL    HW1 9932   6.518   6.824   1.393
 3011SOL    HW2 9933   6.510   6.984   1.361
 3012SOL     OW 9934   2.325   3.794   0.087
 3012SOL    HW1 9935   2.301   3.771   0.182
 3012SOL    HW2 9936   2.345   3.710   0.037
 3013SOL     OW 9937   6.120   4.893   3.373
 3013SOL    HW1 9938   6.175   4.953   3.431
 3013SOL    HW2 9939   6.085   4.816   3.428
 3014SOL     OW 9940   4.851   1.600   6.781
 3014SOL    HW1 9941   4.808   1.689   6.793
 3014SOL    HW2 9942   4.949   1.612   6.766
 3015SOL     OW 9943   2.262   1.604   0.725
 3015SOL    HW1 9944   2.172   1.617   0.685
 3015SOL    HW2 9945   2.325   1.673   0.688
 3016SOL     OW 9946   3.369   0.039   4.217
 3016SOL    HW1 9947   3.414   0.105   4.278
 3016SOL    HW2 9948   3.436   6.991   4.184
 3017SOL     OW 9949   5.899   4.610   2.438
 3017SOL    HW1 9950   5.907   4.680   2.509
 3017SOL    HW2 9951   5.887   4.520   2.480
 3018SOL     OW 9952   3.911   0.060   6.672
 3018SOL    HW1 9953   3.951   0.032   6.584
 3018SOL    HW2 9954   3.975   0.040   6.745
 3019SOL     OW 9955   0.450   6.983   0.419
 3019SOL    HW1 9956   0.364   6.999   0.372
 3019SOL    HW2 9957   0.434   6.975   0.518
 3020SOL     OW 9958   4.337   3.314   0.470
 3020SOL    HW1 9959   4.262   3.369   0.436
 3020SOL    HW2 9960   4.321   3.218   0.448
 3021SOL     OW 9961   2.262   6.820   4.372
 3021SOL    HW1 9962   2.234   6.746   4.311
 3021SOL    HW2 9963   2.187   6.844   4.433
 3022SOL     OW 9964   4.463   5.501   4.424
 3022SOL    HW1 9965   4.448   5.599   4.410
 3022SOL    HW2 9966   4.406   5.449   4.360
 3023SOL     OW 9967   3.969   0.034   2.760
 3023SOL    HW1 9968   3.937   0.110   2.816
 3023SOL    HW2 9969   4.029   0.068   2.688
 3024SOL     OW 9970   6.077   6.171   5.476
 3024SOL    HW1 9971   6.129   6.155   5.560
 3024SOL    HW2 9972   6.127   6.233   5.416
 3025SOL     OW 9973   3.753   6.083   1.727
 3025SOL    HW1 9974   3.758   6.162   1.666
 3025SOL    HW2 9975   3.829   6.021   1.708
 3026SOL     OW 9976   0.396   1.312   6.241
 3026SOL    HW1 9977   0.339   1.242   6.198
 3026SOL    HW2 9978   0.401   1.295   6.339
 3027SOL     OW 9979   4.006   1.482   2.294
 3027SOL    HW1 9980   4.081   1.447   2.238
 3027SOL    HW2 9981   3.973   1.567   2.254
 3028SOL     OW 9982   2.123   3.864   6.054
 3028SOL    HW1 9983   2.070   3.940   6.093
 3028SOL    HW2 9984   2.085   3.840   5.965
 3029SOL     OW 9985   1.124   2.290   3.409
 3029SOL    HW1 9986   1.211   2.321   3.371
 3029SOL    HW2 9987   1.138   2.257   3.502
 3030SOL     OW 9988   1.464   4.038   0.814
 3030SOL    HW1 9989   1.466   4.069   0.719
 3030SOL    HW2 9990   1.557   4.020   0.845
 3031SOL     OW 9991   1.543   4.651   0.557
 3031SOL    HW1 9992   1.497   4.647   0.646
 3031SOL    HW2 9993   1.534   4.744   0.519
 3032SOL     OW 9994   2.184   5.462   2.496
 3032SOL    HW1 9995   2.205   5.372   2.536
 3032SOL    HW2 9996   2.085   5.470   2.483
 3033SOL     OW 9997   5.985   2.013   3.127
 3033SOL    HW1 9998   5.900   1.976   3.090
 3033SOL    HW2 9999   6.061   1.986   3.068
 3034SOL     OW10000   1.115   5.723   3.982
 3034SOL    HW110001   1.104   5.790   4.056
 3034SOL    HW210002   1.207   5.685   3.984
 3035SOL     OW10003   0.840   3.129   6.254
 3035SOL    HW110004   0.891   3.053   6.295
 3035SOL    HW210005   0.811   3.103   6.162
 3036SOL     OW10006   1.208   1.777   5.032
 3036SOL    HW110007   1.148   1.737   4.963
 3036SOL    HW210008   1.183   1.873   5.046
 3037SOL     OW10009   6.867   5.079   5.291
 3037SOL    HW110010   6.863   5.139   5.211
 3037SOL    HW210011   6.902   5.130   5.369
 3038SOL     OW10012   5.188   4.664   5.977
 3038SOL    HW110013   5.089   4.653   5.980
 3038SOL    HW210014   5.222   4.693   6.067
 3039SOL     OW10015   0.066   3.144   6.795
 3039SOL    HW110016   7.008   3.198   6.758
 3039SOL    HW210017   0.043   3.112   6.886
 3040SOL     OW10018   3.016   4.702   5.779
 3040SOL    HW110019   3.098   4.682   5.832
 3040SOL    HW210020   2.957   4.621   5.777
 3041SOL     OW10021   1.177   4.537   5.869
 3041SOL    HW110022   1.266   4.525   5.824
 3041SOL    HW210023   1.152   4.634   5.868
 3042SOL     OW10024   6.228   5.687   2.498
 3042SOL    HW110025   6.144   5.632   2.500
 3042SOL    HW210026   6.259   5.696   2.404
 3043SOL     OW10027   3.156   3.389   0.619
 3043SOL    HW110028   3.122   3.460   0.558
 3043SOL    HW210029   3.242   3.419   0.661
 3044SOL     OW10030   3.038   4.785   5.527
 3044SOL    HW110031   3.024   4.767   5.624
 3044SOL    HW210032   3.005   4.877   5.505
 3045SOL     OW10033   4.565   6.832   3.063
 3045SOL    HW110034   4.583   6.799   2.971
 3045SOL    HW210035   4.598   6.926   3.072
 3046SOL     OW10036   3.341   6.056   6.801
 3046SOL    HW110037   3.337   5.959   6.826
 3046SOL    HW210038   3.430   6.094   6.829
 3047SOL     OW10039   6.362   0.270   0.618
 3047SOL    HW110040   6.270   0.261   0.578
 3047SOL    HW210041   6.364   0.349   0.679
 3048SOL     OW10042   4.631   2.314   0.936
 3048SOL    HW110043   4.622   2.283   1.031
 3048SOL    HW210044   4.661   2.237   0.879
 3049SOL     OW10045   1.152   0.816   3.941
 3049SOL    HW110046   1.186   0.885   3.878
 3049SOL    HW210047   1.161   0.725   3.899
 3050SOL     OW10048   2.514   2.512   1.517
 3050SOL    HW110049   2.539   2.430   1.569
 3050SOL    HW210050   2.592   2.574   1.513
 3051SOL     OW10051   2.665   6.703   6.394
 3051SOL    HW110052   2.613   6.631   6.439
 3051SOL    HW210053   2.618   6.732   6.311
 3052SOL     OW10054   5.444   5.441   2.215
 3052SOL    HW110055   5.475   5.354   2.177
 3052SOL    HW210056   5.413   5.427   2.309
 3053SOL     OW10057   0.798   3.955   0.907
 3053SOL    HW110058   0.719   3.995   0.954
 3053SOL    HW210059   0.872   4.022   0.904
 3054SOL     OW10060   5.586   0.887   2.448
 3054SOL    HW110061   5.553   0.873   2.541
 3054SOL    HW210062   5.681   0.856   2.441
 3055SOL     OW10063   5.563   6.771   5.672
 3055SOL    HW110064   5.528   6.705   5.606
 3055SOL    HW210065   5.648   6.735   5.712
 3056SOL     OW10066   6.165   1.959   5.578
 3056SOL    HW110067   6.223   1.878   5.588
 3056SOL    HW210068   6.146   1.998   5.668
 3057SOL     OW10069   5.306   6.104   4.404
 3057SOL    HW110070   5.364   6.158   4.343
 3057SOL    HW210071   5.271   6.162   4.477
 3058SOL     OW10072   6.520   3.945   0.774
 3058SOL    HW110073   6.601   3.938   0.831
 3058SOL    HW210074   6.506   3.860   0.724
 3059SOL     OW10075   2.217   1.557   4.191
 3059SOL    HW110076   2.252   1.496   4.120
 3059SOL    HW210077   2.139   1.515   4.236
 3060SOL     OW10078   2.547   5.185   6.910
 3060SOL    HW110079   2.617   5.142   6.967
 3060SOL    HW210080   2.567   5.169   6.814
 3061SOL     OW10081   5.845   5.821   5.888
 3061SOL    HW110082   5.819   5.775   5.973
 3061SOL    HW210083   5.801   5.911   5.884
 3062SOL     OW10084   3.232   5.269   1.163
 3062SOL    HW110085   3.162   5.220   1.214
 3062SOL    HW210086   3.229   5.366   1.186
 3063SOL     OW10087   0.941   4.362   0.974
 3063SOL    HW110088   1.029   4.364   0.926
 3063SOL    HW210089   0.868   4.390   0.910
 3064SOL     OW10090   4.293   3.103   6.911
 3064SOL    HW110091   4.348   3.156   6.975
 3064SOL    HW210092   4.298   3.006   6.934
 3065SOL     OW10093   0.928   1.608   6.302
 3065SOL    HW110094   0.845   1.635   6.253
 3065SOL    HW210095   0.958   1.519   6.269
 3066SOL     OW10096   5.202   5.119   6.236
 3066SOL    HW110097   5.129   5.185   6.252
 3066SOL    HW210098   5.257   5.109   6.318
 3067SOL     OW10099   2.499   1.465   0.753
 3067SOL    HW110100   2.531   1.495   0.664
 3067SOL    HW210101   2.402   1.487   0.763
 3068SOL     OW10102   6.827   0.813   1.383
 3068SOL    HW110103   6.851   0.734   1.327
 3068SOL    HW210104   6.741   0.795   1.431
 3069SOL     OW10105   6.521   6.438   3.163
 3069SOL    HW110106   6.467   6.391   3.093
 3069SOL    HW210107   6.477   6.524   3.186
 3070SOL     OW10108   2.799   0.949   6.831
 3070SOL    HW110109   2.741   1.027   6.855
 3070SOL    HW210110   2.755   0.895   6.760
 3071SOL     OW10111   6.955   4.985   3.751
 3071SOL    HW110112   6.991   4.933   3.829
 3071SOL    HW210113   6.867   5.025   3.775
 3072SOL     OW10114   1.855   6.273   6.907
 3072SOL    HW110115   1.761   6.247   6.883
 3072SOL    HW210116   1.875   6.242   7.000
 3073SOL     OW10117   0.090   4.200   1.319
 3073SOL    HW110118   0.147   4.141   1.376
 3073SOL    HW210119   0.142   4.280   1.290
 3074SOL     OW10120   1.415   4.196   1.379
 3074SOL    HW110121   1.372   4.287   1.380
 3074SOL    HW210122   1.386   4.145   1.460
 3075SOL     OW10123   2.513   5.308   3.928
 3075SOL    HW110124   2.457   5.315   3.846
 3075SOL    HW210125   2.459   5.335   4.008
 3076SOL     OW10126   6.266   1.391   4.293
 3076SOL    HW110127   6.354   1.353   4.322
 3076SOL    HW210128   6.282   1.464   4.226
 3077SOL     OW10129   5.982   3.520   1.887
 3077SOL    HW110130   5.969   3.434   1.838
 3077SOL    HW210131   6.079   3.534   1.907
 3078SOL     OW10132   6.645   3.133   1.986
 3078SOL    HW110133   6.675   3.085   2.068
 3078SOL    HW210134   6.613   3.225   2.011
 3079SOL     OW10135   2.899   2.269   3.706
 3079SOL    HW110136   2.889   2.262   3.805
 3079SOL    HW210137   2.993   2.246   3.680
 3080SOL     OW10138   4.832   4.251   1.964
 3080SOL    HW110139   4.898   4.242   2.038
 3080SOL    HW210140   4.817   4.347   1.943
 3081SOL     OW10141   0.507   4.600   6.226
 3081SOL    HW110142   0.552   4.519   6.189
 3081SOL    HW210143   0.562   4.681   6.204
 3082SOL     OW10144   2.784   5.796   4.149
 3082SOL    HW110145   2.756   5.876   4.095
 3082SOL    HW210146   2.740   5.799   4.238
 3083SOL     OW10147   3.386   5.729   2.839
 3083SOL    HW110148   3.377   5.679   2.752
 3083SOL    HW210149   3.318   5.803   2.842
 3084SOL     OW10150   0.111   4.146   2.348
 3084SOL    HW110151   0.023   4.097   2.350
 3084SOL    HW210152   0.124   4.186   2.257
 3085SOL     OW10153   5.284   4.749   0.890
 3085SOL    HW110154   5.209   4.803   0.929
 3085SOL    HW210155   5.311   4.678   0.955
 3086SOL     OW10156   4.450   0.819   6.937
 3086SOL    HW110157   4.453   0.919   6.933
 3086SOL    HW210158   4.541   0.783   6.957
 3087SOL     OW10159   2.582   6.310   2.715
 3087SOL    HW110160   2.574   6.404   2.748
 3087SOL    HW210161   2.561   6.247   2.790
 3088SOL     OW10162   1.370   3.125   5.633
 3088SOL    HW110163   1.468   3.105   5.643
 3088SOL    HW210164   1.344   3.197   5.696
 3089SOL     OW10165   4.678   1.962   5.021
 3089SOL    HW110166   4.623   1.880   5.004
 3089SOL    HW210167   4.731   1.950   5.105
 3090SOL     OW10168   1.568   1.124   2.071
 3090SOL    HW110169   1.617   1.147   2.155
 3090SOL    HW210170   1.612   1.169   1.993
 3091SOL     OW10171   1.320   1.019   0.620
 3091SOL    HW110172   1.354   0.953   0.686
 3091SOL    HW210173   1.397   1.072   0.582
 3092SOL     OW10174   4.889   6.560   1.405
 3092SOL    HW110175   4.976   6.575   1.451
 3092SOL    HW210176   4.852   6.647   1.375
 3093SOL     OW10177   5.205   6.697   5.497
 3093SOL    HW110178   5.303   6.692   5.476
 3093SOL    HW210179   5.167   6.605   5.504
 3094SOL     OW10180   3.184   0.741   4.241
 3094SOL    HW110181   3.122   0.798   4.296
 3094SOL    HW210182   3.131   0.673   4.191
 3095SOL     OW10183   1.981   3.399   5.712
 3095SOL    HW110184   2.061   3.377   5.769
 3095SOL    HW210185   2.006   3.392   5.616
 3096SOL     OW10186   0.422   3.580   5.203
 3096SOL    HW110187   0.517   3.554   5.184
 3096SOL    HW210188   0.375   3.600   5.117
 3097SOL     OW10189   5.289   2.826   0.441
 3097SOL    HW110190   5.319   2.795   0.530
 3097SOL    HW210191   5.288   2.926   0.439
 3098SOL     OW10192   1.560   3.094   1.925
 3098SOL    HW110193   1.644   3.079   1.978
 3098SOL    HW210194   1.571   3.174   1.867
 3099SOL     OW10195   1.063   5.876   4.195
 3099SOL    HW110196   1.155   5.902   4.224
 3099SOL    HW210197   0.997   5.946   4.225
 3100SOL     OW10198   7.012   6.238   2.146
 3100SOL    HW110199   6.947   6.211   2.217
 3100SOL    HW210200   0.083   6.257   2.188
 3101SOL     OW10201   4.753   6.289   6.040
 3101SOL    HW110202   4.653   6.286   6.034
 3101SOL    HW210203   4.785   6.377   6.005
 3102SOL     OW10204   6.729   5.487   0.719
 3102SOL    HW110205   6.724   5.515   0.623
 3102SOL    HW210206   6.805   5.423   0.731
 3103SOL     OW10207   5.129   0.817   0.869
 3103SOL    HW110208   5.030   0.820   0.852
 3103SOL    HW210209   5.162   0.724   0.855
 3104SOL     OW10210   4.056   6.987   6.910
 3104SOL    HW110211   4.080   0.027   6.987
 3104SOL    HW210212   3.997   6.913   6.941
 3105SOL     OW10213   4.747   3.625   1.308
 3105SOL    HW110214   4.682   3.679   1.361
 3105SOL    HW210215   4.814   3.685   1.266
 3106SOL     OW10216   5.521   6.939   5.223
 3106SOL    HW110217   5.531   6.980   5.132
 3106SOL    HW210218   5.425   6.916   5.238
 3107SOL     OW10219   3.916   1.658   4.158
 3107SOL    HW110220   4.004   1.706   4.148
 3107SOL    HW210221   3.853   1.691   4.088
 3108SOL     OW10222   1.936   5.304   4.638
 3108SOL    HW110223   2.032   5.290   4.658
 3108SOL    HW210224   1.890   5.215   4.630
 3109SOL     OW10225   6.278   0.516   4.355
 3109SOL    HW110226   6.304   0.582   4.425
 3109SOL    HW210227   6.283   0.560   4.265
 3110SOL     OW10228   2.246   4.093   3.214
 3110SOL    HW110229   2.194   4.108   3.298
 3110SOL    HW210230   2.303   4.173   3.196
 3111SOL     OW10231   0.117   4.813   3.227
 3111SOL    HW110232   0.069   4.730   3.198
 3111SOL    HW210233   0.201   4.824   3.173
 3112SOL     OW10234   3.227   3.420   6.939
 3112SOL    HW110235   3.249   3.517   6.930
 3112SOL    HW210236   3.305   3.372   6.979
 3113SOL     OW10237   3.203   5.938   2.854
 3113SOL    HW110238   3.114   5.938   2.808
 3113SOL    HW210239   3.235   6.032   2.863
 3114SOL     OW10240   4.096   1.592   0.020
 3114SOL    HW110241   4.087   1.583   0.119
 3114SOL    HW210242   4.130   1.505   7.001
 3115SOL     OW10243   3.650   4.619   5.327
 3115SOL    HW110244   3.612   4.663   5.409
 3115SOL    HW210245   3.632   4.521   5.331
 3116SOL     OW10246   0.510   1.955   0.342
 3116SOL    HW110247   0.501   2.052   0.366
 3116SOL    HW210248   0.550   1.905   0.419
 3117SOL     OW10249   4.765   2.461   5.234
 3117SOL    HW110250   4.772   2.531   5.162
 3117SOL    HW210251   4.845   2.401   5.229
 3118SOL     OW10252   1.282   6.705   2.087
 3118SOL    HW110253   1.308   6.795   2.123
 3118SOL    HW210254   1.205   6.669   2.139
 3119SOL     OW10255   3.022   2.568   5.619
 3119SOL    HW110256   3.071   2.489   5.582
 3119SOL    HW210257   3.074   2.652   5.601
 3120SOL     OW10258   3.288   0.852   5.908
 3120SOL    HW110259   3.293   0.781   5.978
 3120SOL    HW210260   3.269   0.811   5.819
 3121SOL     OW10261   5.523   2.093   4.601
 3121SOL    HW110262   5.609   2.143   4.598
 3121SOL    HW210263   5.536   2.000   4.566
 3122SOL     OW10264   4.435   4.785   5.183
 3122SOL    HW110265   4.502   4.827   5.122
 3122SOL    HW210266   4.371   4.854   5.216
 3123SOL     OW10267   1.531   0.784   3.605
 3123SOL    HW110268   1.487   0.771   3.694
 3123SOL    HW210269   1.483   0.731   3.536
 3124SOL     OW10270   5.433   6.658   3.804
 3124SOL    HW110271   5.333   6.659   3.809
 3124SOL    HW210272   5.470   6.719   3.874
 3125SOL     OW10273   1.011   2.929   5.349
 3125SOL    HW110274   0.914   2.924   5.371
 3125SOL    HW210275   1.065   2.892   5.424
 3126SOL     OW10276   5.470   4.464   6.108
 3126SOL    HW110277   5.437   4.444   6.015
 3126SOL    HW210278   5.426   4.547   6.141
 3127SOL     OW10279   1.560   2.859   5.179
 3127SOL    HW110280   1.658   2.845   5.161
 3127SOL    HW210281   1.544   2.857   5.278
 3128SOL     OW10282   3.833   0.576   0.238
 3128SOL    HW110283   3.897   0.586   0.162
 3128SOL    HW210284   3.865   0.630   0.316
 3129SOL     OW10285   5.088   3.611   1.147
 3129SOL    HW110286   5.059   3.540   1.083
 3129SOL    HW210287   5.031   3.692   1.135
 3130SOL     OW10288   1.591   4.461   1.166
 3130SOL    HW110289   1.532   4.473   1.246
 3130SOL    HW210290   1.627   4.368   1.166
 3131SOL     OW10291   0.402   3.458   2.452
 3131SOL    HW110292   0.466   3.386   2.425
 3131SOL    HW210293   0.313   3.441   2.410
 3132SOL     OW10294   4.414   4.811   6.630
 3132SOL    HW110295   4.464   4.724   6.628
 3132SOL    HW210296   4.445   4.865   6.709
 3133SOL     OW10297   3.598   0.999   2.840
 3133SOL    HW110298   3.661   1.068   2.874
 3133SOL    HW210299   3.632   0.964   2.752
 3134SOL     OW10300   3.958   5.375   1.920
 3134SOL    HW110301   3.938   5.471   1.901
 3134SOL    HW210302   3.873   5.322   1.914
 3135SOL     OW10303   4.740   6.623   6.281
 3135SOL    HW110304   4.707   6.682   6.355
 3135SOL    HW210305   4.778   6.680   6.208
 3136SOL     OW10306   5.619   0.573   1.598
 3136SOL    HW110307   5.610   0.534   1.506
 3136SOL    HW210308   5.663   0.507   1.658
 3137SOL     OW10309   6.611   6.924   3.034
 3137SOL    HW110310   6.534   6.949   3.093
 3137SOL    HW210311   6.586   6.942   2.938
 3138SOL     OW10312   6.078   5.348   3.469
 3138SOL    HW110313   6.026   5.393   3.397
 3138SOL    HW210314   6.165   5.315   3.432
 3139SOL     OW10315   3.492   4.963   1.541
 3139SOL    HW110316   3.442   4.880   1.565
 3139SOL    HW210317   3.428   5.038   1.526
 3140SOL     OW10318   6.511   6.456   5.264
 3140SOL    HW110319   6.566   6.486   5.185
 3140SOL    HW210320   6.463   6.534   5.303
 3141SOL     OW10321   0.150   0.199   6.640
 3141SOL    HW110322   0.230   0.260   6.648
 3141SOL    HW210323   0.080   0.228   6.704
 3142SOL     OW10324   3.568   1.377   3.071
 3142SOL    HW110325   3.613   1.310   3.130
 3142SOL    HW210326   3.617   1.464   3.076
 3143SOL     OW10327   6.283   1.969   6.636
 3143SOL    HW110328   6.279   1.933   6.729
 3143SOL    HW210329   6.210   2.036   6.623
 3144SOL     OW10330   4.645   3.652   0.636
 3144SOL    HW110331   4.662   3.721   0.706
 3144SOL    HW210332   4.559   3.605   0.655
 3145SOL     OW10333   2.263   6.577   2.395
 3145SOL    HW110334   2.231   6.584   2.490
 3145SOL    HW210335   2.187   6.596   2.333
 3146SOL     OW10336   0.394   0.888   4.927
 3146SOL    HW110337   0.456   0.871   4.850
 3146SOL    HW210338   0.435   0.954   4.990
 3147SOL     OW10339   3.089   5.186   6.746
 3147SOL    HW110340   2.996   5.217   6.766
 3147SOL    HW210341   3.091   5.086   6.747
 3148SOL     OW10342   0.102   0.350   4.111
 3148SOL    HW110343   0.007   0.372   4.088
 3148SOL    HW210344   0.135   0.279   4.049
 3149SOL     OW10345   3.477   1.076   6.805
 3149SOL    HW110346   3.575   1.078   6.785
 3149SOL    HW210347   3.459   1.007   6.876
 3150SOL     OW10348   6.512   5.899   5.428
 3150SOL    HW110349   6.510   5.806   5.466
 3150SOL    HW210350   6.427   5.914   5.376
 3151SOL     OW10351   6.902   2.130   5.810
 3151SOL    HW110352   6.959   2.048   5.805
 3151SOL    HW210353   6.811   2.107   5.844
 3152SOL     OW10354   1.025   4.286   6.774
 3152SOL    HW110355   1.043   4.296   6.872
 3152SOL    HW210356   1.079   4.354   6.723
 3153SOL     OW10357   6.040   4.907   0.208
 3153SOL    HW110358   6.110   4.918   0.278
 3153SOL    HW210359   6.044   4.815   0.170
 3154SOL     OW10360   6.169   0.935   1.155
 3154SOL    HW110361   6.149   0.844   1.190
 3154SOL    HW210362   6.217   0.987   1.225
 3155SOL     OW10363   6.265   4.509   0.527
 3155SOL    HW110364   6.193   4.454   0.484
 3155SOL    HW210365   6.334   4.448   0.568
 3156SOL     OW10366   3.181   4.039   2.220
 3156SOL    HW110367   3.120   3.976   2.267
 3156SOL    HW210368   3.205   4.115   2.281
 3157SOL     OW10369   1.863   1.771   5.249
 3157SOL    HW110370   1.876   1.701   5.179
 3157SOL    HW210371   1.832   1.728   5.334
 3158SOL     OW10372   2.524   1.569   4.688
 3158SOL    HW110373   2.499   1.657   4.729
 3158SOL    HW210374   2.467   1.551   4.608
 3159SOL     OW10375   5.759   0.109   6.608
 3159SOL    HW110376   5.814   0.026   6.602
 3159SOL    HW210377   5.687   0.096   6.677
 3160SOL     OW10378   1.400   6.433   5.754
 3160SOL    HW110379   1.314   6.394   5.722
 3160SOL    HW210380   1.471   6.363   5.751
 3161SOL     OW10381   2.405   2.672   2.557
 3161SOL    HW110382   2.379   2.611   2.482
 3161SOL    HW210383   2.437   2.618   2.635
 3162SOL     OW10384   1.310   5.687   0.713
 3162SOL    HW110385   1.372   5.656   0.786
 3162SOL    HW210386   1.221   5.709   0.753
 3163SOL     OW10387   3.821   3.573   6.985
 3163SOL    HW110388   3.896   3.579   6.919
 3163SOL    HW210389   3.759   3.651   6.972
 3164SOL     OW10390   3.799   5.813   2.200
 3164SOL    HW110391   3.884   5.798   2.151
 3164SOL    HW210392   3.729   5.847   2.137
 3165SOL     OW10393   0.812   5.591   1.078
 3165SOL    HW110394   0.910   5.606   1.067
 3165SOL    HW210395   0.783   5.517   1.018
 3166SOL     OW10396   4.695   1.561   4.349
 3166SOL    HW110397   4.690   1.581   4.447
 3166SOL    HW210398   4.606   1.529   4.317
 3167SOL     OW10399   5.607   4.404   0.626
 3167SOL    HW110400   5.571   4.359   0.708
 3167SOL    HW210401   5.695   4.446   0.647
 3168SOL     OW10402   5.776   2.650   0.212
 3168SOL    HW110403   5.867   2.639   0.170
 3168SOL    HW210404   5.716   2.577   0.180
 3169SOL     OW10405   1.572   3.400   3.547
 3169SOL    HW110406   1.505   3.449   3.604
 3169SOL    HW210407   1.664   3.420   3.579
 3170SOL     OW10408   4.122   5.717   2.915
 3170SOL    HW110409   4.210   5.712   2.963
 3170SOL    HW210410   4.132   5.678   2.824
 3171SOL     OW10411   5.791   2.140   1.439
 3171SOL    HW110412   5.890   2.155   1.435
 3171SOL    HW210413   5.766   2.069   1.373
 3172SOL     OW10414   0.351   5.336   6.985
 3172SOL    HW110415   0.425   5.298   6.930
 3172SOL    HW210416   0.291   5.392   6.928
 3173SOL     OW10417   3.308   2.464   6.632
 3173SOL    HW110418   3.386   2.407   6.610
 3173SOL    HW210419   3.253   2.479   6.550
 3174SOL     OW10420   2.561   2.868   6.198
 3174SOL    HW110421   2.645   2.862   6.252
 3174SOL    HW210422   2.482   2.857   6.259
 3175SOL     OW10423   5.951   1.422   1.918
 3175SOL    HW110424   5.892   1.482   1.864
 3175SOL    HW210425   5.965   1.337   1.868
 3176SOL     OW10426   0.887   2.911   5.681
 3176SOL    HW110427   0.963   2.963   5.642
 3176SOL    HW210428   0.808   2.917   5.620
 3177SOL     OW10429   5.056   4.218   4.033
 3177SOL    HW110430   5.062   4.119   4.016
 3177SOL    HW210431   5.147   4.258   4.029
 3178SOL     OW10432   6.305   2.408   0.011
 3178SOL    HW110433   6.219   2.430   6.983
 3178SOL    HW210434   6.366   2.361   6.964
 3179SOL     OW10435   0.913   1.581   1.618
 3179SOL    HW110436   0.822   1.548   1.593
 3179SOL    HW210437   0.917   1.680   1.606
 3180SOL     OW10438   5.680   6.728   0.802
 3180SOL    HW110439   5.760   6.777   0.834
 3180SOL    HW210440   5.630   6.691   0.881
 3181SOL     OW10441   6.750   2.321   4.007
 3181SOL    HW110442   6.657   2.305   3.975
 3181SOL    HW210443   6.815   2.272   3.950
 3182SOL     OW10444   2.707   0.420   0.062
 3182SOL    HW110445   2.617   0.453   0.091
 3182SOL    HW210446   2.709   0.321   0.066
 3183SOL     OW10447   4.350   4.707   2.177
 3183SOL    HW110448   4.383   4.801   2.172
 3183SOL    HW210449   4.250   4.707   2.180
 3184SOL     OW10450   0.571   1.980   3.186
 3184SOL    HW110451   0.610   2.018   3.270
 3184SOL    HW210452   0.537   2.055   3.129
 3185SOL     OW10453   5.076   6.380   6.601
 3185SOL    HW110454   5.168   6.377   6.639
 3185SOL    HW210455   5.015   6.427   6.665
 3186SOL     OW10456   2.782   1.496   0.168
 3186SOL    HW110457   2.830   1.515   0.253
 3186SOL    HW210458   2.845   1.451   0.104
 3187SOL     OW10459   3.822   5.280   2.190
 3187SOL    HW110460   3.917   5.249   2.185
 3187SOL    HW210461   3.771   5.241   2.113
 3188SOL     OW10462   1.525   6.140   4.556
 3188SOL    HW110463   1.574   6.204   4.498
 3188SOL    HW210464   1.558   6.149   4.650
 3189SOL     OW10465   1.508   1.752   0.871
 3189SOL    HW110466   1.508   1.709   0.781
 3189SOL    HW210467   1.473   1.845   0.864
 3190SOL     OW10468   6.884   5.929   6.842
 3190SOL    HW110469   6.936   5.844   6.851
 3190SOL    HW210470   6.850   5.937   6.748
 3191SOL     OW10471   4.521   5.078   1.730
 3191SOL    HW110472   4.452   5.041   1.792
 3191SOL    HW210473   4.510   5.036   1.639
 3192SOL     OW10474   0.597   2.975   0.954
 3192SOL    HW110475   0.657   3.052   0.975
 3192SOL    HW210476   0.511   3.009   0.917
 3193SOL     OW10477   4.015   1.509   4.868
 3193SOL    HW110478   4.107   1.547   4.872
 3193SOL    HW210479   3.982   1.511   4.774
 3194SOL     OW10480   1.039   1.826   5.597
 3194SOL    HW110481   1.021   1.885   5.519
 3194SOL    HW210482   1.137   1.824   5.615
 3195SOL     OW10483   0.712   1.468   1.455
 3195SOL    HW110484   0.644   1.530   1.414
 3195SOL    HW210485   0.790   1.460   1.393
 3196SOL     OW10486   0.023   0.094   6.924
 3196SOL    HW110487   6.956   0.118   6.970
 3196SOL    HW210488   0.075   0.177   6.904
 3197SOL     OW10489   2.530   6.697   5.259
 3197SOL    HW110490   2.480   6.661   5.180
 3197SOL    HW210491   2.556   6.792   5.241
 3198SOL     OW10492   6.578   3.005   3.109
 3198SOL    HW110493   6.587   3.019   3.208
 3198SOL    HW210494   6.543   3.088   3.066
 3199SOL     OW10495   5.338   4.187   2.875
 3199SOL    HW110496   5.355   4.208   2.971
 3199SOL    HW210497   5.311   4.270   2.827
 3200SOL     OW10498   5.865   3.181   2.906
 3200SOL    HW110499   5.781   3.189   2.854
 3200SOL    HW210500   5.899   3.272   2.930
 3201SOL     OW10501   6.622   4.781   3.165
 3201SOL    HW110502   6.528   4.779   3.198
 3201SOL    HW210503   6.655   4.876   3.162
 3202SOL     OW10504   0.959   5.065   0.392
 3202SOL    HW110505   0.990   5.145   0.341
 3202SOL    HW210506   1.020   5.048   0.469
 3203SOL     OW10507   5.660   1.753   0.481
 3203SOL    HW110508   5.718   1.677   0.449
 3203SOL    HW210509   5.574   1.717   0.516
 3204SOL     OW10510   3.648   0.276   3.494
 3204SOL    HW110511   3.709   0.348   3.526
 3204SOL    HW210512   3.562   0.317   3.464
 3205SOL     OW10513   4.896   3.130   6.031
 3205SOL    HW110514   4.893   3.184   5.946
 3205SOL    HW210515   4.961   3.170   6.095
 3206SOL     OW10516   1.624   4.389   0.802
 3206SOL    HW110517   1.616   4.320   0.731
 3206SOL    HW210518   1.720   4.418   0.810
 3207SOL     OW10519   1.276   0.890   7.010
 3207SOL    HW110520   1.345   0.962   7.014
 3207SOL    HW210521   1.205   0.908   0.060
 3208SOL     OW10522   5.371   5.889   6.617
 3208SOL    HW110523   5.309   5.912   6.543
 3208SOL    HW210524   5.366   5.959   6.688
 3209SOL     OW10525   2.922   5.358   4.351
 3209SOL    HW110526   2.944   5.263   4.328
 3209SOL    HW210527   2.920   5.412   4.267
 3210SOL     OW10528   1.389   4.925   0.997
 3210SOL    HW110529   1.317   4.930   1.067
 3210SOL    HW210530   1.463   4.867   1.030
 3211SOL     OW10531   2.143   4.156   0.596
 3211SOL    HW110532   2.123   4.126   0.503
 3211SOL    HW210533   2.226   4.111   0.629
 3212SOL     OW10534   3.020   6.823   2.457
 3212SOL    HW110535   3.035   6.733   2.415
 3212SOL    HW210536   3.001   6.812   2.554
 3213SOL     OW10537   1.072   0.550   6.718
 3213SOL    HW110538   1.057   0.635   6.666
 3213SOL    HW210539   1.028   0.558   6.807
 3214SOL     OW10540   4.778   5.667   2.185
 3214SOL    HW110541   4.779   5.567   2.184
 3214SOL    HW210542   4.757   5.699   2.277
 3215SOL     OW10543   0.312   3.898   0.698
 3215SOL    HW110544   0.346   3.804   0.686
 3215SOL    HW210545   0.266   3.927   0.614
 3216SOL     OW10546   5.833   5.367   0.821
 3216SOL    HW110547   5.774   5.357   0.741
 3216SOL    HW210548   5.787   5.329   0.901
 3217SOL     OW10549   0.806   5.387   2.712
 3217SOL    HW110550   0.844   5.479   2.726
 3217SOL    HW210551   0.797   5.340   2.800
 3218SOL     OW10552   5.541   2.714   2.927
 3218SOL    HW110553   5.637   2.743   2.921
 3218SOL    HW210554   5.514   2.668   2.843
 3219SOL     OW10555   6.746   0.873   4.285
 3219SOL    HW110556   6.840   0.893   4.310
 3219SOL    HW210557   6.735   0.881   4.186
 3220SOL     OW10558   0.079   5.796   6.006
 3220SOL    HW110559   7.003   5.766   5.991
 3220SOL    HW210560   0.085   5.895   5.994
 3221SOL     OW10561   3.740   0.115   2.465
 3221SOL    HW110562   3.659   0.072   2.425
 3221SOL    HW210563   3.712   0.188   2.528
 3222SOL     OW10564   3.083   1.269   2.518
 3222SOL    HW110565   3.053   1.196   2.579
 3222SOL    HW210566   3.018   1.345   2.522
 3223SOL     OW10567   2.542   6.348   0.002
 3223SOL    HW110568   2.581   6.394   6.941
 3223SOL    HW210569   2.488   6.270   6.990
 3224SOL     OW10570   4.728   2.866   4.837
 3224SOL    HW110571   4.811   2.918   4.816
 3224SOL    HW210572   4.648   2.919   4.808
 3225SOL     OW10573   4.516   1.650   5.564
 3225SOL    HW110574   4.590   1.613   5.622
 3225SOL    HW210575   4.445   1.580   5.554
 3226SOL     OW10576   2.645   0.616   2.375
 3226SOL    HW110577   2.639   0.626   2.475
 3226SOL    HW210578   2.594   0.689   2.331
 3227SOL     OW10579   3.727   3.615   6.664
 3227SOL    HW110580   3.819   3.642   6.639
 3227SOL    HW210581   3.706   3.648   6.757
 3228SOL     OW10582   6.934   3.584   1.023
 3228SOL    HW110583   6.916   3.526   1.102
 3228SOL    HW210584   6.883   3.550   0.944
 3229SOL     OW10585   3.773   1.016   5.592
 3229SOL    HW110586   3.798   0.924   5.564
 3229SOL    HW210587   3.847   1.079   5.568
 3230SOL     OW10588   2.188   5.267   5.826
 3230SOL    HW110589   2.203   5.335   5.897
 3230SOL    HW210590   2.151   5.311   5.744
 3231SOL     OW10591   2.594   0.274   2.680
 3231SOL    HW110592   2.677   0.326   2.700
 3231SOL    HW210593   2.565   0.292   2.586
 3232SOL     OW10594   3.982   6.046   4.036
 3232SOL    HW110595   4.020   6.004   3.954
 3232SOL    HW210596   3.889   6.078   4.017
 3233SOL     OW10597   6.727   2.323   0.758
 3233SOL    HW110598   6.722   2.250   0.690
 3233SOL    HW210599   6.735   2.283   0.849
 3234SOL     OW10600   0.537   2.742   0.325
 3234SOL    HW110601   0.447   2.778   0.299
 3234SOL    HW210602   0.600   2.751   0.247
 3235SOL     OW10603   6.722   0.035   1.515
 3235SOL    HW110604   6.653   7.003   1.461
 3235SOL    HW210605   6.690   0.044   1.609
 3236SOL     OW10606   0.758   4.225   0.002
 3236SOL    HW110607   0.756   4.302   6.957
 3236SOL    HW210608   0.730   4.256   0.093
 3237SOL     OW10609   5.862   1.885   2.329
 3237SOL    HW110610   5.939   1.824   2.312
 3237SOL    HW210611   5.886   1.949   2.402
 3238SOL     OW10612   5.908   5.153   0.250
 3238SOL    HW110613   5.942   5.064   0.220
 3238SOL    HW210614   5.961   5.186   0.328
 3239SOL     OW10615   0.443   0.954   3.042
 3239SOL    HW110616   0.456   1.050   3.066
 3239SOL    HW210617   0.345   0.935   3.030
 3240SOL     OW10618   6.929   0.178   6.454
 3240SOL    HW110619   7.009   0.157   6.510
 3240SOL    HW210620   6.851   0.123   6.485
 3241SOL     OW10621   5.019   1.224   5.825
 3241SOL    HW110622   5.026   1.198   5.922
 3241SOL    HW210623   5.046   1.319   5.814
 3242SOL     OW10624   4.412   3.886   6.072
 3242SOL    HW110625   4.402   3.970   6.017
 3242SOL    HW210626   4.455   3.815   6.017
 3243SOL     OW10627   4.448   5.115   0.343
 3243SOL    HW110628   4.405   5.044   0.399
 3243SOL    HW210629   4.540   5.087   0.318
 3244SOL     OW10630   5.575   6.182   0.199
 3244SOL    HW110631   5.542   6.251   0.135
 3244SOL    HW210632   5.644   6.222   0.259
 3245SOL     OW10633   4.695   2.191   4.274
 3245SOL    HW110634   4.694   2.248   4.192
 3245SOL    HW210635   4.783   2.146   4.282
 3246SOL     OW10636   6.525   0.148   3.167
 3246SOL    HW110637   6.516   0.156   3.068
 3246SOL    HW210638   6.594   0.212   3.201
 3247SOL     OW10639   5.796   4.168   1.919
 3247SOL    HW110640   5.764   4.087   1.969
 3247SOL    HW210641   5.718   4.222   1.890
 3248SOL     OW10642   5.766   3.245   2.407
 3248SOL    HW110643   5.718   3.160   2.386
 3248SOL    HW210644   5.864   3.232   2.398
 3249SOL     OW10645   3.502   4.141   3.246
 3249SOL    HW110646   3.481   4.180   3.156
 3249SOL    HW210647   3.601   4.134   3.258
 3250SOL     OW10648   5.573   0.271   2.657
 3250SOL    HW110649   5.592   0.194   2.597
 3250SOL    HW210650   5.557   0.238   2.751
 3251SOL     OW10651   3.569   0.820   3.596
 3251SOL    HW110652   3.573   0.738   3.653
 3251SOL    HW210653   3.523   0.894   3.646
 3252SOL     OW10654   3.131   0.898   2.462
 3252SOL    HW110655   3.046   0.904   2.410
 3252SOL    HW210656   3.139   0.806   2.502
 3253SOL     OW10657   4.555   3.536   0.957
 3253SOL    HW110658   4.460   3.519   0.931
 3253SOL    HW210659   4.616   3.486   0.896
 3254SOL     OW10660   4.794   6.266   0.183
 3254SOL    HW110661   4.873   6.281   0.242
 3254SOL    HW210662   4.770   6.169   0.183
 3255SOL     OW10663   4.389   6.615   1.555
 3255SOL    HW110664   4.322   6.620   1.481
 3255SOL    HW210665   4.439   6.528   1.549
 3256SOL     OW10666   3.562   1.440   1.038
 3256SOL    HW110667   3.576   1.538   1.050
 3256SOL    HW210668   3.644   1.390   1.067
 3257SOL     OW10669   1.304   1.781   1.526
 3257SOL    HW110670   1.287   1.732   1.441
 3257SOL    HW210671   1.275   1.876   1.516
 3258SOL     OW10672   4.128   5.723   3.232
 3258SOL    HW110673   4.143   5.807   3.180
 3258SOL    HW210674   4.209   5.703   3.288
 3259SOL     OW10675   4.821   4.702   4.843
 3259SOL    HW110676   4.911   4.741   4.860
 3259SOL    HW210677   4.819   4.657   4.754
 3260SOL     OW10678   1.681   2.901   1.649
 3260SOL    HW110679   1.648   2.809   1.671
 3260SOL    HW210680   1.608   2.967   1.667
 3261SOL     OW10681   5.768   0.891   1.239
 3261SOL    HW110682   5.752   0.806   1.190
 3261SOL    HW210683   5.858   0.889   1.281
 3262SOL     OW10684   3.864   2.145   2.228
 3262SOL    HW110685   3.930   2.220   2.233
 3262SOL    HW210686   3.785   2.174   2.174
 3263SOL     OW10687   2.711   1.362   3.084
 3263SOL    HW110688   2.772   1.284   3.090
 3263SOL    HW210689   2.652   1.353   3.003
 3264SOL     OW10690   2.162   5.330   1.193
 3264SOL    HW110691   2.123   5.316   1.102
 3264SOL    HW210692   2.176   5.428   1.208
 3265SOL     OW10693   5.144   6.950   6.476
 3265SOL    HW110694   5.106   0.003   6.417
 3265SOL    HW210695   5.069   6.902   6.522
 3266SOL     OW10696   3.077   4.899   0.060
 3266SOL    HW110697   3.018   4.822   0.036
 3266SOL    HW210698   3.022   4.982   0.068
 3267SOL     OW10699   3.210   6.708   1.889
 3267SOL    HW110700   3.204   6.627   1.948
 3267SOL    HW210701   3.177   6.788   1.939
 3268SOL     OW10702   2.210   3.896   1.280
 3268SOL    HW110703   2.288   3.945   1.241
 3268SOL    HW210704   2.177   3.945   1.361
 3269SOL     OW10705   6.124   5.832   2.245
 3269SOL    HW110706   6.104   5.734   2.248
 3269SOL    HW210707   6.048   5.883   2.284
 3270SOL     OW10708   1.868   3.922   6.699
 3270SOL    HW110709   1.897   3.902   6.792
 3270SOL    HW210710   1.866   3.838   6.645
 3271SOL     OW10711   6.831   2.950   1.391
 3271SOL    HW110712   6.843   3.020   1.321
 3271SOL    HW210713   6.846   2.991   1.481
 3272SOL     OW10714   2.776   4.118   6.104
 3272SOL    HW110715   2.754   4.205   6.148
 3272SOL    HW210716   2.865   4.124   6.060
 3273SOL     OW10717   6.314   4.811   0.038
 3273SOL    HW110718   6.290   4.779   0.130
 3273SOL    HW210719   6.248   4.881   0.009
 3274SOL     OW10720   5.927   0.408   0.568
 3274SOL    HW110721   5.857   0.348   0.608
 3274SOL    HW210722   5.899   0.503   0.577
 3275SOL     OW10723   5.184   0.798   0.040
 3275SOL    HW110724   5.112   0.794   0.109
 3275SOL    HW210725   5.272   0.813   0.084
 3276SOL     OW10726   3.770   6.168   6.722
 3276SOL    HW110727   3.700   6.125   6.665
 3276SOL    HW210728   3.798   6.104   6.794
 3277SOL     OW10729   3.376   1.032   1.011
 3277SOL    HW110730   3.443   0.983   1.067
 3277SOL    HW210731   3.410   1.042   0.918
 3278SOL     OW10732   1.047   0.838   5.758
 3278SOL    HW110733   1.001   0.760   5.716
 3278SOL    HW210734   1.009   0.923   5.721
 3279SOL     OW10735   5.395   6.718   0.371
 3279SOL    HW110736   5.308   6.727   0.419
 3279SOL    HW210737   5.469   6.708   0.438
 3280SOL     OW10738   5.019   5.009   5.164
 3280SOL    HW110739   5.060   4.921   5.186
 3280SOL    HW210740   4.929   4.996   5.123
 3281SOL     OW10741   1.019   4.787   0.976
 3281SOL    HW110742   1.029   4.738   1.062
 3281SOL    HW210743   1.001   4.884   0.995
 3282SOL     OW10744   6.330   5.304   4.760
 3282SOL    HW110745   6.346   5.339   4.852
 3282SOL    HW210746   6.406   5.329   4.701
 3283SOL     OW10747   3.118   1.207   1.294
 3283SOL    HW110748   3.193   1.239   1.236
 3283SOL    HW210749   3.140   1.116   1.329
 3284SOL     OW10750   1.251   6.147   5.967
 3284SOL    HW110751   1.317   6.081   5.932
 3284SOL    HW210752   1.164   6.100   5.987
 3285SOL     OW10753   4.316   1.913   4.696
 3285SOL    HW110754   4.279   1.837   4.642
 3285SOL    HW210755   4.410   1.931   4.668
 3286SOL     OW10756   3.518   2.839   2.088
 3286SOL    HW110757   3.484   2.777   2.159
 3286SOL    HW210758   3.509   2.795   1.998
 3287SOL     OW10759   0.347   6.716   0.063
 3287SOL    HW110760   0.347   6.621   0.091
 3287SOL    HW210761   0.275   6.766   0.111
 3288SOL     OW10762   2.120   6.461   0.146
 3288SOL    HW110763   2.213   6.496   0.144
 3288SOL    HW210764   2.067   6.502   0.072
 3289SOL     OW10765   2.934   1.056   6.430
 3289SOL    HW110766   2.986   1.119   6.487
 3289SOL    HW210767   2.852   1.027   6.479
 3290SOL     OW10768   6.739   4.526   0.801
 3290SOL    HW110769   6.826   4.478   0.804
 3290SOL    HW210770   6.756   4.624   0.792
 3291SOL     OW10771   2.215   0.967   6.056
 3291SOL    HW110772   2.258   0.905   5.990
 3291SOL    HW210773   2.234   0.935   6.149
 3292SOL     OW10774   0.001   0.971   0.517
 3292SOL    HW110775   6.931   0.932   0.490
 3292SOL    HW210776   7.014   1.071   0.513
 3293SOL     OW10777   6.456   4.599   1.708
 3293SOL    HW110778   6.555   4.586   1.714
 3293SOL    HW210779   6.419   4.617   1.799
 3294SOL     OW10780   5.173   2.974   6.436
 3294SOL    HW110781   5.169   2.977   6.336
 3294SOL    HW210782   5.213   2.887   6.465
 3295SOL     OW10783   0.855   2.823   2.418
 3295SOL    HW110784   0.849   2.923   2.416
 3295SOL    HW210785   0.817   2.785   2.334
 3296SOL     OW10786   1.498   0.752   3.067
 3296SOL    HW110787   1.474   0.798   3.152
 3296SOL    HW210788   1.596   0.764   3.050
 3297SOL     OW10789   2.800   1.698   5.142
 3297SOL    HW110790   2.720   1.747   5.178
 3297SOL    HW210791   2.884   1.743   5.174
 3298SOL     OW10792   5.966   2.468   5.930
 3298SOL    HW110793   6.010   2.494   5.844
 3298SOL    HW210794   5.867   2.469   5.919
 3299SOL     OW10795   3.973   6.279   2.531
 3299SOL    HW110796   3.903   6.328   2.479
 3299SOL    HW210797   3.981   6.185   2.496
 3300SOL     OW10798   0.799   0.826   5.951
 3300SOL    HW110799   0.749   0.824   5.864
 3300SOL    HW210800   0.860   0.747   5.955
 3301SOL     OW10801   1.712   2.980   3.469
 3301SOL    HW110802   1.796   3.005   3.421
 3301SOL    HW210803   1.734   2.955   3.564
 3302SOL     OW10804   0.433   4.654   5.489
 3302SOL    HW110805   0.506   4.604   5.534
 3302SOL    HW210806   0.377   4.591   5.436
 3303SOL     OW10807   3.098   3.367   0.226
 3303SOL    HW110808   3.041   3.393   0.148
 3303SOL    HW210809   3.110   3.445   0.287
 3304SOL     OW10810   1.806   5.329   6.071
 3304SOL    HW110811   1.829   5.327   6.169
 3304SOL    HW210812   1.870   5.388   6.023
 3305SOL     OW10813   2.356   1.906   2.306
 3305SOL    HW110814   2.435   1.927   2.364
 3305SOL    HW210815   2.275   1.893   2.363
 3306SOL     OW10816   1.500   5.129   5.090
 3306SOL    HW110817   1.477   5.090   5.000
 3306SOL    HW210818   1.496   5.228   5.085
 3307SOL     OW10819   0.650   6.892   6.035
 3307SOL    HW110820   0.749   6.881   6.041
 3307SOL    HW210821   0.612   6.906   6.127
 3308SOL     OW10822   2.869   5.594   1.603
 3308SOL    HW110823   2.968   5.596   1.621
 3308SOL    HW210824   2.821   5.570   1.688
 3309SOL     OW10825   6.790   5.301   3.942
 3309SOL    HW110826   6.753   5.339   4.027
 3309SOL    HW210827   6.823   5.375   3.885
 3310SOL     OW10828   0.135   4.054   4.880
 3310SOL    HW110829   0.210   4.113   4.850
 3310SOL    HW210830   0.049   4.104   4.874
 3311SOL     OW10831   3.368   4.374   0.813
 3311SOL    HW110832   3.369   4.473   0.810
 3311SOL    HW210833   3.450   4.341   0.859
 3312SOL     OW10834   4.140   3.761   5.820
 3312SOL    HW110835   4.203   3.704   5.873
 3312SOL    HW210836   4.096   3.827   5.881
 3313SOL     OW10837   0.946   6.276   4.097
 3313SOL    HW110838   0.981   6.368   4.117
 3313SOL    HW210839   0.883   6.281   4.019
 3314SOL     OW10840   2.591   1.379   2.497
 3314SOL    HW110841   2.573   1.346   2.405
 3314SOL    HW210842   2.584   1.479   2.499
 3315SOL     OW10843   0.348   4.187   4.778
 3315SOL    HW110844   0.416   4.132   4.730
 3315SOL    HW210845   0.284   4.228   4.713
 3316SOL     OW10846   4.796   1.026   5.020
 3316SOL    HW110847   4.734   1.095   5.057
 3316SOL    HW210848   4.833   1.059   4.932
 3317SOL     OW10849   5.243   2.688   2.021
 3317SOL    HW110850   5.263   2.777   1.980
 3317SOL    HW210851   5.321   2.659   2.078
 3318SOL     OW10852   1.703   1.711   1.067
 3318SOL    HW110853   1.650   1.733   0.984
 3318SOL    HW210854   1.647   1.728   1.148
 3319SOL     OW10855   5.537   1.174   3.962
 3319SOL    HW110856   5.616   1.176   4.023
 3319SOL    HW210857   5.453   1.174   4.016
 3320SOL     OW10858   6.351   0.594   6.896
 3320SOL    HW110859   6.282   0.551   6.956
 3320SOL    HW210860   6.320   0.589   6.801
 3321SOL     OW10861   5.492   2.029   0.410
 3321SOL    HW110862   5.537   2.112   0.443
 3321SOL    HW210863   5.533   1.949   0.455
 3322SOL     OW10864   6.995   2.725   1.284
 3322SOL    HW110865   6.930   2.764   1.218
 3322SOL    HW210866   6.999   2.626   1.273
 3323SOL     OW10867   2.859   2.939   6.927
 3323SOL    HW110868   2.806   2.913   6.847
 3323SOL    HW210869   2.808   2.915   7.010
 3324SOL     OW10870   3.915   4.992   6.372
 3324SOL    HW110871   3.863   5.060   6.319
 3324SOL    HW210872   3.853   4.924   6.410
 3325SOL     OW10873   0.117   3.833   0.113
 3325SOL    HW110874   0.141   3.927   0.090
 3325SOL    HW210875   0.096   3.827   0.211
 3326SOL     OW10876   5.126   2.020   1.856
 3326SOL    HW110877   5.066   2.081   1.907
 3326SOL    HW210878   5.092   1.926   1.862
 3327SOL     OW10879   3.231   5.344   2.095
 3327SOL    HW110880   3.231   5.409   2.170
 3327SOL    HW210881   3.258   5.390   2.011
 3328SOL     OW10882   4.139   1.877   0.682
 3328SOL    HW110883   4.119   1.953   0.744
 3328SOL    HW210884   4.230   1.840   0.702
 3329SOL     OW10885   5.982   0.270   5.302
 3329SOL    HW110886   5.906   0.319   5.343
 3329SOL    HW210887   5.956   0.174   5.288
 3330SOL     OW10888   6.467   3.567   1.404
 3330SOL    HW110889   6.498   3.629   1.332
 3330SOL    HW210890   6.539   3.502   1.426
 3331SOL     OW10891   2.253   2.942   1.764
 3331SOL    HW110892   2.248   3.042   1.763
 3331SOL    HW210893   2.188   2.907   1.832
 3332SOL     OW10894   5.913   5.775   0.330
 3332SOL    HW110895   5.971   5.793   0.250
 3332SOL    HW210896   5.950   5.697   0.381
 3333SOL     OW10897   3.970   5.703   6.369
 3333SOL    HW110898   4.023   5.690   6.286
 3333SOL    HW210899   3.903   5.776   6.356
 3334SOL     OW10900   3.352   3.684   1.320
 3334SOL    HW110901   3.317   3.591   1.328
 3334SOL    HW210902   3.281   3.744   1.284
 3335SOL     OW10903   4.761   5.261   5.955
 3335SOL    HW110904   4.695   5.200   5.999
 3335SOL    HW210905   4.762   5.244   5.857
 3336SOL     OW10906   2.968   5.330   4.827
 3336SOL    HW110907   3.033   5.290   4.763
 3336SOL    HW210908   2.985   5.294   4.918
 3337SOL     OW10909   2.941   3.656   2.058
 3337SOL    HW110910   2.915   3.613   1.972
 3337SOL    HW210911   2.885   3.738   2.072
 3338SOL     OW10912   5.885   3.018   1.300
 3338SOL    HW110913   5.887   3.112   1.266
 3338SOL    HW210914   5.964   2.969   1.265
 3339SOL     OW10915   6.455   0.085   6.972
 3339SOL    HW110916   6.467   7.003   6.965
 3339SOL    HW210917   6.438   0.123   6.881
 3340SOL     OW10918   3.665   0.538   0.802
 3340SOL    HW110919   3.634   0.448   0.770
 3340SOL    HW210920   3.595   0.578   0.861
 3341SOL     OW10921   0.813   5.811   4.007
 3341SOL    HW110922   0.847   5.850   3.921
 3341SOL    HW210923   0.865   5.849   4.084
 3342SOL     OW10924   2.739   6.777   4.293
 3342SOL    HW110925   2.648   6.813   4.314
 3342SOL    HW210926   2.808   6.846   4.314
 3343SOL     OW10927   4.695   3.174   0.969
 3343SOL    HW110928   4.631   3.190   1.043
 3343SOL    HW210929   4.712   3.075   0.960
 3344SOL     OW10930   6.241   3.286   4.580
 3344SOL    HW110931   6.253   3.248   4.672
 3344SOL    HW210932   6.144   3.297   4.560
 3345SOL     OW10933   1.511   3.886   5.427
 3345SOL    HW110934   1.559   3.940   5.358
 3345SOL    HW210935   1.511   3.935   5.514
 3346SOL     OW10936   1.655   0.749   1.125
 3346SOL    HW110937   1.722   0.818   1.100
 3346SOL    HW210938   1.563   0.783   1.104
 3347SOL     OW10939   0.602   4.541   4.145
 3347SOL    HW110940   0.634   4.627   4.185
 3347SOL    HW210941   0.625   4.538   4.048
 3348SOL     OW10942   2.905   3.331   3.260
 3348SOL    HW110943   2.909   3.241   3.304
 3348SOL    HW210944   2.873   3.399   3.327
 3349SOL     OW10945   0.307   5.030   4.372
 3349SOL    HW110946   0.379   4.993   4.313
 3349SOL    HW210947   0.340   5.034   4.466
 3350SOL     OW10948   1.034   2.128   5.726
 3350SOL    HW110949   1.046   2.164   5.819
 3350SOL    HW210950   1.119   2.140   5.675
 3351SOL     OW10951   5.614   7.004   2.868
 3351SOL    HW110952   5.551   7.001   2.790
 3351SOL    HW210953   5.639   6.911   2.894
 3352SOL     OW10954   0.227   3.186   0.437
 3352SOL    HW110955   0.248   3.262   0.498
 3352SOL    HW210956   0.198   3.107   0.490
 3353SOL     OW10957   1.401   6.517   2.282
 3353SOL    HW110958   1.387   6.534   2.184
 3353SOL    HW210959   1.356   6.432   2.307
 3354SOL     OW10960   5.433   2.744   4.259
 3354SOL    HW110961   5.507   2.683   4.291
 3354SOL    HW210962   5.355   2.689   4.232
 3355SOL     OW10963   1.540   1.534   0.340
 3355SOL    HW110964   1.570   1.589   0.418
 3355SOL    HW210965   1.557   1.584   0.256
 3356SOL     OW10966   2.246   3.654   6.488
 3356SOL    HW110967   2.193   3.626   6.408
 3356SOL    HW210968   2.327   3.704   6.459
 3357SOL     OW10969   2.638   4.765   1.799
 3357SOL    HW110970   2.692   4.703   1.854
 3357SOL    HW210971   2.541   4.738   1.803
 3358SOL     OW10972   5.022   0.395   1.333
 3358SOL    HW110973   5.101   0.437   1.378
 3358SOL    HW210974   5.054   0.337   1.258
 3359SOL     OW10975   6.521   0.305   3.555
 3359SOL    HW110976   6.573   0.221   3.540
 3359SOL    HW210977   6.537   0.338   3.648
 3360SOL     OW10978   0.449   1.103   6.965
 3360SOL    HW110979   0.445   1.022   6.906
 3360SOL    HW210980   0.483   1.181   6.912
 3361SOL     OW10981   0.400   4.437   2.571
 3361SOL    HW110982   0.493   4.427   2.607
 3361SOL    HW210983   0.336   4.450   2.647
 3362SOL     OW10984   3.753   1.855   4.037
 3362SOL    HW110985   3.703   1.845   4.123
 3362SOL    HW210986   3.695   1.903   3.971
 3363SOL     OW10987   0.659   0.270   0.203
 3363SOL    HW110988   0.684   0.284   0.299
 3363SOL    HW210989   0.742   0.259   0.149
 3364SOL     OW10990   0.975   4.262   4.521
 3364SOL    HW110991   0.999   4.223   4.432
 3364SOL    HW210992   0.953   4.189   4.585
 3365SOL     OW10993   0.539   2.650   5.093
 3365SOL    HW110994   0.637   2.658   5.114
 3365SOL    HW210995   0.498   2.742   5.092
 3366SOL     OW10996   6.264   0.411   6.144
 3366SOL    HW110997   6.196   0.405   6.217
 3366SOL    HW210998   6.218   0.406   6.056
 3367SOL     OW10999   2.672   2.969   1.135
 3367SOL    HW111000   2.673   3.023   1.219
 3367SOL    HW211001   2.759   2.983   1.086
 3368SOL     OW11002   0.477   5.873   6.133
 3368SOL    HW111003   0.399   5.854   6.192
 3368SOL    HW211004   0.514   5.963   6.155
 3369SOL     OW11005   3.337   2.487   5.746
 3369SOL    HW111006   3.389   2.411   5.706
 3369SOL    HW211007   3.363   2.572   5.701
 3370SOL     OW11008   6.891   6.222   5.891
 3370SOL    HW111009   6.900   6.318   5.863
 3370SOL    HW211010   6.801   6.188   5.863
 3371SOL     OW11011   0.593   3.985   2.464
 3371SOL    HW111012   0.659   4.049   2.425
 3371SOL    HW211013   0.635   3.894   2.471
 3372SOL     OW11014   0.433   1.025   1.857
 3372SOL    HW111015   0.512   1.041   1.799
 3372SOL    HW211016   0.360   0.981   1.805
 3373SOL     OW11017   6.512   1.018   2.683
 3373SOL    HW111018   6.476   0.958   2.754
 3373SOL    HW211019   6.612   1.016   2.684
 3374SOL     OW11020   2.717   5.879   4.811
 3374SOL    HW111021   2.625   5.876   4.850
 3374SOL    HW211022   2.724   5.813   4.737
 3375SOL     OW11023   4.737   4.907   6.246
 3375SOL    HW111024   4.831   4.895   6.212
 3375SOL    HW211025   4.734   4.984   6.309
 3376SOL     OW11026   3.628   3.588   3.212
 3376SOL    HW111027   3.724   3.601   3.236
 3376SOL    HW211028   3.570   3.614   3.289
 3377SOL     OW11029   6.955   6.510   4.569
 3377SOL    HW111030   6.970   6.585   4.633
 3377SOL    HW211031   0.014   6.447   4.571
 3378SOL     OW11032   6.429   0.790   0.514
 3378SOL    HW111033   6.450   0.695   0.491
 3378SOL    HW211034   6.398   0.838   0.432
 3379SOL     OW11035   0.010   5.199   6.143
 3379SOL    HW111036   6.973   5.128   6.098
 3379SOL    HW211037   6.996   5.210   6.237
 3380SOL     OW11038   5.525   6.297   6.022
 3380SOL    HW111039   5.498   6.276   6.116
 3380SOL    HW211040   5.445   6.328   5.970
 3381SOL     OW11041   1.301   2.739   1.041
 3381SOL    HW111042   1.396   2.770   1.031
 3381SOL    HW211043   1.257   2.735   0.951
 3382SOL     OW11044   0.687   0.705   0.487
 3382SOL    HW111045   0.781   0.684   0.459
 3382SOL    HW211046   0.674   0.679   0.583
 3383SOL     OW11047   4.378   5.704   3.043
 3383SOL    HW111048   4.388   5.647   3.125
 3383SOL    HW211049   4.444   5.780   3.048
 3384SOL     OW11050   2.727   3.459   5.309
 3384SOL    HW111051   2.704   3.517   5.387
 3384SOL    HW211052   2.735   3.364   5.340
 3385SOL     OW11053   0.044   4.219   3.729
 3385SOL    HW111054   0.103   4.150   3.686
 3385SOL    HW211055   0.060   4.307   3.685
 3386SOL     OW11056   6.512   3.790   6.221
 3386SOL    HW111057   6.449   3.868   6.211
 3386SOL    HW211058   6.573   3.806   6.298
 3387SOL     OW11059   2.885   1.139   3.084
 3387SOL    HW111060   2.853   1.078   3.011
 3387SOL    HW211061   2.943   1.089   3.147
 3388SOL     OW11062   5.689   3.348   1.807
 3388SOL    HW111063   5.670   3.315   1.900
 3388SOL    HW211064   5.780   3.319   1.779
 3389SOL     OW11065   4.845   5.315   4.832
 3389SOL    HW111066   4.748   5.313   4.857
 3389SOL    HW211067   4.897   5.363   4.903
 3390SOL     OW11068   5.418   4.703   5.685
 3390SOL    HW111069   5.514   4.731   5.684
 3390SOL    HW211070   5.360   4.781   5.662
 3391SOL     OW11071   5.351   2.830   4.738
 3391SOL    HW111072   5.359   2.772   4.819
 3391SOL    HW211073   5.436   2.881   4.726
 3392SOL     OW11074   2.700   0.327   3.841
 3392SOL    HW111075   2.631   0.393   3.870
 3392SOL    HW211076   2.706   0.252   3.907
 3393SOL     OW11077   0.177   6.481   0.342
 3393SOL    HW111078   0.186   6.404   0.405
 3393SOL    HW211079   0.245   6.472   0.269
 3394SOL     OW11080   5.875   3.096   0.753
 3394SOL    HW111081   5.806   3.093   0.825
 3394SOL    HW211082   5.953   3.040   0.780
 3395SOL     OW11083   6.104   3.313   3.453
 3395SOL    HW111084   6.007   3.290   3.456
 3395SOL    HW211085   6.119   3.381   3.382
 3396SOL     OW11086   5.896   2.118   3.376
 3396SOL    HW111087   5.888   2.058   3.455
 3396SOL    HW211088   5.909   2.064   3.293
 3397SOL     OW11089   2.720   1.358   5.519
 3397SOL    HW111090   2.671   1.272   5.505
 3397SOL    HW211091   2.793   1.344   5.587
 3398SOL     OW11092   1.241   6.617   3.888
 3398SOL    HW111093   1.173   6.678   3.930
 3398SOL    HW211094   1.194   6.542   3.842
 3399SOL     OW11095   5.418   4.424   5.283
 3399SOL    HW111096   5.456   4.336   5.310
 3399SOL    HW211097   5.373   4.415   5.194
 3400SOL     OW11098   4.834   1.702   5.918
 3400SOL    HW111099   4.739   1.695   5.891
 3400SOL    HW211100   4.856   1.629   5.983
 3401SOL     OW11101   6.760   3.224   0.887
 3401SOL    HW111102   6.759   3.324   0.882
 3401SOL    HW211103   6.827   3.188   0.823
 3402SOL     OW11104   4.274   6.027   0.614
 3402SOL    HW111105   4.181   6.008   0.645
 3402SOL    HW211106   4.286   6.125   0.602
 3403SOL     OW11107   4.131   0.290   5.134
 3403SOL    HW111108   4.225   0.262   5.119
 3403SOL    HW211109   4.070   0.235   5.076
 3404SOL     OW11110   5.713   1.663   6.397
 3404SOL    HW111111   5.787   1.688   6.460
 3404SOL    HW211112   5.711   1.728   6.320
 3405SOL     OW11113   6.420   4.306   4.418
 3405SOL    HW111114   6.338   4.249   4.420
 3405SOL    HW211115   6.487   4.265   4.357
 3406SOL     OW11116   0.815   4.395   2.439
 3406SOL    HW111117   0.910   4.408   2.467
 3406SOL    HW211118   0.810   4.321   2.371
 3407SOL     OW11119   1.463   5.365   0.158
 3407SOL    HW111120   1.473   5.284   0.216
 3407SOL    HW211121   1.484   5.342   0.063
 3408SOL     OW11122   5.127   3.945   4.728
 3408SOL    HW111123   5.152   3.850   4.707
 3408SOL    HW211124   5.049   3.946   4.790
 3409SOL     OW11125   3.541   6.168   6.241
 3409SOL    HW111126   3.575   6.081   6.276
 3409SOL    HW211127   3.447   6.156   6.207
 3410SOL     OW11128   6.706   5.666   0.050
 3410SOL    HW111129   6.797   5.642   0.081
 3410SOL    HW211130   6.710   5.750   7.014
 3411SOL     OW11131   0.605   2.562   1.983
 3411SOL    HW111132   0.516   2.576   1.938
 3411SOL    HW211133   0.633   2.646   2.028
 3412SOL     OW11134   4.618   2.639   6.273
 3412SOL    HW111135   4.623   2.549   6.317
 3412SOL    HW211136   4.651   2.709   6.336
 3413SOL     OW11137   5.349   0.891   2.293
 3413SOL    HW111138   5.427   0.847   2.337
 3413SOL    HW211139   5.300   0.947   2.360
 3414SOL     OW11140   1.899   0.882   5.733
 3414SOL    HW111141   1.958   0.947   5.686
 3414SOL    HW211142   1.875   0.808   5.670
 3415SOL     OW11143   1.760   4.200   4.575
 3415SOL    HW111144   1.688   4.258   4.536
 3415SOL    HW211145   1.833   4.187   4.508
 3416SOL     OW11146   6.978   5.548   0.117
 3416SOL    HW111147   0.016   5.549   0.200
 3416SOL    HW211148   6.946   5.454   0.100
 3417SOL     OW11149   0.650   5.842   3.619
 3417SOL    HW111150   0.676   5.830   3.523
 3417SOL    HW211151   0.731   5.836   3.677
 3418SOL     OW11152   4.092   6.834   5.298
 3418SOL    HW111153   4.082   6.735   5.308
 3418SOL    HW211154   4.101   6.857   5.201
 3419SOL     OW11155   3.797   5.128   4.714
 3419SOL    HW111156   3.831   5.129   4.620
 3419SOL    HW211157   3.795   5.222   4.749
 3420SOL     OW11158   5.189   3.255   3.480
 3420SOL    HW111159   5.195   3.159   3.454
 3420SOL    HW211160   5.144   3.262   3.569
 3421SOL     OW11161   6.024   0.679   6.163
 3421SOL    HW111162   5.942   0.736   6.177
 3421SOL    HW211163   6.105   0.730   6.192
 3422SOL     OW11164   1.979   6.641   0.994
 3422SOL    HW111165   1.910   6.700   0.952
 3422SOL    HW211166   1.956   6.625   1.090
 3423SOL     OW11167   2.304   6.491   0.484
 3423SOL    HW111168   2.365   6.528   0.554
 3423SOL    HW211169   2.351   6.418   0.434
 3424SOL     OW11170   2.987   0.042   2.321
 3424SOL    HW111171   2.988   6.962   2.340
 3424SOL    HW211172   2.898   0.068   2.284
 3425SOL     OW11173   5.626   4.126   2.407
 3425SOL    HW111174   5.623   4.029   2.385
 3425SOL    HW211175   5.581   4.141   2.495
 3426SOL     OW11176   3.103   2.742   6.951
 3426SOL    HW111177   3.062   2.834   6.948
 3426SOL    HW211178   3.186   2.741   6.894
 3427SOL     OW11179   6.560   6.453   0.077
 3427SOL    HW111180   6.593   6.446   7.001
 3427SOL    HW211181   6.529   6.546   0.095
 3428SOL     OW11182   3.012   5.164   1.253
 3428SOL    HW111183   3.026   5.091   1.187
 3428SOL    HW211184   2.920   5.202   1.242
 3429SOL     OW11185   0.735   1.494   6.982
 3429SOL    HW111186   0.789   1.410   6.972
 3429SOL    HW211187   0.796   1.572   6.992
 3430SOL     OW11188   0.250   6.576   4.958
 3430SOL    HW111189   0.153   6.596   4.976
 3430SOL    HW211190   0.306   6.652   4.990
 3431SOL     OW11191   2.251   6.670   1.020
 3431SOL    HW111192   2.158   6.661   0.985
 3431SOL    HW211193   2.248   6.688   1.119
 3432SOL     OW11194   2.408   2.870   6.613
 3432SOL    HW111195   2.445   2.957   6.645
 3432SOL    HW211196   2.454   2.795   6.661
 3433SOL     OW11197   1.025   6.771   6.557
 3433SOL    HW111198   1.104   6.829   6.535
 3433SOL    HW211199   0.986   6.800   6.644
 3434SOL     OW11200   4.215   2.032   0.429
 3434SOL    HW111201   4.139   2.094   0.412
 3434SOL    HW211202   4.196   1.976   0.510
 3435SOL     OW11203   1.230   1.537   1.037
 3435SOL    HW111204   1.278   1.454   1.066
 3435SOL    HW211205   1.177   1.518   0.955
 3436SOL     OW11206   3.402   6.335   5.723
 3436SOL    HW111207   3.380   6.431   5.740
 3436SOL    HW211208   3.484   6.329   5.665
 3437SOL     OW11209   3.361   0.672   6.088
 3437SOL    HW111210   3.435   0.621   6.044
 3437SOL    HW211211   3.331   0.624   6.171
 3438SOL     OW11212   1.437   2.401   0.570
 3438SOL    HW111213   1.359   2.385   0.510
 3438SOL    HW211214   1.420   2.482   0.626
 3439SOL     OW11215   2.045   6.152   5.614
 3439SOL    HW111216   2.137   6.114   5.631
 3439SOL    HW211217   2.037   6.241   5.658
 3440SOL     OW11218   4.149   3.160   1.943
 3440SOL    HW111219   4.102   3.187   2.028
 3440SOL    HW211220   4.088   3.105   1.887
 3441SOL     OW11221   5.033   6.964   3.676
 3441SOL    HW111222   5.052   6.990   3.770
 3441SOL    HW211223   4.934   6.949   3.664
 3442SOL     OW11224   2.729   4.736   2.845
 3442SOL    HW111225   2.812   4.771   2.888
 3442SOL    HW211226   2.674   4.688   2.913
 3443SOL     OW11227   5.699   0.287   1.895
 3443SOL    HW111228   5.610   0.296   1.939
 3443SOL    HW211229   5.690   0.232   1.812
 3444SOL     OW11230   5.249   5.324   0.418
 3444SOL    HW111231   5.235   5.227   0.395
 3444SOL    HW211232   5.250   5.378   0.334
 3445SOL     OW11233   6.002   5.371   4.616
 3445SOL    HW111234   5.983   5.316   4.535
 3445SOL    HW211235   6.080   5.431   4.598
 3446SOL     OW11236   6.140   0.689   2.501
 3446SOL    HW111237   6.126   0.682   2.402
 3446SOL    HW211238   6.109   0.778   2.532
 3447SOL     OW11239   5.095   5.073   1.283
 3447SOL    HW111240   5.112   5.170   1.302
 3447SOL    HW211241   5.150   5.046   1.204
 3448SOL     OW11242   3.119   0.353   0.542
 3448SOL    HW111243   3.197   0.414   0.553
 3448SOL    HW211244   3.042   0.403   0.502
 3449SOL     OW11245   6.567   6.757   3.500
 3449SOL    HW111246   6.582   6.729   3.594
 3449SOL    HW211247   6.471   6.742   3.475
 3450SOL     OW11248   0.457   2.852   6.794
 3450SOL    HW111249   0.384   2.880   6.731
 3450SOL    HW211250   0.534   2.817   6.741
 3451SOL     OW11251   1.293   5.602   2.954
 3451SOL    HW111252   1.269   5.653   3.037
 3451SOL    HW211253   1.359   5.656   2.901
 3452SOL     OW11254   6.118   1.666   6.424
 3452SOL    HW111255   6.206   1.688   6.465
 3452SOL    HW211256   6.044   1.689   6.487
 3453SOL     OW11257   6.916   5.975   6.177
 3453SOL    HW111258   6.823   5.944   6.155
 3453SOL    HW211259   6.974   5.964   6.096
 3454SOL     OW11260   1.554   1.041   6.637
 3454SOL    HW111261   1.636   1.094   6.654
 3454SOL    HW211262   1.479   1.102   6.614
 3455SOL     OW11263   2.386   2.744   4.165
 3455SOL    HW111264   2.294   2.771   4.194
 3455SOL    HW211265   2.448   2.821   4.177
 3456SOL     OW11266   5.143   5.799   2.351
 3456SOL    HW111267   5.221   5.843   2.307
 3456SOL    HW211268   5.175   5.726   2.410
 3457SOL     OW11269   2.588   5.692   3.970
 3457SOL    HW111270   2.627   5.750   4.041
 3457SOL    HW211271   2.633   5.603   3.971
 3458SOL     OW11272   4.610   6.953   0.769
 3458SOL    HW111273   4.560   6.888   0.712
 3458SOL    HW211274   4.640   0.012   0.712
 3459SOL     OW11275   6.510   3.987   2.822
 3459SOL    HW111276   6.426   3.935   2.807
 3459SOL    HW211277   6.506   4.031   2.911
 3460SOL     OW11278   2.247   3.005   0.196
 3460SOL    HW111279   2.201   3.002   0.107
 3460SOL    HW211280   2.330   3.061   0.188
 3461SOL     OW11281   4.371   6.153   4.559
 3461SOL    HW111282   4.310   6.108   4.493
 3461SOL    HW211283   4.466   6.131   4.537
 3462SOL     OW11284   0.341   3.386   2.121
 3462SOL    HW111285   0.395   3.470   2.123
 3462SOL    HW211286   0.247   3.407   2.147
 3463SOL     OW11287   1.241   3.286   3.304
 3463SOL    HW111288   1.176   3.211   3.317
 3463SOL    HW211289   1.333   3.254   3.325
 3464SOL     OW11290   6.822   2.810   6.681
 3464SOL    HW111291   6.791   2.817   6.776
 3464SOL    HW211292   6.815   2.715   6.651
 3465SOL     OW11293   0.763   2.772   2.140
 3465SOL    HW111294   0.683   2.831   2.153
 3465SOL    HW211295   0.826   2.815   2.076
 3466SOL     OW11296   6.596   5.011   6.677
 3466SOL    HW111297   6.564   5.033   6.769
 3466SOL    HW211298   6.661   5.080   6.646
 3467SOL     OW11299   2.184   1.765   1.017
 3467SOL    HW111300   2.183   1.794   1.113
 3467SOL    HW211301   2.259   1.812   0.970
 3468SOL     OW11302   5.470   0.853   2.693
 3468SOL    HW111303   5.480   0.787   2.768
 3468SOL    HW211304   5.396   0.823   2.632
 3469SOL     OW11305   4.514   0.559   4.137
 3469SOL    HW111306   4.441   0.492   4.119
 3469SOL    HW211307   4.481   0.651   4.116
 3470SOL     OW11308   0.182   2.277   1.478
 3470SOL    HW111309   0.259   2.295   1.417
 3470SOL    HW211310   0.204   2.311   1.570
 3471SOL     OW11311   4.603   4.350   4.434
 3471SOL    HW111312   4.667   4.404   4.489
 3471SOL    HW211313   4.526   4.321   4.491
 3472SOL     OW11314   2.799   1.234   2.652
 3472SOL    HW111315   2.811   1.277   2.742
 3472SOL    HW211316   2.728   1.282   2.601
 3473SOL     OW11317   0.158   2.492   2.038
 3473SOL    HW111318   0.073   2.484   1.986
 3473SOL    HW211319   0.138   2.489   2.136
 3474SOL     OW11320   0.249   4.466   2.794
 3474SOL    HW111321   0.183   4.541   2.797
 3474SOL    HW211322   0.246   4.415   2.880
 3475SOL     OW11323   1.134   4.027   3.696
 3475SOL    HW111324   1.083   3.941   3.689
 3475SOL    HW211325   1.092   4.096   3.637
 3476SOL     OW11326   2.127   1.919   2.470
 3476SOL    HW111327   2.111   2.010   2.510
 3476SOL    HW211328   2.049   1.895   2.411
 3477SOL     OW11329   2.008   5.024   0.887
 3477SOL    HW111330   1.962   4.935   0.877
 3477SOL    HW211331   1.989   5.061   0.977
 3478SOL     OW11332   2.218   5.555   5.698
 3478SOL    HW111333   2.197   5.546   5.795
 3478SOL    HW211334   2.187   5.473   5.649
 3479SOL     OW11335   1.034   0.700   2.752
 3479SOL    HW111336   1.017   0.773   2.686
 3479SOL    HW211337   1.067   0.618   2.705
 3480SOL     OW11338   6.518   5.681   4.664
 3480SOL    HW111339   6.586   5.609   4.667
 3480SOL    HW211340   6.501   5.715   4.756
 3481SOL     OW11341   5.209   0.482   0.193
 3481SOL    HW111342   5.218   0.575   0.228
 3481SOL    HW211343   5.165   0.484   0.103
 3482SOL     OW11344   6.162   1.152   2.098
 3482SOL    HW111345   6.192   1.224   2.034
 3482SOL    HW211346   6.209   1.067   2.076
 3483SOL     OW11347   5.172   2.078   1.592
 3483SOL    HW111348   5.183   2.176   1.574
 3483SOL    HW211349   5.148   2.064   1.688
 3484SOL     OW11350   0.597   2.558   0.566
 3484SOL    HW111351   0.561   2.601   0.649
 3484SOL    HW211352   0.569   2.611   0.486
 3485SOL     OW11353   1.713   1.759   4.441
 3485SOL    HW111354   1.698   1.848   4.399
 3485SOL    HW211355   1.804   1.725   4.416
 3486SOL     OW11356   2.382   0.382   3.469
 3486SOL    HW111357   2.476   0.348   3.461
 3486SOL    HW211358   2.326   0.315   3.518
 3487SOL     OW11359   6.685   2.156   0.482
 3487SOL    HW111360   6.699   2.058   0.464
 3487SOL    HW211361   6.589   2.173   0.502
 3488SOL     OW11362   6.539   0.616   4.918
 3488SOL    HW111363   6.465   0.548   4.913
 3488SOL    HW211364   6.530   0.669   5.001
 3489SOL     OW11365   3.901   0.651   1.872
 3489SOL    HW111366   3.919   0.578   1.938
 3489SOL    HW211367   3.805   0.677   1.877
 3490SOL     OW11368   3.890   4.054   1.070
 3490SOL    HW111369   3.806   4.109   1.072
 3490SOL    HW211370   3.962   4.102   1.120
 3491SOL     OW11371   4.711   2.600   5.735
 3491SOL    HW111372   4.679   2.547   5.657
 3491SOL    HW211373   4.672   2.562   5.819
 3492SOL     OW11374   6.481   4.482   0.900
 3492SOL    HW111375   6.575   4.517   0.899
 3492SOL    HW211376   6.472   4.409   0.832
 3493SOL     OW11377   4.715   4.133   4.767
 3493SOL    HW111378   4.639   4.193   4.742
 3493SOL    HW211379   4.711   4.113   4.865
 3494SOL     OW11380   3.090   1.109   2.124
 3494SOL    HW111381   3.157   1.137   2.193
 3494SOL    HW211382   3.127   1.033   2.071
 3495SOL     OW11383   5.941   4.957   1.562
 3495SOL    HW111384   6.019   4.917   1.514
 3495SOL    HW211385   5.896   5.025   1.503
 3496SOL     OW11386   6.233   5.308   0.908
 3496SOL    HW111387   6.214   5.301   1.006
 3496SOL    HW211388   6.321   5.263   0.888
 3497SOL     OW11389   2.357   1.127   3.901
 3497SOL    HW111390   2.386   1.223   3.891
 3497SOL    HW211391   2.419   1.081   3.965
 3498SOL     OW11392   3.166   1.692   1.219
 3498SOL    HW111393   3.090   1.755   1.235
 3498SOL    HW211394   3.152   1.645   1.132
 3499SOL     OW11395   5.685   3.845   4.441
 3499SOL    HW111396   5.720   3.935   4.466
 3499SOL    HW211397   5.677   3.838   4.342
 3500SOL     OW11398   2.116   3.209   4.518
 3500SOL    HW111399   2.152   3.118   4.537
 3500SOL    HW211400   2.113   3.262   4.603
 3501SOL     OW11401   2.615   5.794   5.775
 3501SOL    HW111402   2.624   5.746   5.862
 3501SOL    HW211403   2.680   5.756   5.709
 3502SOL     OW11404   6.738   2.432   1.779
 3502SOL    HW111405   6.765   2.439   1.683
 3502SOL    HW211406   6.643   2.461   1.789
 3503SOL     OW11407   5.997   6.212   4.807
 3503SOL    HW111408   6.047   6.295   4.833
 3503SOL    HW211409   5.935   6.234   4.732
 3504SOL     OW11410   2.553   0.848   2.207
 3504SOL    HW111411   2.529   0.831   2.111
 3504SOL    HW211412   2.652   0.859   2.215
 3505SOL     OW11413   5.455   4.481   5.823
 3505SOL    HW111414   5.468   4.417   5.747
 3505SOL    HW211415   5.415   4.566   5.788
 3506SOL     OW11416   4.900   4.903   5.618
 3506SOL    HW111417   4.967   4.832   5.640
 3506SOL    HW211418   4.844   4.923   5.698
 3507SOL     OW11419   2.462   0.940   1.074
 3507SOL    HW111420   2.504   1.005   1.137
 3507SOL    HW211421   2.527   0.866   1.055
 3508SOL     OW11422   1.940   2.072   6.024
 3508SOL    HW111423   1.885   2.009   6.079
 3508SOL    HW211424   1.881   2.141   5.983
 3509SOL     OW11425   4.995   0.496   6.641
 3509SOL    HW111426   5.008   0.577   6.698
 3509SOL    HW211427   5.078   0.478   6.589
 3510SOL     OW11428   1.290   1.173   2.194
 3510SOL    HW111429   1.191   1.172   2.188
 3510SOL    HW211430   1.327   1.091   2.150
 3511SOL     OW11431   2.171   4.926   1.174
 3511SOL    HW111432   2.172   4.866   1.094
 3511SOL    HW211433   2.108   5.002   1.159
 3512SOL     OW11434   0.716   4.646   0.641
 3512SOL    HW111435   0.724   4.570   0.577
 3512SOL    HW211436   0.661   4.719   0.600
 3513SOL     OW11437   5.292   2.237   6.873
 3513SOL    HW111438   5.220   2.286   6.921
 3513SOL    HW211439   5.316   2.285   6.789
 3514SOL     OW11440   6.941   1.595   1.661
 3514SOL    HW111441   0.005   1.612   1.717
 3514SOL    HW211442   6.868   1.657   1.691
 3515SOL     OW11443   4.526   5.824   3.473
 3515SOL    HW111444   4.471   5.889   3.421
 3515SOL    HW211445   4.493   5.731   3.457
 3516SOL     OW11446   5.061   6.808   1.059
 3516SOL    HW111447   5.041   6.885   0.999
 3516SOL    HW211448   5.090   6.841   1.148
 3517SOL     OW11449   1.236   2.316   1.417
 3517SOL    HW111450   1.279   2.388   1.362
 3517SOL    HW211451   1.162   2.355   1.471
 3518SOL     OW11452   5.316   2.981   4.113
 3518SOL    HW111453   5.362   2.950   4.030
 3518SOL    HW211454   5.339   2.919   4.189
 3519SOL     OW11455   1.535   0.703   6.097
 3519SOL    HW111456   1.481   0.773   6.144
 3519SOL    HW211457   1.628   0.738   6.080
 3520SOL     OW11458   3.280   5.374   6.632
 3520SOL    HW111459   3.328   5.326   6.559
 3520SOL    HW211460   3.190   5.332   6.646
 3521SOL     OW11461   4.994   2.221   7.012
 3521SOL    HW111462   4.971   2.211   6.915
 3521SOL    HW211463   5.061   2.151   0.019
 3522SOL     OW11464   6.862   4.614   1.235
 3522SOL    HW111465   6.771   4.636   1.199
 3522SOL    HW211466   6.862   4.520   1.269
 3523SOL     OW11467   1.423   4.731   6.177
 3523SOL    HW111468   1.324   4.741   6.172
 3523SOL    HW211469   1.447   4.681   6.260
 3524SOL     OW11470   4.631   1.699   2.276
 3524SOL    HW111471   4.638   1.601   2.258
 3524SOL    HW211472   4.680   1.750   2.206
 3525SOL     OW11473   0.450   4.552   3.076
 3525SOL    HW111474   0.363   4.581   3.035
 3525SOL    HW211475   0.479   4.466   3.035
 3526SOL     OW11476   2.229   6.933   3.691
 3526SOL    HW111477   2.198   6.898   3.779
 3526SOL    HW211478   2.183   6.883   3.617
 3527SOL     OW11479   5.656   3.380   6.446
 3527SOL    HW111480   5.649   3.323   6.364
 3527SOL    HW211481   5.582   3.447   6.446
 3528SOL     OW11482   1.299   6.291   5.238
 3528SOL    HW111483   1.366   6.346   5.286
 3528SOL    HW211484   1.320   6.291   5.140
 3529SOL     OW11485   3.873   0.494   6.770
 3529SOL    HW111486   3.939   0.429   6.808
 3529SOL    HW211487   3.910   0.586   6.776
 3530SOL     OW11488   6.698   5.136   2.274
 3530SOL    HW111489   6.703   5.187   2.188
 3530SOL    HW211490   6.790   5.122   2.310
 3531SOL     OW11491   5.099   3.237   0.371
 3531SOL    HW111492   5.128   3.296   0.295
 3531SOL    HW211493   5.035   3.168   0.338
 3532SOL     OW11494   2.938   0.411   1.886
 3532SOL    HW111495   2.930   0.360   1.801
 3532SOL    HW211496   2.857   0.395   1.942
 3533SOL     OW11497   1.564   1.818   2.732
 3533SOL    HW111498   1.487   1.872   2.697
 3533SOL    HW211499   1.556   1.809   2.831
 3534SOL     OW11500   6.511   1.977   0.674
 3534SOL    HW111501   6.443   1.977   0.600
 3534SOL    HW211502   6.493   2.053   0.736
 3535SOL     OW11503   1.666   5.973   0.814
 3535SOL    HW111504   1.682   6.067   0.842
 3535SOL    HW211505   1.573   5.963   0.780
 3536SOL     OW11506   2.675   1.970   3.100
 3536SOL    HW111507   2.700   2.016   3.185
 3536SOL    HW211508   2.596   2.015   3.059
 3537SOL     OW11509   3.240   6.456   1.993
 3537SOL    HW111510   3.195   6.380   2.039
 3537SOL    HW211511   3.291   6.423   1.914
 3538SOL     OW11512   1.503   0.016   6.212
 3538SOL    HW111513   1.477   6.967   6.282
 3538SOL    HW211514   1.547   6.986   6.136
 3539SOL     OW11515   4.857   3.356   5.825
 3539SOL    HW111516   4.770   3.317   5.795
 3539SOL    HW211517   4.930   3.291   5.809
 3540SOL     OW11518   2.491   2.004   5.606
 3540SOL    HW111519   2.396   1.983   5.584
 3540SOL    HW211520   2.501   2.009   5.706
 3541SOL     OW11521   1.925   2.431   6.330
 3541SOL    HW111522   1.965   2.342   6.350
 3541SOL    HW211523   1.995   2.493   6.294
 3542SOL     OW11524   1.948   5.336   2.989
 3542SOL    HW111525   1.902   5.285   3.061
 3542SOL    HW211526   2.042   5.355   3.017
 3543SOL     OW11527   0.864   2.502   4.484
 3543SOL    HW111528   0.895   2.408   4.467
 3543SOL    HW211529   0.943   2.563   4.480
 3544SOL     OW11530   2.771   4.233   6.501
 3544SOL    HW111531   2.863   4.195   6.509
 3544SOL    HW211532   2.767   4.295   6.422
 3545SOL     OW11533   4.333   5.339   0.451
 3545SOL    HW111534   4.257   5.300   0.503
 3545SOL    HW211535   4.389   5.265   0.414
 3546SOL     OW11536   1.308   4.388   4.305
 3546SOL    HW111537   1.320   4.407   4.402
 3546SOL    HW211538   1.390   4.342   4.270
 3547SOL     OW11539   6.627   4.820   4.380
 3547SOL    HW111540   6.695   4.748   4.393
 3547SOL    HW211541   6.665   4.892   4.321
 3548SOL     OW11542   5.627   1.679   5.656
 3548SOL    HW111543   5.704   1.743   5.662
 3548SOL    HW211544   5.639   1.621   5.576
 3549SOL     OW11545   6.679   5.364   5.838
 3549SOL    HW111546   6.603   5.403   5.786
 3549SOL    HW211547   6.676   5.264   5.832
 3550SOL     OW11548   6.428   2.481   2.804
 3550SOL    HW111549   6.393   2.562   2.850
 3550SOL    HW211550   6.443   2.408   2.871
 3551SOL     OW11551   3.758   0.954   1.793
 3551SOL    HW111552   3.790   0.933   1.701
 3551SOL    HW211553   3.702   0.878   1.827
 3552SOL     OW11554   5.347   6.005   2.606
 3552SOL    HW111555   5.402   5.957   2.673
 3552SOL    HW211556   5.284   6.067   2.653
 3553SOL     OW11557   4.859   4.355   1.158
 3553SOL    HW111558   4.796   4.433   1.166
 3553SOL    HW211559   4.948   4.388   1.125
 3554SOL     OW11560   4.775   2.556   0.934
 3554SOL    HW111561   4.711   2.485   0.965
 3554SOL    HW211562   4.813   2.529   0.845
 3555SOL     OW11563   1.088   4.418   4.138
 3555SOL    HW111564   1.160   4.406   4.206
 3555SOL    HW211565   1.074   4.515   4.121
 3556SOL     OW11566   4.333   1.627   3.879
 3556SOL    HW111567   4.371   1.703   3.827
 3556SOL    HW211568   4.291   1.561   3.817
 3557SOL     OW11569   0.840   0.463   4.264
 3557SOL    HW111570   0.909   0.427   4.200
 3557SOL    HW211571   0.751   0.462   4.220
 3558SOL     OW11572   1.873   6.496   1.614
 3558SOL    HW111573   1.775   6.512   1.630
 3558SOL    HW211574   1.923   6.580   1.634
 3559SOL     OW11575   0.199   6.398   5.342
 3559SOL    HW111576   0.188   6.360   5.251
 3559SOL    HW211577   0.217   6.324   5.407
 3560SOL     OW11578   0.316   5.598   1.541
 3560SOL    HW111579   0.328   5.686   1.495
 3560SOL    HW211580   0.332   5.523   1.476
 3561SOL     OW11581   3.929   4.663   5.383
 3561SOL    HW111582   3.836   4.641   5.354
 3561SOL    HW211583   3.990   4.587   5.361
 3562SOL     OW11584   5.224   0.793   3.135
 3562SOL    HW111585   5.160   0.818   3.208
 3562SOL    HW211586   5.205   0.848   3.054
 3563SOL     OW11587   5.887   2.027   6.783
 3563SOL    HW111588   5.870   1.938   6.824
 3563SOL    HW211589   5.800   2.066   6.752
 3564SOL     OW11590   1.588   4.378   3.885
 3564SOL    HW111591   1.555   4.300   3.940
 3564SOL    HW211592   1.558   4.366   3.790
 3565SOL     OW11593   2.988   5.555   5.185
 3565SOL    HW111594   2.976   5.639   5.238
 3565SOL    HW211595   2.956   5.570   5.091
 3566SOL     OW11596   6.514   3.394   5.460
 3566SOL    HW111597   6.552   3.484   5.437
 3566SOL    HW211598   6.461   3.402   5.545
 3567SOL     OW11599   0.355   3.352   0.163
 3567SOL    HW111600   0.303   3.428   0.126
 3567SOL    HW211601   0.442   3.385   0.199
 3568SOL     OW11602   4.878   5.465   4.094
 3568SOL    HW111603   4.889   5.541   4.157
 3568SOL    HW211604   4.897   5.379   4.142
 3569SOL     OW11605   2.597   2.043   6.182
 3569SOL    HW111606   2.666   2.108   6.149
 3569SOL    HW211607   2.556   2.078   6.266
 3570SOL     OW11608   5.260   0.682   5.075
 3570SOL    HW111609   5.256   0.602   5.014
 3570SOL    HW211610   5.231   0.763   5.025
 3571SOL     OW11611   1.222   0.192   5.101
 3571SOL    HW111612   1.314   0.229   5.113
 3571SOL    HW211613   1.201   0.129   5.176
 3572SOL     OW11614   5.586   3.142   3.001
 3572SOL    HW111615   5.649   3.126   3.077
 3572SOL    HW211616   5.493   3.125   3.031
 3573SOL     OW11617   6.598   4.132   3.280
 3573SOL    HW111618   6.656   4.213   3.288
 3573SOL    HW211619   6.655   4.052   3.259
 3574SOL     OW11620   0.442   2.866   1.183
 3574SOL    HW111621   0.346   2.853   1.161
 3574SOL    HW211622   0.494   2.882   1.099
 3575SOL     OW11623   5.004   6.100   3.040
 3575SOL    HW111624   5.059   6.179   3.011
 3575SOL    HW211625   4.983   6.109   3.137
 3576SOL     OW11626   0.728   2.161   6.886
 3576SOL    HW111627   0.654   2.181   6.950
 3576SOL    HW211628   0.697   2.178   6.792
 3577SOL     OW11629   1.950   2.592   6.821
 3577SOL    HW111630   1.935   2.657   6.747
 3577SOL    HW211631   1.962   2.500   6.784
 3578SOL     OW11632   4.842   1.225   0.851
 3578SOL    HW111633   4.856   1.210   0.949
 3578SOL    HW211634   4.764   1.172   0.820
 3579SOL     OW11635   6.567   2.220   2.806
 3579SOL    HW111636   6.595   2.126   2.826
 3579SOL    HW211637   6.532   2.263   2.889
 3580SOL     OW11638   5.898   3.278   0.577
 3580SOL    HW111639   5.875   3.215   0.651
 3580SOL    HW211640   5.993   3.264   0.549
 3581SOL     OW11641   0.918   5.088   3.522
 3581SOL    HW111642   0.916   4.999   3.476
 3581SOL    HW211643   0.896   5.160   3.456
 3582SOL     OW11644   1.173   3.984   5.996
 3582SOL    HW111645   1.149   3.992   5.899
 3582SOL    HW211646   1.144   3.895   6.030
 3583SOL     OW11647   1.513   4.247   6.816
 3583SOL    HW111648   1.539   4.161   6.860
 3583SOL    HW211649   1.592   4.284   6.767
 3584SOL     OW11650   6.022   4.383   5.831
 3584SOL    HW111651   5.974   4.367   5.917
 3584SOL    HW211652   5.975   4.455   5.779
 3585SOL     OW11653   2.993   2.134   4.493
 3585SOL    HW111654   2.961   2.221   4.455
 3585SOL    HW211655   3.011   2.145   4.591
 3586SOL     OW11656   6.123   1.716   4.723
 3586SOL    HW111657   6.090   1.632   4.680
 3586SOL    HW211658   6.135   1.787   4.654
 3587SOL     OW11659   2.152   5.322   5.575
 3587SOL    HW111660   2.116   5.373   5.497
 3587SOL    HW211661   2.166   5.226   5.550
 3588SOL     OW11662   0.265   3.122   5.149
 3588SOL    HW111663   0.177   3.087   5.182
 3588SOL    HW211664   0.326   3.045   5.130
 3589SOL     OW11665   5.892   0.778   5.704
 3589SOL    HW111666   5.859   0.690   5.669
 3589SOL    HW211667   5.836   0.805   5.783
 3590SOL     OW11668   6.973   3.557   0.214
 3590SOL    HW111669   6.914   3.537   0.136
 3590SOL    HW211670   6.993   3.472   0.263
 3591SOL     OW11671   5.746   3.577   0.249
 3591SOL    HW111672   5.714   3.531   0.331
 3591SOL    HW211673   5.842   3.605   0.261
 3592SOL     OW11674   0.443   6.487   2.625
 3592SOL    HW111675   0.472   6.449   2.537
 3592SOL    HW211676   0.352   6.528   2.615
 3593SOL     OW11677   0.790   4.391   5.859
 3593SOL    HW111678   0.869   4.331   5.853
 3593SOL    HW211679   0.817   4.480   5.897
 3594SOL     OW11680   4.638   0.227   3.329
 3594SOL    HW111681   4.563   0.293   3.340
 3594SOL    HW211682   4.714   0.271   3.281
 3595SOL     OW11683   5.258   5.743   6.895
 3595SOL    HW111684   5.275   5.773   6.801
 3595SOL    HW211685   5.164   5.764   6.920
 3596SOL     OW11686   4.984   3.412   3.068
 3596SOL    HW111687   4.949   3.409   2.974
 3596SOL    HW211688   5.062   3.350   3.076
 3597SOL     OW11689   2.319   2.355   5.715
 3597SOL    HW111690   2.274   2.417   5.650
 3597SOL    HW211691   2.412   2.336   5.683
 3598SOL     OW11692   1.913   6.425   5.969
 3598SOL    HW111693   1.886   6.328   5.969
 3598SOL    HW211694   1.955   6.448   5.881
 3599SOL     OW11695   4.830   1.863   0.197
 3599SOL    HW111696   4.741   1.825   0.172
 3599SOL    HW211697   4.817   1.941   0.258
 3600SOL     OW11698   0.970   2.625   2.590
 3600SOL    HW111699   1.067   2.617   2.565
 3600SOL    HW211700   0.934   2.710   2.551
 3601SOL     OW11701   5.002   2.559   6.122
 3601SOL    HW111702   5.068   2.586   6.191
 3601SOL    HW211703   4.951   2.639   6.092
 3602SOL     OW11704   1.750   4.019   0.847
 3602SOL    HW111705   1.789   4.051   0.761
 3602SOL    HW211706   1.799   3.937   0.877
 3603SOL     OW11707   3.601   0.855   3.927
 3603SOL    HW111708   3.575   0.770   3.974
 3603SOL    HW211709   3.519   0.908   3.905
 3604SOL     OW11710   6.899   6.735   3.469
 3604SOL    HW111711   6.842   6.756   3.390
 3604SOL    HW211712   6.970   6.669   3.443
 3605SOL     OW11713   0.706   4.517   3.878
 3605SOL    HW111714   0.787   4.573   3.892
 3605SOL    HW211715   0.712   4.472   3.789
 3606SOL     OW11716   0.710   6.516   4.341
 3606SOL    HW111717   0.793   6.527   4.395
 3606SOL    HW211718   0.630   6.527   4.401
 3607SOL     OW11719   5.622   4.854   2.026
 3607SOL    HW111720   5.702   4.796   2.010
 3607SOL    HW211721   5.545   4.822   1.970
 3608SOL     OW11722   4.576   1.635   4.598
 3608SOL    HW111723   4.499   1.571   4.587
 3608SOL    HW211724   4.605   1.634   4.693
 3609SOL     OW11725   1.816   0.098   4.790
 3609SOL    HW111726   1.874   0.180   4.791
 3609SOL    HW211727   1.719   0.126   4.791
 3610SOL     OW11728   1.685   0.429   6.247
 3610SOL    HW111729   1.719   0.499   6.309
 3610SOL    HW211730   1.640   0.356   6.299
 3611SOL     OW11731   4.568   5.221   4.165
 3611SOL    HW111732   4.632   5.144   4.161
 3611SOL    HW211733   4.610   5.301   4.122
 3612SOL     OW11734   0.741   0.553   6.750
 3612SOL    HW111735   0.812   0.607   6.795
 3612SOL    HW211736   0.657   0.556   6.806
 3613SOL     OW11737   4.831   4.729   2.164
 3613SOL    HW111738   4.891   4.664   2.119
 3613SOL    HW211739   4.813   4.699   2.258
 3614SOL     OW11740   3.604   3.721   0.588
 3614SOL    HW111741   3.697   3.719   0.624
 3614SOL    HW211742   3.539   3.723   0.665
 3615SOL     OW11743   5.169   2.976   6.169
 3615SOL    HW111744   5.216   3.057   6.133
 3615SOL    HW211745   5.104   2.942   6.100
 3616SOL     OW11746   0.789   0.698   6.237
 3616SOL    HW111747   0.873   0.741   6.203
 3616SOL    HW211748   0.785   0.708   6.337
 3617SOL     OW11749   4.291   1.108   6.160
 3617SOL    HW111750   4.196   1.086   6.181
 3617SOL    HW211751   4.300   1.206   6.143
 3618SOL     OW11752   2.395   3.286   5.333
 3618SOL    HW111753   2.436   3.204   5.295
 3618SOL    HW211754   2.467   3.348   5.366
 3619SOL     OW11755   6.024   3.021   6.178
 3619SOL    HW111756   5.925   3.024   6.197
 3619SOL    HW211757   6.042   3.064   6.090
 3620SOL     OW11758   5.906   5.724   5.601
 3620SOL    HW111759   5.957   5.669   5.667
 3620SOL    HW211760   5.845   5.786   5.649
 3621SOL     OW11761   2.886   3.560   4.603
 3621SOL    HW111762   2.923   3.487   4.546
 3621SOL    HW211763   2.822   3.522   4.669
 3622SOL     OW11764   1.801   1.042   0.305
 3622SOL    HW111765   1.733   1.096   0.256
 3622SOL    HW211766   1.893   1.076   0.283
 3623SOL     OW11767   6.586   6.115   4.345
 3623SOL    HW111768   6.672   6.148   4.384
 3623SOL    HW211769   6.549   6.042   4.403
 3624SOL     OW11770   1.543   0.047   2.610
 3624SOL    HW111771   1.568   0.116   2.542
 3624SOL    HW211772   1.473   0.084   2.670
 3625SOL     OW11773   0.686   3.553   6.227
 3625SOL    HW111774   0.610   3.490   6.242
 3625SOL    HW211775   0.659   3.624   6.162
 3626SOL     OW11776   0.519   3.391   5.712
 3626SOL    HW111777   0.538   3.313   5.652
 3626SOL    HW211778   0.605   3.434   5.739
 3627SOL     OW11779   4.338   3.142   1.482
 3627SOL    HW111780   4.432   3.170   1.461
 3627SOL    HW211781   4.327   3.138   1.581
 3628SOL     OW11782   0.882   1.607   1.961
 3628SOL    HW111783   0.960   1.604   1.900
 3628SOL    HW211784   0.894   1.682   2.027
 3629SOL     OW11785   0.468   0.127   5.381
 3629SOL    HW111786   0.379   0.083   5.372
 3629SOL    HW211787   0.462   0.221   5.348
 3630SOL     OW11788   5.919   2.535   3.521
 3630SOL    HW111789   5.889   2.630   3.519
 3630SOL    HW211790   6.013   2.530   3.555
 3631SOL     OW11791   1.754   0.088   2.759
 3631SOL    HW111792   1.757   0.175   2.710
 3631SOL    HW211793   1.682   0.030   2.720
 3632SOL     OW11794   5.140   5.044   0.616
 3632SOL    HW111795   5.082   5.126   0.609
 3632SOL    HW211796   5.221   5.066   0.671
 3633SOL     OW11797   4.274   2.538   5.981
 3633SOL    HW111798   4.326   2.464   5.939
 3633SOL    HW211799   4.233   2.594   5.909
 3634SOL     OW11800   2.212   5.805   6.130
 3634SOL    HW111801   2.223   5.873   6.058
 3634SOL    HW211802   2.183   5.851   6.214
 3635SOL     OW11803   2.766   0.947   1.192
 3635SOL    HW111804   2.865   0.946   1.182
 3635SOL    HW211805   2.727   0.865   1.151
 3636SOL     OW11806   6.472   5.498   0.803
 3636SOL    HW111807   6.423   5.452   0.729
 3636SOL    HW211808   6.569   5.506   0.779
 3637SOL     OW11809   0.472   2.400   1.414
 3637SOL    HW111810   0.526   2.333   1.364
 3637SOL    HW211811   0.533   2.462   1.464
 3638SOL     OW11812   6.926   3.943   2.638
 3638SOL    HW111813   6.916   3.963   2.540
 3638SOL    HW211814   0.003   3.960   2.666
 3639SOL     OW11815   4.500   4.980   6.926
 3639SOL    HW111816   4.407   5.010   6.946
 3639SOL    HW211817   4.557   5.058   6.903
 3640SOL     OW11818   5.188   1.621   0.447
 3640SOL    HW111819   5.089   1.631   0.462
 3640SOL    HW211820   5.207   1.630   0.349
 3641SOL     OW11821   6.344   3.815   1.529
 3641SOL    HW111822   6.333   3.761   1.446
 3641SOL    HW211823   6.261   3.809   1.584
 3642SOL     OW11824   4.693   2.344   6.824
 3642SOL    HW111825   4.679   2.383   6.915
 3642SOL    HW211826   4.623   2.379   6.762
 3643SOL     OW11827   3.886   6.032   4.848
 3643SOL    HW111828   3.944   6.010   4.926
 3643SOL    HW211829   3.791   6.014   4.870
 3644SOL     OW11830   2.211   1.451   1.773
 3644SOL    HW111831   2.159   1.453   1.687
 3644SOL    HW211832   2.309   1.454   1.752
 3645SOL     OW11833   1.593   2.879   4.419
 3645SOL    HW111834   1.623   2.943   4.348
 3645SOL    HW211835   1.632   2.907   4.507
 3646SOL     OW11836   1.400   3.969   5.716
 3646SOL    HW111837   1.408   4.055   5.766
 3646SOL    HW211838   1.305   3.956   5.686
 3647SOL     OW11839   2.513   5.910   6.859
 3647SOL    HW111840   2.608   5.888   6.836
 3647SOL    HW211841   2.459   5.826   6.860
 3648SOL     OW11842   5.058   5.983   3.754
 3648SOL    HW111843   5.153   6.013   3.762
 3648SOL    HW211844   5.025   6.003   3.662
 3649SOL     OW11845   6.234   3.229   0.186
 3649SOL    HW111846   6.145   3.264   0.215
 3649SOL    HW211847   6.237   3.223   0.087
 3650SOL     OW11848   5.857   5.113   1.338
 3650SOL    HW111849   5.875   5.204   1.301
 3650SOL    HW211850   5.930   5.050   1.308
 3651SOL     OW11851   2.029   0.541   4.746
 3651SOL    HW111852   1.992   0.616   4.691
 3651SOL    HW211853   1.956   0.476   4.766
 3652SOL     OW11854   6.413   6.679   3.224
 3652SOL    HW111855   6.414   6.727   3.312
 3652SOL    HW211856   6.323   6.636   3.211
 3653SOL     OW11857   1.597   1.185   3.074
 3653SOL    HW111858   1.632   1.170   3.166
 3653SOL    HW211859   1.556   1.276   3.068
 3654SOL     OW11860   4.384   5.584   0.601
 3654SOL    HW111861   4.332   5.512   0.555
 3654SOL    HW211862   4.447   5.544   0.666
 3655SOL     OW11863   3.341   0.941   3.771
 3655SOL    HW111864   3.287   0.911   3.850
 3655SOL    HW211865   3.287   0.929   3.687
 3656SOL     OW11866   0.702   5.208   1.247
 3656SOL    HW111867   0.684   5.177   1.341
 3656SOL    HW211868   0.619   5.250   1.209
 3657SOL     OW11869   4.779   5.598   4.778
 3657SOL    HW111870   4.845   5.531   4.744
 3657SOL    HW211871   4.712   5.551   4.837
 3658SOL     OW11872   2.231   5.109   6.684
 3658SOL    HW111873   2.301   5.054   6.637
 3658SOL    HW211874   2.240   5.094   6.782
 3659SOL     OW11875   1.451   2.210   5.822
 3659SOL    HW111876   1.545   2.177   5.814
 3659SOL    HW211877   1.451   2.306   5.849
 3660SOL     OW11878   6.019   5.646   4.223
 3660SOL    HW111879   5.965   5.730   4.220
 3660SOL    HW211880   6.042   5.624   4.318
 3661SOL     OW11881   0.322   0.469   5.085
 3661SOL    HW111882   0.251   0.538   5.070
 3661SOL    HW211883   0.363   0.444   4.997
 3662SOL     OW11884   4.075   0.863   4.538
 3662SOL    HW111885   3.995   0.808   4.564
 3662SOL    HW211886   4.143   0.859   4.611
 3663SOL     OW11887   1.787   2.512   6.601
 3663SOL    HW111888   1.798   2.413   6.608
 3663SOL    HW211889   1.848   2.547   6.530
 3664SOL     OW11890   4.671   2.290   1.828
 3664SOL    HW111891   4.571   2.286   1.833
 3664SOL    HW211892   4.700   2.385   1.821
 3665SOL     OW11893   0.659   5.993   5.466
 3665SOL    HW111894   0.561   6.015   5.462
 3665SOL    HW211895   0.697   6.028   5.552
 3666SOL     OW11896   0.838   3.425   3.194
 3666SOL    HW111897   0.931   3.431   3.158
 3666SOL    HW211898   0.840   3.439   3.293
 3667SOL     OW11899   0.326   1.108   3.399
 3667SOL    HW111900   0.316   1.137   3.494
 3667SOL    HW211901   0.276   1.022   3.385
 3668SOL     OW11902   1.064   0.257   1.491
 3668SOL    HW111903   1.001   0.299   1.425
 3668SOL    HW211904   1.118   0.328   1.536
 3669SOL     OW11905   5.508   1.488   3.935
 3669SOL    HW111906   5.469   1.440   3.856
 3669SOL    HW211907   5.603   1.461   3.947
 3670SOL     OW11908   2.731   5.577   0.264
 3670SOL    HW111909   2.759   5.640   0.193
 3670SOL    HW211910   2.781   5.596   0.348
 3671SOL     OW11911   6.930   2.194   3.854
 3671SOL    HW111912   6.896   2.215   3.763
 3671SOL    HW211913   0.008   2.166   3.848
 3672SOL     OW11914   4.717   2.468   2.775
 3672SOL    HW111915   4.710   2.522   2.858
 3672SOL    HW211916   4.658   2.387   2.781
 3673SOL     OW11917   3.950   5.340   6.601
 3673SOL    HW111918   3.897   5.331   6.685
 3673SOL    HW211919   3.912   5.413   6.545
 3674SOL     OW11920   1.499   5.959   5.199
 3674SOL    HW111921   1.515   6.006   5.286
 3674SOL    HW211922   1.587   5.938   5.155
 3675SOL     OW11923   1.228   2.258   4.252
 3675SOL    HW111924   1.167   2.179   4.251
 3675SOL    HW211925   1.286   2.254   4.334
 3676SOL     OW11926   5.594   3.460   2.363
 3676SOL    HW111927   5.633   3.487   2.275
 3676SOL    HW211928   5.621   3.366   2.385
 3677SOL     OW11929   2.653   0.398   4.825
 3677SOL    HW111930   2.727   0.354   4.877
 3677SOL    HW211931   2.598   0.327   4.780
 3678SOL     OW11932   1.840   1.112   4.163
 3678SOL    HW111933   1.932   1.076   4.181
 3678SOL    HW211934   1.847   1.191   4.102
 3679SOL     OW11935   6.840   0.452   2.819
 3679SOL    HW111936   6.878   0.411   2.902
 3679SOL    HW211937   6.886   0.413   2.739
 3680SOL     OW11938   4.723   2.760   4.530
 3680SOL    HW111939   4.655   2.728   4.464
 3680SOL    HW211940   4.704   2.721   4.620
 3681SOL     OW11941   1.082   1.135   6.832
 3681SOL    HW111942   1.059   1.066   6.764
 3681SOL    HW211943   1.175   1.167   6.816
 3682SOL     OW11944   5.438   2.646   0.265
 3682SOL    HW111945   5.527   2.676   0.230
 3682SOL    HW211946   5.391   2.723   0.308
 3683SOL     OW11947   0.122   0.401   3.767
 3683SOL    HW111948   0.025   0.403   3.788
 3683SOL    HW211949   0.159   0.310   3.787
 3684SOL     OW11950   1.109   5.387   0.002
 3684SOL    HW111951   1.148   5.479   7.011
 3684SOL    HW211952   1.182   5.319   7.014
 3685SOL     OW11953   2.339   5.797   5.741
 3685SOL    HW111954   2.438   5.800   5.755
 3685SOL    HW211955   2.311   5.703   5.720
 3686SOL     OW11956   6.499   4.981   3.976
 3686SOL    HW111957   6.579   5.001   3.920
 3686SOL    HW211958   6.518   5.004   4.072
 3687SOL     OW11959   4.889   6.651   3.769
 3687SOL    HW111960   4.836   6.730   3.801
 3687SOL    HW211961   4.833   6.596   3.707
 3688SOL     OW11962   6.494   3.131   0.126
 3688SOL    HW111963   6.517   3.112   0.031
 3688SOL    HW211964   6.395   3.132   0.137
 3689SOL     OW11965   1.932   1.745   5.742
 3689SOL    HW111966   1.975   1.690   5.670
 3689SOL    HW211967   2.002   1.789   5.797
 3690SOL     OW11968   4.709   5.820   1.005
 3690SOL    HW111969   4.787   5.796   0.947
 3690SOL    HW211970   4.675   5.911   0.979
 3691SOL     OW11971   2.439   1.773   6.643
 3691SOL    HW111972   2.476   1.812   6.559
 3691SOL    HW211973   2.487   1.687   6.664
 3692SOL     OW11974   6.686   4.995   5.802
 3692SOL    HW111975   6.771   5.004   5.854
 3692SOL    HW211976   6.688   4.910   5.749
 3693SOL     OW11977   1.871   1.888   2.663
 3693SOL    HW111978   1.775   1.862   2.648
 3693SOL    HW211979   1.926   1.805   2.672
 3694SOL     OW11980   1.626   6.694   2.271
 3694SOL    HW111981   1.570   6.611   2.270
 3694SOL    HW211982   1.653   6.715   2.365
 3695SOL     OW11983   5.713   1.470   1.680
 3695SOL    HW111984   5.666   1.431   1.759
 3695SOL    HW211985   5.714   1.404   1.606
 3696SOL     OW11986   4.187   6.848   5.026
 3696SOL    HW111987   4.211   6.888   4.938
 3696SOL    HW211988   4.260   6.786   5.055
 3697SOL     OW11989   6.740   6.474   2.977
 3697SOL    HW111990   6.708   6.466   2.883
 3697SOL    HW211991   6.661   6.474   3.039
 3698SOL     OW11992   2.248   0.873   3.527
 3698SOL    HW111993   2.173   0.813   3.552
 3698SOL    HW211994   2.218   0.937   3.457
 3699SOL     OW11995   1.458   1.350   3.573
 3699SOL    HW111996   1.552   1.315   3.577
 3699SOL    HW211997   1.404   1.309   3.646
 3700SOL     OW11998   1.426   4.981   4.871
 3700SOL    HW111999   1.392   4.897   4.913
 3700SOL    HW212000   1.354   5.024   4.817
 3701SOL     OW12001   0.937   6.301   3.035
 3701SOL    HW112002   0.871   6.376   3.043
 3701SOL    HW212003   0.890   6.214   3.046
 3702SOL     OW12004   5.403   6.454   3.149
 3702SOL    HW112005   5.404   6.494   3.241
 3702SOL    HW212006   5.492   6.415   3.128
 3703SOL     OW12007   0.858   0.217   6.812
 3703SOL    HW112008   0.835   0.299   6.759
 3703SOL    HW212009   0.907   0.153   6.753
 3704SOL     OW12010   5.196   2.845   1.068
 3704SOL    HW112011   5.115   2.786   1.075
 3704SOL    HW212012   5.168   2.941   1.078
 3705SOL     OW12013   4.896   4.569   4.043
 3705SOL    HW112014   4.929   4.505   4.112
 3705SOL    HW212015   4.973   4.597   3.985
 3706SOL     OW12016   0.435   4.310   6.529
 3706SOL    HW112017   0.355   4.332   6.474
 3706SOL    HW212018   0.411   4.243   6.599
 3707SOL     OW12019   4.389   6.163   4.201
 3707SOL    HW112020   4.403   6.124   4.110
 3707SOL    HW212021   4.462   6.131   4.262
 3708SOL     OW12022   4.242   6.701   1.296
 3708SOL    HW112023   4.264   6.775   1.360
 3708SOL    HW212024   4.236   6.737   1.203
 3709SOL     OW12025   2.889   0.181   1.724
 3709SOL    HW112026   2.809   0.122   1.712
 3709SOL    HW212027   2.910   0.226   1.637
 3710SOL     OW12028   0.412   5.229   4.802
 3710SOL    HW112029   0.477   5.284   4.854
 3710SOL    HW212030   0.320   5.267   4.812
 3711SOL     OW12031   0.937   5.567   4.992
 3711SOL    HW112032   0.934   5.525   5.083
 3711SOL    HW212033   0.953   5.496   4.923
 3712SOL     OW12034   1.450   6.161   0.052
 3712SOL    HW112035   1.350   6.163   0.046
 3712SOL    HW212036   1.477   6.103   0.129
 3713SOL     OW12037   0.462   0.421   5.304
 3713SOL    HW112038   0.489   0.513   5.333
 3713SOL    HW212039   0.393   0.427   5.232
 3714SOL     OW12040   5.840   5.072   6.600
 3714SOL    HW112041   5.828   5.156   6.654
 3714SOL    HW212042   5.774   5.003   6.631
 3715SOL     OW12043   1.396   4.859   2.215
 3715SOL    HW112044   1.318   4.921   2.206
 3715SOL    HW212045   1.411   4.811   2.129
 3716SOL     OW12046   5.837   5.986   4.839
 3716SOL    HW112047   5.875   6.054   4.777
 3716SOL    HW212048   5.769   5.930   4.791
 3717SOL     OW12049   5.452   1.379   0.498
 3717SOL    HW112050   5.490   1.388   0.406
 3717SOL    HW212051   5.496   1.303   0.545
 3718SOL     OW12052   7.001   6.789   6.796
 3718SOL    HW112053   7.001   6.860   6.867
 3718SOL    HW212054   0.030   6.707   6.831
 3719SOL     OW12055   3.988   2.766   6.613
 3719SOL    HW112056   3.975   2.703   6.689
 3719SOL    HW212057   4.076   2.748   6.569
 3720SOL     OW12058   5.892   3.985   0.626
 3720SOL    HW112059   5.890   4.082   0.650
 3720SOL    HW212060   5.875   3.974   0.528
 3721SOL     OW12061   0.286   4.886   0.698
 3721SOL    HW112062   0.214   4.948   0.668
 3721SOL    HW212063   0.374   4.935   0.698
 3722SOL     OW12064   5.406   6.054   1.712
 3722SOL    HW112065   5.321   6.094   1.680
 3722SOL    HW212066   5.387   5.991   1.787
 3723SOL     OW12067   4.628   5.463   0.719
 3723SOL    HW112068   4.652   5.388   0.657
 3723SOL    HW212069   4.647   5.435   0.813
 3724SOL     OW12070   1.587   4.185   6.002
 3724SOL    HW112071   1.670   4.239   6.016
 3724SOL    HW212072   1.547   4.164   6.091
 3725SOL     OW12073   0.588   6.058   6.731
 3725SOL    HW112074   0.622   6.037   6.822
 3725SOL    HW212075   0.640   6.135   6.693
 3726SOL     OW12076   5.287   3.917   6.342
 3726SOL    HW112077   5.188   3.926   6.327
 3726SOL    HW212078   5.333   3.999   6.310
 3727SOL     OW12079   6.387   2.743   5.322
 3727SOL    HW112080   6.308   2.782   5.274
 3727SOL    HW212081   6.378   2.761   5.420
 3728SOL     OW12082   2.113   3.131   6.540
 3728SOL    HW112083   2.061   3.168   6.462
 3728SOL    HW212084   2.211   3.138   6.521
 3729SOL     OW12085   0.910   1.287   4.104
 3729SOL    HW112086   0.937   1.195   4.130
 3729SOL    HW212087   0.816   1.305   4.134
 3730SOL     OW12088   3.846   6.223   5.769
 3730SOL    HW112089   3.828   6.254   5.862
 3730SOL    HW212090   3.944   6.217   5.754
 3731SOL     OW12091   0.082   1.325   0.120
 3731SOL    HW112092   0.117   1.400   0.065
 3731SOL    HW212093   0.158   1.277   0.164
 3732SOL     OW12094   2.413   2.328   0.665
 3732SOL    HW112095   2.369   2.416   0.649
 3732SOL    HW212096   2.480   2.338   0.739
 3733SOL     OW12097   1.924   2.390   3.326
 3733SOL    HW112098   2.003   2.331   3.311
 3733SOL    HW212099   1.953   2.485   3.332
 3734SOL     OW12100   4.245   0.831   1.485
 3734SOL    HW112101   4.177   0.784   1.540
 3734SOL    HW212102   4.260   0.923   1.521
 3735SOL     OW12103   3.886   0.716   2.483
 3735SOL    HW112104   3.965   0.756   2.437
 3735SOL    HW212105   3.835   0.660   2.419
 3736SOL     OW12106   6.881   1.360   1.152
 3736SOL    HW112107   6.957   1.411   1.192
 3736SOL    HW212108   6.847   1.293   1.218
 3737SOL     OW12109   6.028   1.447   3.339
 3737SOL    HW112110   6.012   1.545   3.345
 3737SOL    HW212111   6.117   1.425   3.379
 3738SOL     OW12112   6.467   0.113   1.271
 3738SOL    HW112113   6.488   0.187   1.335
 3738SOL    HW212114   6.489   0.142   1.178
 3739SOL     OW12115   2.356   4.527   1.389
 3739SOL    HW112116   2.357   4.449   1.452
 3739SOL    HW212117   2.362   4.494   1.295
 3740SOL     OW12118   6.096   5.586   0.443
 3740SOL    HW112119   6.072   5.572   0.540
 3740SOL    HW212120   6.190   5.619   0.437
 3741SOL     OW12121   4.959   3.012   6.974
 3741SOL    HW112122   5.024   2.998   6.899
 3741SOL    HW212123   4.882   2.950   6.963
 3742SOL     OW12124   3.997   0.038   0.493
 3742SOL    HW112125   4.015   0.136   0.500
 3742SOL    HW212126   4.063   7.006   0.549
 3743SOL     OW12127   5.554   4.009   1.021
 3743SOL    HW112128   5.526   3.985   1.115
 3743SOL    HW212129   5.590   4.102   1.021
 3744SOL     OW12130   1.257   5.861   2.023
 3744SOL    HW112131   1.342   5.859   2.076
 3744SOL    HW212132   1.221   5.768   2.016
 3745SOL     OW12133   5.614   3.854   2.922
 3745SOL    HW112134   5.581   3.872   3.016
 3745SOL    HW212135   5.684   3.922   2.899
 3746SOL     OW12136   6.272   0.210   3.799
 3746SOL    HW112137   6.244   0.128   3.849
 3746SOL    HW212138   6.263   0.193   3.701
 3747SOL     OW12139   4.381   6.322   5.212
 3747SOL    HW112140   4.425   6.346   5.299
 3747SOL    HW212141   4.306   6.258   5.228
 3748SOL     OW12142   5.147   0.640   1.700
 3748SOL    HW112143   5.153   0.562   1.638
 3748SOL    HW212144   5.216   0.708   1.674
 3749SOL     OW12145   2.242   4.668   3.256
 3749SOL    HW112146   2.201   4.654   3.346
 3749SOL    HW212147   2.313   4.600   3.240
 3750SOL     OW12148   5.795   4.369   0.851
 3750SOL    HW112149   5.874   4.341   0.796
 3750SOL    HW212150   5.826   4.433   0.922
 3751SOL     OW12151   6.700   2.874   0.799
 3751SOL    HW112152   6.696   2.777   0.778
 3751SOL    HW212153   6.644   2.924   0.733
 3752SOL     OW12154   0.942   0.110   0.688
 3752SOL    HW112155   1.015   0.155   0.739
 3752SOL    HW212156   0.909   0.031   0.739
 3753SOL     OW12157   0.071   0.670   4.188
 3753SOL    HW112158   0.128   0.630   4.259
 3753SOL    HW212159   0.126   0.732   4.132
 3754SOL     OW12160   4.247   6.279   1.711
 3754SOL    HW112161   4.283   6.308   1.622
 3754SOL    HW212162   4.214   6.359   1.761
 3755SOL     OW12163   5.346   5.613   4.298
 3755SOL    HW112164   5.420   5.551   4.272
 3755SOL    HW212165   5.303   5.649   4.216
 3756SOL     OW12166   1.910   6.838   6.223
 3756SOL    HW112167   1.933   6.928   6.187
 3756SOL    HW212168   1.939   6.832   6.319
 3757SOL     OW12169   3.847   5.673   0.005
 3757SOL    HW112170   3.867   5.658   0.102
 3757SOL    HW212171   3.919   5.633   6.967
 3758SOL     OW12172   1.632   1.097   4.320
 3758SOL    HW112173   1.719   1.091   4.271
 3758SOL    HW212174   1.560   1.127   4.257
 3759SOL     OW12175   4.359   4.950   6.336
 3759SOL    HW112176   4.438   5.009   6.318
 3759SOL    HW212177   4.390   4.857   6.357
 3760SOL     OW12178   1.334   2.826   4.420
 3760SOL    HW112179   1.303   2.794   4.331
 3760SOL    HW212180   1.433   2.844   4.417
 3761SOL     OW12181   0.048   0.203   5.232
 3761SOL    HW112182   0.051   0.163   5.324
 3761SOL    HW212183   0.042   0.302   5.238
 3762SOL     OW12184   0.588   5.715   6.943
 3762SOL    HW112185   0.669   5.764   6.976
 3762SOL    HW212186   0.608   5.674   6.854
 3763SOL     OW12187   6.569   4.758   0.221
 3763SOL    HW112188   6.536   4.740   0.313
 3763SOL    HW212189   6.491   4.777   0.161
 3764SOL     OW12190   1.554   0.327   3.496
 3764SOL    HW112191   1.540   0.255   3.564
 3764SOL    HW212192   1.476   0.389   3.496
 3765SOL     OW12193   5.156   1.418   1.033
 3765SOL    HW112194   5.130   1.499   1.086
 3765SOL    HW212195   5.246   1.386   1.064
 3766SOL     OW12196   1.078   1.046   4.175
 3766SOL    HW112197   1.116   0.966   4.129
 3766SOL    HW212198   1.128   1.063   4.260
 3767SOL     OW12199   2.322   5.556   0.213
 3767SOL    HW112200   2.231   5.568   0.251
 3767SOL    HW212201   2.331   5.463   0.176
 3768SOL     OW12202   2.551   5.948   5.232
 3768SOL    HW112203   2.640   5.908   5.207
 3768SOL    HW212204   2.546   5.960   5.331
 3769SOL     OW12205   5.540   5.753   5.202
 3769SOL    HW112206   5.527   5.663   5.161
 3769SOL    HW212207   5.593   5.745   5.286
 3770SOL     OW12208   1.846   0.127   6.789
 3770SOL    HW112209   1.930   0.145   6.840
 3770SOL    HW212210   1.767   0.145   6.848
 3771SOL     OW12211   5.785   2.647   6.856
 3771SOL    HW112212   5.805   2.602   6.943
 3771SOL    HW212213   5.750   2.739   6.873
 3772SOL     OW12214   6.821   1.526   6.970
 3772SOL    HW112215   6.764   1.452   7.005
 3772SOL    HW212216   6.827   1.519   6.871
 3773SOL     OW12217   6.256   3.158   6.268
 3773SOL    HW112218   6.168   3.113   6.256
 3773SOL    HW212219   6.246   3.257   6.252
 3774SOL     OW12220   0.418   5.974   0.141
 3774SOL    HW112221   0.417   6.064   0.185
 3774SOL    HW212222   0.337   5.965   0.082
 3775SOL     OW12223   5.024   4.537   2.130
 3775SOL    HW112224   5.095   4.588   2.180
 3775SOL    HW212225   5.018   4.445   2.167
 3776SOL     OW12226   3.882   0.983   0.559
 3776SOL    HW112227   3.854   0.923   0.634
 3776SOL    HW212228   3.970   1.025   0.581
 3777SOL     OW12229   2.995   4.874   4.681
 3777SOL    HW112230   2.964   4.884   4.776
 3777SOL    HW212231   2.931   4.818   4.630
 3778SOL     OW12232   2.655   5.168   3.067
 3778SOL    HW112233   2.563   5.178   3.028
 3778SOL    HW212234   2.723   5.172   2.993
 3779SOL     OW12235   1.686   4.780   0.777
 3779SOL    HW112236   1.621   4.852   0.753
 3779SOL    HW212237   1.681   4.707   0.708
 3780SOL     OW12238   4.446   5.133   6.054
 3780SOL    HW112239   4.348   5.119   6.046
 3780SOL    HW212240   4.493   5.047   6.033
 3781SOL     OW12241   1.497   6.663   4.819
 3781SOL    HW112242   1.498   6.585   4.756
 3781SOL    HW212243   1.591   6.687   4.843
 3782SOL     OW12244   2.662   1.459   4.376
 3782SOL    HW112245   2.697   1.452   4.282
 3782SOL    HW212246   2.562   1.459   4.375
 3783SOL     OW12247   5.357   6.251   5.202
 3783SOL    HW112248   5.360   6.253   5.102
 3783SOL    HW212249   5.450   6.239   5.237
 3784SOL     OW12250   4.694   2.057   3.538
 3784SOL    HW112251   4.776   2.113   3.550
 3784SOL    HW212252   4.720   1.960   3.540
 3785SOL     OW12253   1.299   0.900   6.734
 3785SOL    HW112254   1.273   0.897   6.830
 3785SOL    HW212255   1.378   0.960   6.723
 3786SOL     OW12256   2.605   6.591   2.825
 3786SOL    HW112257   2.693   6.591   2.871
 3786SOL    HW212258   2.544   6.656   2.871
 3787SOL     OW12259   6.126   6.573   3.232
 3787SOL    HW112260   6.118   6.551   3.135
 3787SOL    HW212261   6.036   6.571   3.274
 3788SOL     OW12262   0.264   2.994   4.019
 3788SOL    HW112263   0.346   2.991   3.963
 3788SOL    HW212264   0.235   3.088   4.032
 3789SOL     OW12265   0.664   3.062   4.170
 3789SOL    HW112266   0.717   3.052   4.086
 3789SOL    HW212267   0.653   3.159   4.192
 3790SOL     OW12268   1.908   3.783   5.516
 3790SOL    HW112269   1.897   3.799   5.418
 3790SOL    HW212270   1.868   3.694   5.540
 3791SOL     OW12271   6.164   0.456   0.727
 3791SOL    HW112272   6.142   0.452   0.824
 3791SOL    HW212273   6.080   0.458   0.673
 3792SOL     OW12274   6.875   0.989   4.015
 3792SOL    HW112275   6.972   0.978   4.036
 3792SOL    HW212276   6.845   1.081   4.041
 3793SOL     OW12277   3.711   0.315   2.674
 3793SOL    HW112278   3.783   0.309   2.743
 3793SOL    HW212279   3.692   0.411   2.653
 3794SOL     OW12280   2.362   4.051   1.018
 3794SOL    HW112281   2.316   4.111   0.953
 3794SOL    HW212282   2.358   4.090   1.110
 3795SOL     OW12283   3.901   6.691   6.652
 3795SOL    HW112284   3.874   6.595   6.647
 3795SOL    HW212285   3.853   6.736   6.727
 3796SOL     OW12286   2.756   1.649   1.234
 3796SOL    HW112287   2.775   1.585   1.308
 3796SOL    HW212288   2.718   1.600   1.156
 3797SOL     OW12289   6.320   4.414   3.026
 3797SOL    HW112290   6.224   4.417   2.996
 3797SOL    HW212291   6.377   4.461   2.959
 3798SOL     OW12292   3.777   5.896   3.455
 3798SOL    HW112293   3.828   5.842   3.523
 3798SOL    HW212294   3.799   5.864   3.363
 3799SOL     OW12295   0.026   2.402   4.059
 3799SOL    HW112296   6.974   2.434   4.122
 3799SOL    HW212297   7.000   2.369   3.975
 3800SOL     OW12298   5.194   3.287   4.423
 3800SOL    HW112299   5.219   3.383   4.408
 3800SOL    HW212300   5.238   3.255   4.507
 3801SOL     OW12301   6.497   6.323   3.402
 3801SOL    HW112302   6.541   6.379   3.472
 3801SOL    HW212303   6.511   6.364   3.312
 3802SOL     OW12304   0.579   2.465   3.711
 3802SOL    HW112305   0.560   2.488   3.616
 3802SOL    HW212306   0.496   2.430   3.754
 3803SOL     OW12307   3.861   2.217   1.043
 3803SOL    HW112308   3.899   2.253   1.128
 3803SOL    HW212309   3.771   2.178   1.060
 3804SOL     OW12310   4.768   1.929   3.784
 3804SOL    HW112311   4.788   1.852   3.725
 3804SOL    HW212312   4.720   1.897   3.866
 3805SOL     OW12313   2.772   3.516   1.327
 3805SOL    HW112314   2.731   3.606   1.342
 3805SOL    HW212315   2.848   3.525   1.262
 3806SOL     OW12316   2.955   4.056   6.929
 3806SOL    HW112317   3.043   4.046   6.974
 3806SOL    HW212318   2.955   4.004   6.843
 3807SOL     OW12319   2.661   0.148   4.066
 3807SOL    HW112320   2.568   0.112   4.062
 3807SOL    HW212321   2.689   0.156   4.162
 3808SOL     OW12322   4.206   0.594   1.129
 3808SOL    HW112323   4.289   0.585   1.074
 3808SOL    HW212324   4.191   0.690   1.153
 3809SOL     OW12325   6.141   2.758   0.456
 3809SOL    HW112326   6.056   2.731   0.501
 3809SOL    HW212327   6.121   2.827   0.386
 3810SOL     OW12328   4.542   2.324   5.256
 3810SOL    HW112329   4.536   2.268   5.173
 3810SOL    HW212330   4.622   2.383   5.251
 3811SOL     OW12331   0.871   4.232   3.843
 3811SOL    HW112332   0.864   4.159   3.775
 3811SOL    HW212333   0.904   4.194   3.930
 3812SOL     OW12334   5.408   0.998   4.973
 3812SOL    HW112335   5.313   0.967   4.966
 3812SOL    HW212336   5.442   1.020   4.882
 3813SOL     OW12337   3.944   4.047   0.436
 3813SOL    HW112338   3.892   3.971   0.396
 3813SOL    HW212339   3.883   4.123   0.455
 3814SOL     OW12340   0.522   7.009   1.192
 3814SOL    HW112341   0.435   6.969   1.223
 3814SOL    HW212342   0.564   6.948   1.125
 3815SOL     OW12343   4.887   2.879   0.629
 3815SOL    HW112344   4.806   2.830   0.659
 3815SOL    HW212345   4.863   2.942   0.555
 3816SOL     OW12346   0.407   5.954   0.569
 3816SOL    HW112347   0.480   6.022   0.571
 3816SOL    HW212348   0.439   5.873   0.520
 3817SOL     OW12349   5.407   3.326   3.288
 3817SOL    HW112350   5.362   3.401   3.239
 3817SOL    HW212351   5.350   3.297   3.364
 3818SOL     OW12352   5.117   0.365   0.425
 3818SOL    HW112353   5.168   0.408   0.350
 3818SOL    HW212354   5.026   0.338   0.393
 3819SOL     OW12355   5.524   5.691   1.223
 3819SOL    HW112356   5.565   5.635   1.150
 3819SOL    HW212357   5.517   5.786   1.191
 3820SOL     OW12358   6.928   6.878   3.711
 3820SOL    HW112359   6.937   6.826   3.626
 3820SOL    HW212360   6.894   6.970   3.689
 3821SOL     OW12361   2.190   2.691   1.086
 3821SOL    HW112362   2.243   2.648   1.160
 3821SOL    HW212363   2.110   2.736   1.125
 3822SOL     OW12364   1.666   6.037   2.490
 3822SOL    HW112365   1.752   6.066   2.448
 3822SOL    HW212366   1.685   5.964   2.556
 3823SOL     OW12367   4.210   2.191   5.733
 3823SOL    HW112368   4.274   2.114   5.733
 3823SOL    HW212369   4.141   2.178   5.662
 3824SOL     OW12370   5.836   1.830   5.742
 3824SOL    HW112371   5.813   1.899   5.811
 3824SOL    HW212372   5.931   1.801   5.755
 3825SOL     OW12373   0.682   6.781   1.035
 3825SOL    HW112374   0.732   6.731   1.106
 3825SOL    HW212375   0.691   6.734   0.948
 3826SOL     OW12376   0.880   3.576   0.019
 3826SOL    HW112377   0.965   3.557   6.988
 3826SOL    HW212378   0.832   3.652   6.993
 3827SOL     OW12379   2.943   3.285   0.776
 3827SOL    HW112380   2.852   3.300   0.737
 3827SOL    HW212381   3.012   3.332   0.720
 3828SOL     OW12382   4.487   2.457   1.198
 3828SOL    HW112383   4.479   2.466   1.297
 3828SOL    HW212384   4.565   2.397   1.177
 3829SOL     OW12385   2.057   4.726   4.013
 3829SOL    HW112386   2.061   4.717   3.913
 3829SOL    HW212387   2.147   4.709   4.051
 3830SOL     OW12388   1.130   0.178   4.840
 3830SOL    HW112389   1.178   0.184   4.928
 3830SOL    HW212390   1.041   0.223   4.847
 3831SOL     OW12391   4.676   2.167   2.119
 3831SOL    HW112392   4.706   2.263   2.122
 3831SOL    HW212393   4.689   2.126   2.209
 3832SOL     OW12394   5.923   0.876   2.272
 3832SOL    HW112395   5.973   0.960   2.293
 3832SOL    HW212396   5.987   0.804   2.246
 3833SOL     OW12397   1.384   6.075   6.365
 3833SOL    HW112398   1.385   6.042   6.271
 3833SOL    HW212399   1.462   6.038   6.415
 3834SOL     OW12400   3.457   2.554   0.695
 3834SOL    HW112401   3.547   2.515   0.677
 3834SOL    HW212402   3.393   2.481   0.718
 3835SOL     OW12403   3.162   5.361   5.043
 3835SOL    HW112404   3.094   5.385   5.112
 3835SOL    HW212405   3.251   5.348   5.087
 3836SOL     OW12406   1.936   3.744   5.136
 3836SOL    HW112407   2.031   3.755   5.168
 3836SOL    HW212408   1.913   3.818   5.074
 3837SOL     OW12409   5.103   3.683   6.970
 3837SOL    HW112410   5.095   3.781   6.952
 3837SOL    HW212411   5.034   3.633   6.917
 3838SOL     OW12412   6.037   4.247   4.569
 3838SOL    HW112413   6.117   4.253   4.629
 3838SOL    HW212414   5.963   4.303   4.607
 3839SOL     OW12415   4.215   0.565   4.489
 3839SOL    HW112416   4.182   0.624   4.415
 3839SOL    HW212417   4.280   0.615   4.545
 3840SOL     OW12418   1.590   1.449   5.384
 3840SOL    HW112419   1.654   1.454   5.307
 3840SOL    HW212420   1.609   1.523   5.448
 3841SOL     OW12421   6.818   3.471   4.527
 3841SOL    HW112422   6.724   3.443   4.548
 3841SOL    HW212423   6.880   3.395   4.544
 3842SOL     OW12424   1.184   4.777   6.936
 3842SOL    HW112425   1.123   4.737   6.868
 3842SOL    HW212426   1.248   4.840   6.892
 3843SOL     OW12427   6.932   4.422   1.997
 3843SOL    HW112428   6.967   4.432   1.904
 3843SOL    HW212429   6.869   4.344   2.001
 3844SOL     OW12430   0.046   4.059   5.690
 3844SOL    HW112431   6.972   4.084   5.660
 3844SOL    HW212432   0.092   4.009   5.617
 3845SOL     OW12433   3.793   2.884   3.079
 3845SOL    HW112434   3.746   2.796   3.071
 3845SOL    HW212435   3.742   2.942   3.143
 3846SOL     OW12436   0.351   4.595   4.211
 3846SOL    HW112437   0.441   4.567   4.176
 3846SOL    HW212438   0.357   4.610   4.310
 3847SOL     OW12439   6.210   1.388   5.518
 3847SOL    HW112440   6.198   1.334   5.602
 3847SOL    HW212441   6.294   1.360   5.472
 3848SOL     OW12442   2.905   5.759   3.362
 3848SOL    HW112443   2.997   5.750   3.400
 3848SOL    HW212444   2.897   5.700   3.281
 3849SOL     OW12445   0.270   1.546   5.507
 3849SOL    HW112446   0.315   1.566   5.594
 3849SOL    HW212447   0.269   1.448   5.491
 3850SOL     OW12448   2.543   3.430   1.468
 3850SOL    HW112449   2.624   3.469   1.426
 3850SOL    HW212450   2.463   3.485   1.444
 3851SOL     OW12451   1.171   4.267   2.900
 3851SOL    HW112452   1.219   4.220   2.974
 3851SOL    HW212453   1.186   4.218   2.814
 3852SOL     OW12454   4.408   6.640   4.858
 3852SOL    HW112455   4.433   6.552   4.896
 3852SOL    HW212456   4.473   6.710   4.888
 3853SOL     OW12457   1.480   3.305   2.472
 3853SOL    HW112458   1.560   3.294   2.531
 3853SOL    HW212459   1.487   3.244   2.393
 3854SOL     OW12460   0.649   4.031   2.746
 3854SOL    HW112461   0.632   3.961   2.816
 3854SOL    HW212462   0.603   4.004   2.661
 3855SOL     OW12463   5.431   5.524   6.932
 3855SOL    HW112464   5.355   5.587   6.918
 3855SOL    HW212465   5.404   5.433   6.901
 3856SOL     OW12466   6.706   6.246   4.941
 3856SOL    HW112467   6.680   6.257   5.037
 3856SOL    HW212468   6.651   6.173   4.900
 3857SOL     OW12469   1.016   6.415   5.235
 3857SOL    HW112470   1.115   6.407   5.244
 3857SOL    HW212471   0.994   6.467   5.152
 3858SOL     OW12472   1.652   5.838   5.820
 3858SOL    HW112473   1.631   5.783   5.739
 3858SOL    HW212474   1.751   5.837   5.836
 3859SOL     OW12475   6.878   1.746   3.022
 3859SOL    HW112476   6.881   1.682   3.098
 3859SOL    HW212477   6.967   1.790   3.012
 3860SOL     OW12478   1.603   6.386   4.358
 3860SOL    HW112479   1.535   6.372   4.286
 3860SOL    HW212480   1.694   6.370   4.321
 3861SOL     OW12481   5.203   4.527   1.915
 3861SOL    HW112482   5.124   4.503   1.970
 3861SOL    HW212483   5.251   4.444   1.887
 3862SOL     OW12484   6.502   0.072   5.436
 3862SOL    HW112485   6.497   0.029   5.527
 3862SOL    HW212486   6.410   0.083   5.400
 3863SOL     OW12487   3.984   4.416   6.548
 3863SOL    HW112488   3.909   4.426   6.614
 3863SOL    HW212489   3.986   4.494   6.486
 3864SOL     OW12490   4.214   1.666   5.731
 3864SOL    HW112491   4.169   1.701   5.814
 3864SOL    HW212492   4.146   1.655   5.659
 3865SOL     OW12493   4.036   0.705   1.602
 3865SOL    HW112494   3.975   0.653   1.541
 3865SOL    HW212495   4.033   0.665   1.694
 3866SOL     OW12496   4.068   0.514   0.071
 3866SOL    HW112497   4.126   0.548   7.016
 3866SOL    HW212498   4.021   0.431   0.042
 3867SOL     OW12499   2.091   3.610   4.163
 3867SOL    HW112500   2.143   3.674   4.106
 3867SOL    HW212501   2.057   3.535   4.106
 3868SOL     OW12502   2.059   6.391   1.913
 3868SOL    HW112503   2.125   6.408   1.986
 3868SOL    HW212504   1.979   6.449   1.928
 3869SOL     OW12505   0.317   2.768   4.131
 3869SOL    HW112506   0.417   2.768   4.131
 3869SOL    HW212507   0.284   2.847   4.079
 3870SOL     OW12508   4.071   4.938   0.568
 3870SOL    HW112509   4.033   4.860   0.618
 3870SOL    HW212510   3.998   4.998   0.538
 3871SOL     OW12511   3.377   0.813   2.780
 3871SOL    HW112512   3.430   0.896   2.765
 3871SOL    HW212513   3.430   0.750   2.838
 3872SOL     OW12514   3.599   2.841   1.526
 3872SOL    HW112515   3.620   2.929   1.483
 3872SOL    HW212516   3.587   2.772   1.456
 3873SOL     OW12517   5.885   5.701   1.515
 3873SOL    HW112518   5.899   5.605   1.539
 3873SOL    HW212519   5.841   5.748   1.591
 3874SOL     OW12520   4.329   6.298   0.571
 3874SOL    HW112521   4.410   6.333   0.524
 3874SOL    HW212522   4.247   6.337   0.530
 3875SOL     OW12523   1.030   3.452   2.586
 3875SOL    HW112524   1.000   3.444   2.491
 3875SOL    HW212525   1.122   3.413   2.596
 3876SOL     OW12526   4.853   4.950   6.702
 3876SOL    HW112527   4.850   4.882   6.775
 3876SOL    HW212528   4.785   5.021   6.719
 3877SOL     OW12529   6.559   1.441   0.854
 3877SOL    HW112530   6.652   1.412   0.880
 3877SOL    HW212531   6.493   1.376   0.891
 3878SOL     OW12532   2.426   6.118   6.409
 3878SOL    HW112533   2.414   6.052   6.483
 3878SOL    HW212534   2.523   6.121   6.383
 3879SOL     OW12535   5.049   5.698   1.255
 3879SOL    HW112536   5.069   5.639   1.177
 3879SOL    HW212537   5.135   5.739   1.288
 3880SOL     OW12538   6.158   3.875   2.939
 3880SOL    HW112539   6.075   3.915   2.900
 3880SOL    HW212540   6.165   3.779   2.911
 3881SOL     OW12541   1.522   5.479   0.601
 3881SOL    HW112542   1.574   5.468   0.516
 3881SOL    HW212543   1.447   5.412   0.603
 3882SOL     OW12544   6.576   0.825   5.663
 3882SOL    HW112545   6.643   0.781   5.722
 3882SOL    HW212546   6.555   0.917   5.698
 3883SOL     OW12547   5.032   1.672   4.063
 3883SOL    HW112548   5.031   1.768   4.034
 3883SOL    HW212549   5.104   1.624   4.013
 3884SOL     OW12550   1.027   6.270   4.532
 3884SOL    HW112551   1.102   6.222   4.578
 3884SOL    HW212552   1.062   6.315   4.450
 3885SOL     OW12553   6.614   1.061   4.416
 3885SOL    HW112554   6.603   1.008   4.500
 3885SOL    HW212555   6.655   1.003   4.345
 3886SOL     OW12556   5.891   7.001   5.858
 3886SOL    HW112557   5.889   0.083   5.853
 3886SOL    HW212558   5.811   6.968   5.909
 3887SOL     OW12559   4.777   1.917   5.299
 3887SOL    HW112560   4.802   1.853   5.371
 3887SOL    HW212561   4.711   1.983   5.335
 3888SOL     OW12562   0.036   1.037   6.284
 3888SOL    HW112563   0.045   0.999   6.376
 3888SOL    HW212564   0.097   1.116   6.275
 3889SOL     OW12565   0.478   5.373   6.623
 3889SOL    HW112566   0.494   5.428   6.541
 3889SOL    HW212567   0.398   5.314   6.609
 3890SOL     OW12568   6.440   6.337   2.916
 3890SOL    HW112569   6.409   6.250   2.878
 3890SOL    HW212570   6.458   6.401   2.842
 3891SOL     OW12571   5.298   4.798   4.691
 3891SOL    HW112572   5.363   4.872   4.678
 3891SOL    HW212573   5.278   4.755   4.602
 3892SOL     OW12574   1.210   0.206   2.458
 3892SOL    HW112575   1.190   0.185   2.554
 3892SOL    HW212576   1.296   0.258   2.453
 3893SOL     OW12577   3.343   6.089   3.276
 3893SOL    HW112578   3.374   6.078   3.370
 3893SOL    HW212579   3.316   6.000   3.239
 3894SOL     OW12580   3.775   2.492   0.159
 3894SOL    HW112581   3.765   2.589   0.137
 3894SOL    HW212582   3.871   2.465   0.150
 3895SOL     OW12583   1.362   1.322   5.259
 3895SOL    HW112584   1.423   1.277   5.192
 3895SOL    HW212585   1.414   1.389   5.312
 3896SOL     OW12586   0.607   1.953   5.909
 3896SOL    HW112587   0.576   1.991   5.822
 3896SOL    HW212588   0.552   1.873   5.932
 3897SOL     OW12589   2.888   6.460   2.564
 3897SOL    HW112590   2.947   6.491   2.638
 3897SOL    HW212591   2.815   6.528   2.548
 3898SOL     OW12592   3.082   3.129   3.944
 3898SOL    HW112593   3.144   3.097   3.874
 3898SOL    HW212594   3.044   3.218   3.917
 3899SOL     OW12595   5.439   1.460   4.665
 3899SOL    HW112596   5.364   1.414   4.617
 3899SOL    HW212597   5.407   1.490   4.755
 3900SOL     OW12598   6.292   2.872   3.155
 3900SOL    HW112599   6.245   2.956   3.125
 3900SOL    HW212600   6.378   2.897   3.200
 3901SOL     OW12601   1.504   6.451   5.378
 3901SOL    HW112602   1.514   6.501   5.464
 3901SOL    HW212603   1.585   6.465   5.321
 3902SOL     OW12604   5.433   4.852   2.766
 3902SOL    HW112605   5.531   4.871   2.764
 3902SOL    HW212606   5.414   4.769   2.715
 3903SOL     OW12607   4.493   2.891   0.228
 3903SOL    HW112608   4.424   2.897   0.300
 3903SOL    HW212609   4.449   2.864   0.142
 3904SOL     OW12610   0.704   6.931   0.382
 3904SOL    HW112611   0.702   6.867   0.305
 3904SOL    HW212612   0.612   6.943   0.418
 3905SOL     OW12613   6.385   6.294   6.377
 3905SOL    HW112614   6.476   6.261   6.401
 3905SOL    HW212615   6.348   6.240   6.301
 3906SOL     OW12616   1.493   4.793   3.818
 3906SOL    HW112617   1.485   4.853   3.897
 3906SOL    HW212618   1.411   4.803   3.761
 3907SOL     OW12619   0.067   1.103   4.726
 3907SOL    HW112620   0.050   1.149   4.638
 3907SOL    HW212621   0.007   1.023   4.734
 3908SOL     OW12622   1.243   0.619   5.641
 3908SOL    HW112623   1.295   0.693   5.598
 3908SOL    HW212624   1.162   0.656   5.684
 3909SOL     OW12625   5.088   3.676   5.898
 3909SOL    HW112626   5.061   3.585   5.866
 3909SOL    HW212627   5.188   3.679   5.908
 3910SOL     OW12628   3.605   3.877   1.763
 3910SOL    HW112629   3.573   3.822   1.686
 3910SOL    HW212630   3.664   3.821   1.822
 3911SOL     OW12631   5.691   0.727   0.954
 3911SOL    HW112632   5.632   0.799   0.918
 3911SOL    HW212633   5.635   0.651   0.987
 3912SOL     OW12634   3.205   2.004   6.141
 3912SOL    HW112635   3.159   2.087   6.110
 3912SOL    HW212636   3.254   2.024   6.227
 3913SOL     OW12637   3.810   6.645   0.712
 3913SOL    HW112638   3.879   6.580   0.744
 3913SOL    HW212639   3.832   6.736   0.747
 3914SOL     OW12640   5.787   1.584   1.143
 3914SOL    HW112641   5.847   1.655   1.181
 3914SOL    HW212642   5.838   1.531   1.075
 3915SOL     OW12643   3.918   6.106   0.259
 3915SOL    HW112644   3.946   6.052   0.339
 3915SOL    HW212645   3.827   6.078   0.229
 3916SOL     OW12646   3.162   0.583   3.093
 3916SOL    HW112647   3.199   0.504   3.044
 3916SOL    HW212648   3.236   0.644   3.121
 3917SOL     OW12649   2.789   5.305   0.905
 3917SOL    HW112650   2.701   5.324   0.863
 3917SOL    HW212651   2.857   5.288   0.833
 3918SOL     OW12652   5.108   1.055   0.234
 3918SOL    HW112653   5.089   1.151   0.215
 3918SOL    HW212654   5.157   1.047   0.321
 3919SOL     OW12655   4.936   1.230   1.109
 3919SOL    HW112656   4.958   1.167   1.183
 3919SOL    HW212657   5.017   1.283   1.084
 3920SOL     OW12658   3.104   1.408   6.805
 3920SOL    HW112659   3.194   1.372   6.829
 3920SOL    HW212660   3.114   1.494   6.755
 3921SOL     OW12661   0.351   2.537   6.505
 3921SOL    HW112662   0.357   2.604   6.431
 3921SOL    HW212663   0.429   2.474   6.499
 3922SOL     OW12664   4.800   4.931   2.013
 3922SOL    HW112665   4.735   4.896   1.945
 3922SOL    HW212666   4.802   4.869   2.091
 3923SOL     OW12667   6.206   1.127   1.806
 3923SOL    HW112668   6.228   1.032   1.782
 3923SOL    HW212669   6.120   1.129   1.858
 3924SOL     OW12670   0.189   4.413   4.110
 3924SOL    HW112671   0.203   4.402   4.011
 3924SOL    HW212672   0.260   4.472   4.147
 3925SOL     OW12673   4.794   3.508   0.466
 3925SOL    HW112674   4.817   3.585   0.407
 3925SOL    HW212675   4.768   3.541   0.556
 3926SOL     OW12676   1.745   0.810   5.950
 3926SOL    HW112677   1.787   0.858   5.874
 3926SOL    HW212678   1.647   0.799   5.932
 3927SOL     OW12679   0.427   2.431   4.519
 3927SOL    HW112680   0.361   2.439   4.595
 3927SOL    HW212681   0.473   2.343   4.523
 3928SOL     OW12682   2.343   0.140   3.621
 3928SOL    HW112683   2.296   0.226   3.645
 3928SOL    HW212684   2.294   0.063   3.664
 3929SOL     OW12685   6.797   1.906   5.482
 3929SOL    HW112686   6.778   1.902   5.383
 3929SOL    HW212687   6.893   1.929   5.496
 3930SOL     OW12688   1.580   2.547   3.989
 3930SOL    HW112689   1.574   2.448   3.998
 3930SOL    HW212690   1.489   2.584   3.970
 3931SOL     OW12691   1.488   2.088   1.862
 3931SOL    HW112692   1.524   2.180   1.849
 3931SOL    HW212693   1.416   2.089   1.931
 3932SOL     OW12694   2.051   5.668   4.088
 3932SOL    HW112695   2.011   5.603   4.023
 3932SOL    HW212696   2.151   5.668   4.078
 3933SOL     OW12697   1.711   5.399   0.377
 3933SOL    HW112698   1.722   5.438   0.285
 3933SOL    HW212699   1.759   5.455   0.443
 3934SOL     OW12700   0.909   1.342   2.597
 3934SOL    HW112701   0.821   1.348   2.645
 3934SOL    HW212702   0.968   1.417   2.627
 3935SOL     OW12703   6.438   3.242   6.461
 3935SOL    HW112704   6.379   3.191   6.398
 3935SOL    HW212705   6.494   3.307   6.411
 3936SOL     OW12706   6.258   5.845   5.278
 3936SOL    HW112707   6.259   5.747   5.256
 3936SOL    HW212708   6.181   5.865   5.338
 3937SOL     OW12709   6.944   5.392   2.582
 3937SOL    HW112710   0.016   5.360   2.613
 3937SOL    HW212711   6.873   5.336   2.624
 3938SOL     OW12712   6.531   3.895   3.812
 3938SOL    HW112713   6.454   3.833   3.797
 3938SOL    HW212714   6.517   3.980   3.760
 3939SOL     OW12715   0.690   1.453   1.857
 3939SOL    HW112716   0.719   1.358   1.862
 3939SOL    HW212717   0.761   1.512   1.893
 3940SOL     OW12718   2.945   4.811   1.887
 3940SOL    HW112719   3.018   4.791   1.821
 3940SOL    HW212720   2.899   4.726   1.911
 3941SOL     OW12721   5.892   6.994   3.803
 3941SOL    HW112722   5.855   0.055   3.852
 3941SOL    HW212723   5.819   6.929   3.784
 3942SOL     OW12724   0.951   6.459   6.325
 3942SOL    HW112725   0.922   6.555   6.320
 3942SOL    HW212726   1.012   6.447   6.403
 3943SOL     OW12727   0.837   3.862   1.799
 3943SOL    HW112728   0.797   3.952   1.782
 3943SOL    HW212729   0.832   3.807   1.715
 3944SOL     OW12730   6.483   2.868   6.612
 3944SOL    HW112731   6.402   2.887   6.557
 3944SOL    HW212732   6.542   2.803   6.565
 3945SOL     OW12733   0.941   1.324   3.364
 3945SOL    HW112734   0.952   1.295   3.269
 3945SOL    HW212735   0.870   1.395   3.369
 3946SOL     OW12736   6.815   3.282   0.402
 3946SOL    HW112737   6.803   3.217   0.326
 3946SOL    HW212738   6.738   3.346   0.403
 3947SOL     OW12739   5.529   5.936   1.103
 3947SOL    HW112740   5.484   6.017   1.140
 3947SOL    HW212741   5.627   5.940   1.124
 3948SOL     OW12742   1.660   2.737   6.081
 3948SOL    HW112743   1.648   2.647   6.124
 3948SOL    HW212744   1.640   2.809   6.147
 3949SOL     OW12745   6.628   6.382   2.703
 3949SOL    HW112746   6.678   6.295   2.705
 3949SOL    HW212747   6.546   6.371   2.647
 3950SOL     OW12748   3.981   4.834   1.359
 3950SOL    HW112749   3.964   4.875   1.449
 3950SOL    HW212750   4.036   4.751   1.370
 3951SOL     OW12751   0.092   1.811   5.159
 3951SOL    HW112752   0.151   1.806   5.240
 3951SOL    HW212753   0.094   1.904   5.123
 3952SOL     OW12754   5.816   2.509   5.010
 3952SOL    HW112755   5.880   2.581   4.986
 3952SOL    HW212756   5.865   2.423   5.024
 3953SOL     OW12757   3.286   3.784   5.921
 3953SOL    HW112758   3.318   3.759   6.012
 3953SOL    HW212759   3.262   3.881   5.920
 3954SOL     OW12760   0.396   3.781   4.870
 3954SOL    HW112761   0.323   3.767   4.936
 3954SOL    HW212762   0.358   3.791   4.779
 3955SOL     OW12763   5.347   6.014   0.221
 3955SOL    HW112764   5.431   6.067   0.213
 3955SOL    HW212765   5.274   6.057   0.169
 3956SOL     OW12766   0.512   2.821   5.705
 3956SOL    HW112767   0.548   2.761   5.776
 3956SOL    HW212768   0.539   2.915   5.724
 3957SOL     OW12769   2.867   7.011   4.138
 3957SOL    HW112770   2.936   0.048   4.186
 3957SOL    HW212771   2.797   0.053   4.101
 3958SOL     OW12772   6.381   5.645   0.460
 3958SOL    HW112773   6.416   5.633   0.367
 3958SOL    HW212774   6.429   5.720   0.504
 3959SOL     OW12775   2.704   5.933   0.348
 3959SOL    HW112776   2.712   5.947   0.447
 3959SOL    HW212777   2.614   5.895   0.327
 3960SOL     OW12778   4.136   2.672   0.006
 3960SOL    HW112779   4.061   2.718   0.053
 3960SOL    HW212780   4.099   2.616   6.950
 3961SOL     OW12781   4.980   1.556   2.622
 3961SOL    HW112782   4.921   1.625   2.581
 3961SOL    HW212783   5.042   1.519   2.552
 3962SOL     OW12784   1.035   6.409   0.230
 3962SOL    HW112785   1.129   6.398   0.264
 3962SOL    HW212786   0.974   6.430   0.307
 3963SOL     OW12787   5.239   4.828   4.044
 3963SOL    HW112788   5.193   4.875   3.969
 3963SOL    HW212789   5.239   4.887   4.125
 3964SOL     OW12790   4.973   5.956   5.156
 3964SOL    HW112791   4.888   6.004   5.134
 3964SOL    HW212792   5.030   6.014   5.215
 3965SOL     OW12793   4.086   4.675   0.048
 3965SOL    HW112794   4.074   4.770   0.019
 3965SOL    HW212795   4.136   4.673   0.135
 3966SOL     OW12796   6.037   5.121   5.879
 3966SOL    HW112797   5.980   5.194   5.916
 3966SOL    HW212798   6.133   5.138   5.903
 3967SOL     OW12799   0.116   6.249   4.784
 3967SOL    HW112800   0.209   6.233   4.752
 3967SOL    HW212801   0.090   6.177   4.848
 3968SOL     OW12802   5.074   0.485   2.150
 3968SOL    HW112803   5.035   0.523   2.066
 3968SOL    HW212804   5.170   0.461   2.134
 3969SOL     OW12805   1.197   4.803   3.094
 3969SOL    HW112806   1.175   4.826   2.999
 3969SOL    HW212807   1.166   4.876   3.154
 3970SOL     OW12808   4.875   4.993   3.810
 3970SOL    HW112809   4.787   4.969   3.769
 3970SOL    HW212810   4.872   5.088   3.842
 3971SOL     OW12811   2.655   5.437   3.527
 3971SOL    HW112812   2.676   5.528   3.492
 3971SOL    HW212813   2.694   5.427   3.619
 3972SOL     OW12814   0.655   6.387   0.798
 3972SOL    HW112815   0.657   6.487   0.806
 3972SOL    HW212816   0.734   6.348   0.845
 3973SOL     OW12817   3.496   3.559   4.103
 3973SOL    HW112818   3.512   3.461   4.119
 3973SOL    HW212819   3.570   3.612   4.143
 3974SOL     OW12820   0.037   1.347   6.165
 3974SOL    HW112821   0.108   1.416   6.149
 3974SOL    HW212822   0.045   1.274   6.097
 3975SOL     OW12823   6.819   0.834   6.402
 3975SOL    HW112824   6.856   0.783   6.324
 3975SOL    HW212825   6.782   0.770   6.469
 3976SOL     OW12826   1.385   4.311   0.957
 3976SOL    HW112827   1.364   4.395   1.006
 3976SOL    HW212828   1.473   4.321   0.911
 3977SOL     OW12829   2.134   5.966   6.328
 3977SOL    HW112830   2.191   6.046   6.348
 3977SOL    HW212831   2.047   5.974   6.377
 3978SOL     OW12832   5.961   1.868   5.450
 3978SOL    HW112833   5.994   1.774   5.446
 3978SOL    HW212834   6.018   1.921   5.513
 3979SOL     OW12835   1.259   6.829   1.848
 3979SOL    HW112836   1.266   6.772   1.930
 3979SOL    HW212837   1.187   6.793   1.788
 3980SOL     OW12838   5.209   3.557   4.430
 3980SOL    HW112839   5.208   3.632   4.364
 3980SOL    HW212840   5.247   3.589   4.516
 3981SOL     OW12841   0.291   1.596   6.491
 3981SOL    HW112842   0.191   1.594   6.490
 3981SOL    HW212843   0.323   1.672   6.548
 3982SOL     OW12844   2.396   1.072   4.242
 3982SOL    HW112845   2.415   0.993   4.300
 3982SOL    HW212846   2.481   1.103   4.198
 3983SOL     OW12847   3.101   6.989   4.693
 3983SOL    HW112848   3.025   6.924   4.692
 3983SOL    HW212849   3.178   6.950   4.643
 3984SOL     OW12850   1.645   6.354   1.920
 3984SOL    HW112851   1.719   6.343   1.854
 3984SOL    HW212852   1.608   6.447   1.914
 3985SOL     OW12853   1.561   3.445   6.750
 3985SOL    HW112854   1.544   3.496   6.835
 3985SOL    HW212855   1.487   3.462   6.686
 3986SOL     OW12856   0.159   2.092   1.175
 3986SOL    HW112857   0.174   2.120   1.081
 3986SOL    HW212858   0.066   2.118   1.203
 3987SOL     OW12859   2.401   5.557   5.430
 3987SOL    HW112860   2.366   5.565   5.337
 3987SOL    HW212861   2.332   5.516   5.489
 3988SOL     OW12862   4.174   1.890   6.595
 3988SOL    HW112863   4.206   1.935   6.678
 3988SOL    HW212864   4.252   1.865   6.539
 3989SOL     OW12865   6.250   0.237   0.091
 3989SOL    HW112866   6.181   0.227   0.163
 3989SOL    HW212867   6.259   0.151   0.041
 3990SOL     OW12868   6.933   2.855   4.526
 3990SOL    HW112869   6.885   2.789   4.584
 3990SOL    HW212870   6.882   2.867   4.441
 3991SOL     OW12871   0.647   2.088   3.701
 3991SOL    HW112872   0.631   2.117   3.795
 3991SOL    HW212873   0.745   2.083   3.683
 3992SOL     OW12874   4.451   3.014   6.396
 3992SOL    HW112875   4.409   3.099   6.363
 3992SOL    HW212876   4.532   2.994   6.341
 3993SOL     OW12877   2.830   2.155   2.462
 3993SOL    HW112878   2.771   2.236   2.462
 3993SOL    HW212879   2.866   2.141   2.554
 3994SOL     OW12880   2.604   2.451   4.919
 3994SOL    HW112881   2.662   2.429   4.840
 3994SOL    HW212882   2.662   2.477   4.997
 3995SOL     OW12883   1.804   3.982   3.399
 3995SOL    HW112884   1.705   3.975   3.383
 3995SOL    HW212885   1.821   3.991   3.497
 3996SOL     OW12886   0.881   1.230   4.571
 3996SOL    HW112887   0.880   1.131   4.556
 3996SOL    HW212888   0.867   1.249   4.668
 3997SOL     OW12889   4.946   3.764   3.335
 3997SOL    HW112890   5.044   3.783   3.334
 3997SOL    HW212891   4.931   3.665   3.329
 3998SOL     OW12892   6.102   1.972   2.866
 3998SOL    HW112893   6.076   1.904   2.798
 3998SOL    HW212894   6.038   2.049   2.862
 3999SOL     OW12895   5.877   3.922   3.233
 3999SOL    HW112896   5.807   3.972   3.284
 3999SOL    HW212897   5.897   3.836   3.279
 4000SOL     OW12898   2.973   5.464   2.722
 4000SOL    HW112899   2.940   5.511   2.804
 4000SOL    HW212900   3.072   5.451   2.728
 4001SOL     OW12901   2.761   3.845   5.997
 4001SOL    HW112902   2.775   3.763   6.052
 4001SOL    HW212903   2.806   3.923   6.041
 4002SOL     OW12904   3.917   3.097   5.162
 4002SOL    HW112905   3.893   3.107   5.065
 4002SOL    HW212906   3.951   3.185   5.197
 4003SOL     OW12907   2.407   1.184   6.718
 4003SOL    HW112908   2.348   1.261   6.696
 4003SOL    HW212909   2.449   1.149   6.634
 4004SOL     OW12910   6.303   3.511   3.034
 4004SOL    HW112911   6.266   3.468   3.116
 4004SOL    HW212912   6.375   3.576   3.059
 4005SOL     OW12913   4.074   4.233   1.201
 4005SOL    HW112914   4.032   4.324   1.203
 4005SOL    HW212915   4.055   4.185   1.286
 4006SOL     OW12916   5.401   4.733   1.868
 4006SOL    HW112917   5.341   4.654   1.879
 4006SOL    HW212918   5.354   4.804   1.816
 4007SOL     OW12919   0.302   1.968   3.349
 4007SOL    HW112920   0.227   1.986   3.286
 4007SOL    HW212921   0.389   1.994   3.307
 4008SOL     OW12922   2.869   6.692   0.065
 4008SOL    HW112923   2.811   6.628   0.014
 4008SOL    HW212924   2.944   6.724   0.006
 4009SOL     OW12925   5.018   2.184   1.304
 4009SOL    HW112926   4.999   2.104   1.360
 4009SOL    HW212927   4.999   2.163   1.208
 4010SOL     OW12928   3.202   4.025   1.403
 4010SOL    HW112929   3.112   4.025   1.447
 4010SOL    HW212930   3.201   3.961   1.326
 4011SOL     OW12931   6.767   5.881   1.408
 4011SOL    HW112932   6.751   5.949   1.479
 4011SOL    HW212933   6.801   5.927   1.325
 4012SOL     OW12934   3.995   0.148   2.391
 4012SOL    HW112935   3.898   0.153   2.412
 4012SOL    HW212936   4.010   0.086   2.314
 4013SOL     OW12937   2.245   6.901   1.617
 4013SOL    HW112938   2.223   6.881   1.712
 4013SOL    HW212939   2.257   6.999   1.605
 4014SOL     OW12940   3.565   6.343   3.949
 4014SOL    HW112941   3.476   6.320   3.910
 4014SOL    HW212942   3.554   6.417   4.016
 4015SOL     OW12943   4.613   4.578   6.362
 4015SOL    HW112944   4.523   4.620   6.355
 4015SOL    HW212945   4.671   4.632   6.423
 4016SOL     OW12946   2.834   5.380   0.608
 4016SOL    HW112947   2.836   5.463   0.552
 4016SOL    HW212948   2.867   5.303   0.554
 4017SOL     OW12949   0.248   4.997   5.289
 4017SOL    HW112950   0.174   4.932   5.311
 4017SOL    HW212951   0.271   5.049   5.371
 4018SOL     OW12952   3.883   0.093   1.736
 4018SOL    HW112953   3.934   0.154   1.796
 4018SOL    HW212954   3.789   0.084   1.770
 4019SOL     OW12955   5.638   3.843   2.397
 4019SOL    HW112956   5.542   3.817   2.408
 4019SOL    HW212957   5.690   3.809   2.475
 4020SOL     OW12958   6.873   3.146   5.420
 4020SOL    HW112959   6.825   3.145   5.508
 4020SOL    HW212960   6.839   3.221   5.364
 4021SOL     OW12961   3.460   4.109   5.078
 4021SOL    HW112962   3.530   4.127   5.009
 4021SOL    HW212963   3.371   4.103   5.033
 4022SOL     OW12964   4.127   6.425   0.408
 4022SOL    HW112965   4.083   6.513   0.429
 4022SOL    HW212966   4.141   6.417   0.310
 4023SOL     OW12967   6.952   0.921   6.060
 4023SOL    HW112968   6.996   0.955   6.143
 4023SOL    HW212969   6.894   0.842   6.083
 4024SOL     OW12970   2.604   5.377   4.385
 4024SOL    HW112971   2.563   5.446   4.326
 4024SOL    HW212972   2.660   5.421   4.455
 4025SOL     OW12973   0.623   6.217   4.630
 4025SOL    HW112974   0.528   6.236   4.603
 4025SOL    HW212975   0.649   6.278   4.705
 4026SOL     OW12976   6.310   6.083   4.261
 4026SOL    HW112977   6.402   6.082   4.301
 4026SOL    HW212978   6.306   6.151   4.188
 4027SOL     OW12979   2.845   1.842   0.069
 4027SOL    HW112980   2.784   1.890   0.133
 4027SOL    HW212981   2.939   1.874   0.082
 4028SOL     OW12982   3.995   1.909   3.445
 4028SOL    HW112983   4.062   1.926   3.373
 4028SOL    HW212984   4.043   1.896   3.532
 4029SOL     OW12985   2.793   4.361   6.249
 4029SOL    HW112986   2.735   4.442   6.250
 4029SOL    HW212987   2.884   4.385   6.215
 4030SOL     OW12988   6.591   1.139   1.543
 4030SOL    HW112989   6.638   1.198   1.477
 4030SOL    HW212990   6.657   1.103   1.609
 4031SOL     OW12991   4.987   6.143   3.304
 4031SOL    HW112992   5.077   6.136   3.348
 4031SOL    HW212993   4.938   6.222   3.341
 4032SOL     OW12994   0.268   0.074   2.533
 4032SOL    HW112995   0.313   0.003   2.479
 4032SOL    HW212996   0.296   0.164   2.498
 4033SOL     OW12997   1.563   2.675   1.762
 4033SOL    HW112998   1.569   2.657   1.860
 4033SOL    HW212999   1.526   2.594   1.715
 4034SOL     OW13000   5.792   2.013   5.293
 4034SOL    HW113001   5.692   2.013   5.291
 4034SOL    HW213002   5.824   1.960   5.371
 4035SOL     OW13003   6.220   1.076   0.909
 4035SOL    HW113004   6.231   1.006   0.979
 4035SOL    HW213005   6.123   1.099   0.900
 4036SOL     OW13006   4.117   5.000   2.420
 4036SOL    HW113007   4.211   4.967   2.430
 4036SOL    HW213008   4.055   4.922   2.418
 4037SOL     OW13009   2.171   1.176   6.260
 4037SOL    HW113010   2.107   1.142   6.192
 4037SOL    HW213011   2.173   1.114   6.339
 4038SOL     OW13012   4.235   2.913   0.782
 4038SOL    HW113013   4.301   2.918   0.707
 4038SOL    HW213014   4.154   2.967   0.758
 4039SOL     OW13015   4.538   5.762   1.954
 4039SOL    HW113016   4.552   5.689   2.022
 4039SOL    HW213017   4.496   5.723   1.872
 4040SOL     OW13018   2.983   6.795   5.402
 4040SOL    HW113019   3.031   6.838   5.326
 4040SOL    HW213020   2.933   6.715   5.370
 4041SOL     OW13021   1.968   5.120   1.146
 4041SOL    HW113022   1.984   5.215   1.118
 4041SOL    HW213023   1.881   5.114   1.195
 4042SOL     OW13024   6.112   5.958   4.397
 4042SOL    HW113025   6.131   6.055   4.403
 4042SOL    HW213026   6.047   5.942   4.322
 4043SOL     OW13027   0.028   2.077   6.074
 4043SOL    HW113028   6.985   2.156   6.073
 4043SOL    HW213029   0.004   2.016   5.999
 4044SOL     OW13030   5.299   6.073   3.766
 4044SOL    HW113031   5.274   6.170   3.770
 4044SOL    HW213032   5.386   6.059   3.813
 4045SOL     OW13033   4.051   6.535   5.694
 4045SOL    HW113034   3.983   6.608   5.698
 4045SOL    HW213035   4.083   6.514   5.787
 4046SOL     OW13036   0.828   2.055   3.013
 4046SOL    HW113037   0.861   2.074   3.105
 4046SOL    HW213038   0.737   2.013   3.018
 4047SOL     OW13039   2.518   2.068   6.948
 4047SOL    HW113040   2.546   2.153   6.903
 4047SOL    HW213041   2.448   2.088   7.016
 4048SOL     OW13042   5.194   1.519   1.555
 4048SOL    HW113043   5.244   1.604   1.570
 4048SOL    HW213044   5.259   1.443   1.548
 4049SOL     OW13045   5.153   5.156   6.636
 4049SOL    HW113046   5.117   5.204   6.556
 4049SOL    HW213047   5.091   5.168   6.713
 4050SOL     OW13048   0.912   6.357   2.052
 4050SOL    HW113049   1.003   6.355   2.093
 4050SOL    HW213050   0.920   6.383   1.956
 4051SOL     OW13051   3.763   1.546   6.430
 4051SOL    HW113052   3.695   1.559   6.359
 4051SOL    HW213053   3.845   1.599   6.407
 4052SOL     OW13054   5.919   1.718   2.923
 4052SOL    HW113055   5.837   1.760   2.960
 4052SOL    HW213056   5.951   1.770   2.844
 4053SOL     OW13057   2.612   6.809   4.660
 4053SOL    HW113058   2.570   6.881   4.717
 4053SOL    HW213059   2.555   6.727   4.663
 4054SOL     OW13060   5.119   4.365   1.052
 4054SOL    HW113061   5.138   4.354   0.954
 4054SOL    HW213062   5.141   4.280   1.099
 4055SOL     OW13063   3.031   3.892   0.547
 4055SOL    HW113064   2.982   3.954   0.487
 4055SOL    HW213065   3.126   3.884   0.517
 4056SOL     OW13066   5.535   4.296   0.866
 4056SOL    HW113067   5.633   4.289   0.844
 4056SOL    HW213068   5.524   4.321   0.962
 4057SOL     OW13069   0.280   2.508   0.588
 4057SOL    HW113070   0.314   2.461   0.670
 4057SOL    HW213071   0.310   2.603   0.590
 4058SOL     OW13072   3.038   6.547   4.871
 4058SOL    HW113073   3.030   6.563   4.969
 4058SOL    HW213074   2.958   6.497   4.837
 4059SOL     OW13075   0.800   1.623   2.486
 4059SOL    HW113076   0.883   1.604   2.435
 4059SOL    HW213077   0.801   1.572   2.573
 4060SOL     OW13078   5.331   4.986   5.693
 4060SOL    HW113079   5.346   5.049   5.617
 4060SOL    HW213080   5.379   5.019   5.774
 4061SOL     OW13081   2.044   4.851   2.088
 4061SOL    HW113082   2.100   4.794   2.148
 4061SOL    HW213083   1.948   4.844   2.116
 4062SOL     OW13084   2.404   0.542   1.724
 4062SOL    HW113085   2.445   0.633   1.727
 4062SOL    HW213086   2.439   0.493   1.643
 4063SOL     OW13087   6.241   6.307   0.438
 4063SOL    HW113088   6.246   6.210   0.462
 4063SOL    HW213089   6.287   6.322   0.350
 4064SOL     OW13090   2.114   0.738   4.127
 4064SOL    HW113091   2.119   0.837   4.139
 4064SOL    HW213092   2.112   0.693   4.216
 4065SOL     OW13093   1.480   6.330   1.617
 4065SOL    HW113094   1.497   6.429   1.612
 4065SOL    HW213095   1.389   6.314   1.653
 4066SOL     OW13096   6.365   4.401   3.310
 4066SOL    HW113097   6.342   4.304   3.316
 4066SOL    HW213098   6.324   4.441   3.228
 4067SOL     OW13099   6.300   3.208   2.818
 4067SOL    HW113100   6.364   3.243   2.887
 4067SOL    HW213101   6.351   3.158   2.748
 4068SOL     OW13102   2.169   1.452   4.659
 4068SOL    HW113103   2.069   1.443   4.662
 4068SOL    HW213104   2.201   1.501   4.739
 4069SOL     OW13105   3.484   5.252   6.483
 4069SOL    HW113106   3.509   5.181   6.549
 4069SOL    HW213107   3.549   5.327   6.488
 4070SOL     OW13108   0.249   2.427   2.837
 4070SOL    HW113109   0.162   2.438   2.789
 4070SOL    HW213110   0.324   2.422   2.770
 4071SOL     OW13111   0.839   1.328   5.220
 4071SOL    HW113112   0.933   1.344   5.248
 4071SOL    HW213113   0.781   1.402   5.255
 4072SOL     OW13114   0.785   5.336   4.582
 4072SOL    HW113115   0.883   5.345   4.566
 4072SOL    HW213116   0.760   5.387   4.664
 4073SOL     OW13117   3.159   6.013   6.523
 4073SOL    HW113118   3.121   6.103   6.505
 4073SOL    HW213119   3.213   6.016   6.607
 4074SOL     OW13120   0.460   4.505   1.234
 4074SOL    HW113121   0.506   4.567   1.171
 4074SOL    HW213122   0.361   4.505   1.215
 4075SOL     OW13123   4.991   1.932   1.445
 4075SOL    HW113124   4.985   1.833   1.456
 4075SOL    HW213125   5.057   1.968   1.511
 4076SOL     OW13126   2.828   3.612   6.109
 4076SOL    HW113127   2.906   3.550   6.117
 4076SOL    HW213128   2.751   3.564   6.069
 4077SOL     OW13129   3.879   1.660   6.857
 4077SOL    HW113130   3.962   1.644   6.910
 4077SOL    HW213131   3.854   1.576   6.808
 4078SOL     OW13132   1.243   5.211   1.574
 4078SOL    HW113133   1.303   5.246   1.646
 4078SOL    HW213134   1.154   5.187   1.613
 4079SOL     OW13135   1.789   0.964   3.580
 4079SOL    HW113136   1.737   0.886   3.545
 4079SOL    HW213137   1.792   0.961   3.680
 4080SOL     OW13138   4.673   3.551   6.340
 4080SOL    HW113139   4.604   3.478   6.342
 4080SOL    HW213140   4.748   3.524   6.280
 4081SOL     OW13141   2.207   3.061   4.026
 4081SOL    HW113142   2.205   3.063   4.126
 4081SOL    HW213143   2.209   2.967   3.995
 4082SOL     OW13144   1.134   3.912   0.143
 4082SOL    HW113145   1.094   3.820   0.134
 4082SOL    HW213146   1.165   3.943   0.053
 4083SOL     OW13147   6.936   2.918   2.646
 4083SOL    HW113148   6.887   2.836   2.677
 4083SOL    HW213149   6.934   2.987   2.719
 4084SOL     OW13150   5.498   2.476   3.752
 4084SOL    HW113151   5.474   2.381   3.734
 4084SOL    HW213152   5.433   2.537   3.706
 4085SOL     OW13153   3.275   5.521   1.895
 4085SOL    HW113154   3.355   5.555   1.944
 4085SOL    HW213155   3.274   5.559   1.803
 4086SOL     OW13156   1.699   5.833   1.645
 4086SOL    HW113157   1.790   5.841   1.685
 4086SOL    HW213158   1.650   5.919   1.656
 4087SOL     OW13159   2.236   1.941   3.571
 4087SOL    HW113160   2.274   1.901   3.654
 4087SOL    HW213161   2.156   1.997   3.594
 4088SOL     OW13162   0.088   1.872   0.406
 4088SOL    HW113163   0.156   1.867   0.479
 4088SOL    HW213164   0.082   1.783   0.360
 4089SOL     OW13165   5.900   6.180   4.194
 4089SOL    HW113166   5.976   6.225   4.241
 4089SOL    HW213167   5.893   6.215   4.101
 4090SOL     OW13168   1.075   4.161   6.215
 4090SOL    HW113169   1.116   4.252   6.212
 4090SOL    HW213170   1.140   4.094   6.177
 4091SOL     OW13171   0.301   6.249   0.511
 4091SOL    HW113172   0.327   6.225   0.417
 4091SOL    HW213173   0.233   6.184   0.545
 4092SOL     OW13174   6.703   2.478   5.560
 4092SOL    HW113175   6.646   2.439   5.488
 4092SOL    HW213176   6.676   2.440   5.649
 4093SOL     OW13177   4.635   0.494   2.514
 4093SOL    HW113178   4.701   0.425   2.483
 4093SOL    HW213179   4.620   0.561   2.441
 4094SOL     OW13180   2.773   6.153   4.440
 4094SOL    HW113181   2.815   6.166   4.350
 4094SOL    HW213182   2.679   6.120   4.429
 4095SOL     OW13183   0.710   3.686   0.384
 4095SOL    HW113184   0.803   3.671   0.414
 4095SOL    HW213185   0.702   3.777   0.342
 4096SOL     OW13186   4.675   6.011   5.836
 4096SOL    HW113187   4.723   5.936   5.880
 4096SOL    HW213188   4.699   6.097   5.881
 4097SOL     OW13189   3.309   4.697   5.612
 4097SOL    HW113190   3.313   4.657   5.521
 4097SOL    HW213191   3.232   4.760   5.617
 4098SOL     OW13192   0.775   2.784   1.670
 4098SOL    HW113193   0.790   2.688   1.692
 4098SOL    HW213194   0.846   2.817   1.609
 4099SOL     OW13195   2.891   5.054   1.538
 4099SOL    HW113196   2.797   5.020   1.531
 4099SOL    HW213197   2.906   5.126   1.471
 4100SOL     OW13198   6.740   5.500   4.714
 4100SOL    HW113199   6.726   5.404   4.690
 4100SOL    HW213200   6.837   5.521   4.714
 4101SOL     OW13201   6.277   1.324   0.281
 4101SOL    HW113202   6.311   1.384   0.209
 4101SOL    HW213203   6.354   1.279   0.326
 4102SOL     OW13204   6.091   0.519   0.999
 4102SOL    HW113205   6.190   0.508   1.014
 4102SOL    HW213206   6.076   0.594   0.934
 4103SOL     OW13207   0.125   0.855   0.322
 4103SOL    HW113208   0.099   0.882   0.414
 4103SOL    HW213209   0.058   0.891   0.257
 4104SOL     OW13210   0.684   4.602   2.120
 4104SOL    HW113211   0.622   4.586   2.197
 4104SOL    HW213212   0.657   4.685   2.072
 4105SOL     OW13213   4.359   0.170   1.901
 4105SOL    HW113214   4.299   0.195   1.825
 4105SOL    HW213215   4.309   0.181   1.987
 4106SOL     OW13216   6.804   2.557   3.622
 4106SOL    HW113217   6.886   2.585   3.672
 4106SOL    HW213218   6.724   2.605   3.658
 4107SOL     OW13219   1.385   5.941   1.520
 4107SOL    HW113220   1.455   5.979   1.580
 4107SOL    HW213221   1.308   6.003   1.514
 4108SOL     OW13222   6.419   4.522   5.442
 4108SOL    HW113223   6.439   4.502   5.346
 4108SOL    HW213224   6.321   4.516   5.457
 4109SOL     OW13225   5.747   6.777   5.190
 4109SOL    HW113226   5.740   6.763   5.091
 4109SOL    HW213227   5.663   6.821   5.223
 4110SOL     OW13228   4.175   3.573   6.266
 4110SOL    HW113229   4.157   3.669   6.245
 4110SOL    HW213230   4.241   3.566   6.341
 4111SOL     OW13231   3.883   3.247   6.562
 4111SOL    HW113232   3.905   3.305   6.483
 4111SOL    HW213233   3.867   3.153   6.531
 4112SOL     OW13234   4.968   0.288   5.258
 4112SOL    HW113235   4.874   0.265   5.284
 4112SOL    HW213236   4.991   0.378   5.295
 4113SOL     OW13237   4.894   6.547   4.576
 4113SOL    HW113238   4.914   6.457   4.539
 4113SOL    HW213239   4.840   6.599   4.509
 4114SOL     OW13240   3.224   2.009   4.378
 4114SOL    HW113241   3.159   2.031   4.450
 4114SOL    HW213242   3.306   2.066   4.388
 4115SOL     OW13243   3.821   5.011   2.592
 4115SOL    HW113244   3.833   5.108   2.571
 4115SOL    HW213245   3.811   4.959   2.507
 4116SOL     OW13246   3.861   2.086   1.796
 4116SOL    HW113247   3.880   2.142   1.715
 4116SOL    HW213248   3.797   2.134   1.856
 4117SOL     OW13249   0.996   4.873   2.058
 4117SOL    HW113250   0.949   4.833   2.137
 4117SOL    HW213251   0.941   4.859   1.976
 4118SOL     OW13252   2.847   6.651   0.450
 4118SOL    HW113253   2.831   6.747   0.472
 4118SOL    HW213254   2.784   6.622   0.378
 4119SOL     OW13255   3.560   1.687   3.670
 4119SOL    HW113256   3.480   1.628   3.668
 4119SOL    HW213257   3.597   1.697   3.578
 4120SOL     OW13258   3.883   0.202   0.817
 4120SOL    HW113259   3.926   0.114   0.836
 4120SOL    HW213260   3.954   0.269   0.792
 4121SOL     OW13261   6.232   1.062   5.202
 4121SOL    HW113262   6.294   1.139   5.184
 4121SOL    HW213263   6.212   1.014   5.116
 4122SOL     OW13264   0.521   5.601   5.287
 4122SOL    HW113265   0.576   5.668   5.337
 4122SOL    HW213266   0.520   5.514   5.337
 4123SOL     OW13267   4.123   4.819   6.214
 4123SOL    HW113268   4.083   4.910   6.225
 4123SOL    HW213269   4.087   4.759   6.286
 4124SOL     OW13270   5.521   5.107   6.761
 4124SOL    HW113271   5.587   5.180   6.781
 4124SOL    HW213272   5.566   5.018   6.771
 4125SOL     OW13273   4.635   1.805   2.674
 4125SOL    HW113274   4.681   1.749   2.742
 4125SOL    HW213275   4.568   1.749   2.624
 4126SOL     OW13276   1.307   3.463   3.999
 4126SOL    HW113277   1.397   3.432   4.029
 4126SOL    HW213278   1.238   3.432   4.064
 4127SOL     OW13279   4.454   4.747   4.561
 4127SOL    HW113280   4.385   4.742   4.634
 4127SOL    HW213281   4.519   4.820   4.583
 4128SOL     OW13282   1.491   3.170   2.231
 4128SOL    HW113283   1.551   3.200   2.157
 4128SOL    HW213284   1.396   3.184   2.204
 4129SOL     OW13285   4.446   1.853   6.502
 4129SOL    HW113286   4.469   1.769   6.551
 4129SOL    HW213287   4.495   1.930   6.542
 4130SOL     OW13288   6.551   2.739   5.607
 4130SOL    HW113289   6.555   2.822   5.552
 4130SOL    HW213290   6.621   2.674   5.577
 4131SOL     OW13291   1.617   6.795   3.153
 4131SOL    HW113292   1.632   6.812   3.055
 4131SOL    HW213293   1.524   6.824   3.177
 4132SOL     OW13294   5.073   4.422   3.457
 4132SOL    HW113295   5.149   4.365   3.425
 4132SOL    HW213296   4.989   4.369   3.456
 4133SOL     OW13297   3.129   0.229   1.335
 4133SOL    HW113298   3.138   0.237   1.236
 4133SOL    HW213299   3.103   0.135   1.358
 4134SOL     OW13300   2.608   3.086   0.047
 4134SOL    HW113301   2.555   3.110   0.128
 4134SOL    HW213302   2.679   3.020   0.071
 4135SOL     OW13303   1.545   1.431   3.267
 4135SOL    HW113304   1.539   1.486   3.184
 4135SOL    HW213305   1.634   1.444   3.309
 4136SOL     OW13306   1.241   2.295   2.854
 4136SOL    HW113307   1.292   2.376   2.825
 4136SOL    HW213308   1.156   2.289   2.800
 4137SOL     OW13309   1.350   4.656   0.756
 4137SOL    HW113310   1.353   4.755   0.767
 4137SOL    HW213311   1.364   4.611   0.844
 4138SOL     OW13312   3.779   5.152   3.049
 4138SOL    HW113313   3.762   5.054   3.055
 4138SOL    HW213314   3.848   5.169   2.978
 4139SOL     OW13315   2.384   2.287   4.958
 4139SOL    HW113316   2.445   2.366   4.952
 4139SOL    HW213317   2.291   2.318   4.976
 4140SOL     OW13318   2.982   0.709   5.673
 4140SOL    HW113319   2.952   0.657   5.593
 4140SOL    HW213320   3.062   0.664   5.714
 4141SOL     OW13321   5.964   6.618   1.610
 4141SOL    HW113322   5.944   6.543   1.548
 4141SOL    HW213323   5.880   6.669   1.630
 4142SOL     OW13324   6.300   5.607   0.960
 4142SOL    HW113325   6.240   5.531   0.985
 4142SOL    HW213326   6.374   5.574   0.901
 4143SOL     OW13327   0.188   2.925   0.529
 4143SOL    HW113328   0.248   2.866   0.582
 4143SOL    HW213329   0.093   2.909   0.556
 4144SOL     OW13330   4.885   4.082   6.108
 4144SOL    HW113331   4.813   4.070   6.177
 4144SOL    HW213332   4.956   4.143   6.145
 4145SOL     OW13333   6.734   5.875   0.779
 4145SOL    HW113334   6.747   5.792   0.834
 4145SOL    HW213335   6.662   5.931   0.820
 4146SOL     OW13336   6.449   1.283   5.403
 4146SOL    HW113337   6.479   1.309   5.311
 4146SOL    HW213338   6.527   1.282   5.465
 4147SOL     OW13339   4.651   3.483   5.573
 4147SOL    HW113340   4.664   3.418   5.648
 4147SOL    HW213341   4.675   3.438   5.486
 4148SOL     OW13342   0.774   0.807   4.999
 4148SOL    HW113343   0.850   0.870   5.013
 4148SOL    HW213344   0.690   0.859   4.982
 4149SOL     OW13345   0.007   2.478   0.407
 4149SOL    HW113346   0.030   2.546   0.338
 4149SOL    HW213347   0.069   2.485   0.484
 4150SOL     OW13348   0.439   0.935   5.485
 4150SOL    HW113349   0.456   0.968   5.577
 4150SOL    HW213350   0.420   1.012   5.424
 4151SOL     OW13351   3.842   6.273   6.029
 4151SOL    HW113352   3.913   6.301   6.094
 4151SOL    HW213353   3.835   6.173   6.029
 4152SOL     OW13354   3.072   6.251   1.331
 4152SOL    HW113355   3.158   6.229   1.285
 4152SOL    HW213356   3.020   6.167   1.347
 4153SOL     OW13357   4.113   4.428   6.805
 4153SOL    HW113358   4.102   4.511   6.861
 4153SOL    HW213359   4.087   4.448   6.711
 4154SOL     OW13360   0.538   4.811   4.675
 4154SOL    HW113361   0.621   4.810   4.619
 4154SOL    HW213362   0.520   4.718   4.708
 4155SOL     OW13363   6.908   1.563   2.239
 4155SOL    HW113364   6.809   1.551   2.245
 4155SOL    HW213365   6.929   1.653   2.200
 4156SOL     OW13366   5.102   6.544   4.926
 4156SOL    HW113367   5.110   6.446   4.909
 4156SOL    HW213368   5.026   6.580   4.872
 4157SOL     OW13369   4.121   6.207   4.207
 4157SOL    HW113370   4.214   6.173   4.197
 4157SOL    HW213371   4.063   6.168   4.135
 4158SOL     OW13372   1.444   4.651   3.213
 4158SOL    HW113373   1.437   4.622   3.308
 4158SOL    HW213374   1.376   4.723   3.195
 4159SOL     OW13375   2.218   2.997   4.283
 4159SOL    HW113376   2.264   2.940   4.351
 4159SOL    HW213377   2.120   3.001   4.303
 4160SOL     OW13378   6.087   0.727   0.820
 4160SOL    HW113379   6.183   0.741   0.844
 4160SOL    HW213380   6.061   0.794   0.750
 4161SOL     OW13381   0.974   0.620   6.958
 4161SOL    HW113382   1.054   0.604   7.016
 4161SOL    HW213383   0.949   0.717   6.962
 4162SOL     OW13384   6.226   6.430   5.590
 4162SOL    HW113385   6.197   6.468   5.677
 4162SOL    HW213386   6.167   6.465   5.517
 4163SOL     OW13387   6.301   7.016   3.165
 4163SOL    HW113388   6.237   7.000   3.239
 4163SOL    HW213389   6.376   0.056   3.197
 4164SOL     OW13390   1.345   6.706   6.852
 4164SOL    HW113391   1.370   6.779   6.788
 4164SOL    HW213392   1.419   6.693   6.918
 4165SOL     OW13393   4.340   0.149   6.684
 4165SOL    HW113394   4.390   0.172   6.600
 4165SOL    HW213395   4.353   0.052   6.705
 4166SOL     OW13396   5.836   4.071   1.024
 4166SOL    HW113397   5.836   4.160   0.979
 4166SOL    HW213398   5.831   3.999   0.955
 4167SOL     OW13399   1.258   4.124   1.159
 4167SOL    HW113400   1.328   4.119   1.231
 4167SOL    HW213401   1.295   4.171   1.080
 4168SOL     OW13402   6.729   5.006   1.250
 4168SOL    HW113403   6.794   4.962   1.189
 4168SOL    HW213404   6.776   5.034   1.334
 4169SOL     OW13405   5.965   3.959   4.104
 4169SOL    HW113406   5.972   3.871   4.151
 4169SOL    HW213407   6.045   4.015   4.128
 4170SOL     OW13408   3.202   4.137   4.899
 4170SOL    HW113409   3.148   4.214   4.865
 4170SOL    HW213410   3.143   4.073   4.947
 4171SOL     OW13411   5.035   5.026   1.581
 4171SOL    HW113412   5.034   5.028   1.481
 4171SOL    HW213413   4.944   5.000   1.614
 4172SOL     OW13414   0.449   1.746   5.960
 4172SOL    HW113415   0.380   1.810   5.994
 4172SOL    HW213416   0.477   1.684   6.033
 4173SOL     OW13417   5.334   3.588   5.394
 4173SOL    HW113418   5.363   3.657   5.328
 4173SOL    HW213419   5.341   3.497   5.354
 4174SOL     OW13420   5.443   0.807   3.470
 4174SOL    HW113421   5.481   0.849   3.553
 4174SOL    HW213422   5.497   0.726   3.446
 4175SOL     OW13423   2.103   5.877   4.690
 4175SOL    HW113424   2.141   5.799   4.638
 4175SOL    HW213425   2.014   5.852   4.727
 4176SOL     OW13426   2.564   6.716   2.047
 4176SOL    HW113427   2.512   6.753   2.123
 4176SOL    HW213428   2.640   6.661   2.081
 4177SOL     OW13429   6.645   4.410   4.580
 4177SOL    HW113430   6.600   4.384   4.495
 4177SOL    HW213431   6.665   4.508   4.579
 4178SOL     OW13432   4.289   1.271   4.070
 4178SOL    HW113433   4.263   1.205   4.141
 4178SOL    HW213434   4.228   1.349   4.073
 4179SOL     OW13435   5.000   2.465   3.401
 4179SOL    HW113436   5.085   2.466   3.347
 4179SOL    HW213437   5.020   2.498   3.494
 4180SOL     OW13438   5.595   3.637   1.448
 4180SOL    HW113439   5.585   3.588   1.361
 4180SOL    HW213440   5.536   3.596   1.517
 4181SOL     OW13441   1.967   1.962   6.547
 4181SOL    HW113442   2.000   2.045   6.591
 4181SOL    HW213443   2.027   1.886   6.571
 4182SOL     OW13444   0.345   6.373   2.869
 4182SOL    HW113445   0.371   6.429   2.789
 4182SOL    HW213446   0.340   6.277   2.842
 4183SOL     OW13447   4.501   0.264   0.457
 4183SOL    HW113448   4.488   0.268   0.358
 4183SOL    HW213449   4.591   0.225   0.477
 4184SOL     OW13450   4.805   5.359   1.543
 4184SOL    HW113451   4.856   5.442   1.522
 4184SOL    HW213452   4.708   5.374   1.527
 4185SOL     OW13453   1.157   5.937   2.342
 4185SOL    HW113454   1.212   6.015   2.374
 4185SOL    HW213455   1.103   5.965   2.263
 4186SOL     OW13456   1.868   4.777   0.965
 4186SOL    HW113457   1.910   4.694   1.003
 4186SOL    HW213458   1.805   4.752   0.892
 4187SOL     OW13459   3.284   4.230   5.918
 4187SOL    HW113460   3.343   4.182   5.984
 4187SOL    HW213461   3.339   4.298   5.870
 4188SOL     OW13462   5.174   6.871   4.052
 4188SOL    HW113463   5.252   6.830   4.100
 4188SOL    HW213464   5.202   6.958   4.012
 4189SOL     OW13465   3.302   0.725   5.267
 4189SOL    HW113466   3.345   0.743   5.178
 4189SOL    HW213467   3.309   0.628   5.287
 4190SOL     OW13468   0.901   0.238   0.057
 4190SOL    HW113469   0.970   0.310   0.067
 4190SOL    HW213470   0.879   0.226   6.978
 4191SOL     OW13471   5.694   3.589   2.973
 4191SOL    HW113472   5.629   3.543   2.912
 4191SOL    HW213473   5.679   3.688   2.968
 4192SOL     OW13474   0.115   0.501   3.303
 4192SOL    HW113475   0.165   0.461   3.380
 4192SOL    HW213476   0.179   0.554   3.247
 4193SOL     OW13477   2.420   6.803   2.251
 4193SOL    HW113478   2.326   6.798   2.284
 4193SOL    HW213479   2.479   6.837   2.325
 4194SOL     OW13480   6.303   1.109   5.660
 4194SOL    HW113481   6.250   1.172   5.716
 4194SOL    HW213482   6.400   1.118   5.681
 4195SOL     OW13483   3.895   1.043   1.323
 4195SOL    HW113484   3.854   1.129   1.352
 4195SOL    HW213485   3.952   1.059   1.242
 4196SOL     OW13486   5.735   2.264   3.695
 4196SOL    HW113487   5.813   2.264   3.758
 4196SOL    HW213488   5.659   2.215   3.736
 4197SOL     OW13489   4.941   5.341   5.448
 4197SOL    HW113490   4.935   5.249   5.489
 4197SOL    HW213491   4.881   5.346   5.369
 4198SOL     OW13492   5.356   3.163   6.488
 4198SOL    HW113493   5.416   3.114   6.551
 4198SOL    HW213494   5.280   3.104   6.462
 4199SOL     OW13495   2.037   3.663   6.261
 4199SOL    HW113496   1.937   3.666   6.259
 4199SOL    HW213497   2.073   3.699   6.175
 4200SOL     OW13498   3.379   6.631   5.163
 4200SOL    HW113499   3.465   6.598   5.202
 4200SOL    HW213500   3.367   6.592   5.072
 4201SOL     OW13501   5.540   5.827   4.111
 4201SOL    HW113502   5.472   5.754   4.107
 4201SOL    HW213503   5.572   5.838   4.206
 4202SOL     OW13504   4.104   6.203   5.659
 4202SOL    HW113505   4.193   6.244   5.636
 4202SOL    HW213506   4.057   6.178   5.575
 4203SOL     OW13507   4.744   5.483   1.930
 4203SOL    HW113508   4.650   5.488   1.962
 4203SOL    HW213509   4.761   5.394   1.889
 4204SOL     OW13510   3.502   3.220   2.081
 4204SOL    HW113511   3.561   3.169   2.143
 4204SOL    HW213512   3.406   3.198   2.100
 4205SOL     OW13513   3.862   5.157   4.443
 4205SOL    HW113514   3.948   5.201   4.416
 4205SOL    HW213515   3.786   5.201   4.395
 4206SOL     OW13516   5.836   0.551   5.540
 4206SOL    HW113517   5.794   0.498   5.466
 4206SOL    HW213518   5.910   0.607   5.502
 4207SOL     OW13519   2.473   1.456   1.749
 4207SOL    HW113520   2.552   1.500   1.707
 4207SOL    HW213521   2.500   1.370   1.792
 4208SOL     OW13522   1.393   2.454   6.094
 4208SOL    HW113523   1.431   2.371   6.134
 4208SOL    HW213524   1.369   2.518   6.167
 4209SOL     OW13525   0.910   1.122   4.922
 4209SOL    HW113526   0.904   1.139   5.020
 4209SOL    HW213527   0.826   1.153   4.877
 4210SOL     OW13528   2.847   3.575   1.822
 4210SOL    HW113529   2.878   3.633   1.747
 4210SOL    HW213530   2.754   3.543   1.803
 4211SOL     OW13531   4.156   5.626   5.323
 4211SOL    HW113532   4.232   5.570   5.355
 4211SOL    HW213533   4.183   5.678   5.242
 4212SOL     OW13534   5.647   2.363   2.301
 4212SOL    HW113535   5.653   2.264   2.313
 4212SOL    HW213536   5.623   2.384   2.207
 4213SOL     OW13537   2.232   1.175   2.685
 4213SOL    HW113538   2.218   1.077   2.699
 4213SOL    HW213539   2.309   1.206   2.741
 4214SOL     OW13540   0.611   4.117   5.716
 4214SOL    HW113541   0.583   4.193   5.775
 4214SOL    HW213542   0.688   4.146   5.659
 4215SOL     OW13543   6.461   5.508   4.427
 4215SOL    HW113544   6.467   5.578   4.498
 4215SOL    HW213545   6.542   5.511   4.369
 4216SOL     OW13546   1.767   1.650   2.423
 4216SOL    HW113547   1.788   1.581   2.355
 4216SOL    HW213548   1.828   1.639   2.502
 4217SOL     OW13549   5.802   0.184   2.517
 4217SOL    HW113550   5.805   0.100   2.571
 4217SOL    HW213551   5.856   0.172   2.434
 4218SOL     OW13552   4.609   6.957   1.294
 4218SOL    HW113553   4.630   0.033   1.321
 4218SOL    HW213554   4.579   6.955   1.199
 4219SOL     OW13555   2.900   5.598   4.911
 4219SOL    HW113556   2.940   5.518   4.866
 4219SOL    HW213557   2.814   5.572   4.954
 4220SOL     OW13558   6.179   2.640   3.420
 4220SOL    HW113559   6.182   2.740   3.413
 4220SOL    HW213560   6.134   2.603   3.339
 4221SOL     OW13561   5.897   5.597   6.539
 4221SOL    HW113562   5.895   5.498   6.524
 4221SOL    HW213563   5.821   5.640   6.490
 4222SOL     OW13564   6.271   2.567   2.138
 4222SOL    HW113565   6.283   2.633   2.212
 4222SOL    HW213566   6.248   2.478   2.176
 4223SOL     OW13567   2.931   3.361   3.912
 4223SOL    HW113568   2.971   3.447   3.945
 4223SOL    HW213569   2.870   3.324   3.982
 4224SOL     OW13570   4.938   3.006   3.463
 4224SOL    HW113571   5.014   2.971   3.409
 4224SOL    HW213572   4.909   2.937   3.529
 4225SOL     OW13573   4.811   0.586   5.672
 4225SOL    HW113574   4.859   0.611   5.589
 4225SOL    HW213575   4.853   0.505   5.713
 4226SOL     OW13576   1.276   0.324   3.272
 4226SOL    HW113577   1.343   0.374   3.216
 4226SOL    HW213578   1.229   0.389   3.332
 4227SOL     OW13579   3.277   4.672   6.824
 4227SOL    HW113580   3.315   4.738   6.889
 4227SOL    HW213581   3.342   4.598   6.810
 4228SOL     OW13582   6.652   4.426   3.347
 4228SOL    HW113583   6.692   4.517   3.348
 4228SOL    HW213584   6.552   4.434   3.336
 4229SOL     OW13585   4.291   4.843   5.989
 4229SOL    HW113586   4.390   4.847   6.001
 4229SOL    HW213587   4.247   4.820   6.076
 4230SOL     OW13588   2.395   0.947   4.556
 4230SOL    HW113589   2.379   1.037   4.595
 4230SOL    HW213590   2.485   0.913   4.585
 4231SOL     OW13591   5.281   6.742   4.834
 4231SOL    HW113592   5.232   6.684   4.899
 4231SOL    HW213593   5.296   6.832   4.874
 4232SOL     OW13594   0.228   4.728   1.838
 4232SOL    HW113595   0.314   4.726   1.889
 4232SOL    HW213596   0.221   4.815   1.788
 4233SOL     OW13597   6.834   0.160   0.074
 4233SOL    HW113598   6.738   0.186   0.089
 4233SOL    HW213599   6.891   0.199   0.146
 4234SOL     OW13600   1.165   0.402   5.891
 4234SOL    HW113601   1.199   0.309   5.904
 4234SOL    HW213602   1.139   0.415   5.795
 4235SOL     OW13603   6.202   3.864   5.060
 4235SOL    HW113604   6.205   3.781   5.116
 4235SOL    HW213605   6.278   3.924   5.086
 4236SOL     OW13606   0.047   3.263   3.162
 4236SOL    HW113607   0.028   3.274   3.065
 4236SOL    HW213608   7.006   3.190   3.199
 4237SOL     OW13609   6.120   4.564   4.008
 4237SOL    HW113610   6.070   4.544   3.924
 4237SOL    HW213611   6.191   4.632   3.989
 4238SOL     OW13612   4.222   5.006   3.979
 4238SOL    HW113613   4.177   4.917   3.972
 4238SOL    HW213614   4.311   5.001   3.933
 4239SOL     OW13615   5.566   0.339   4.027
 4239SOL    HW113616   5.516   0.425   4.018
 4239SOL    HW213617   5.580   0.299   3.936
 4240SOL     OW13618   2.085   6.574   6.659
 4240SOL    HW113619   2.085   6.484   6.617
 4240SOL    HW213620   2.032   6.571   6.744
 4241SOL     OW13621   5.086   0.570   0.646
 4241SOL    HW113622   5.080   0.515   0.563
 4241SOL    HW213623   5.006   0.554   0.703
 4242SOL     OW13624   1.913   7.008   3.160
 4242SOL    HW113625   1.851   7.007   3.238
 4242SOL    HW213626   2.006   0.011   3.191
 4243SOL     OW13627   0.775   3.821   3.361
 4243SOL    HW113628   0.751   3.750   3.426
 4243SOL    HW213629   0.785   3.781   3.270
 4244SOL     OW13630   4.373   5.452   0.944
 4244SOL    HW113631   4.417   5.518   1.005
 4244SOL    HW213632   4.441   5.415   0.880
 4245SOL     OW13633   0.064   1.978   6.553
 4245SOL    HW113634   7.017   2.003   6.481
 4245SOL    HW213635   0.140   2.044   6.553
 4246SOL     OW13636   5.835   3.249   3.435
 4246SOL    HW113637   5.783   3.239   3.350
 4246SOL    HW213638   5.788   3.314   3.495
 4247SOL     OW13639   2.474   5.233   4.566
 4247SOL    HW113640   2.532   5.171   4.619
 4247SOL    HW213641   2.527   5.272   4.490
 4248SOL     OW13642   1.361   0.866   3.270
 4248SOL    HW113643   1.414   0.929   3.326
 4248SOL    HW213644   1.271   0.907   3.250
 4249SOL     OW13645   6.538   1.472   3.057
 4249SOL    HW113646   6.441   1.449   3.060
 4249SOL    HW213647   6.551   1.567   3.084
 4250SOL     OW13648   0.248   5.968   3.837
 4250SOL    HW113649   0.268   5.982   3.934
 4250SOL    HW213650   0.193   5.885   3.825
 4251SOL     OW13651   6.126   2.746   6.812
 4251SOL    HW113652   6.216   2.760   6.853
 4251SOL    HW213653   6.136   2.710   6.719
 4252SOL     OW13654   5.616   5.971   6.293
 4252SOL    HW113655   5.652   5.974   6.386
 4252SOL    HW213656   5.594   6.064   6.262
 4253SOL     OW13657   3.760   6.149   2.400
 4253SOL    HW113658   3.753   6.105   2.310
 4253SOL    HW213659   3.718   6.240   2.395
 4254SOL     OW13660   2.122   4.580   1.911
 4254SOL    HW113661   2.165   4.670   1.898
 4254SOL    HW213662   2.144   4.546   2.002
 4255SOL     OW13663   0.350   3.860   4.305
 4255SOL    HW113664   0.377   3.766   4.283
 4255SOL    HW213665   0.429   3.910   4.340
 4256SOL     OW13666   1.066   5.885   1.804
 4256SOL    HW113667   1.012   5.969   1.805
 4256SOL    HW213668   1.148   5.897   1.860
 4257SOL     OW13669   5.772   1.032   4.471
 4257SOL    HW113670   5.871   1.017   4.475
 4257SOL    HW213671   5.744   1.087   4.550
 4258SOL     OW13672   3.406   5.777   1.449
 4258SOL    HW113673   3.362   5.858   1.410
 4258SOL    HW213674   3.497   5.802   1.484
 4259SOL     OW13675   1.927   6.326   1.133
 4259SOL    HW113676   2.011   6.380   1.140
 4259SOL    HW213677   1.915   6.294   1.039
 4260SOL     OW13678   5.418   6.839   4.183
 4260SOL    HW113679   5.476   6.862   4.105
 4260SOL    HW213680   5.452   6.885   4.265
 4261SOL     OW13681   1.396   0.144   2.819
 4261SOL    HW113682   1.440   0.195   2.893
 4261SOL    HW213683   1.300   0.170   2.814
 4262SOL     OW13684   1.385   4.236   5.823
 4262SOL    HW113685   1.369   4.334   5.815
 4262SOL    HW213686   1.445   4.218   5.900
 4263SOL     OW13687   2.660   1.404   3.374
 4263SOL    HW113688   2.728   1.465   3.415
 4263SOL    HW213689   2.664   1.410   3.275
 4264SOL     OW13690   5.819   1.781   4.010
 4264SOL    HW113691   5.834   1.732   4.095
 4264SOL    HW213692   5.724   1.772   3.982
 4265SOL     OW13693   3.513   0.836   0.723
 4265SOL    HW113694   3.559   0.919   0.755
 4265SOL    HW213695   3.470   0.853   0.634
 4266SOL     OW13696   1.292   0.296   0.075
 4266SOL    HW113697   1.280   0.197   0.070
 4266SOL    HW213698   1.364   0.324   0.012
 4267SOL     OW13699   1.661   3.981   3.858
 4267SOL    HW113700   1.592   3.974   3.786
 4267SOL    HW213701   1.725   4.054   3.837
 4268SOL     OW13702   1.977   5.546   0.010
 4268SOL    HW113703   2.007   5.460   0.053
 4268SOL    HW213704   2.029   5.622   0.048
 4269SOL     OW13705   2.796   1.243   3.624
 4269SOL    HW113706   2.738   1.222   3.546
 4269SOL    HW213707   2.892   1.247   3.595
 4270SOL     OW13708   3.305   2.966   1.764
 4270SOL    HW113709   3.327   3.062   1.785
 4270SOL    HW213710   3.216   2.962   1.719
 4271SOL     OW13711   6.865   0.633   0.262
 4271SOL    HW113712   6.899   0.640   0.356
 4271SOL    HW213713   6.785   0.691   0.251
 4272SOL     OW13714   6.814   3.312   4.881
 4272SOL    HW113715   6.881   3.263   4.936
 4272SOL    HW213716   6.805   3.266   4.792
 4273SOL     OW13717   4.750   6.183   5.097
 4273SOL    HW113718   4.711   6.195   5.188
 4273SOL    HW213719   4.812   6.259   5.077
 4274SOL     OW13720   1.135   0.075   1.977
 4274SOL    HW113721   1.214   0.051   1.921
 4274SOL    HW213722   1.154   0.159   2.027
 4275SOL     OW13723   0.707   1.878   4.057
 4275SOL    HW113724   0.708   1.958   4.118
 4275SOL    HW213725   0.774   1.812   4.090
 4276SOL     OW13726   2.957   5.336   3.728
 4276SOL    HW113727   2.938   5.240   3.745
 4276SOL    HW213728   3.006   5.345   3.641
 4277SOL     OW13729   6.976   4.252   2.898
 4277SOL    HW113730   6.891   4.200   2.907
 4277SOL    HW213731   0.020   4.203   2.836
 4278SOL     OW13732   0.605   6.984   3.317
 4278SOL    HW113733   0.610   0.066   3.311
 4278SOL    HW213734   0.509   6.955   3.319
 4279SOL     OW13735   1.280   1.050   2.496
 4279SOL    HW113736   1.288   1.043   2.397
 4279SOL    HW213737   1.186   1.074   2.520
 4280SOL     OW13738   6.211   6.576   5.823
 4280SOL    HW113739   6.128   6.592   5.878
 4280SOL    HW213740   6.240   6.661   5.780
 4281SOL     OW13741   5.125   4.893   3.360
 4281SOL    HW113742   5.207   4.887   3.417
 4281SOL    HW213743   5.112   4.807   3.312
 4282SOL     OW13744   2.996   4.906   1.102
 4282SOL    HW113745   2.964   4.867   1.016
 4282SOL    HW213746   3.037   4.834   1.158
 4283SOL     OW13747   4.616   1.451   3.903
 4283SOL    HW113748   4.597   1.490   3.813
 4283SOL    HW213749   4.562   1.498   3.972
 4284SOL     OW13750   4.761   5.971   0.119
 4284SOL    HW113751   4.719   5.995   0.031
 4284SOL    HW213752   4.733   5.879   0.145
 4285SOL     OW13753   2.680   0.840   6.110
 4285SOL    HW113754   2.666   0.938   6.102
 4285SOL    HW213755   2.778   0.819   6.102
 4286SOL     OW13756   5.977   0.102   6.314
 4286SOL    HW113757   6.059   0.154   6.336
 4286SOL    HW213758   5.997   0.038   6.240
 4287SOL     OW13759   4.784   1.124   6.326
 4287SOL    HW113760   4.694   1.082   6.316
 4287SOL    HW213761   4.792   1.201   6.262
 4288SOL     OW13762   0.506   6.030   3.020
 4288SOL    HW113763   0.561   6.023   2.937
 4288SOL    HW213764   0.528   5.953   3.081
 4289SOL     OW13765   1.522   2.240   6.201
 4289SOL    HW113766   1.555   2.150   6.172
 4289SOL    HW213767   1.480   2.233   6.291
 4290SOL     OW13768   0.472   6.559   4.473
 4290SOL    HW113769   0.389   6.585   4.425
 4290SOL    HW213770   0.456   6.565   4.572
 4291SOL     OW13771   4.920   3.316   6.369
 4291SOL    HW113772   4.957   3.288   6.280
 4291SOL    HW213773   4.924   3.416   6.376
 4292SOL     OW13774   6.240   3.193   6.902
 4292SOL    HW113775   6.245   3.226   6.807
 4292SOL    HW213776   6.172   3.120   6.908
 4293SOL     OW13777   3.865   3.999   6.451
 4293SOL    HW113778   3.787   4.049   6.412
 4293SOL    HW213779   3.890   4.042   6.538
 4294SOL     OW13780   1.922   1.569   6.088
 4294SOL    HW113781   2.009   1.555   6.040
 4294SOL    HW213782   1.852   1.510   6.047
 4295SOL     OW13783   4.675   6.639   2.873
 4295SOL    HW113784   4.642   6.622   2.966
 4295SOL    HW213785   4.764   6.595   2.860
 4296SOL     OW13786   2.993   0.140   0.642
 4296SOL    HW113787   2.938   0.157   0.724
 4296SOL    HW213788   3.044   0.223   0.619
 4297SOL     OW13789   6.468   6.708   2.621
 4297SOL    HW113790   6.474   6.766   2.539
 4297SOL    HW213791   6.449   6.766   2.701
 4298SOL     OW13792   3.383   6.535   2.202
 4298SOL    HW113793   3.383   6.465   2.273
 4298SOL    HW213794   3.324   6.507   2.127
 4299SOL     OW13795   1.160   3.320   0.352
 4299SOL    HW113796   1.100   3.246   0.385
 4299SOL    HW213797   1.222   3.347   0.426
 4300SOL     OW13798   2.774   0.102   0.457
 4300SOL    HW113799   2.712   0.036   0.499
 4300SOL    HW213800   2.863   0.099   0.503
 4301SOL     OW13801   3.748   0.279   1.445
 4301SOL    HW113802   3.706   0.200   1.490
 4301SOL    HW213803   3.840   0.293   1.480
 4302SOL     OW13804   6.450   0.387   0.197
 4302SOL    HW113805   6.396   0.308   0.166
 4302SOL    HW213806   6.540   0.384   0.154
 4303SOL     OW13807   0.101   4.849   3.502
 4303SOL    HW113808   0.003   4.845   3.523
 4303SOL    HW213809   0.115   4.824   3.406
 4304SOL     OW13810   3.750   4.085   2.014
 4304SOL    HW113811   3.671   4.028   1.992
 4304SOL    HW213812   3.733   4.134   2.100
 4305SOL     OW13813   0.720   6.837   5.478
 4305SOL    HW113814   0.666   6.902   5.532
 4305SOL    HW213815   0.815   6.866   5.476
 4306SOL     OW13816   5.094   4.737   5.154
 4306SOL    HW113817   5.049   4.651   5.129
 4306SOL    HW213818   5.181   4.718   5.198
 4307SOL     OW13819   5.531   3.094   5.684
 4307SOL    HW113820   5.434   3.077   5.666
 4307SOL    HW213821   5.541   3.175   5.742
 4308SOL     OW13822   5.463   5.198   1.430
 4308SOL    HW113823   5.479   5.130   1.359
 4308SOL    HW213824   5.447   5.152   1.517
 4309SOL     OW13825   1.339   2.947   0.692
 4309SOL    HW113826   1.342   3.047   0.700
 4309SOL    HW213827   1.244   2.918   0.678
 4310SOL     OW13828   1.214   2.795   2.195
 4310SOL    HW113829   1.140   2.838   2.143
 4310SOL    HW213830   1.298   2.796   2.141
 4311SOL     OW13831   1.074   6.571   2.235
 4311SOL    HW113832   1.116   6.599   2.321
 4311SOL    HW213833   1.117   6.487   2.202
 4312SOL     OW13834   1.336   5.339   3.096
 4312SOL    HW113835   1.323   5.430   3.059
 4312SOL    HW213836   1.317   5.340   3.195
 4313SOL     OW13837   3.313   2.375   0.070
 4313SOL    HW113838   3.240   2.365   0.002
 4313SOL    HW213839   3.378   2.444   0.039
 4314SOL     OW13840   6.001   2.288   5.031
 4314SOL    HW113841   5.987   2.263   5.126
 4314SOL    HW213842   6.014   2.205   4.976
 4315SOL     OW13843   1.716   1.233   3.582
 4315SOL    HW113844   1.750   1.143   3.557
 4315SOL    HW213845   1.743   1.299   3.512
 4316SOL     OW13846   5.457   7.017   2.656
 4316SOL    HW113847   5.473   6.996   2.560
 4316SOL    HW213848   5.360   0.015   2.672
 4317SOL     OW13849   4.855   0.974   5.620
 4317SOL    HW113850   4.781   0.916   5.588
 4317SOL    HW213851   4.943   0.934   5.592
 4318SOL     OW13852   0.688   1.046   4.331
 4318SOL    HW113853   0.691   0.994   4.246
 4318SOL    HW213854   0.712   0.987   4.408
 4319SOL     OW13855   2.147   1.823   1.294
 4319SOL    HW113856   2.219   1.888   1.317
 4319SOL    HW213857   2.066   1.841   1.349
 4320SOL     OW13858   4.072   5.911   0.988
 4320SOL    HW113859   4.006   5.986   0.999
 4320SOL    HW213860   4.039   5.848   0.919
 4321SOL     OW13861   0.203   5.159   3.254
 4321SOL    HW113862   0.265   5.130   3.328
 4321SOL    HW213863   0.108   5.141   3.282
 4322SOL     OW13864   6.717   3.210   5.630
 4322SOL    HW113865   6.660   3.288   5.605
 4322SOL    HW213866   6.753   3.223   5.722
 4323SOL     OW13867   4.282   5.402   6.922
 4323SOL    HW113868   4.329   5.326   6.967
 4323SOL    HW213869   4.307   5.403   6.826
 4324SOL     OW13870   6.732   4.051   5.420
 4324SOL    HW113871   6.650   3.994   5.412
 4324SOL    HW213872   6.720   4.114   5.496
 4325SOL     OW13873   2.785   1.683   2.121
 4325SOL    HW113874   2.832   1.760   2.077
 4325SOL    HW213875   2.698   1.667   2.075
 4326SOL     OW13876   5.903   3.366   2.107
 4326SOL    HW113877   5.894   3.463   2.084
 4326SOL    HW213878   5.812   3.328   2.122
 4327SOL     OW13879   4.056   5.716   3.583
 4327SOL    HW113880   4.145   5.738   3.625
 4327SOL    HW213881   4.058   5.622   3.548
 4328SOL     OW13882   5.910   4.553   4.959
 4328SOL    HW113883   5.836   4.613   4.931
 4328SOL    HW213884   5.981   4.553   4.889
 4329SOL     OW13885   6.111   3.548   5.437
 4329SOL    HW113886   6.027   3.493   5.436
 4329SOL    HW213887   6.087   3.645   5.437
 4330SOL     OW13888   1.996   6.524   4.615
 4330SOL    HW113889   2.017   6.459   4.542
 4330SOL    HW213890   2.063   6.599   4.614
 4331SOL     OW13891   0.061   0.358   1.270
 4331SOL    HW113892   0.041   0.281   1.209
 4331SOL    HW213893   0.151   0.344   1.312
 4332SOL     OW13894   6.179   3.626   2.823
 4332SOL    HW113895   6.127   3.559   2.770
 4332SOL    HW213896   6.229   3.579   2.895
 4333SOL     OW13897   4.306   1.889   4.971
 4333SOL    HW113898   4.318   1.915   4.875
 4333SOL    HW213899   4.212   1.907   4.999
 4334SOL     OW13900   1.243   2.659   2.604
 4334SOL    HW113901   1.298   2.714   2.541
 4334SOL    HW213902   1.303   2.615   2.671
 4335SOL     OW13903   3.743   3.095   1.443
 4335SOL    HW113904   3.834   3.103   1.482
 4335SOL    HW213905   3.690   3.178   1.463
 4336SOL     OW13906   1.683   4.787   5.116
 4336SOL    HW113907   1.689   4.771   5.018
 4336SOL    HW213908   1.713   4.880   5.137
 4337SOL     OW13909   1.700   5.415   1.587
 4337SOL    HW113910   1.671   5.441   1.679
 4337SOL    HW213911   1.678   5.489   1.523
 4338SOL     OW13912   6.012   0.404   6.243
 4338SOL    HW113913   5.959   0.389   6.327
 4338SOL    HW213914   5.984   0.490   6.201
 4339SOL     OW13915   3.404   2.686   6.376
 4339SOL    HW113916   3.472   2.701   6.448
 4339SOL    HW213917   3.381   2.774   6.334
 4340SOL     OW13918   5.857   3.300   1.050
 4340SOL    HW113919   5.802   3.382   1.065
 4340SOL    HW213920   5.800   3.227   1.014
 4341SOL     OW13921   1.649   5.209   1.945
 4341SOL    HW113922   1.551   5.225   1.933
 4341SOL    HW213923   1.675   5.122   1.905
 4342SOL     OW13924   5.171   3.621   2.969
 4342SOL    HW113925   5.192   3.660   2.879
 4342SOL    HW213926   5.083   3.655   3.000
 4343SOL     OW13927   3.060   6.361   5.747
 4343SOL    HW113928   3.022   6.363   5.839
 4343SOL    HW213929   3.156   6.331   5.751
 4344SOL     OW13930   1.154   2.999   3.286
 4344SOL    HW113931   1.081   2.963   3.227
 4344SOL    HW213932   1.237   3.012   3.232
 4345SOL     OW13933   2.875   3.545   3.441
 4345SOL    HW113934   2.898   3.513   3.533
 4345SOL    HW213935   2.880   3.645   3.438
 4346SOL     OW13936   2.369   2.734   2.046
 4346SOL    HW113937   2.441   2.744   1.977
 4346SOL    HW213938   2.403   2.678   2.122
 4347SOL     OW13939   6.463   5.722   2.204
 4347SOL    HW113940   6.406   5.769   2.136
 4347SOL    HW213941   6.526   5.787   2.246
 4348SOL     OW13942   0.434   5.878   4.253
 4348SOL    HW113943   0.474   5.806   4.196
 4348SOL    HW213944   0.460   5.864   4.349
 4349SOL     OW13945   6.878   3.479   3.642
 4349SOL    HW113946   6.811   3.530   3.695
 4349SOL    HW213947   6.862   3.381   3.655
 4350SOL     OW13948   5.190   2.393   4.636
 4350SOL    HW113949   5.148   2.442   4.712
 4350SOL    HW213950   5.205   2.297   4.663
 4351SOL     OW13951   1.521   6.082   1.288
 4351SOL    HW113952   1.509   6.037   1.377
 4351SOL    HW213953   1.582   6.161   1.299
 4352SOL     OW13954   6.065   3.746   1.674
 4352SOL    HW113955   6.031   3.839   1.685
 4352SOL    HW213956   6.007   3.683   1.726
 4353SOL     OW13957   2.794   4.061   0.136
 4353SOL    HW113958   2.839   4.039   0.050
 4353SOL    HW213959   2.706   4.105   0.118
 4354SOL     OW13960   0.526   1.524   6.097
 4354SOL    HW113961   0.478   1.460   6.038
 4354SOL    HW213962   0.567   1.474   6.174
 4355SOL     OW13963   1.362   6.891   3.213
 4355SOL    HW113964   1.302   6.966   3.242
 4355SOL    HW213965   1.324   6.846   3.133
 4356SOL     OW13966   3.999   3.320   5.357
 4356SOL    HW113967   3.919   3.380   5.353
 4356SOL    HW213968   4.049   3.337   5.441
 4357SOL     OW13969   0.165   1.508   0.859
 4357SOL    HW113970   0.077   1.499   0.904
 4357SOL    HW213971   0.235   1.461   0.913
 4358SOL     OW13972   0.027   0.036   0.474
 4358SOL    HW113973   0.105   0.058   0.415
 4358SOL    HW213974   0.046   0.067   0.567
 4359SOL     OW13975   1.417   0.595   6.371
 4359SOL    HW113976   1.412   0.694   6.388
 4359SOL    HW213977   1.459   0.578   6.282
 4360SOL     OW13978   0.848   2.630   4.117
 4360SOL    HW113979   0.749   2.621   4.126
 4360SOL    HW213980   0.881   2.699   4.181
 4361SOL     OW13981   1.996   3.227   1.626
 4361SOL    HW113982   1.962   3.161   1.692
 4361SOL    HW213983   2.016   3.181   1.540
 4362SOL     OW13984   0.330   6.037   4.082
 4362SOL    HW113985   0.346   5.970   4.155
 4362SOL    HW213986   0.417   6.078   4.055
 4363SOL     OW13987   4.407   1.269   1.760
 4363SOL    HW113988   4.379   1.364   1.746
 4363SOL    HW213989   4.349   1.228   1.830
 4364SOL     OW13990   3.283   3.776   2.698
 4364SOL    HW113991   3.313   3.708   2.764
 4364SOL    HW213992   3.200   3.820   2.732
 4365SOL     OW13993   2.976   1.465   1.942
 4365SOL    HW113994   3.011   1.448   2.034
 4365SOL    HW213995   3.052   1.459   1.877
 4366SOL     OW13996   6.178   6.309   6.544
 4366SOL    HW113997   6.252   6.297   6.478
 4366SOL    HW213998   6.170   6.226   6.600
 4367SOL     OW13999   3.150   5.192   2.964
 4367SOL    HW114000   3.067   5.167   3.015
 4367SOL    HW214001   3.210   5.113   2.956
 4368SOL     OW14002   4.141   5.400   3.080
 4368SOL    HW114003   4.130   5.482   3.136
 4368SOL    HW214004   4.205   5.418   3.005
 4369SOL     OW14005   5.041   5.708   3.718
 4369SOL    HW114006   5.008   5.671   3.631
 4369SOL    HW214007   5.026   5.807   3.720
 4370SOL     OW14008   3.456   3.991   1.459
 4370SOL    HW114009   3.363   4.020   1.435
 4370SOL    HW214010   3.454   3.898   1.494
 4371SOL     OW14011   2.019   1.432   2.450
 4371SOL    HW114012   1.987   1.389   2.365
 4371SOL    HW214013   2.104   1.481   2.432
 4372SOL     OW14014   2.117   3.307   4.145
 4372SOL    HW114015   2.183   3.347   4.209
 4372SOL    HW214016   2.167   3.259   4.073
 4373SOL     OW14017   4.312   1.373   6.149
 4373SOL    HW114018   4.361   1.453   6.113
 4373SOL    HW214019   4.304   1.382   6.248
 4374SOL     OW14020   1.939   1.895   1.493
 4374SOL    HW114021   1.962   1.892   1.590
 4374SOL    HW214022   1.897   1.984   1.472
 4375SOL     OW14023   3.862   6.512   2.969
 4375SOL    HW114024   3.785   6.471   3.018
 4375SOL    HW214025   3.829   6.551   2.883
 4376SOL     OW14026   6.416   0.041   1.785
 4376SOL    HW114027   6.370   6.972   1.769
 4376SOL    HW214028   6.504   0.042   1.739
 4377SOL     OW14029   6.533   5.172   0.506
 4377SOL    HW114030   6.488   5.131   0.426
 4377SOL    HW214031   6.469   5.235   0.550
 4378SOL     OW14032   0.876   4.753   2.260
 4378SOL    HW114033   0.804   4.694   2.222
 4378SOL    HW214034   0.846   4.789   2.348
 4379SOL     OW14035   2.458   0.996   2.424
 4379SOL    HW114036   2.495   0.944   2.348
 4379SOL    HW214037   2.388   1.059   2.390
 4380SOL     OW14038   2.481   5.892   4.978
 4380SOL    HW114039   2.454   5.934   5.064
 4380SOL    HW214040   2.467   5.793   4.983
 4381SOL     OW14041   2.307   4.428   4.509
 4381SOL    HW114042   2.301   4.344   4.563
 4381SOL    HW214043   2.254   4.418   4.425
 4382SOL     OW14044   5.952   4.011   5.691
 4382SOL    HW114045   5.907   4.079   5.749
 4382SOL    HW214046   5.910   3.921   5.707
 4383SOL     OW14047   0.250   1.759   5.373
 4383SOL    HW114048   0.286   1.676   5.413
 4383SOL    HW214049   0.317   1.833   5.381
 4384SOL     OW14050   5.289   1.316   0.083
 4384SOL    HW114051   5.337   1.233   0.110
 4384SOL    HW214052   5.192   1.295   0.068
 4385SOL     OW14053   0.389   2.466   4.089
 4385SOL    HW114054   0.324   2.538   4.112
 4385SOL    HW214055   0.387   2.450   3.990
 4386SOL     OW14056   1.182   3.451   6.356
 4386SOL    HW114057   1.102   3.431   6.298
 4386SOL    HW214058   1.255   3.490   6.300
 4387SOL     OW14059   0.360   2.185   1.969
 4387SOL    HW114060   0.414   2.208   1.887
 4387SOL    HW214061   0.364   2.261   2.034
 4388SOL     OW14062   4.460   1.173   6.510
 4388SOL    HW114063   4.365   1.144   6.523
 4388SOL    HW214064   4.492   1.143   6.420
 4389SOL     OW14065   5.419   2.620   0.587
 4389SOL    HW114066   5.389   2.560   0.513
 4389SOL    HW214067   5.400   2.576   0.675
 4390SOL     OW14068   4.123   2.268   2.273
 4390SOL    HW114069   4.165   2.209   2.341
 4390SOL    HW214070   4.194   2.321   2.226
 4391SOL     OW14071   1.595   5.895   6.409
 4391SOL    HW114072   1.591   5.913   6.310
 4391SOL    HW214073   1.671   5.833   6.428
 4392SOL     OW14074   5.748   4.419   5.433
 4392SOL    HW114075   5.659   4.400   5.474
 4392SOL    HW214076   5.772   4.344   5.371
 4393SOL     OW14077   4.658   6.135   2.801
 4393SOL    HW114078   4.687   6.084   2.720
 4393SOL    HW214079   4.583   6.196   2.778
 4394SOL     OW14080   6.208   5.343   2.955
 4394SOL    HW114081   6.282   5.355   2.890
 4394SOL    HW214082   6.184   5.431   2.997
 4395SOL     OW14083   3.905   2.021   1.304
 4395SOL    HW114084   3.828   1.977   1.259
 4395SOL    HW214085   3.881   2.115   1.327
 4396SOL     OW14086   2.400   1.812   3.754
 4396SOL    HW114087   2.489   1.829   3.796
 4396SOL    HW214088   2.328   1.842   3.817
 4397SOL     OW14089   6.989   1.481   3.982
 4397SOL    HW114090   7.008   1.513   4.075
 4397SOL    HW214091   0.040   1.517   3.920
 4398SOL     OW14092   1.166   4.492   5.287
 4398SOL    HW114093   1.143   4.572   5.343
 4398SOL    HW214094   1.082   4.457   5.244
 4399SOL     OW14095   2.276   0.934   1.705
 4399SOL    HW114096   2.268   1.013   1.766
 4399SOL    HW214097   2.368   0.933   1.664
 4400SOL     OW14098   1.981   6.907   4.841
 4400SOL    HW114099   1.921   6.987   4.834
 4400SOL    HW214100   2.073   6.936   4.869
 4401SOL     OW14101   5.483   5.788   6.029
 4401SOL    HW114102   5.470   5.863   5.963
 4401SOL    HW214103   5.523   5.825   6.113
 4402SOL     OW14104   1.815   6.024   3.049
 4402SOL    HW114105   1.744   6.089   3.024
 4402SOL    HW214106   1.777   5.931   3.048
 4403SOL     OW14107   0.095   0.055   3.368
 4403SOL    HW114108   0.160   0.123   3.402
 4403SOL    HW214109   0.043   0.095   3.292
 4404SOL     OW14110   1.295   3.856   5.262
 4404SOL    HW114111   1.355   3.850   5.342
 4404SOL    HW214112   1.225   3.926   5.278
 4405SOL     OW14113   3.203   4.615   0.101
 4405SOL    HW114114   3.142   4.643   0.175
 4405SOL    HW214115   3.162   4.637   0.013
 4406SOL     OW14116   5.377   4.796   1.293
 4406SOL    HW114117   5.376   4.731   1.218
 4406SOL    HW214118   5.293   4.786   1.347
 4407SOL     OW14119   0.231   5.159   0.988
 4407SOL    HW114120   0.158   5.222   1.014
 4407SOL    HW214121   0.284   5.199   0.912
 4408SOL     OW14122   4.913   1.047   0.609
 4408SOL    HW114123   4.966   0.978   0.560
 4408SOL    HW214124   4.935   1.044   0.706
 4409SOL     OW14125   3.849   0.893   1.532
 4409SOL    HW114126   3.864   0.945   1.447
 4409SOL    HW214127   3.930   0.837   1.551
 4410SOL     OW14128   2.182   4.689   0.088
 4410SOL    HW114129   2.219   4.615   0.033
 4410SOL    HW214130   2.098   4.658   0.133
 4411SOL     OW14131   4.089   3.514   3.394
 4411SOL    HW114132   4.085   3.437   3.459
 4411SOL    HW214133   4.147   3.586   3.432
 4412SOL     OW14134   3.449   1.775   4.484
 4412SOL    HW114135   3.536   1.799   4.525
 4412SOL    HW214136   3.375   1.825   4.529
 4413SOL     OW14137   4.761   5.831   4.915
 4413SOL    HW114138   4.847   5.869   4.947
 4413SOL    HW214139   4.779   5.747   4.862
 4414SOL     OW14140   4.481   4.986   2.244
 4414SOL    HW114141   4.440   5.064   2.292
 4414SOL    HW214142   4.546   4.940   2.305
 4415SOL     OW14143   4.076   3.425   6.682
 4415SOL    HW114144   4.046   3.518   6.706
 4415SOL    HW214145   4.003   3.379   6.631
 4416SOL     OW14146   2.702   1.138   4.269
 4416SOL    HW114147   2.663   1.166   4.357
 4416SOL    HW214148   2.799   1.162   4.265
 4417SOL     OW14149   6.719   4.245   2.400
 4417SOL    HW114150   6.719   4.324   2.461
 4417SOL    HW214151   6.656   4.176   2.435
 4418SOL     OW14152   4.821   0.104   4.349
 4418SOL    HW114153   4.866   0.055   4.423
 4418SOL    HW214154   4.890   0.140   4.286
 4419SOL     OW14155   5.487   5.630   0.679
 4419SOL    HW114156   5.515   5.679   0.596
 4419SOL    HW214157   5.465   5.695   0.751
 4420SOL     OW14158   5.019   1.966   0.469
 4420SOL    HW114159   4.973   1.923   0.547
 4420SOL    HW214160   4.954   2.027   0.423
 4421SOL     OW14161   2.008   1.086   3.323
 4421SOL    HW114162   2.027   0.995   3.284
 4421SOL    HW214163   2.079   1.150   3.293
 4422SOL     OW14164   2.660   3.794   5.620
 4422SOL    HW114165   2.606   3.841   5.689
 4422SOL    HW214166   2.726   3.733   5.665
 4423SOL     OW14167   1.386   2.684   5.640
 4423SOL    HW114168   1.307   2.641   5.683
 4423SOL    HW214169   1.443   2.726   5.711
 4424SOL     OW14170   5.756   6.532   3.720
 4424SOL    HW114171   5.850   6.515   3.692
 4424SOL    HW214172   5.699   6.453   3.695
 4425SOL     OW14173   3.578   5.803   5.923
 4425SOL    HW114174   3.534   5.725   5.968
 4425SOL    HW214175   3.629   5.770   5.843
 4426SOL     OW14176   6.401   1.844   4.427
 4426SOL    HW114177   6.408   1.778   4.502
 4426SOL    HW214178   6.440   1.805   4.344
 4427SOL     OW14179   0.016   6.978   2.538
 4427SOL    HW114180   0.099   0.011   2.513
 4427SOL    HW214181   0.017   6.959   2.636
 4428SOL     OW14182   2.860   5.552   3.178
 4428SOL    HW114183   2.772   5.505   3.187
 4428SOL    HW214184   2.931   5.500   3.225
 4429SOL     OW14185   2.720   0.644   4.026
 4429SOL    HW114186   2.672   0.726   4.057
 4429SOL    HW214187   2.654   0.581   3.984
 4430SOL     OW14188   5.146   3.189   3.749
 4430SOL    HW114189   5.176   3.100   3.716
 4430SOL    HW214190   5.051   3.182   3.781
 4431SOL     OW14191   1.470   1.700   1.910
 4431SOL    HW114192   1.510   1.734   1.824
 4431SOL    HW214193   1.431   1.777   1.961
 4432SOL     OW14194   3.498   4.084   3.517
 4432SOL    HW114195   3.486   4.077   3.418
 4432SOL    HW214196   3.410   4.102   3.560
 4433SOL     OW14197   6.212   0.694   4.564
 4433SOL    HW114198   6.116   0.718   4.546
 4433SOL    HW214199   6.270   0.772   4.544
 4434SOL     OW14200   4.874   1.397   3.962
 4434SOL    HW114201   4.931   1.469   4.001
 4434SOL    HW214202   4.781   1.432   3.949
 4435SOL     OW14203   4.280   3.796   0.888
 4435SOL    HW114204   4.253   3.727   0.820
 4435SOL    HW214205   4.246   3.769   0.978
 4436SOL     OW14206   2.948   2.239   0.550
 4436SOL    HW114207   3.029   2.236   0.492
 4436SOL    HW214208   2.963   2.183   0.632
 4437SOL     OW14209   4.944   1.557   3.594
 4437SOL    HW114210   4.931   1.485   3.662
 4437SOL    HW214211   5.033   1.545   3.550
 4438SOL     OW14212   4.045   1.674   6.454
 4438SOL    HW114213   4.029   1.722   6.368
 4438SOL    HW214214   4.103   1.729   6.513
 4439SOL     OW14215   0.280   5.452   1.303
 4439SOL    HW114216   0.359   5.410   1.259
 4439SOL    HW214217   0.208   5.468   1.235
 4440SOL     OW14218   1.564   5.002   0.062
 4440SOL    HW114219   1.634   5.071   0.044
 4440SOL    HW214220   1.530   4.965   6.993
 4441SOL     OW14221   6.728   1.516   1.950
 4441SOL    HW114222   6.679   1.480   1.871
 4441SOL    HW214223   6.701   1.611   1.967
 4442SOL     OW14224   3.204   6.054   3.945
 4442SOL    HW114225   3.265   6.025   4.019
 4442SOL    HW214226   3.186   5.976   3.884
 4443SOL     OW14227   0.683   2.793   0.101
 4443SOL    HW114228   0.609   2.840   0.054
 4443SOL    HW214229   0.770   2.833   0.074
 4444SOL     OW14230   3.557   5.865   6.232
 4444SOL    HW114231   3.495   5.858   6.310
 4444SOL    HW214232   3.542   5.788   6.170
 4445SOL     OW14233   6.769   0.394   0.622
 4445SOL    HW114234   6.804   0.310   0.663
 4445SOL    HW214235   6.731   0.374   0.532
 4446SOL     OW14236   5.368   1.324   1.573
 4446SOL    HW114237   5.341   1.295   1.664
 4446SOL    HW214238   5.466   1.310   1.561
 4447SOL     OW14239   5.376   3.698   5.929
 4447SOL    HW114240   5.378   3.707   6.028
 4447SOL    HW214241   5.379   3.789   5.887
 4448SOL     OW14242   3.299   3.594   1.007
 4448SOL    HW114243   3.353   3.539   0.943
 4448SOL    HW214244   3.298   3.689   0.976
 4449SOL     OW14245   4.611   0.425   6.117
 4449SOL    HW114246   4.523   0.455   6.155
 4449SOL    HW214247   4.601   0.334   6.078
 4450SOL     OW14248   3.889   3.021   4.174
 4450SOL    HW114249   3.896   3.014   4.273
 4450SOL    HW214250   3.902   3.116   4.146
 4451SOL     OW14251   5.875   4.000   2.976
 4451SOL    HW114252   5.883   3.961   3.068
 4451SOL    HW214253   5.907   4.094   2.976
 4452SOL     OW14254   5.549   6.449   5.070
 4452SOL    HW114255   5.455   6.478   5.090
 4452SOL    HW214256   5.548   6.365   5.017
 4453SOL     OW14257   6.736   2.624   0.313
 4453SOL    HW114258   6.697   2.658   0.398
 4453SOL    HW214259   6.727   2.525   0.309
 4454SOL     OW14260   4.911   2.469   0.424
 4454SOL    HW114261   4.907   2.449   0.327
 4454SOL    HW214262   4.937   2.565   0.437
 4455SOL     OW14263   3.418   0.011   6.745
 4455SOL    HW114264   3.444   0.076   6.674
 4455SOL    HW214265   3.447   0.046   6.834
 4456SOL     OW14266   2.229   5.169   2.531
 4456SOL    HW114267   2.316   5.177   2.482
 4456SOL    HW214268   2.248   5.162   2.629
 4457SOL     OW14269   4.290   2.234   0.176
 4457SOL    HW114270   4.332   2.219   0.087
 4457SOL    HW214271   4.351   2.202   0.248
 4458SOL     OW14272   1.378   3.900   6.876
 4458SOL    HW114273   1.349   3.814   6.835
 4458SOL    HW214274   1.302   3.966   6.874
 4459SOL     OW14275   5.457   0.209   3.468
 4459SOL    HW114276   5.491   0.136   3.408
 4459SOL    HW214277   5.531   0.274   3.485
 4460SOL     OW14278   2.917   2.913   5.620
 4460SOL    HW114279   3.013   2.896   5.598
 4460SOL    HW214280   2.861   2.836   5.587
 4461SOL     OW14281   1.150   0.541   2.580
 4461SOL    HW114282   1.226   0.600   2.551
 4461SOL    HW214283   1.076   0.547   2.513
 4462SOL     OW14284   6.930   3.526   1.325
 4462SOL    HW114285   6.985   3.594   1.276
 4462SOL    HW214286   6.846   3.569   1.358
 4463SOL     OW14287   2.710   2.868   6.696
 4463SOL    HW114288   2.625   2.819   6.712
 4463SOL    HW214289   2.692   2.966   6.695
 4464SOL     OW14290   6.234   5.265   6.898
 4464SOL    HW114291   6.303   5.321   6.942
 4464SOL    HW214292   6.191   5.317   6.824
 4465SOL     OW14293   2.424   6.136   3.560
 4465SOL    HW114294   2.355   6.135   3.632
 4465SOL    HW214295   2.416   6.054   3.504
 4466SOL     OW14296   1.539   0.278   2.422
 4466SOL    HW114297   1.525   0.318   2.331
 4466SOL    HW214298   1.539   0.351   2.491
 4467SOL     OW14299   0.925   6.034   3.664
 4467SOL    HW114300   1.013   6.076   3.686
 4467SOL    HW214301   0.914   5.949   3.716
 4468SOL     OW14302   0.908   1.965   6.790
 4468SOL    HW114303   0.841   2.017   6.844
 4468SOL    HW214304   0.993   2.017   6.785
 4469SOL     OW14305   3.495   0.408   1.038
 4469SOL    HW114306   3.431   0.362   0.977
 4469SOL    HW214307   3.494   0.506   1.020
 4470SOL     OW14308   6.050   3.696   1.364
 4470SOL    HW114309   6.031   3.660   1.455
 4470SOL    HW214310   6.021   3.629   1.295
 4471SOL     OW14311   0.507   2.193   0.517
 4471SOL    HW114312   0.606   2.201   0.516
 4471SOL    HW214313   0.467   2.267   0.462
 4472SOL     OW14314   1.839   3.315   4.229
 4472SOL    HW114315   1.835   3.226   4.275
 4472SOL    HW214316   1.918   3.318   4.168
 4473SOL     OW14317   6.936   1.909   4.005
 4473SOL    HW114318   6.966   2.004   4.011
 4473SOL    HW214319   6.876   1.898   3.926
 4474SOL     OW14320   2.812   1.301   2.080
 4474SOL    HW114321   2.890   1.242   2.102
 4474SOL    HW214322   2.844   1.382   2.030
 4475SOL     OW14323   1.778   4.010   2.477
 4475SOL    HW114324   1.763   4.025   2.379
 4475SOL    HW214325   1.725   4.077   2.529
 4476SOL     OW14326   5.167   6.632   3.819
 4476SOL    HW114327   5.071   6.615   3.799
 4476SOL    HW214328   5.183   6.621   3.917
 4477SOL     OW14329   1.881   6.939   5.891
 4477SOL    HW114330   1.897   6.958   5.988
 4477SOL    HW214331   1.827   6.856   5.881
 4478SOL     OW14332   2.753   5.897   2.532
 4478SOL    HW114333   2.735   5.809   2.489
 4478SOL    HW214334   2.695   5.967   2.491
 4479SOL     OW14335   0.663   0.699   0.776
 4479SOL    HW114336   0.567   0.704   0.803
 4479SOL    HW214337   0.720   0.694   0.859
 4480SOL     OW14338   2.093   3.773   4.850
 4480SOL    HW114339   2.155   3.742   4.922
 4480SOL    HW214340   2.023   3.833   4.890
 4481SOL     OW14341   2.907   6.918   5.001
 4481SOL    HW114342   2.833   6.864   5.040
 4481SOL    HW214343   2.987   6.914   5.062
 4482SOL     OW14344   0.788   4.034   4.240
 4482SOL    HW114345   0.763   4.121   4.284
 4482SOL    HW214346   0.734   4.023   4.156
 4483SOL     OW14347   5.994   3.472   1.211
 4483SOL    HW114348   5.937   3.421   1.146
 4483SOL    HW214349   6.088   3.439   1.205
 4484SOL     OW14350   3.028   2.166   5.278
 4484SOL    HW114351   2.965   2.234   5.315
 4484SOL    HW214352   3.076   2.205   5.199
 4485SOL     OW14353   5.135   2.355   5.958
 4485SOL    HW114354   5.085   2.417   6.019
 4485SOL    HW214355   5.117   2.381   5.863
 4486SOL     OW14356   5.822   3.614   4.555
 4486SOL    HW114357   5.787   3.697   4.510
 4486SOL    HW214358   5.777   3.534   4.516
 4487SOL     OW14359   2.445   3.146   6.680
 4487SOL    HW114360   2.433   3.225   6.741
 4487SOL    HW214361   2.419   3.172   6.587
 4488SOL     OW14362   5.580   2.624   5.541
 4488SOL    HW114363   5.601   2.671   5.626
 4488SOL    HW214364   5.663   2.583   5.503
 4489SOL     OW14365   5.056   6.337   4.384
 4489SOL    HW114366   5.134   6.329   4.446
 4489SOL    HW214367   5.080   6.296   4.296
 4490SOL     OW14368   5.815   2.448   2.055
 4490SOL    HW114369   5.881   2.496   1.998
 4490SOL    HW214370   5.848   2.355   2.073
 4491SOL     OW14371   0.594   2.753   3.665
 4491SOL    HW114372   0.631   2.744   3.572
 4491SOL    HW214373   0.612   2.669   3.716
 4492SOL     OW14374   5.530   3.792   0.836
 4492SOL    HW114375   5.625   3.760   0.835
 4492SOL    HW214376   5.523   3.875   0.891
 4493SOL     OW14377   4.551   5.365   5.766
 4493SOL    HW114378   4.515   5.278   5.733
 4493SOL    HW214379   4.551   5.432   5.692
 4494SOL     OW14380   0.301   1.927   6.100
 4494SOL    HW114381   0.320   1.911   6.197
 4494SOL    HW214382   0.205   1.955   6.089
 4495SOL     OW14383   4.857   6.418   3.383
 4495SOL    HW114384   4.785   6.387   3.445
 4495SOL    HW214385   4.905   6.496   3.424
 4496SOL     OW14386   4.979   5.776   0.589
 4496SOL    HW114387   5.062   5.753   0.539
 4496SOL    HW214388   4.900   5.736   0.542
 4497SOL     OW14389   4.555   0.179   0.153
 4497SOL    HW114390   4.518   0.090   0.180
 4497SOL    HW214391   4.559   0.185   0.053
 4498SOL     OW14392   0.549   3.204   6.069
 4498SOL    HW114393   0.572   3.162   6.157
 4498SOL    HW214394   0.456   3.242   6.073
 4499SOL     OW14395   7.013   3.645   4.200
 4499SOL    HW114396   0.088   3.635   4.167
 4499SOL    HW214397   6.951   3.586   4.148
 4500SOL     OW14398   3.213   3.396   4.134
 4500SOL    HW114399   3.212   3.303   4.169
 4500SOL    HW214400   3.238   3.395   4.037
 4501SOL     OW14401   0.256   3.357   6.158
 4501SOL    HW114402   0.241   3.259   6.173
 4501SOL    HW214403   0.222   3.383   6.068
 4502SOL     OW14404   1.972   2.244   6.630
 4502SOL    HW114405   1.996   2.267   6.535
 4502SOL    HW214406   2.035   2.290   6.692
 4503SOL     OW14407   2.894   0.346   2.705
 4503SOL    HW114408   2.914   0.443   2.688
 4503SOL    HW214409   2.922   0.292   2.625
 4504SOL     OW14410   6.124   1.760   5.132
 4504SOL    HW114411   6.150   1.820   5.208
 4504SOL    HW214412   6.179   1.782   5.052
 4505SOL     OW14413   6.557   5.656   3.820
 4505SOL    HW114414   6.518   5.585   3.761
 4505SOL    HW214415   6.519   5.647   3.912
 4506SOL     OW14416   4.780   2.411   4.495
 4506SOL    HW114417   4.813   2.469   4.421
 4506SOL    HW214418   4.735   2.467   4.564
 4507SOL     OW14419   4.996   4.141   1.542
 4507SOL    HW114420   4.952   4.122   1.629
 4507SOL    HW214421   5.093   4.118   1.548
 4508SOL     OW14422   0.613   4.905   6.246
 4508SOL    HW114423   0.571   4.981   6.197
 4508SOL    HW214424   0.554   4.878   6.323
 4509SOL     OW14425   5.458   2.808   3.937
 4509SOL    HW114426   5.462   2.827   3.839
 4509SOL    HW214427   5.531   2.743   3.961
 4510SOL     OW14428   5.492   6.562   5.488
 4510SOL    HW114429   5.479   6.464   5.507
 4510SOL    HW214430   5.566   6.573   5.421
 4511SOL     OW14431   6.975   3.465   6.496
 4511SOL    HW114432   0.028   3.534   6.487
 4511SOL    HW214433   7.006   3.379   6.454
 4512SOL     OW14434   2.234   6.472   6.136
 4512SOL    HW114435   2.159   6.470   6.202
 4512SOL    HW214436   2.214   6.410   6.061
 4513SOL     OW14437   5.042   6.463   0.512
 4513SOL    HW114438   5.099   6.419   0.443
 4513SOL    HW214439   5.094   6.475   0.596
 4514SOL     OW14440   4.632   1.059   4.707
 4514SOL    HW114441   4.641   0.964   4.735
 4514SOL    HW214442   4.716   1.109   4.730
 4515SOL     OW14443   6.647   4.135   5.679
 4515SOL    HW114444   6.633   4.181   5.767
 4515SOL    HW214445   6.559   4.103   5.644
 4516SOL     OW14446   1.571   1.183   6.319
 4516SOL    HW114447   1.657   1.174   6.369
 4516SOL    HW214448   1.504   1.228   6.377
 4517SOL     OW14449   2.370   0.418   6.828
 4517SOL    HW114450   2.281   0.416   6.783
 4517SOL    HW214451   2.357   0.413   6.927
 4518SOL     OW14452   6.640   1.326   3.485
 4518SOL    HW114453   6.570   1.392   3.512
 4518SOL    HW214454   6.641   1.318   3.385
 4519SOL     OW14455   5.862   0.610   1.479
 4519SOL    HW114456   5.781   0.630   1.534
 4519SOL    HW214457   5.851   0.520   1.436
 4520SOL     OW14458   5.309   5.715   3.339
 4520SOL    HW114459   5.281   5.647   3.407
 4520SOL    HW214460   5.244   5.714   3.263
 4521SOL     OW14461   4.804   2.112   4.559
 4521SOL    HW114462   4.790   2.210   4.551
 4521SOL    HW214463   4.890   2.094   4.606
 4522SOL     OW14464   5.416   0.006   3.742
 4522SOL    HW114465   5.375   7.007   3.652
 4522SOL    HW214466   5.471   0.090   3.738
 4523SOL     OW14467   1.079   4.429   7.009
 4523SOL    HW114468   1.175   4.429   6.983
 4523SOL    HW214469   1.047   4.523   0.002
 4524SOL     OW14470   5.288   2.551   5.245
 4524SOL    HW114471   5.280   2.473   5.307
 4524SOL    HW214472   5.383   2.582   5.242
 4525SOL     OW14473   6.327   1.661   3.431
 4525SOL    HW114474   6.265   1.672   3.508
 4525SOL    HW214475   6.308   1.575   3.384
 4526SOL     OW14476   4.758   0.754   0.662
 4526SOL    HW114477   4.660   0.743   0.679
 4526SOL    HW214478   4.772   0.816   0.585
 4527SOL     OW14479   4.057   1.185   3.838
 4527SOL    HW114480   4.123   1.127   3.791
 4527SOL    HW214481   4.026   1.139   3.922
 4528SOL     OW14482   4.834   6.660   6.966
 4528SOL    HW114483   4.788   6.653   0.036
 4528SOL    HW214484   4.917   6.715   6.976
 4529SOL     OW14485   3.332   1.274   3.744
 4529SOL    HW114486   3.347   1.225   3.658
 4529SOL    HW214487   3.320   1.208   3.818
 4530SOL     OW14488   6.909   3.500   5.463
 4530SOL    HW114489   6.851   3.495   5.381
 4530SOL    HW214490   6.985   3.436   5.453
 4531SOL     OW14491   0.402   3.352   3.482
 4531SOL    HW114492   0.434   3.307   3.399
 4531SOL    HW214493   0.384   3.283   3.552
 4532SOL     OW14494   0.552   1.034   2.273
 4532SOL    HW114495   0.604   1.102   2.326
 4532SOL    HW214496   0.521   1.074   2.187
 4533SOL     OW14497   1.208   0.384   2.806
 4533SOL    HW114498   1.171   0.441   2.880
 4533SOL    HW214499   1.176   0.418   2.718
 4534SOL     OW14500   5.950   3.511   3.948
 4534SOL    HW114501   5.921   3.435   3.890
 4534SOL    HW214502   6.049   3.520   3.943
 4535SOL     OW14503   4.602   2.032   2.821
 4535SOL    HW114504   4.553   1.998   2.901
 4535SOL    HW214505   4.620   1.957   2.758
 4536SOL     OW14506   4.495   2.369   4.348
 4536SOL    HW114507   4.452   2.353   4.259
 4536SOL    HW214508   4.584   2.322   4.350
 4537SOL     OW14509   3.798   3.004   5.876
 4537SOL    HW114510   3.800   2.916   5.829
 4537SOL    HW214511   3.710   3.015   5.922
 4538SOL     OW14512   2.723   1.340   4.075
 4538SOL    HW114513   2.734   1.266   4.141
 4538SOL    HW214514   2.795   1.408   4.088
 4539SOL     OW14515   2.354   1.498   4.443
 4539SOL    HW114516   2.282   1.477   4.509
 4539SOL    HW214517   2.331   1.460   4.354
 4540SOL     OW14518   3.248   3.115   4.159
 4540SOL    HW114519   3.186   3.115   4.080
 4540SOL    HW214520   3.305   3.033   4.156
 4541SOL     OW14521   5.677   1.289   6.971
 4541SOL    HW114522   5.649   1.278   0.048
 4541SOL    HW214523   5.696   1.200   6.931
 4542SOL     OW14524   5.999   6.911   1.871
 4542SOL    HW114525   5.908   6.904   1.829
 4542SOL    HW214526   6.063   6.852   1.822
 4543SOL     OW14527   4.846   2.130   0.334
 4543SOL    HW114528   4.833   2.207   0.271
 4543SOL    HW214529   4.792   2.146   0.417
 4544SOL     OW14530   2.910   6.600   5.759
 4544SOL    HW114531   2.942   6.508   5.735
 4544SOL    HW214532   2.850   6.635   5.687
 4545SOL     OW14533   5.395   2.455   4.810
 4545SOL    HW114534   5.331   2.432   4.736
 4545SOL    HW214535   5.352   2.436   4.898
 4546SOL     OW14536   1.434   0.850   6.410
 4546SOL    HW114537   1.344   0.884   6.386
 4546SOL    HW214538   1.486   0.923   6.456
 4547SOL     OW14539   6.606   2.620   3.070
 4547SOL    HW114540   6.521   2.620   3.018
 4547SOL    HW214541   6.675   2.674   3.021
 4548SOL     OW14542   1.230   4.663   4.561
 4548SOL    HW114543   1.321   4.697   4.537
 4548SOL    HW214544   1.236   4.567   4.587
 4549SOL     OW14545   6.180   3.615   2.395
 4549SOL    HW114546   6.251   3.640   2.329
 4549SOL    HW214547   6.162   3.692   2.455
 4550SOL     OW14548   0.823   6.068   2.996
 4550SOL    HW114549   0.892   6.020   2.942
 4550SOL    HW214550   0.755   6.108   2.934
 4551SOL     OW14551   0.301   2.283   5.133
 4551SOL    HW114552   0.246   2.366   5.124
 4551SOL    HW214553   0.388   2.305   5.177
 4552SOL     OW14554   6.926   2.537   6.412
 4552SOL    HW114555   6.898   2.576   6.324
 4552SOL    HW214556   6.894   2.443   6.418
 4553SOL     OW14557   3.787   4.279   0.589
 4553SOL    HW114558   3.761   4.375   0.585
 4553SOL    HW214559   3.735   4.232   0.660
 4554SOL     OW14560   4.038   1.170   1.707
 4554SOL    HW114561   3.948   1.177   1.665
 4554SOL    HW214562   4.043   1.231   1.786
 4555SOL     OW14563   3.417   1.751   5.618
 4555SOL    HW114564   3.391   1.757   5.714
 4555SOL    HW214565   3.338   1.720   5.564
 4556SOL     OW14566   4.581   2.174   3.307
 4556SOL    HW114567   4.627   2.250   3.263
 4556SOL    HW214568   4.631   2.146   3.389
 4557SOL     OW14569   5.240   6.871   5.275
 4557SOL    HW114570   5.204   6.964   5.277
 4557SOL    HW214571   5.188   6.814   5.338
 4558SOL     OW14572   6.720   3.929   5.848
 4558SOL    HW114573   6.710   3.994   5.773
 4558SOL    HW214574   6.708   3.836   5.812
 4559SOL     OW14575   1.345   5.244   0.882
 4559SOL    HW114576   1.433   5.272   0.920
 4559SOL    HW214577   1.302   5.178   0.943
 4560SOL     OW14578   5.505   4.563   3.561
 4560SOL    HW114579   5.506   4.661   3.544
 4560SOL    HW214580   5.597   4.526   3.550
 4561SOL     OW14581   3.040   0.922   1.198
 4561SOL    HW114582   3.067   0.935   1.103
 4561SOL    HW214583   3.119   0.893   1.252
 4562SOL     OW14584   2.994   5.734   4.696
 4562SOL    HW114585   3.032   5.657   4.643
 4562SOL    HW214586   2.965   5.701   4.785
 4563SOL     OW14587   6.645   3.652   6.967
 4563SOL    HW114588   6.665   3.727   6.904
 4563SOL    HW214589   6.583   3.684   0.021
 4564SOL     OW14590   0.894   6.344   0.957
 4564SOL    HW114591   0.950   6.392   1.024
 4564SOL    HW214592   0.853   6.263   1.001
 4565SOL     OW14593   7.017   1.468   5.424
 4565SOL    HW114594   6.950   1.531   5.384
 4565SOL    HW214595   0.091   1.504   5.408
 4566SOL     OW14596   6.519   0.991   0.908
 4566SOL    HW114597   6.609   1.009   0.867
 4566SOL    HW214598   6.491   1.070   0.962
 4567SOL     OW14599   0.874   0.871   0.037
 4567SOL    HW114600   0.907   0.819   0.116
 4567SOL    HW214601   0.888   0.969   0.054
 4568SOL     OW14602   1.572   4.382   5.426
 4568SOL    HW114603   1.636   4.372   5.351
 4568SOL    HW214604   1.492   4.433   5.395
 4569SOL     OW14605   1.835   1.459   3.128
 4569SOL    HW114606   1.781   1.505   3.059
 4569SOL    HW214607   1.924   1.434   3.090
 4570SOL     OW14608   0.407   4.879   3.173
 4570SOL    HW114609   0.478   4.815   3.199
 4570SOL    HW214610   0.375   4.928   3.255
 4571SOL     OW14611   3.767   3.464   5.340
 4571SOL    HW114612   3.721   3.377   5.359
 4571SOL    HW214613   3.728   3.535   5.400
 4572SOL     OW14614   0.970   6.422   6.065
 4572SOL    HW114615   0.944   6.331   6.032
 4572SOL    HW214616   0.963   6.423   6.165
 4573SOL     OW14617   6.236   5.982   0.426
 4573SOL    HW114618   6.306   5.962   0.493
 4573SOL    HW214619   6.145   5.972   0.467
 4574SOL     OW14620   6.705   3.960   0.990
 4574SOL    HW114621   6.617   3.978   1.033
 4574SOL    HW214622   6.749   4.046   0.966
 4575SOL     OW14623   6.749   1.577   6.654
 4575SOL    HW114624   6.744   1.671   6.687
 4575SOL    HW214625   6.733   1.574   6.555
 4576SOL     OW14626   2.454   6.361   6.707
 4576SOL    HW114627   2.423   6.452   6.735
 4576SOL    HW214628   2.428   6.294   6.776
 4577SOL     OW14629   0.250   2.856   3.265
 4577SOL    HW114630   0.245   2.762   3.231
 4577SOL    HW214631   0.298   2.857   3.352
 4578SOL     OW14632   0.415   3.522   3.875
 4578SOL    HW114633   0.515   3.511   3.874
 4578SOL    HW214634   0.392   3.603   3.929
 4579SOL     OW14635   5.158   1.561   3.078
 4579SOL    HW114636   5.130   1.465   3.085
 4579SOL    HW214637   5.164   1.587   2.982
 4580SOL     OW14638   5.597   5.544   0.149
 4580SOL    HW114639   5.677   5.488   0.127
 4580SOL    HW214640   5.533   5.542   0.072
 4581SOL     OW14641   3.088   5.387   3.172
 4581SOL    HW114642   3.154   5.461   3.159
 4581SOL    HW214643   3.104   5.316   3.104
 4582SOL     OW14644   6.013   6.774   4.641
 4582SOL    HW114645   5.920   6.739   4.632
 4582SOL    HW214646   6.016   6.844   4.713
 4583SOL     OW14647   2.518   1.302   4.809
 4583SOL    HW114648   2.487   1.374   4.747
 4583SOL    HW214649   2.523   1.338   4.902
 4584SOL     OW14650   0.527   5.313   5.408
 4584SOL    HW114651   0.569   5.251   5.342
 4584SOL    HW214652   0.428   5.299   5.408
 4585SOL     OW14653   2.825   6.900   3.184
 4585SOL    HW114654   2.795   6.805   3.191
 4585SOL    HW214655   2.917   6.902   3.145
 4586SOL     OW14656   3.543   5.317   0.512
 4586SOL    HW114657   3.580   5.250   0.448
 4586SOL    HW214658   3.448   5.294   0.534
 4587SOL     OW14659   4.361   3.189   1.783
 4587SOL    HW114660   4.421   3.110   1.799
 4587SOL    HW214661   4.288   3.188   1.851
 4588SOL     OW14662   3.717   3.814   5.194
 4588SOL    HW114663   3.640   3.772   5.242
 4588SOL    HW214664   3.747   3.895   5.245
 4589SOL     OW14665   6.088   1.789   2.241
 4589SOL    HW114666   6.064   1.698   2.208
 4589SOL    HW214667   6.177   1.815   2.205
 4590SOL     OW14668   4.143   6.176   2.260
 4590SOL    HW114669   4.090   6.261   2.257
 4590SOL    HW214670   4.098   6.107   2.203
 4591SOL     OW14671   0.562   5.986   5.092
 4591SOL    HW114672   0.563   5.955   4.997
 4591SOL    HW214673   0.653   5.973   5.131
 4592SOL     OW14674   3.999   2.505   1.678
 4592SOL    HW114675   4.075   2.511   1.614
 4592SOL    HW214676   3.937   2.582   1.663
 4593SOL     OW14677   4.440   5.818   4.256
 4593SOL    HW114678   4.531   5.790   4.226
 4593SOL    HW214679   4.371   5.762   4.209
 4594SOL     OW14680   3.468   2.247   1.170
 4594SOL    HW114681   3.514   2.223   1.085
 4594SOL    HW214682   3.532   2.237   1.246
 4595SOL     OW14683   3.469   2.964   5.571
 4595SOL    HW114684   3.455   2.942   5.474
 4595SOL    HW214685   3.567   2.973   5.588
 4596SOL     OW14686   6.262   6.582   2.209
 4596SOL    HW114687   6.196   6.656   2.201
 4596SOL    HW214688   6.283   6.546   2.118
 4597SOL     OW14689   4.970   4.575   6.960
 4597SOL    HW114690   4.887   4.588   6.907
 4597SOL    HW214691   4.946   4.552   0.037
 4598SOL     OW14692   1.564   5.347   6.919
 4598SOL    HW114693   1.659   5.352   6.889
 4598SOL    HW214694   1.511   5.292   6.855
 4599SOL     OW14695   1.899   4.483   0.792
 4599SOL    HW114696   1.895   4.546   0.870
 4599SOL    HW214697   1.992   4.448   0.782
 4600SOL     OW14698   2.110   6.016   5.980
 4600SOL    HW114699   2.070   5.965   5.904
 4600SOL    HW214700   2.040   6.071   6.024
 4601SOL     OW14701   1.496   0.695   5.371
 4601SOL    HW114702   1.447   0.717   5.287
 4601SOL    HW214703   1.448   0.733   5.449
 4602SOL     OW14704   1.055   5.844   0.470
 4602SOL    HW114705   1.073   5.893   0.385
 4602SOL    HW214706   1.068   5.746   0.456
 4603SOL     OW14707   3.882   6.961   1.079
 4603SOL    HW114708   3.902   0.039   1.099
 4603SOL    HW214709   3.827   6.922   1.153
 4604SOL     OW14710   4.877   0.789   1.663
 4604SOL    HW114711   4.860   0.888   1.661
 4604SOL    HW214712   4.974   0.773   1.681
 4605SOL     OW14713   5.128   0.915   2.927
 4605SOL    HW114714   5.039   0.941   2.964
 4605SOL    HW214715   5.117   0.849   2.853
 4606SOL     OW14716   0.065   0.123   1.998
 4606SOL    HW114717   0.102   0.155   2.086
 4606SOL    HW214718   0.067   0.023   1.996
 4607SOL     OW14719   2.663   2.961   0.481
 4607SOL    HW114720   2.736   3.012   0.434
 4607SOL    HW214721   2.696   2.933   0.572
 4608SOL     OW14722   1.603   5.410   3.824
 4608SOL    HW114723   1.558   5.374   3.906
 4608SOL    HW214724   1.534   5.427   3.753
 4609SOL     OW14725   3.999   5.628   5.717
 4609SOL    HW114726   3.948   5.575   5.649
 4609SOL    HW214727   3.956   5.616   5.807
 4610SOL     OW14728   6.578   2.709   0.526
 4610SOL    HW114729   6.575   2.662   0.615
 4610SOL    HW214730   6.508   2.780   0.523
 4611SOL     OW14731   5.954   5.451   6.201
 4611SOL    HW114732   5.963   5.535   6.147
 4611SOL    HW214733   5.884   5.392   6.161
 4612SOL     OW14734   1.209   6.470   0.737
 4612SOL    HW114735   1.131   6.455   0.677
 4612SOL    HW214736   1.294   6.464   0.684
 4613SOL     OW14737   2.773   5.416   2.458
 4613SOL    HW114738   2.861   5.465   2.460
 4613SOL    HW214739   2.789   5.318   2.471
 4614SOL     OW14740   1.174   4.090   5.456
 4614SOL    HW114741   1.129   4.055   5.538
 4614SOL    HW214742   1.202   4.185   5.471
 4615SOL     OW14743   2.081   0.523   0.205
 4615SOL    HW114744   2.051   0.513   0.109
 4615SOL    HW214745   2.145   0.599   0.212
 4616SOL     OW14746   6.237   0.160   6.347
 4616SOL    HW114747   6.273   0.231   6.286
 4616SOL    HW214748   6.294   0.078   6.339
 4617SOL     OW14749   1.335   2.285   2.417
 4617SOL    HW114750   1.240   2.315   2.418
 4617SOL    HW214751   1.395   2.365   2.415
 4618SOL     OW14752   1.745   2.205   5.273
 4618SOL    HW114753   1.770   2.293   5.233
 4618SOL    HW214754   1.732   2.214   5.371
 4619SOL     OW14755   3.999   6.368   3.520
 4619SOL    HW114756   3.967   6.408   3.606
 4619SOL    HW214757   4.034   6.441   3.460
 4620SOL     OW14758   3.224   4.352   6.855
 4620SOL    HW114759   3.247   4.254   6.852
 4620SOL    HW214760   3.207   4.385   6.762
 4621SOL     OW14761   5.410   1.707   3.613
 4621SOL    HW114762   5.331   1.646   3.618
 4621SOL    HW214763   5.465   1.685   3.532
 4622SOL     OW14764   0.657   3.258   0.974
 4622SOL    HW114765   0.702   3.332   0.925
 4622SOL    HW214766   0.591   3.296   1.039
 4623SOL     OW14767   0.161   5.595   1.064
 4623SOL    HW114768   0.098   5.639   1.127
 4623SOL    HW214769   0.230   5.661   1.033
 4624SOL     OW14770   5.008   6.761   3.116
 4624SOL    HW114771   5.016   6.662   3.103
 4624SOL    HW214772   4.958   6.780   3.200
 4625SOL     OW14773   1.963   4.826   6.755
 4625SOL    HW114774   1.970   4.825   6.855
 4625SOL    HW214775   1.948   4.733   6.722
 4626SOL     OW14776   5.929   5.428   1.563
 4626SOL    HW114777   6.014   5.378   1.546
 4626SOL    HW214778   5.853   5.364   1.569
 4627SOL     OW14779   3.668   6.041   4.306
 4627SOL    HW114780   3.699   6.115   4.366
 4627SOL    HW214781   3.745   5.979   4.289
 4628SOL     OW14782   5.889   4.286   3.483
 4628SOL    HW114783   5.862   4.369   3.532
 4628SOL    HW214784   5.983   4.297   3.449
 4629SOL     OW14785   2.123   5.045   5.527
 4629SOL    HW114786   2.039   5.031   5.578
 4629SOL    HW214787   2.197   4.991   5.567
 4630SOL     OW14788   3.523   5.651   3.230
 4630SOL    HW114789   3.619   5.663   3.206
 4630SOL    HW214790   3.473   5.737   3.217
 4631SOL     OW14791   2.531   6.798   3.449
 4631SOL    HW114792   2.620   6.759   3.427
 4631SOL    HW214793   2.543   6.879   3.505
 4632SOL     OW14794   4.718   4.330   3.204
 4632SOL    HW114795   4.747   4.259   3.269
 4632SOL    HW214796   4.714   4.292   3.112
 4633SOL     OW14797   5.878   1.872   3.567
 4633SOL    HW114798   5.779   1.863   3.576
 4633SOL    HW214799   5.922   1.831   3.647
 4634SOL     OW14800   2.566   4.456   6.467
 4634SOL    HW114801   2.498   4.382   6.472
 4634SOL    HW214802   2.570   4.490   6.373
 4635SOL     OW14803   6.104   3.177   2.103
 4635SOL    HW114804   6.042   3.254   2.089
 4635SOL    HW214805   6.063   3.094   2.066
 4636SOL     OW14806   2.056   5.336   0.145
 4636SOL    HW114807   2.091   5.288   0.225
 4636SOL    HW214808   2.041   5.271   0.071
 4637SOL     OW14809   2.195   0.884   0.481
 4637SOL    HW114810   2.193   0.942   0.562
 4637SOL    HW214811   2.229   0.937   0.403
 4638SOL     OW14812   3.515   3.096   6.276
 4638SOL    HW114813   3.424   3.059   6.259
 4638SOL    HW214814   3.519   3.132   6.369
 4639SOL     OW14815   1.987   4.820   4.873
 4639SOL    HW114816   2.060   4.768   4.918
 4639SOL    HW214817   1.900   4.773   4.887
 4640SOL     OW14818   5.083   5.506   3.297
 4640SOL    HW114819   5.114   5.413   3.280
 4640SOL    HW214820   5.036   5.541   3.216
 4641SOL     OW14821   2.929   6.112   3.936
 4641SOL    HW114822   3.019   6.075   3.959
 4641SOL    HW214823   2.918   6.114   3.836
 4642SOL     OW14824   0.827   6.566   5.561
 4642SOL    HW114825   0.813   6.471   5.531
 4642SOL    HW214826   0.768   6.626   5.507
 4643SOL     OW14827   5.690   2.324   1.064
 4643SOL    HW114828   5.636   2.240   1.052
 4643SOL    HW214829   5.704   2.368   0.975
 4644SOL     OW14830   1.601   4.968   4.645
 4644SOL    HW114831   1.550   5.036   4.594
 4644SOL    HW214832   1.562   4.959   4.737
 4645SOL     OW14833   1.469   0.282   4.513
 4645SOL    HW114834   1.506   0.288   4.606
 4645SOL    HW214835   1.527   0.222   4.458
 4646SOL     OW14836   2.572   6.574   3.168
 4646SOL    HW114837   2.556   6.528   3.255
 4646SOL    HW214838   2.490   6.624   3.141
 4647SOL     OW14839   0.818   6.538   3.123
 4647SOL    HW114840   0.839   6.631   3.093
 4647SOL    HW214841   0.719   6.527   3.128
 4648SOL     OW14842   4.200   0.396   1.313
 4648SOL    HW114843   4.299   0.379   1.310
 4648SOL    HW214844   4.176   0.465   1.245
 4649SOL     OW14845   5.093   6.640   6.418
 4649SOL    HW114846   5.064   6.638   6.322
 4649SOL    HW214847   5.170   6.578   6.431
 4650SOL     OW14848   4.035   5.971   3.770
 4650SOL    HW114849   3.964   5.901   3.772
 4650SOL    HW214850   4.034   6.017   3.681
 4651SOL     OW14851   6.916   1.568   0.740
 4651SOL    HW114852   6.998   1.566   0.682
 4651SOL    HW214853   6.865   1.652   0.722
 4652SOL     OW14854   0.592   0.499   4.087
 4652SOL    HW114855   0.502   0.535   4.062
 4652SOL    HW214856   0.658   0.525   4.017
 4653SOL     OW14857   6.364   5.336   6.586
 4653SOL    HW114858   6.282   5.365   6.637
 4653SOL    HW214859   6.352   5.242   6.554
 4654SOL     OW14860   0.199   6.958   0.033
 4654SOL    HW114861   0.201   6.873   6.999
 4654SOL    HW214862   0.152   0.011   6.998
 4655SOL     OW14863   6.495   4.971   1.902
 4655SOL    HW114864   6.522   4.996   1.809
 4655SOL    HW214865   6.501   4.872   1.913
 4656SOL     OW14866   1.006   6.747   3.676
 4656SOL    HW114867   0.998   6.648   3.677
 4656SOL    HW214868   0.975   6.783   3.588
 4657SOL     OW14869   4.789   6.977   1.631
 4657SOL    HW114870   4.691   6.976   1.650
 4657SOL    HW214871   4.827   0.048   1.656
 4658SOL     OW14872   3.592   1.294   2.120
 4658SOL    HW114873   3.573   1.244   2.205
 4658SOL    HW214874   3.640   1.379   2.142
 4659SOL     OW14875   2.533   3.821   5.855
 4659SOL    HW114876   2.531   3.921   5.850
 4659SOL    HW214877   2.621   3.791   5.894
 4660SOL     OW14878   1.164   2.618   5.126
 4660SOL    HW114879   1.137   2.575   5.212
 4660SOL    HW214880   1.138   2.715   5.128
 4661SOL     OW14881   3.942   4.187   5.602
 4661SOL    HW114882   3.885   4.116   5.559
 4661SOL    HW214883   3.888   4.270   5.615
 4662SOL     OW14884   4.994   0.566   5.172
 4662SOL    HW114885   5.071   0.519   5.127
 4662SOL    HW214886   4.955   0.633   5.109
 4663SOL     OW14887   0.593   1.320   2.341
 4663SOL    HW114888   0.560   1.343   2.249
 4663SOL    HW214889   0.690   1.342   2.347
 4664SOL     OW14890   2.069   2.398   0.292
 4664SOL    HW114891   2.159   2.380   0.331
 4664SOL    HW214892   2.004   2.328   0.323
 4665SOL     OW14893   4.157   6.961   0.717
 4665SOL    HW114894   4.198   6.870   0.711
 4665SOL    HW214895   4.063   6.953   0.750
 4666SOL     OW14896   1.635   1.719   0.505
 4666SOL    HW114897   1.642   1.810   0.465
 4666SOL    HW214898   1.719   1.698   0.556
 4667SOL     OW14899   6.373   4.311   1.088
 4667SOL    HW114900   6.416   4.377   1.026
 4667SOL    HW214901   6.282   4.289   1.054
 4668SOL     OW14902   6.999   2.559   3.413
 4668SOL    HW114903   6.920   2.580   3.470
 4668SOL    HW214904   6.979   2.479   3.356
 4669SOL     OW14905   3.230   6.828   0.363
 4669SOL    HW114906   3.229   6.856   0.459
 4669SOL    HW214907   3.254   6.731   0.357
 4670SOL     OW14908   3.497   1.257   4.962
 4670SOL    HW114909   3.446   1.333   5.002
 4670SOL    HW214910   3.539   1.287   4.876
 4671SOL     OW14911   6.628   2.618   2.249
 4671SOL    HW114912   6.727   2.632   2.257
 4671SOL    HW214913   6.601   2.539   2.305
 4672SOL     OW14914   2.597   4.805   6.239
 4672SOL    HW114915   2.654   4.886   6.222
 4672SOL    HW214916   2.516   4.832   6.292
 4673SOL     OW14917   5.049   6.993   0.865
 4673SOL    HW114918   5.131   0.005   0.816
 4673SOL    HW214919   4.987   6.947   0.800
 4674SOL     OW14920   5.144   6.426   6.960
 4674SOL    HW114921   5.191   6.431   6.871
 4674SOL    HW214922   5.112   6.517   6.985
 4675SOL     OW14923   0.651   3.169   6.844
 4675SOL    HW114924   0.599   3.198   6.764
 4675SOL    HW214925   0.691   3.249   6.889
 4676SOL     OW14926   6.829   5.923   3.831
 4676SOL    HW114927   6.750   5.901   3.774
 4676SOL    HW214928   6.803   5.917   3.927
 4677SOL     OW14929   2.657   2.073   1.254
 4677SOL    HW114930   2.667   1.991   1.310
 4677SOL    HW214931   2.748   2.110   1.232
 4678SOL     OW14932   2.360   4.259   3.035
 4678SOL    HW114933   2.326   4.321   2.964
 4678SOL    HW214934   2.330   4.166   3.015
 4679SOL     OW14935   4.178   0.331   1.697
 4679SOL    HW114936   4.230   0.401   1.648
 4679SOL    HW214937   4.100   0.302   1.641
 4680SOL     OW14938   3.614   1.054   6.469
 4680SOL    HW114939   3.532   1.019   6.423
 4680SOL    HW214940   3.675   0.978   6.492
 4681SOL     OW14941   5.128   4.743   0.268
 4681SOL    HW114942   5.109   4.657   0.314
 4681SOL    HW214943   5.223   4.746   0.239
 4682SOL     OW14944   4.476   4.629   5.746
 4682SOL    HW114945   4.516   4.562   5.683
 4682SOL    HW214946   4.376   4.625   5.739
 4683SOL     OW14947   5.985   5.566   2.494
 4683SOL    HW114948   5.959   5.551   2.589
 4683SOL    HW214949   5.906   5.602   2.444
 4684SOL     OW14950   4.775   6.769   5.199
 4684SOL    HW114951   4.757   6.802   5.292
 4684SOL    HW214952   4.726   6.684   5.183
 4685SOL     OW14953   2.245   4.604   6.517
 4685SOL    HW114954   2.313   4.532   6.529
 4685SOL    HW214955   2.153   4.564   6.522
 4686SOL     OW14956   4.134   5.912   6.956
 4686SOL    HW114957   4.213   5.938   6.901
 4686SOL    HW214958   4.113   5.815   6.941
 4687SOL     OW14959   4.711   2.816   4.103
 4687SOL    HW114960   4.620   2.797   4.139
 4687SOL    HW214961   4.744   2.903   4.140
 4688SOL     OW14962   5.995   2.699   4.956
 4688SOL    HW114963   6.001   2.758   4.876
 4688SOL    HW214964   6.038   2.743   5.035
 4689SOL     OW14965   5.830   1.053   0.675
 4689SOL    HW114966   5.753   1.117   0.684
 4689SOL    HW214967   5.794   0.960   0.661
 4690SOL     OW14968   2.287   0.579   0.813
 4690SOL    HW114969   2.210   0.540   0.762
 4690SOL    HW214970   2.372   0.562   0.762
 4691SOL     OW14971   3.336   3.727   0.456
 4691SOL    HW114972   3.327   3.823   0.429
 4691SOL    HW214973   3.406   3.683   0.400
 4692SOL     OW14974   5.705   5.161   2.903
 4692SOL    HW114975   5.710   5.067   2.871
 4692SOL    HW214976   5.700   5.223   2.824
 4693SOL     OW14977   1.104   0.406   3.756
 4693SOL    HW114978   1.011   0.394   3.720
 4693SOL    HW214979   1.115   0.351   3.838
 4694SOL     OW14980   2.145   1.806   0.168
 4694SOL    HW114981   2.221   1.806   0.102
 4694SOL    HW214982   2.162   1.736   0.237
 4695SOL     OW14983   1.139   5.442   0.731
 4695SOL    HW114984   1.055   5.495   0.742
 4695SOL    HW214985   1.218   5.504   0.730
 4696SOL     OW14986   0.352   5.768   5.919
 4696SOL    HW114987   0.418   5.825   5.968
 4696SOL    HW214988   0.260   5.783   5.956
 4697SOL     OW14989   0.925   3.951   2.255
 4697SOL    HW114990   0.849   3.890   2.276
 4697SOL    HW214991   0.971   3.919   2.172
 4698SOL     OW14992   4.625   6.482   3.099
 4698SOL    HW114993   4.558   6.457   3.169
 4698SOL    HW214994   4.674   6.400   3.070
 4699SOL     OW14995   0.677   6.441   2.833
 4699SOL    HW114996   0.646   6.478   2.921
 4699SOL    HW214997   0.619   6.476   2.760
 4700SOL     OW14998   6.106   2.295   2.223
 4700SOL    HW114999   6.048   2.273   2.145
 4700SOL    HW215000   6.134   2.211   2.269
 4701SOL     OW15001   3.462   2.017   0.408
 4701SOL    HW115002   3.491   2.081   0.480
 4701SOL    HW215003   3.517   2.033   0.326
 4702SOL     OW15004   4.469   4.710   0.511
 4702SOL    HW115005   4.467   4.624   0.459
 4702SOL    HW215006   4.563   4.741   0.520
 4703SOL     OW15007   1.134   6.563   3.040
 4703SOL    HW115008   1.087   6.483   3.003
 4703SOL    HW215009   1.216   6.534   3.089
 4704SOL     OW15010   6.276   5.658   6.612
 4704SOL    HW115011   6.209   5.584   6.605
 4704SOL    HW215012   6.264   5.720   6.534
 4705SOL     OW15013   3.828   2.446   0.878
 4705SOL    HW115014   3.787   2.420   0.790
 4705SOL    HW215015   3.849   2.363   0.930
 4706SOL     OW15016   1.683   0.531   0.482
 4706SOL    HW115017   1.698   0.630   0.485
 4706SOL    HW215018   1.623   0.504   0.557
 4707SOL     OW15019   1.206   6.277   1.695
 4707SOL    HW115020   1.201   6.234   1.785
 4707SOL    HW215021   1.134   6.346   1.687
 4708SOL     OW15022   1.296   1.826   5.726
 4708SOL    HW115023   1.372   1.787   5.778
 4708SOL    HW215024   1.331   1.865   5.641
 4709SOL     OW15025   4.788   5.402   5.223
 4709SOL    HW115026   4.729   5.479   5.245
 4709SOL    HW215027   4.840   5.422   5.139
 4710SOL     OW15028   5.654   6.939   6.034
 4710SOL    HW115029   5.594   6.959   5.956
 4710SOL    HW215030   5.636   7.005   6.107
 4711SOL     OW15031   6.629   1.534   2.253
 4711SOL    HW115032   6.644   1.510   2.157
 4711SOL    HW215033   6.547   1.488   2.286
 4712SOL     OW15034   3.408   4.829   6.536
 4712SOL    HW115035   3.362   4.897   6.479
 4712SOL    HW215036   3.429   4.869   6.625
 4713SOL     OW15037   3.999   5.142   0.920
 4713SOL    HW115038   3.937   5.143   0.841
 4713SOL    HW215039   4.051   5.228   0.922
 4714SOL     OW15040   0.361   1.383   5.907
 4714SOL    HW115041   0.353   1.313   5.978
 4714SOL    HW215042   0.421   1.349   5.834
 4715SOL     OW15043   5.956   3.334   1.698
 4715SOL    HW115044   5.979   3.248   1.650
 4715SOL    HW215045   5.939   3.406   1.630
 4716SOL     OW15046   4.294   6.561   5.488
 4716SOL    HW115047   4.346   6.493   5.541
 4716SOL    HW215048   4.202   6.570   5.526
 4717SOL     OW15049   0.748   5.724   4.894
 4717SOL    HW115050   0.706   5.657   4.833
 4717SOL    HW215051   0.828   5.685   4.938
 4718SOL     OW15052   5.346   2.273   1.190
 4718SOL    HW115053   5.399   2.356   1.176
 4718SOL    HW215054   5.248   2.295   1.183
 4719SOL     OW15055   5.026   3.783   2.408
 4719SOL    HW115056   4.966   3.821   2.479
 4719SOL    HW215057   4.995   3.692   2.383
 4720SOL     OW15058   1.966   5.110   6.032
 4720SOL    HW115059   2.059   5.135   6.005
 4720SOL    HW215060   1.908   5.191   6.036
 4721SOL     OW15061   6.466   1.945   1.692
 4721SOL    HW115062   6.449   2.024   1.633
 4721SOL    HW215063   6.477   1.976   1.786
 4722SOL     OW15064   1.101   6.328   6.496
 4722SOL    HW115065   1.071   6.243   6.454
 4722SOL    HW215066   1.175   6.310   6.561
 4723SOL     OW15067   2.907   3.460   5.085
 4723SOL    HW115068   2.830   3.451   5.148
 4723SOL    HW215069   2.916   3.376   5.031
 4724SOL     OW15070   6.965   0.074   4.371
 4724SOL    HW115071   7.001   0.147   4.430
 4724SOL    HW215072   6.905   0.015   4.425
 4725SOL     OW15073   6.459   5.067   0.269
 4725SOL    HW115074   6.370   5.091   0.229
 4725SOL    HW215075   6.516   5.024   0.200
 4726SOL     OW15076   1.315   3.582   6.148
 4726SOL    HW115077   1.276   3.522   6.078
 4726SOL    HW215078   1.361   3.659   6.104
 4727SOL     OW15079   0.446   6.204   1.480
 4727SOL    HW115080   0.380   6.171   1.413
 4727SOL    HW215081   0.483   6.127   1.533
 4728SOL     OW15082   6.578   0.693   2.715
 4728SOL    HW115083   6.597   0.728   2.806
 4728SOL    HW215084   6.484   0.659   2.711
 4729SOL     OW15085   4.850   0.816   0.331
 4729SOL    HW115086   4.931   0.841   0.385
 4729SOL    HW215087   4.805   0.898   0.297
 4730SOL     OW15088   3.529   5.805   5.435
 4730SOL    HW115089   3.592   5.796   5.357
 4730SOL    HW215090   3.489   5.896   5.434
 4731SOL     OW15091   2.964   1.096   0.599
 4731SOL    HW115092   3.021   1.163   0.646
 4731SOL    HW215093   2.928   1.136   0.514
 4732SOL     OW15094   0.643   3.285   5.262
 4732SOL    HW115095   0.668   3.381   5.251
 4732SOL    HW215096   0.717   3.227   5.231
 4733SOL     OW15097   1.281   3.837   3.371
 4733SOL    HW115098   1.282   3.749   3.324
 4733SOL    HW215099   1.200   3.889   3.343
 4734SOL     OW15100   4.502   3.077   0.592
 4734SOL    HW115101   4.440   3.040   0.522
 4734SOL    HW215102   4.459   3.154   0.637
 4735SOL     OW15103   6.573   5.697   4.269
 4735SOL    HW115104   6.517   5.693   4.186
 4735SOL    HW215105   6.531   5.760   4.334
 4736SOL     OW15106   5.599   2.010   5.613
 4736SOL    HW115107   5.529   1.969   5.672
 4736SOL    HW215108   5.689   1.994   5.652
 4737SOL     OW15109   2.801   4.251   0.585
 4737SOL    HW115110   2.852   4.336   0.573
 4737SOL    HW215111   2.703   4.271   0.589
 4738SOL     OW15112   2.919   6.346   3.092
 4738SOL    HW115113   2.950   6.266   3.042
 4738SOL    HW215114   2.855   6.318   3.164
 4739SOL     OW15115   5.161   1.459   3.418
 4739SOL    HW115116   5.152   1.389   3.346
 4739SOL    HW215117   5.211   1.537   3.381
 4740SOL     OW15118   0.299   0.254   0.764
 4740SOL    HW115119   0.262   0.285   0.851
 4740SOL    HW215120   0.290   0.327   0.696
 4741SOL     OW15121   4.283   3.654   1.412
 4741SOL    HW115122   4.336   3.701   1.342
 4741SOL    HW215123   4.344   3.619   1.483
 4742SOL     OW15124   3.107   6.503   1.505
 4742SOL    HW115125   3.124   6.411   1.470
 4742SOL    HW215126   3.017   6.535   1.475
 4743SOL     OW15127   1.571   2.430   5.553
 4743SOL    HW115128   1.516   2.483   5.617
 4743SOL    HW215129   1.513   2.362   5.508
 4744SOL     OW15130   2.649   3.466   5.958
 4744SOL    HW115131   2.679   3.480   5.864
 4744SOL    HW215132   2.679   3.376   5.989
 4745SOL     OW15133   2.314   5.623   5.137
 4745SOL    HW115134   2.376   5.622   5.060
 4745SOL    HW215135   2.252   5.545   5.132
 4746SOL     OW15136   6.609   6.028   2.460
 4746SOL    HW115137   6.537   5.961   2.478
 4746SOL    HW215138   6.577   6.094   2.393
 4747SOL     OW15139   1.771   3.629   6.345
 4747SOL    HW115140   1.791   3.532   6.360
 4747SOL    HW215141   1.755   3.673   6.434
 4748SOL     OW15142   1.573   5.337   1.003
 4748SOL    HW115143   1.587   5.426   1.046
 4748SOL    HW215144   1.591   5.265   1.070
 4749SOL     OW15145   3.061   6.299   5.491
 4749SOL    HW115146   3.153   6.332   5.468
 4749SOL    HW215147   3.045   6.312   5.589
 4750SOL     OW15148   0.265   3.116   4.340
 4750SOL    HW115149   0.342   3.086   4.284
 4750SOL    HW215150   0.299   3.161   4.423
 4751SOL     OW15151   2.509   2.771   0.158
 4751SOL    HW115152   2.439   2.841   0.170
 4751SOL    HW215153   2.483   2.710   0.083
 4752SOL     OW15154   2.954   0.116   0.114
 4752SOL    HW115155   2.948   0.035   0.173
 4752SOL    HW215156   2.891   0.186   0.147
 4753SOL     OW15157   5.288   0.065   4.321
 4753SOL    HW115158   5.374   0.101   4.357
 4753SOL    HW215159   5.306   7.007   4.259
 4754SOL     OW15160   5.914   0.304   5.670
 4754SOL    HW115161   6.007   0.267   5.670
 4754SOL    HW215162   5.909   0.385   5.613
 4755SOL     OW15163   2.735   0.689   0.761
 4755SOL    HW115164   2.668   0.752   0.723
 4755SOL    HW215165   2.820   0.694   0.709
 4756SOL     OW15166   5.955   2.788   1.090
 4756SOL    HW115167   5.988   2.761   1.180
 4756SOL    HW215168   5.855   2.794   1.091
 4757SOL     OW15169   1.368   2.174   2.131
 4757SOL    HW115170   1.336   2.239   2.200
 4757SOL    HW215171   1.465   2.190   2.112
 4758SOL     OW15172   3.174   6.025   4.951
 4758SOL    HW115173   3.179   6.123   4.968
 4758SOL    HW215174   3.191   6.006   4.855
 4759SOL     OW15175   5.685   5.381   4.700
 4759SOL    HW115176   5.781   5.371   4.675
 4759SOL    HW215177   5.630   5.316   4.647
 4760SOL     OW15178   3.602   2.089   0.978
 4760SOL    HW115179   3.667   2.054   0.910
 4760SOL    HW215180   3.510   2.056   0.956
 4761SOL     OW15181   0.557   6.891   6.572
 4761SOL    HW115182   0.557   6.812   6.511
 4761SOL    HW215183   0.463   6.919   6.590
 4762SOL     OW15184   2.342   5.263   2.813
 4762SOL    HW115185   2.320   5.204   2.891
 4762SOL    HW215186   2.364   5.354   2.846
 4763SOL     OW15187   6.015   5.995   3.607
 4763SOL    HW115188   6.105   5.959   3.629
 4763SOL    HW215189   6.020   6.047   3.521
 4764SOL     OW15190   4.678   4.221   5.383
 4764SOL    HW115191   4.589   4.231   5.338
 4764SOL    HW215192   4.673   4.148   5.450
 4765SOL     OW15193   5.083   0.099   4.488
 4765SOL    HW115194   5.165   0.087   4.433
 4765SOL    HW215195   5.065   0.016   4.541
 4766SOL     OW15196   4.542   0.141   3.819
 4766SOL    HW115197   4.641   0.143   3.806
 4766SOL    HW215198   4.500   0.218   3.772
 4767SOL     OW15199   3.870   5.616   5.985
 4767SOL    HW115200   3.847   5.545   6.052
 4767SOL    HW215201   3.834   5.704   6.016
 4768SOL     OW15202   4.391   2.026   5.186
 4768SOL    HW115203   4.455   2.082   5.134
 4768SOL    HW215204   4.381   1.937   5.141
 4769SOL     OW15205   4.580   4.967   0.883
 4769SOL    HW115206   4.484   4.972   0.855
 4769SOL    HW215207   4.612   5.058   0.907
 4770SOL     OW15208   1.006   6.771   3.937
 4770SOL    HW115209   0.925   6.811   3.981
 4770SOL    HW215210   0.994   6.772   3.838
 4771SOL     OW15211   3.646   5.297   5.470
 4771SOL    HW115212   3.599   5.251   5.545
 4771SOL    HW215213   3.694   5.230   5.414
 4772SOL     OW15214   2.551   5.854   1.732
 4772SOL    HW115215   2.489   5.933   1.736
 4772SOL    HW215216   2.520   5.783   1.795
 4773SOL     OW15217   6.432   5.484   4.953
 4773SOL    HW115218   6.365   5.514   5.022
 4773SOL    HW215219   6.489   5.561   4.926
 4774SOL     OW15220   1.061   2.508   1.591
 4774SOL    HW115221   1.080   2.604   1.575
 4774SOL    HW215222   0.994   2.474   1.525
 4775SOL     OW15223   5.128   6.891   2.656
 4775SOL    HW115224   5.063   6.866   2.728
 4775SOL    HW215225   5.153   6.810   2.604
 4776SOL     OW15226   1.291   6.602   4.518
 4776SOL    HW115227   1.387   6.626   4.534
 4776SOL    HW215228   1.246   6.676   4.468
 4777SOL     OW15229   2.836   4.712   1.564
 4777SOL    HW115230   2.773   4.700   1.640
 4777SOL    HW215231   2.785   4.710   1.478
 4778SOL     OW15232   5.676   2.532   2.523
 4778SOL    HW115233   5.725   2.493   2.446
 4778SOL    HW215234   5.598   2.474   2.547
 4779SOL     OW15235   6.410   6.261   2.371
 4779SOL    HW115236   6.463   6.294   2.293
 4779SOL    HW215237   6.423   6.322   2.449
 4780SOL     OW15238   0.079   0.430   0.637
 4780SOL    HW115239   0.030   0.514   0.662
 4780SOL    HW215240   0.039   0.352   0.685
 4781SOL     OW15241   2.973   6.629   1.272
 4781SOL    HW115242   2.886   6.678   1.276
 4781SOL    HW215243   3.041   6.686   1.228
 4782SOL     OW15244   4.768   6.124   0.681
 4782SOL    HW115245   4.856   6.091   0.645
 4782SOL    HW215246   4.741   6.068   0.759
 4783SOL     OW15247   4.397   4.229   6.893
 4783SOL    HW115248   4.299   4.242   6.884
 4783SOL    HW215249   4.446   4.307   6.855
 4784SOL     OW15250   6.452   4.052   6.264
 4784SOL    HW115251   6.423   4.145   6.286
 4784SOL    HW215252   6.551   4.051   6.245
 4785SOL     OW15253   6.227   5.769   1.772
 4785SOL    HW115254   6.310   5.818   1.747
 4785SOL    HW215255   6.179   5.740   1.689
 4786SOL     OW15256   2.615   2.276   1.636
 4786SOL    HW115257   2.611   2.182   1.668
 4786SOL    HW215258   2.633   2.337   1.713
 4787SOL     OW15259   3.044   2.141   3.356
 4787SOL    HW115260   2.986   2.221   3.366
 4787SOL    HW215261   3.086   2.119   3.445
 4788SOL     OW15262   1.061   5.152   6.101
 4788SOL    HW115263   1.072   5.056   6.130
 4788SOL    HW215264   1.150   5.197   6.103
 4789SOL     OW15265   5.834   1.111   0.335
 4789SOL    HW115266   5.928   1.079   0.323
 4789SOL    HW215267   5.783   1.044   0.389
 4790SOL     OW15268   0.307   2.841   6.007
 4790SOL    HW115269   0.328   2.884   5.919
 4790SOL    HW215270   0.239   2.769   5.993
 4791SOL     OW15271   6.203   1.918   1.592
 4791SOL    HW115272   6.214   1.904   1.494
 4791SOL    HW215273   6.292   1.907   1.638
 4792SOL     OW15274   1.676   3.369   2.670
 4792SOL    HW115275   1.612   3.430   2.717
 4792SOL    HW215276   1.769   3.405   2.677
 4793SOL     OW15277   1.494   2.485   5.847
 4793SOL    HW115278   1.489   2.575   5.802
 4793SOL    HW215279   1.460   2.493   5.941
 4794SOL     OW15280   4.848   0.648   3.116
 4794SOL    HW115281   4.754   0.681   3.106
 4794SOL    HW215282   4.876   0.603   3.032
 4795SOL     OW15283   6.282   1.555   2.770
 4795SOL    HW115284   6.311   1.642   2.812
 4795SOL    HW215285   6.357   1.520   2.714
 4796SOL     OW15286   5.139   2.156   6.481
 4796SOL    HW115287   5.111   2.136   6.387
 4796SOL    HW215288   5.061   2.147   6.542
 4797SOL     OW15289   1.598   6.230   5.725
 4797SOL    HW115290   1.655   6.265   5.650
 4797SOL    HW215291   1.652   6.167   5.781
 4798SOL     OW15292   0.416   2.901   5.048
 4798SOL    HW115293   0.422   2.959   4.967
 4798SOL    HW215294   0.342   2.835   5.036
 4799SOL     OW15295   4.869   2.021   6.503
 4799SOL    HW115296   4.773   1.995   6.500
 4799SOL    HW215297   4.923   1.957   6.448
 4800SOL     OW15298   2.617   3.368   5.688
 4800SOL    HW115299   2.672   3.286   5.675
 4800SOL    HW215300   2.527   3.343   5.723
 4801SOL     OW15301   2.665   2.402   1.048
 4801SOL    HW115302   2.614   2.317   1.063
 4801SOL    HW215303   2.761   2.387   1.068
 4802SOL     OW15304   1.183   6.321   2.121
 4802SOL    HW115305   1.225   6.266   2.049
 4802SOL    HW215306   1.220   6.293   2.210
 4803SOL     OW15307   1.229   6.316   0.964
 4803SOL    HW115308   1.328   6.303   0.976
 4803SOL    HW215309   1.212   6.373   0.884
 4804SOL     OW15310   4.938   5.537   6.475
 4804SOL    HW115311   4.858   5.586   6.441
 4804SOL    HW215312   5.020   5.570   6.428
 4805SOL     OW15313   5.868   0.213   1.109
 4805SOL    HW115314   5.833   0.137   1.164
 4805SOL    HW215315   5.968   0.214   1.116
 4806SOL     OW15316   0.856   4.144   2.907
 4806SOL    HW115317   0.778   4.121   2.850
 4806SOL    HW215318   0.940   4.116   2.861
 4807SOL     OW15319   1.139   4.749   0.415
 4807SOL    HW115320   1.133   4.802   0.500
 4807SOL    HW215321   1.112   4.655   0.433
 4808SOL     OW15322   6.299   3.700   6.794
 4808SOL    HW115323   6.345   3.754   6.724
 4808SOL    HW215324   6.354   3.620   6.816
 4809SOL     OW15325   3.671   3.931   6.752
 4809SOL    HW115326   3.626   3.914   6.664
 4809SOL    HW215327   3.673   4.030   6.769
 4810SOL     OW15328   1.166   5.021   2.215
 4810SOL    HW115329   1.091   4.972   2.169
 4810SOL    HW215330   1.128   5.083   2.284
 4811SOL     OW15331   1.787   4.792   2.140
 4811SOL    HW115332   1.746   4.858   2.203
 4811SOL    HW215333   1.730   4.783   2.058
 4812SOL     OW15334   0.079   5.222   5.196
 4812SOL    HW115335   7.000   5.240   5.186
 4812SOL    HW215336   0.096   5.124   5.182
 4813SOL     OW15337   5.347   2.053   0.783
 4813SOL    HW115338   5.296   2.032   0.699
 4813SOL    HW215339   5.443   2.028   0.771
 4814SOL     OW15340   5.753   3.975   0.377
 4814SOL    HW115341   5.690   4.043   0.416
 4814SOL    HW215342   5.707   3.925   0.304
 4815SOL     OW15343   5.776   4.354   2.950
 4815SOL    HW115344   5.775   4.322   3.045
 4815SOL    HW215345   5.690   4.402   2.930
 4816SOL     OW15346   0.382   5.374   2.126
 4816SOL    HW115347   0.428   5.328   2.202
 4816SOL    HW215348   0.383   5.473   2.142
 4817SOL     OW15349   1.310   1.943   6.407
 4817SOL    HW115350   1.246   1.866   6.406
 4817SOL    HW215351   1.383   1.925   6.341
 4818SOL     OW15352   1.053   0.662   4.891
 4818SOL    HW115353   1.125   0.595   4.871
 4818SOL    HW215354   0.986   0.621   4.953
 4819SOL     OW15355   1.009   2.621   0.068
 4819SOL    HW115356   1.104   2.650   0.078
 4819SOL    HW215357   0.997   2.573   6.999
 4820SOL     OW15358   6.865   2.855   1.040
 4820SOL    HW115359   6.813   2.846   0.955
 4820SOL    HW215360   6.888   2.951   1.055
 4821SOL     OW15361   1.402   6.073   2.448
 4821SOL    HW115362   1.362   6.011   2.515
 4821SOL    HW215363   1.501   6.067   2.452
 4822SOL     OW15364   1.424   3.264   4.896
 4822SOL    HW115365   1.453   3.293   4.987
 4822SOL    HW215366   1.494   3.287   4.829
 4823SOL     OW15367   1.510   1.590   4.372
 4823SOL    HW115368   1.530   1.570   4.276
 4823SOL    HW215369   1.582   1.648   4.410
 4824SOL     OW15370   4.526   2.190   5.016
 4824SOL    HW115371   4.579   2.113   4.980
 4824SOL    HW215372   4.504   2.253   4.942
 4825SOL     OW15373   1.427   2.546   4.552
 4825SOL    HW115374   1.404   2.611   4.479
 4825SOL    HW215375   1.449   2.597   4.636
 4826SOL     OW15376   5.592   0.730   0.283
 4826SOL    HW115377   5.578   0.808   0.221
 4826SOL    HW215378   5.635   0.655   0.232
 4827SOL     OW15379   6.419   1.920   0.419
 4827SOL    HW115380   6.392   1.824   0.418
 4827SOL    HW215381   6.465   1.943   0.333
 4828SOL     OW15382   5.113   1.233   0.838
 4828SOL    HW115383   5.128   1.326   0.871
 4828SOL    HW215384   5.015   1.211   0.842
 4829SOL     OW15385   3.602   0.561   5.969
 4829SOL    HW115386   3.660   0.623   5.917
 4829SOL    HW215387   3.548   0.506   5.906
 4830SOL     OW15388   3.573   5.793   4.085
 4830SOL    HW115389   3.578   5.837   3.995
 4830SOL    HW215390   3.485   5.812   4.128
 4831SOL     OW15391   1.701   4.724   5.384
 4831SOL    HW115392   1.793   4.697   5.413
 4831SOL    HW215393   1.700   4.733   5.284
 4832SOL     OW15394   3.713   4.117   3.701
 4832SOL    HW115395   3.718   4.189   3.770
 4832SOL    HW215396   3.623   4.116   3.659
 4833SOL     OW15397   6.148   1.737   3.099
 4833SOL    HW115398   6.142   1.770   3.193
 4833SOL    HW215399   6.057   1.735   3.058
 4834SOL     OW15400   2.665   5.720   2.103
 4834SOL    HW115401   2.744   5.728   2.162
 4834SOL    HW215402   2.632   5.811   2.077
 4835SOL     OW15403   5.736   3.168   6.036
 4835SOL    HW115404   5.781   3.256   6.026
 4835SOL    HW215405   5.756   3.110   5.957
 4836SOL     OW15406   5.009   1.965   4.622
 4836SOL    HW115407   5.083   2.016   4.579
 4836SOL    HW215408   5.009   1.871   4.587
 4837SOL     OW15409   7.008   3.085   2.836
 4837SOL    HW115410   6.974   3.176   2.860
 4837SOL    HW215411   7.006   3.026   2.917
 4838SOL     OW15412   2.242   5.923   0.250
 4838SOL    HW115413   2.341   5.906   0.244
 4838SOL    HW215414   2.224   6.018   0.225
 4839SOL     OW15415   1.260   3.545   0.230
 4839SOL    HW115416   1.183   3.607   0.244
 4839SOL    HW215417   1.231   3.451   0.251
 4840SOL     OW15418   6.544   4.690   5.916
 4840SOL    HW115419   6.501   4.627   5.980
 4840SOL    HW215420   6.541   4.651   5.824
 4841SOL     OW15421   2.450   4.906   3.320
 4841SOL    HW115422   2.477   4.920   3.225
 4841SOL    HW215423   2.389   4.828   3.327
 4842SOL     OW15424   2.622   4.948   3.535
 4842SOL    HW115425   2.554   4.948   3.462
 4842SOL    HW215426   2.675   4.863   3.532
 4843SOL     OW15427   6.869   2.693   1.558
 4843SOL    HW115428   6.851   2.599   1.529
 4843SOL    HW215429   6.894   2.749   1.479
 4844SOL     OW15430   0.190   4.020   5.458
 4844SOL    HW115431   0.141   3.999   5.374
 4844SOL    HW215432   0.277   4.063   5.436
 4845SOL     OW15433   4.769   5.130   6.388
 4845SOL    HW115434   4.748   5.132   6.486
 4845SOL    HW215435   4.740   5.217   6.347
 4846SOL     OW15436   0.200   1.867   3.576
 4846SOL    HW115437   0.242   1.916   3.500
 4846SOL    HW215438   0.226   1.771   3.574
 4847SOL     OW15439   2.307   1.696   5.898
 4847SOL    HW115440   2.256   1.781   5.890
 4847SOL    HW215441   2.404   1.716   5.913
 4848SOL     OW15442   2.834   1.173   4.756
 4848SOL    HW115443   2.739   1.145   4.743
 4848SOL    HW215444   2.849   1.194   4.853
 4849SOL     OW15445   1.750   5.756   0.960
 4849SOL    HW115446   1.748   5.811   1.043
 4849SOL    HW215447   1.713   5.809   0.884
 4850SOL     OW15448   5.163   1.168   1.417
 4850SOL    HW115449   5.197   1.252   1.458
 4850SOL    HW215450   5.235   1.125   1.363
 4851SOL     OW15451   3.116   5.425   5.776
 4851SOL    HW115452   3.024   5.457   5.754
 4851SOL    HW215453   3.183   5.496   5.753
 4852SOL     OW15454   2.797   5.840   5.087
 4852SOL    HW115455   2.762   5.820   4.995
 4852SOL    HW215456   2.862   5.769   5.114
 4853SOL     OW15457   4.045   1.504   3.357
 4853SOL    HW115458   4.068   1.523   3.453
 4853SOL    HW215459   4.019   1.590   3.312
 4854SOL     OW15460   4.810   0.051   2.060
 4854SOL    HW115461   4.872   0.095   2.125
 4854SOL    HW215462   4.735   0.114   2.038
 4855SOL     OW15463   6.271   3.656   5.260
 4855SOL    HW115464   6.285   3.575   5.203
 4855SOL    HW215465   6.217   3.631   5.340
 4856SOL     OW15466   1.170   2.960   2.843
 4856SOL    HW115467   1.136   2.866   2.844
 4856SOL    HW215468   1.270   2.959   2.852
 4857SOL     OW15469   2.882   1.880   3.443
 4857SOL    HW115470   2.936   1.866   3.359
 4857SOL    HW215471   2.838   1.969   3.439
 4858SOL     OW15472   6.972   6.664   4.990
 4858SOL    HW115473   6.962   6.570   4.957
 4858SOL    HW215474   6.883   6.708   4.993
 4859SOL     OW15475   0.801   5.365   1.733
 4859SOL    HW115476   0.790   5.382   1.831
 4859SOL    HW215477   0.782   5.449   1.682
 4860SOL     OW15478   4.187   4.648   0.324
 4860SOL    HW115479   4.158   4.553   0.338
 4860SOL    HW215480   4.183   4.698   0.411
 4861SOL     OW15481   5.928   5.329   6.458
 4861SOL    HW115482   5.900   5.234   6.449
 4861SOL    HW215483   5.931   5.372   6.368
 4862SOL     OW15484   2.350   4.514   4.842
 4862SOL    HW115485   2.365   4.585   4.773
 4862SOL    HW215486   2.420   4.521   4.913
 4863SOL     OW15487   5.066   3.162   2.496
 4863SOL    HW115488   5.049   3.255   2.464
 4863SOL    HW215489   4.980   3.120   2.525
 4864SOL     OW15490   3.603   1.623   1.877
 4864SOL    HW115491   3.506   1.601   1.884
 4864SOL    HW215492   3.614   1.710   1.829
 4865SOL     OW15493   2.905   6.092   4.908
 4865SOL    HW115494   2.850   6.017   4.874
 4865SOL    HW215495   2.996   6.058   4.933
 4866SOL     OW15496   5.904   4.526   1.051
 4866SOL    HW115497   5.922   4.624   1.051
 4866SOL    HW215498   5.885   4.496   1.144
 4867SOL     OW15499   4.674   5.829   3.712
 4867SOL    HW115500   4.729   5.910   3.730
 4867SOL    HW215501   4.634   5.835   3.621
 4868SOL     OW15502   6.898   5.312   1.701
 4868SOL    HW115503   6.942   5.329   1.613
 4868SOL    HW215504   6.935   5.375   1.770
 4869SOL     OW15505   0.467   2.635   0.885
 4869SOL    HW115506   0.526   2.623   0.965
 4869SOL    HW215507   0.387   2.577   0.893
 4870SOL     OW15508   5.240   5.216   1.616
 4870SOL    HW115509   5.164   5.157   1.643
 4870SOL    HW215510   5.221   5.257   1.527
 4871SOL     OW15511   0.141   0.826   4.501
 4871SOL    HW115512   0.147   0.821   4.601
 4871SOL    HW215513   0.164   0.738   4.462
 4872SOL     OW15514   0.841   6.026   4.191
 4872SOL    HW115515   0.884   6.103   4.145
 4872SOL    HW215516   0.806   6.055   4.280
 4873SOL     OW15517   0.073   4.850   3.935
 4873SOL    HW115518   0.102   4.858   4.030
 4873SOL    HW215519   0.153   4.842   3.876
 4874SOL     OW15520   5.944   3.637   2.266
 4874SOL    HW115521   6.012   3.603   2.331
 4874SOL    HW215522   5.927   3.734   2.284
 4875SOL     OW15523   5.453   2.831   1.006
 4875SOL    HW115524   5.453   2.854   0.908
 4875SOL    HW215525   5.358   2.826   1.038
 4876SOL     OW15526   6.341   0.432   4.708
 4876SOL    HW115527   6.249   0.397   4.692
 4876SOL    HW215528   6.357   0.512   4.650
 4877SOL     OW15529   6.495   1.544   0.603
 4877SOL    HW115530   6.528   1.533   0.696
 4877SOL    HW215531   6.570   1.529   0.538
 4878SOL     OW15532   6.660   2.142   2.373
 4878SOL    HW115533   6.731   2.152   2.303
 4878SOL    HW215534   6.687   2.193   2.455
 4879SOL     OW15535   4.049   5.102   3.553
 4879SOL    HW115536   3.972   5.039   3.560
 4879SOL    HW215537   4.070   5.119   3.457
 4880SOL     OW15538   5.210   2.826   6.792
 4880SOL    HW115539   5.130   2.768   6.779
 4880SOL    HW215540   5.278   2.805   6.721
 4881SOL     OW15541   2.061   5.773   0.123
 4881SOL    HW115542   2.122   5.846   0.152
 4881SOL    HW215543   1.968   5.793   0.153
 4882SOL     OW15544   6.172   1.270   4.986
 4882SOL    HW115545   6.100   1.212   4.947
 4882SOL    HW215546   6.140   1.365   4.990
 4883SOL     OW15547   5.208   4.651   2.297
 4883SOL    HW115548   5.146   4.590   2.346
 4883SOL    HW215549   5.302   4.631   2.324
 4884SOL     OW15550   4.307   0.161   0.729
 4884SOL    HW115551   4.368   0.157   0.649
 4884SOL    HW215552   4.239   0.087   0.723
 4885SOL     OW15553   3.081   6.167   2.703
 4885SOL    HW115554   3.014   6.123   2.644
 4885SOL    HW215555   3.152   6.209   2.647
 4886SOL     OW15556   0.219   5.926   6.246
 4886SOL    HW115557   0.252   6.011   6.204
 4886SOL    HW215558   0.171   5.948   6.331
 4887SOL     OW15559   0.211   1.631   2.825
 4887SOL    HW115560   0.274   1.666   2.894
 4887SOL    HW215561   0.258   1.627   2.736
 4888SOL     OW15562   1.820   6.389   3.779
 4888SOL    HW115563   1.788   6.484   3.784
 4888SOL    HW215564   1.908   6.386   3.731
 4889SOL     OW15565   0.565   1.820   6.894
 4889SOL    HW115566   0.613   1.874   6.963
 4889SOL    HW215567   0.628   1.757   6.850
 4890SOL     OW15568   0.542   1.695   4.617
 4890SOL    HW115569   0.464   1.754   4.638
 4890SOL    HW215570   0.509   1.601   4.601
 4891SOL     OW15571   1.204   5.698   6.716
 4891SOL    HW115572   1.174   5.790   6.740
 4891SOL    HW215573   1.220   5.645   6.800
 4892SOL     OW15574   2.380   6.182   2.291
 4892SOL    HW115575   2.386   6.090   2.253
 4892SOL    HW215576   2.454   6.238   2.254
 4893SOL     OW15577   6.505   4.323   6.550
 4893SOL    HW115578   6.594   4.276   6.550
 4893SOL    HW215579   6.469   4.327   6.457
 4894SOL     OW15580   2.704   0.354   2.053
 4894SOL    HW115581   2.682   0.263   2.019
 4894SOL    HW215582   2.630   0.417   2.027
 4895SOL     OW15583   0.196   4.463   1.194
 4895SOL    HW115584   0.148   4.546   1.222
 4895SOL    HW215585   0.179   4.447   1.096
 4896SOL     OW15586   2.828   5.216   2.808
 4896SOL    HW115587   2.742   5.210   2.758
 4896SOL    HW215588   2.895   5.265   2.752
 4897SOL     OW15589   2.512   5.279   5.828
 4897SOL    HW115590   2.461   5.194   5.820
 4897SOL    HW215591   2.506   5.313   5.923
 4898SOL     OW15592   6.055   1.504   4.996
 4898SOL    HW115593   6.075   1.592   5.038
 4898SOL    HW215594   5.956   1.494   4.984
 4899SOL     OW15595   6.614   4.472   2.613
 4899SOL    HW115596   6.628   4.506   2.706
 4899SOL    HW215597   6.673   4.522   2.549
 4900SOL     OW15598   1.846   5.980   5.517
 4900SOL    HW115599   1.861   6.074   5.549
 4900SOL    HW215600   1.925   5.924   5.539
 4901SOL     OW15601   2.317   6.657   5.473
 4901SOL    HW115602   2.401   6.659   5.418
 4901SOL    HW215603   2.276   6.566   5.467
 4902SOL     OW15604   2.278   2.324   4.457
 4902SOL    HW115605   2.187   2.357   4.480
 4902SOL    HW215606   2.272   2.264   4.377
 4903SOL     OW15607   3.422   6.383   6.818
 4903SOL    HW115608   3.468   6.304   6.858
 4903SOL    HW215609   3.425   6.376   6.718
 4904SOL     OW15610   1.889   0.034   3.992
 4904SOL    HW115611   1.986   0.046   3.971
 4904SOL    HW215612   1.850   6.983   3.931
 4905SOL     OW15613   4.464   2.514   2.269
 4905SOL    HW115614   4.550   2.563   2.289
 4905SOL    HW215615   4.391   2.581   2.257
 4906SOL     OW15616   3.577   0.662   6.671
 4906SOL    HW115617   3.539   0.711   6.592
 4906SOL    HW215618   3.675   0.682   6.678
 4907SOL     OW15619   4.012   6.211   2.818
 4907SOL    HW115620   4.090   6.245   2.871
 4907SOL    HW215621   4.002   6.266   2.735
 4908SOL     OW15622   3.733   5.337   6.813
 4908SOL    HW115623   3.691   5.249   6.833
 4908SOL    HW215624   3.781   5.370   6.895
 4909SOL     OW15625   5.982   6.974   6.560
 4909SOL    HW115626   6.046   7.001   6.632
 4909SOL    HW215627   6.001   0.008   6.477
 4910SOL     OW15628   5.659   0.091   5.405
 4910SOL    HW115629   5.745   0.070   5.358
 4910SOL    HW215630   5.589   0.025   5.375
 4911SOL     OW15631   6.937   2.550   5.698
 4911SOL    HW115632   6.867   2.570   5.767
 4911SOL    HW215633   6.897   2.493   5.626
 4912SOL     OW15634   5.273   1.905   1.358
 4912SOL    HW115635   5.329   1.979   1.393
 4912SOL    HW215636   5.181   1.938   1.340
 4913SOL     OW15637   3.573   3.610   3.856
 4913SOL    HW115638   3.668   3.592   3.885
 4913SOL    HW215639   3.511   3.589   3.932
 4914SOL     OW15640   3.588   0.809   4.882
 4914SOL    HW115641   3.504   0.760   4.904
 4914SOL    HW215642   3.665   0.745   4.882
 4915SOL     OW15643   4.512   0.416   4.572
 4915SOL    HW115644   4.583   0.410   4.643
 4915SOL    HW215645   4.490   0.324   4.539
 4916SOL     OW15646   1.855   1.750   2.990
 4916SOL    HW115647   1.948   1.732   2.959
 4916SOL    HW215648   1.790   1.697   2.935
 4917SOL     OW15649   1.796   3.901   0.397
 4917SOL    HW115650   1.766   3.954   0.318
 4917SOL    HW215651   1.781   3.804   0.380
 4918SOL     OW15652   3.302   0.362   3.000
 4918SOL    HW115653   3.321   0.343   3.096
 4918SOL    HW215654   3.365   0.310   2.942
 4919SOL     OW15655   2.182   2.165   2.271
 4919SOL    HW115656   2.234   2.189   2.353
 4919SOL    HW215657   2.224   2.086   2.227
 4920SOL     OW15658   4.132   0.314   6.770
 4920SOL    HW115659   4.195   0.240   6.746
 4920SOL    HW215660   4.082   0.289   6.853
 4921SOL     OW15661   2.219   4.321   1.002
 4921SOL    HW115662   2.281   4.398   1.017
 4921SOL    HW215663   2.177   4.295   1.089
 4922SOL     OW15664   1.118   3.584   4.950
 4922SOL    HW115665   1.112   3.551   4.856
 4922SOL    HW215666   1.208   3.562   4.988
 4923SOL     OW15667   4.785   0.951   1.106
 4923SOL    HW115668   4.845   1.005   1.164
 4923SOL    HW215669   4.741   0.880   1.160
 4924SOL     OW15670   2.268   3.031   5.348
 4924SOL    HW115671   2.270   3.074   5.258
 4924SOL    HW215672   2.359   3.033   5.389
 4925SOL     OW15673   6.203   6.384   0.729
 4925SOL    HW115674   6.253   6.364   0.645
 4925SOL    HW215675   6.253   6.347   0.807
 4926SOL     OW15676   5.436   2.773   1.523
 4926SOL    HW115677   5.429   2.798   1.620
 4926SOL    HW215678   5.367   2.824   1.471
 4927SOL     OW15679   4.140   3.479   3.775
 4927SOL    HW115680   4.166   3.486   3.871
 4927SOL    HW215681   4.092   3.563   3.747
 4928SOL     OW15682   0.312   6.959   6.663
 4928SOL    HW115683   0.252   0.017   6.638
 4928SOL    HW215684   0.260   6.889   6.712
 4929SOL     OW15685   0.946   4.148   5.311
 4929SOL    HW115686   1.016   4.111   5.372
 4929SOL    HW215687   0.938   4.247   5.325
 4930SOL     OW15688   6.631   0.207   1.066
 4930SOL    HW115689   6.640   0.303   1.095
 4930SOL    HW215690   6.624   0.204   0.966
 4931SOL     OW15691   0.659   6.673   0.764
 4931SOL    HW115692   0.673   6.654   0.667
 4931SOL    HW215693   0.577   6.730   0.776
 4932SOL     OW15694   2.273   3.217   1.716
 4932SOL    HW115695   2.180   3.226   1.682
 4932SOL    HW215696   2.305   3.306   1.751
 4933SOL     OW15697   2.081   0.322   4.467
 4933SOL    HW115698   2.080   0.257   4.391
 4933SOL    HW215699   1.987   0.344   4.493
 4934SOL     OW15700   1.245   5.182   4.067
 4934SOL    HW115701   1.147   5.187   4.085
 4934SOL    HW215702   1.279   5.091   4.091
 4935SOL     OW15703   1.808   0.860   7.008
 4935SOL    HW115704   1.766   0.860   6.918
 4935SOL    HW215705   1.768   0.933   0.046
 4936SOL     OW15706   1.781   5.674   2.036
 4936SOL    HW115707   1.812   5.683   2.131
 4936SOL    HW215708   1.861   5.668   1.976
 4937SOL     OW15709   0.505   3.842   5.733
 4937SOL    HW115710   0.409   3.817   5.719
 4937SOL    HW215711   0.511   3.935   5.770
 4938SOL     OW15712   3.472   5.204   1.761
 4938SOL    HW115713   3.490   5.107   1.745
 4938SOL    HW215714   3.388   5.213   1.814
 4939SOL     OW15715   1.235   1.950   2.966
 4939SOL    HW115716   1.232   2.034   3.019
 4939SOL    HW215717   1.195   1.966   2.876
 4940SOL     OW15718   6.466   1.669   5.033
 4940SOL    HW115719   6.477   1.624   5.122
 4940SOL    HW215720   6.431   1.761   5.046
 4941SOL     OW15721   3.991   2.643   5.337
 4941SOL    HW115722   4.039   2.728   5.313
 4941SOL    HW215723   4.029   2.567   5.285
 4942SOL     OW15724   5.173   3.213   4.150
 4942SOL    HW115725   5.248   3.147   4.150
 4942SOL    HW215726   5.158   3.246   4.243
 4943SOL     OW15727   5.429   3.714   6.227
 4943SOL    HW115728   5.525   3.716   6.255
 4943SOL    HW215729   5.390   3.806   6.234
 4944SOL     OW15730   2.364   4.124   1.284
 4944SOL    HW115731   2.302   4.122   1.362
 4944SOL    HW215732   2.455   4.154   1.313
 4945SOL     OW15733   1.197   0.250   4.562
 4945SOL    HW115734   1.166   0.221   4.652
 4945SOL    HW215735   1.296   0.238   4.556
 4946SOL     OW15736   0.996   5.269   0.223
 4946SOL    HW115737   0.902   5.262   0.190
 4946SOL    HW215738   1.053   5.312   0.153
 4947SOL     OW15739   2.627   1.229   1.877
 4947SOL    HW115740   2.679   1.257   1.958
 4947SOL    HW215741   2.691   1.202   1.805
 4948SOL     OW15742   1.909   2.759   3.214
 4948SOL    HW115743   1.873   2.836   3.163
 4948SOL    HW215744   1.927   2.683   3.151
 4949SOL     OW15745   0.144   3.580   5.019
 4949SOL    HW115746   0.065   3.608   4.963
 4949SOL    HW215747   0.134   3.483   5.043
 4950SOL     OW15748   2.013   4.474   5.548
 4950SOL    HW115749   2.026   4.572   5.558
 4950SOL    HW215750   1.923   4.448   5.585
 4951SOL     OW15751   6.332   6.748   4.489
 4951SOL    HW115752   6.267   6.812   4.448
 4951SOL    HW215753   6.381   6.700   4.416
 4952SOL     OW15754   0.834   6.710   6.342
 4952SOL    HW115755   0.912   6.723   6.402
 4952SOL    HW215756   0.763   6.658   6.389
 4953SOL     OW15757   1.666   0.012   3.616
 4953SOL    HW115758   1.569   7.012   3.633
 4953SOL    HW215759   1.695   6.980   3.535
 4954SOL     OW15760   2.856   3.750   6.591
 4954SOL    HW115761   2.801   3.727   6.671
 4954SOL    HW215762   2.803   3.734   6.508
 4955SOL     OW15763   3.185   6.391   0.121
 4955SOL    HW115764   3.098   6.391   0.170
 4955SOL    HW215765   3.258   6.362   0.183
 4956SOL     OW15766   2.516   6.983   5.191
 4956SOL    HW115767   2.557   0.050   5.226
 4956SOL    HW215768   2.493   6.994   5.095
 4957SOL     OW15769   5.363   3.240   0.691
 4957SOL    HW115770   5.282   3.299   0.702
 4957SOL    HW215771   5.374   3.217   0.594
 4958SOL     OW15772   1.918   5.712   6.118
 4958SOL    HW115773   2.005   5.750   6.150
 4958SOL    HW215774   1.881   5.650   6.186
 4959SOL     OW15775   6.227   1.558   1.625
 4959SOL    HW115776   6.139   1.577   1.582
 4959SOL    HW215777   6.253   1.463   1.607
 4960SOL     OW15778   4.369   4.607   3.933
 4960SOL    HW115779   4.369   4.528   3.995
 4960SOL    HW215780   4.416   4.684   3.978
 4961SOL     OW15781   2.540   0.341   6.010
 4961SOL    HW115782   2.618   0.287   6.043
 4961SOL    HW215783   2.485   0.284   5.948
 4962SOL     OW15784   5.690   2.796   1.117
 4962SOL    HW115785   5.601   2.801   1.071
 4962SOL    HW215786   5.680   2.757   1.208
 4963SOL     OW15787   1.357   5.191   0.609
 4963SOL    HW115788   1.311   5.188   0.698
 4963SOL    HW215789   1.301   5.145   0.541
 4964SOL     OW15790   2.275   0.370   4.658
 4964SOL    HW115791   2.207   0.376   4.585
 4964SOL    HW215792   2.301   0.463   4.687
 4965SOL     OW15793   1.111   6.772   2.829
 4965SOL    HW115794   1.081   6.731   2.915
 4965SOL    HW215795   1.032   6.810   2.780
 4966SOL     OW15796   3.037   6.571   5.141
 4966SOL    HW115797   2.938   6.564   5.154
 4966SOL    HW215798   3.084   6.542   5.224
 4967SOL     OW15799   2.842   5.440   5.772
 4967SOL    HW115800   2.863   5.448   5.870
 4967SOL    HW215801   2.743   5.449   5.759
 4968SOL     OW15802   0.275   1.157   3.674
 4968SOL    HW115803   0.371   1.163   3.701
 4968SOL    HW215804   0.219   1.212   3.737
 4969SOL     OW15805   1.072   5.977   2.863
 4969SOL    HW115806   1.150   6.039   2.872
 4969SOL    HW215807   1.074   5.934   2.773
 4970SOL     OW15808   2.342   1.509   1.345
 4970SOL    HW115809   2.281   1.516   1.424
 4970SOL    HW215810   2.312   1.573   1.274
 4971SOL     OW15811   6.429   5.837   3.094
 4971SOL    HW115812   6.493   5.888   3.037
 4971SOL    HW215813   6.470   5.749   3.119
 4972SOL     OW15814   0.856   4.133   0.510
 4972SOL    HW115815   0.811   4.050   0.543
 4972SOL    HW215816   0.914   4.111   0.431
 4973SOL     OW15817   0.607   0.308   1.655
 4973SOL    HW115818   0.641   0.227   1.704
 4973SOL    HW215819   0.507   0.300   1.645
 4974SOL     OW15820   6.136   5.214   0.651
 4974SOL    HW115821   6.170   5.221   0.745
 4974SOL    HW215822   6.070   5.138   0.645
 4975SOL     OW15823   5.449   4.005   0.053
 4975SOL    HW115824   5.393   3.932   0.093
 4975SOL    HW215825   5.413   4.094   0.081
 4976SOL     OW15826   1.172   1.063   4.809
 4976SOL    HW115827   1.083   1.092   4.844
 4976SOL    HW215828   1.205   1.130   4.742
 4977SOL     OW15829   4.689   5.191   6.649
 4977SOL    HW115830   4.717   5.191   6.745
 4977SOL    HW215831   4.592   5.214   6.642
 4978SOL     OW15832   5.282   4.709   4.448
 4978SOL    HW115833   5.256   4.789   4.394
 4978SOL    HW215834   5.272   4.626   4.393
 4979SOL     OW15835   6.938   6.535   6.159
 4979SOL    HW115836   6.854   6.552   6.210
 4979SOL    HW215837   6.916   6.497   6.069
 4980SOL     OW15838   5.821   5.542   2.791
 4980SOL    HW115839   5.727   5.559   2.820
 4980SOL    HW215840   5.835   5.443   2.780
 4981SOL     OW15841   3.774   5.428   2.430
 4981SOL    HW115842   3.701   5.492   2.405
 4981SOL    HW215843   3.808   5.383   2.347
 4982SOL     OW15844   3.065   2.233   6.058
 4982SOL    HW115845   3.126   2.267   6.130
 4982SOL    HW215846   3.110   2.244   5.969
 4983SOL     OW15847   5.602   3.928   5.149
 4983SOL    HW115848   5.697   3.958   5.144
 4983SOL    HW215849   5.557   3.944   5.061
 4984SOL     OW15850   4.914   3.944   2.876
 4984SOL    HW115851   5.006   3.979   2.893
 4984SOL    HW215852   4.905   3.853   2.917
 4985SOL     OW15853   6.001   6.701   3.561
 4985SOL    HW115854   5.959   6.681   3.472
 4985SOL    HW215855   6.019   6.616   3.609
 4986SOL     OW15856   6.693   4.941   0.491
 4986SOL    HW115857   6.631   4.863   0.485
 4986SOL    HW215858   6.642   5.025   0.470
 4987SOL     OW15859   1.286   6.293   2.365
 4987SOL    HW115860   1.333   6.211   2.399
 4987SOL    HW215861   1.225   6.329   2.436
 4988SOL     OW15862   6.080   0.956   2.546
 4988SOL    HW115863   6.077   1.025   2.474
 4988SOL    HW215864   6.060   0.998   2.634
 4989SOL     OW15865   5.165   6.889   1.291
 4989SOL    HW115866   5.107   6.823   1.339
 4989SOL    HW215867   5.153   6.980   1.331
 4990SOL     OW15868   3.231   2.180   6.556
 4990SOL    HW115869   3.319   2.225   6.547
 4990SOL    HW215870   3.228   2.128   6.641
 4991SOL     OW15871   6.448   4.908   3.678
 4991SOL    HW115872   6.508   4.940   3.750
 4991SOL    HW215873   6.501   4.855   3.611
 4992SOL     OW15874   5.341   0.686   2.121
 4992SOL    HW115875   5.352   0.773   2.168
 4992SOL    HW215876   5.246   0.676   2.091
 4993SOL     OW15877   3.901   6.255   4.698
 4993SOL    HW115878   3.980   6.213   4.652
 4993SOL    HW215879   3.861   6.189   4.762
 4994SOL     OW15880   2.105   6.322   4.418
 4994SOL    HW115881   2.170   6.283   4.353
 4994SOL    HW215882   2.137   6.304   4.511
 4995SOL     OW15883   0.667   1.691   5.570
 4995SOL    HW115884   0.694   1.639   5.489
 4995SOL    HW215885   0.725   1.666   5.647
 4996SOL     OW15886   7.001   0.751   2.818
 4996SOL    HW115887   6.954   0.829   2.776
 4996SOL    HW215888   6.964   0.666   2.780
 4997SOL     OW15889   4.394   2.375   1.890
 4997SOL    HW115890   4.322   2.337   1.832
 4997SOL    HW215891   4.382   2.343   1.984
 4998SOL     OW15892   1.681   3.644   4.765
 4998SOL    HW115893   1.710   3.606   4.677
 4998SOL    HW215894   1.709   3.739   4.772
 4999SOL     OW15895   0.064   3.424   4.649
 4999SOL    HW115896   0.016   3.488   4.709
 4999SOL    HW215897   0.070   3.334   4.693
 5000SOL     OW15898   2.941   0.147   3.464
 5000SOL    HW115899   2.887   0.132   3.546
 5000SOL    HW215900   2.943   0.245   3.443
 5001SOL     OW15901   0.956   5.503   2.128
 5001SOL    HW115902   0.997   5.561   2.199
 5001SOL    HW215903   0.963   5.548   2.039
 5002SOL     OW15904   0.582   4.372   1.959
 5002SOL    HW115905   0.633   4.295   1.998
 5002SOL    HW215906   0.624   4.458   1.989
 5003SOL     OW15907   3.382   6.136   2.976
 5003SOL    HW115908   3.314   6.119   3.048
 5003SOL    HW215909   3.473   6.137   3.015
 5004SOL     OW15910   2.472   4.562   5.834
 5004SOL    HW115911   2.552   4.506   5.853
 5004SOL    HW215912   2.499   4.658   5.825
 5005SOL     OW15913   3.172   3.148   6.623
 5005SOL    HW115914   3.105   3.131   6.550
 5005SOL    HW215915   3.145   3.229   6.674
 5006SOL     OW15916   5.433   0.759   1.605
 5006SOL    HW115917   5.503   0.688   1.597
 5006SOL    HW215918   5.380   0.762   1.520
 5007SOL     OW15919   0.427   0.106   1.668
 5007SOL    HW115920   0.366   0.027   1.663
 5007SOL    HW215921   0.512   0.079   1.713
 5008SOL     OW15922   6.365   6.161   1.763
 5008SOL    HW115923   6.325   6.223   1.695
 5008SOL    HW215924   6.323   6.177   1.852
 5009SOL     OW15925   0.448   2.313   6.783
 5009SOL    HW115926   0.456   2.412   6.796
 5009SOL    HW215927   0.451   2.267   6.872
 5010SOL     OW15928   4.339   2.701   0.583
 5010SOL    HW115929   4.284   2.668   0.506
 5010SOL    HW215930   4.373   2.624   0.636
 5011SOL     OW15931   1.804   4.645   1.281
 5011SOL    HW115932   1.772   4.738   1.267
 5011SOL    HW215933   1.736   4.580   1.245
 5012SOL     OW15934   6.320   2.721   4.839
 5012SOL    HW115935   6.294   2.644   4.781
 5012SOL    HW215936   6.264   2.800   4.817
 5013SOL     OW15937   5.320   1.583   6.238
 5013SOL    HW115938   5.392   1.542   6.182
 5013SOL    HW215939   5.353   1.594   6.332
 5014SOL     OW15940   6.022   4.205   0.772
 5014SOL    HW115941   6.029   4.244   0.680
 5014SOL    HW215942   6.091   4.133   0.783
 5015SOL     OW15943   4.935   1.247   5.274
 5015SOL    HW115944   4.962   1.151   5.278
 5015SOL    HW215945   5.017   1.305   5.275
 5016SOL     OW15946   1.849   3.142   5.529
 5016SOL    HW115947   1.905   3.062   5.550
 5016SOL    HW215948   1.909   3.217   5.498
 5017SOL     OW15949   1.829   2.939   1.410
 5017SOL    HW115950   1.816   2.907   1.504
 5017SOL    HW215951   1.747   2.988   1.380
 5018SOL     OW15952   0.782   4.565   2.724
 5018SOL    HW115953   0.721   4.503   2.772
 5018SOL    HW215954   0.770   4.554   2.625
 5019SOL     OW15955   1.911   5.825   5.866
 5019SOL    HW115956   1.936   5.765   5.790
 5019SOL    HW215957   1.917   5.774   5.952
 5020SOL     OW15958   6.081   6.916   6.180
 5020SOL    HW115959   5.996   6.883   6.139
 5020SOL    HW215960   6.139   6.838   6.205
 5021SOL     OW15961   0.908   1.114   0.349
 5021SOL    HW115962   0.912   1.204   0.392
 5021SOL    HW215963   0.821   1.070   0.371
 5022SOL     OW15964   1.868   2.583   1.249
 5022SOL    HW115965   1.914   2.668   1.223
 5022SOL    HW215966   1.927   2.505   1.226
 5023SOL     OW15967   0.474   3.837   1.612
 5023SOL    HW115968   0.408   3.823   1.538
 5023SOL    HW215969   0.541   3.906   1.583
 5024SOL     OW15970   6.539   5.767   1.268
 5024SOL    HW115971   6.461   5.820   1.300
 5024SOL    HW215972   6.623   5.801   1.312
 5025SOL     OW15973   4.105   2.214   3.677
 5025SOL    HW115974   4.014   2.226   3.718
 5025SOL    HW215975   4.100   2.231   3.579
 5026SOL     OW15976   6.661   6.474   5.626
 5026SOL    HW115977   6.751   6.509   5.599
 5026SOL    HW215978   6.650   6.382   5.590
 5027SOL     OW15979   6.309   6.627   1.168
 5027SOL    HW115980   6.323   6.649   1.072
 5027SOL    HW215981   6.216   6.592   1.182
 5028SOL     OW15982   0.592   1.876   2.867
 5028SOL    HW115983   0.660   1.803   2.870
 5028SOL    HW215984   0.570   1.898   2.772
 5029SOL     OW15985   6.007   2.912   2.385
 5029SOL    HW115986   5.994   3.006   2.356
 5029SOL    HW215987   6.015   2.853   2.304
 5030SOL     OW15988   0.193   6.366   6.735
 5030SOL    HW115989   0.161   6.283   6.688
 5030SOL    HW215990   0.168   6.446   6.681
 5031SOL     OW15991   6.543   1.303   6.066
 5031SOL    HW115992   6.641   1.292   6.081
 5031SOL    HW215993   6.493   1.230   6.113
 5032SOL     OW15994   2.594   2.295   5.624
 5032SOL    HW115995   2.581   2.218   5.687
 5032SOL    HW215996   2.664   2.356   5.661
 5033SOL     OW15997   2.389   6.771   6.232
 5033SOL    HW115998   2.330   6.848   6.208
 5033SOL    HW215999   2.351   6.686   6.193
 5034SOL     OW16000   6.131   6.984   3.386
 5034SOL    HW116001   6.056   6.966   3.449
 5034SOL    HW216002   6.202   0.019   3.432
 5035SOL     OW16003   6.839   3.711   5.651
 5035SOL    HW116004   6.742   3.720   5.628
 5035SOL    HW216005   6.876   3.630   5.606
 5036SOL     OW16006   0.214   4.919   6.702
 5036SOL    HW116007   0.201   4.953   6.795
 5036SOL    HW216008   0.128   4.878   6.670
 5037SOL     OW16009   5.183   4.555   1.607
 5037SOL    HW116010   5.175   4.552   1.706
 5037SOL    HW216011   5.113   4.496   1.566
 5038SOL     OW16012   3.015   3.566   5.607
 5038SOL    HW116013   3.016   3.609   5.517
 5038SOL    HW216014   3.102   3.519   5.623
 5039SOL     OW16015   1.966   3.876   5.839
 5039SOL    HW116016   1.915   3.808   5.786
 5039SOL    HW216017   1.912   3.960   5.846
 5040SOL     OW16018   1.274   6.391   6.127
 5040SOL    HW116019   1.198   6.434   6.174
 5040SOL    HW216020   1.247   6.300   6.096
 5041SOL     OW16021   0.964   1.802   2.123
 5041SOL    HW116022   0.908   1.878   2.091
 5041SOL    HW216023   1.050   1.838   2.160
 5042SOL     OW16024   6.548   3.619   0.398
 5042SOL    HW116025   6.602   3.701   0.382
 5042SOL    HW216026   6.495   3.597   0.316
 5043SOL     OW16027   3.488   6.948   6.414
 5043SOL    HW116028   3.473   0.029   6.422
 5043SOL    HW216029   3.465   6.903   6.500
 5044SOL     OW16030   0.606   6.147   0.663
 5044SOL    HW116031   0.654   6.131   0.576
 5044SOL    HW216032   0.643   6.228   0.707
 5045SOL     OW16033   5.985   6.475   6.424
 5045SOL    HW116034   6.050   6.420   6.477
 5045SOL    HW216035   5.950   6.549   6.482
 5046SOL     OW16036   3.399   4.145   2.694
 5046SOL    HW116037   3.473   4.140   2.627
 5046SOL    HW216038   3.311   4.141   2.646
 5047SOL     OW16039   1.102   3.935   2.524
 5047SOL    HW116040   1.043   3.882   2.585
 5047SOL    HW216041   1.054   3.955   2.439
 5048SOL     OW16042   1.090   1.531   2.676
 5048SOL    HW116043   1.130   1.583   2.752
 5048SOL    HW216044   1.158   1.520   2.603
 5049SOL     OW16045   5.291   1.961   6.821
 5049SOL    HW116046   5.296   2.060   6.832
 5049SOL    HW216047   5.199   1.930   6.845
 5050SOL     OW16048   2.171   0.894   1.456
 5050SOL    HW116049   2.192   0.903   1.554
 5050SOL    HW216050   2.206   0.975   1.407
 5051SOL     OW16051   4.362   4.107   1.226
 5051SOL    HW116052   4.308   4.190   1.215
 5051SOL    HW216053   4.438   4.125   1.288
 5052SOL     OW16054   2.483   1.319   5.763
 5052SOL    HW116055   2.431   1.368   5.694
 5052SOL    HW216056   2.424   1.299   5.841
 5053SOL     OW16057   1.431   3.983   3.706
 5053SOL    HW116058   1.348   4.038   3.715
 5053SOL    HW216059   1.407   3.890   3.680
 5054SOL     OW16060   3.543   4.965   4.077
 5054SOL    HW116061   3.564   4.965   4.175
 5054SOL    HW216062   3.444   4.971   4.064
 5055SOL     OW16063   1.445   2.285   5.337
 5055SOL    HW116064   1.472   2.194   5.304
 5055SOL    HW216065   1.421   2.342   5.259
 5056SOL     OW16066   5.610   4.088   6.828
 5056SOL    HW116067   5.591   4.027   6.752
 5056SOL    HW216068   5.551   4.065   6.905
 5057SOL     OW16069   0.536   6.530   3.709
 5057SOL    HW116070   0.572   6.622   3.729
 5057SOL    HW216071   0.502   6.528   3.615
 5058SOL     OW16072   3.393   4.275   5.290
 5058SOL    HW116073   3.293   4.273   5.298
 5058SOL    HW216074   3.421   4.222   5.210
 5059SOL     OW16075   6.838   0.765   3.053
 5059SOL    HW116076   6.889   0.778   2.968
 5059SOL    HW216077   6.902   0.747   3.128
 5060SOL     OW16078   0.237   1.845   5.661
 5060SOL    HW116079   0.277   1.753   5.668
 5060SOL    HW216080   0.304   1.913   5.690
 5061SOL     OW16081   4.560   3.191   1.220
 5061SOL    HW116082   4.568   3.225   1.314
 5061SOL    HW216083   4.546   3.092   1.222
 5062SOL     OW16084   6.254   0.333   3.076
 5062SOL    HW116085   6.178   0.391   3.105
 5062SOL    HW216086   6.280   0.274   3.152
 5063SOL     OW16087   1.173   6.712   2.455
 5063SOL    HW116088   1.104   6.781   2.477
 5063SOL    HW216089   1.216   6.679   2.539
 5064SOL     OW16090   5.304   3.691   0.728
 5064SOL    HW116091   5.395   3.723   0.756
 5064SOL    HW216092   5.299   3.690   0.628
 5065SOL     OW16093   2.620   0.560   5.108
 5065SOL    HW116094   2.619   0.516   5.019
 5065SOL    HW216095   2.713   0.560   5.145
 5066SOL     OW16096   5.196   4.329   2.590
 5066SOL    HW116097   5.157   4.237   2.598
 5066SOL    HW216098   5.242   4.338   2.502
 5067SOL     OW16099   4.678   1.304   1.668
 5067SOL    HW116100   4.714   1.217   1.702
 5067SOL    HW216101   4.590   1.323   1.712
 5068SOL     OW16102   2.585   3.809   0.703
 5068SOL    HW116103   2.623   3.727   0.746
 5068SOL    HW216104   2.651   3.884   0.709
 5069SOL     OW16105   1.670   4.052   5.286
 5069SOL    HW116106   1.657   4.101   5.200
 5069SOL    HW216107   1.727   4.107   5.347
 5070SOL     OW16108   4.935   4.241   4.472
 5070SOL    HW116109   4.969   4.153   4.507
 5070SOL    HW216110   4.944   4.311   4.543
 5071SOL     OW16111   4.544   2.019   4.589
 5071SOL    HW116112   4.524   1.983   4.498
 5071SOL    HW216113   4.641   2.045   4.594
 5072SOL     OW16114   1.106   7.016   0.911
 5072SOL    HW116115   1.022   6.988   0.865
 5072SOL    HW216116   1.090   0.002   1.010
 5073SOL     OW16117   0.215   6.204   2.455
 5073SOL    HW116118   0.239   6.276   2.391
 5073SOL    HW216119   0.174   6.245   2.537
 5074SOL     OW16120   2.827   3.166   0.348
 5074SOL    HW116121   2.838   3.256   0.391
 5074SOL    HW216122   2.871   3.167   0.258
 5075SOL     OW16123   1.148   1.696   6.452
 5075SOL    HW116124   1.053   1.698   6.420
 5075SOL    HW216125   1.157   1.754   6.533
 5076SOL     OW16126   3.921   0.717   0.473
 5076SOL    HW116127   3.919   0.816   0.482
 5076SOL    HW216128   4.012   0.683   0.500
 5077SOL     OW16129   0.677   3.553   5.106
 5077SOL    HW116130   0.671   3.612   5.025
 5077SOL    HW216131   0.756   3.493   5.098
 5078SOL     OW16132   1.168   1.508   3.644
 5078SOL    HW116133   1.128   1.590   3.602
 5078SOL    HW216134   1.261   1.496   3.610
 5079SOL     OW16135   2.272   3.738   5.798
 5079SOL    HW116136   2.347   3.792   5.838
 5079SOL    HW216137   2.301   3.642   5.791
 5080SOL     OW16138   6.333   6.581   6.059
 5080SOL    HW116139   6.402   6.518   6.095
 5080SOL    HW216140   6.304   6.550   5.969
 5081SOL     OW16141   3.602   2.920   4.306
 5081SOL    HW116142   3.627   2.968   4.222
 5081SOL    HW216143   3.503   2.904   4.307
 5082SOL     OW16144   5.150   5.932   6.453
 5082SOL    HW116145   5.058   5.924   6.491
 5082SOL    HW216146   5.152   6.008   6.387
 5083SOL     OW16147   2.346   0.517   3.189
 5083SOL    HW116148   2.375   0.473   3.274
 5083SOL    HW216149   2.307   0.607   3.210
 5084SOL     OW16150   0.757   4.780   4.186
 5084SOL    HW116151   0.820   4.716   4.142
 5084SOL    HW216152   0.779   4.786   4.284
 5085SOL     OW16153   4.691   3.341   6.691
 5085SOL    HW116154   4.781   3.331   6.649
 5085SOL    HW216155   4.687   3.287   6.775
 5086SOL     OW16156   0.061   5.905   3.340
 5086SOL    HW116157   0.009   5.869   3.417
 5086SOL    HW216158   0.004   5.906   3.258
 5087SOL     OW16159   0.265   5.628   3.164
 5087SOL    HW116160   0.321   5.547   3.179
 5087SOL    HW216161   0.168   5.602   3.165
 5088SOL     OW16162   5.637   1.808   4.616
 5088SOL    HW116163   5.680   1.810   4.525
 5088SOL    HW216164   5.708   1.822   4.686
 5089SOL     OW16165   5.233   2.998   3.362
 5089SOL    HW116166   5.248   2.908   3.403
 5089SOL    HW216167   5.256   2.994   3.265
 5090SOL     OW16168   1.674   3.137   3.220
 5090SOL    HW116169   1.584   3.155   3.259
 5090SOL    HW216170   1.744   3.162   3.287
 5091SOL     OW16171   1.537   6.461   2.553
 5091SOL    HW116172   1.489   6.508   2.479
 5091SOL    HW216173   1.578   6.529   2.614
 5092SOL     OW16174   3.287   3.149   1.365
 5092SOL    HW116175   3.248   3.081   1.426
 5092SOL    HW216176   3.311   3.106   1.278
 5093SOL     OW16177   3.170   1.423   1.472
 5093SOL    HW116178   3.220   1.497   1.428
 5093SOL    HW216179   3.134   1.361   1.402
 5094SOL     OW16180   1.399   6.380   4.975
 5094SOL    HW116181   1.428   6.469   5.010
 5094SOL    HW216182   1.360   6.392   4.884
 5095SOL     OW16183   0.251   2.450   4.731
 5095SOL    HW116184   0.203   2.538   4.720
 5095SOL    HW216185   0.321   2.459   4.802
 5096SOL     OW16186   4.398   3.537   0.651
 5096SOL    HW116187   4.357   3.470   0.589
 5096SOL    HW216188   4.352   3.532   0.740
 5097SOL     OW16189   1.708   0.437   7.014
 5097SOL    HW116190   1.651   0.517   0.014
 5097SOL    HW216191   1.651   0.360   6.986
 5098SOL     OW16192   1.505   0.536   1.013
 5098SOL    HW116193   1.560   0.617   1.037
 5098SOL    HW216194   1.473   0.492   1.097
 5099SOL     OW16195   0.547   6.999   6.276
 5099SOL    HW116196   0.468   0.040   6.284
 5099SOL    HW216197   0.607   7.011   6.356
 5100SOL     OW16198   4.498   6.403   4.945
 5100SOL    HW116199   4.545   6.357   4.869
 5100SOL    HW216200   4.444   6.336   4.995
 5101SOL     OW16201   3.990   6.791   0.276
 5101SOL    HW116202   3.937   6.729   0.333
 5101SOL    HW216203   4.048   6.849   0.333
 5102SOL     OW16204   6.283   0.492   4.999
 5102SOL    HW116205   6.259   0.428   4.926
 5102SOL    HW216206   6.234   0.468   5.082
 5103SOL     OW16207   0.339   0.716   3.844
 5103SOL    HW116208   0.389   0.670   3.772
 5103SOL    HW216209   0.263   0.767   3.805
 5104SOL     OW16210   2.501   6.451   2.458
 5104SOL    HW116211   2.411   6.482   2.429
 5104SOL    HW216212   2.492   6.394   2.539
 5105SOL     OW16213   3.968   2.816   0.200
 5105SOL    HW116214   3.959   2.916   0.191
 5105SOL    HW216215   3.965   2.791   0.297
 5106SOL     OW16216   3.691   0.582   1.644
 5106SOL    HW116217   3.628   0.644   1.597
 5106SOL    HW216218   3.772   0.567   1.587
 5107SOL     OW16219   4.463   0.978   0.572
 5107SOL    HW116220   4.428   0.908   0.634
 5107SOL    HW216221   4.485   0.938   0.484
 5108SOL     OW16222   3.160   4.074   3.588
 5108SOL    HW116223   3.234   4.069   3.656
 5108SOL    HW216224   3.089   4.009   3.611
 5109SOL     OW16225   1.055   0.996   0.569
 5109SOL    HW116226   1.150   1.009   0.597
 5109SOL    HW216227   1.050   0.994   0.469
 5110SOL     OW16228   0.686   0.389   6.553
 5110SOL    HW116229   0.611   0.411   6.490
 5110SOL    HW216230   0.693   0.461   6.622
 5111SOL     OW16231   1.541   0.697   5.786
 5111SOL    HW116232   1.475   0.735   5.721
 5111SOL    HW216233   1.547   0.598   5.774
 5112SOL     OW16234   0.816   0.219   2.712
 5112SOL    HW116235   0.912   0.192   2.702
 5112SOL    HW216236   0.806   0.278   2.792
 5113SOL     OW16237   2.361   0.058   2.034
 5113SOL    HW116238   2.344   0.073   2.131
 5113SOL    HW216239   2.288   0.001   1.996
 5114SOL     OW16240   3.714   2.729   0.080
 5114SOL    HW116241   3.623   2.757   0.110
 5114SOL    HW216242   3.782   2.757   0.149
 5115SOL     OW16243   2.173   4.837   4.678
 5115SOL    HW116244   2.093   4.840   4.738
 5115SOL    HW216245   2.150   4.786   4.595
 5116SOL     OW16246   5.265   6.107   6.812
 5116SOL    HW116247   5.297   6.090   6.905
 5116SOL    HW216248   5.165   6.111   6.812
 5117SOL     OW16249   1.889   4.987   4.648
 5117SOL    HW116250   1.931   4.925   4.715
 5117SOL    HW216251   1.791   4.992   4.665
 5118SOL     OW16252   4.518   6.694   0.949
 5118SOL    HW116253   4.594   6.665   0.891
 5118SOL    HW216254   4.530   6.790   0.975
 5119SOL     OW16255   5.220   1.282   1.830
 5119SOL    HW116256   5.243   1.195   1.873
 5119SOL    HW216257   5.152   1.267   1.758
 5120SOL     OW16258   5.258   0.998   3.702
 5120SOL    HW116259   5.186   1.023   3.767
 5120SOL    HW216260   5.226   0.922   3.645
 5121SOL     OW16261   2.516   2.489   0.259
 5121SOL    HW116262   2.540   2.586   0.261
 5121SOL    HW216263   2.538   2.451   0.169
 5122SOL     OW16264   3.424   0.641   3.977
 5122SOL    HW116265   3.364   0.720   3.983
 5122SOL    HW216266   3.377   0.560   4.013
 5123SOL     OW16267   5.984   3.194   4.498
 5123SOL    HW116268   5.999   3.242   4.411
 5123SOL    HW216269   5.888   3.167   4.505
 5124SOL     OW16270   2.374   5.167   5.278
 5124SOL    HW116271   2.369   5.081   5.330
 5124SOL    HW216272   2.426   5.235   5.330
 5125SOL     OW16273   6.220   2.988   4.444
 5125SOL    HW116274   6.135   2.996   4.497
 5125SOL    HW216275   6.202   3.019   4.350
 5126SOL     OW16276   6.333   5.480   5.961
 5126SOL    HW116277   6.397   5.531   6.019
 5126SOL    HW216278   6.271   5.544   5.915
 5127SOL     OW16279   6.930   3.761   6.973
 5127SOL    HW116280   7.013   3.763   0.009
 5127SOL    HW216281   6.928   3.677   6.917
 5128SOL     OW16282   6.935   6.597   0.273
 5128SOL    HW116283   0.012   6.571   0.293
 5128SOL    HW216284   6.903   6.547   0.193
 5129SOL     OW16285   4.850   0.565   2.299
 5129SOL    HW116286   4.824   0.494   2.365
 5129SOL    HW216287   4.948   0.559   2.280
 5130SOL     OW16288   1.372   5.898   4.404
 5130SOL    HW116289   1.316   5.934   4.478
 5130SOL    HW216290   1.386   5.969   4.335
 5131SOL     OW16291   3.054   4.982   3.571
 5131SOL    HW116292   3.058   4.887   3.603
 5131SOL    HW216293   3.138   5.004   3.523
 5132SOL     OW16294   3.281   1.627   5.971
 5132SOL    HW116295   3.350   1.597   6.036
 5132SOL    HW216296   3.299   1.722   5.943
 5133SOL     OW16297   2.653   5.735   6.075
 5133SOL    HW116298   2.601   5.820   6.071
 5133SOL    HW216299   2.748   5.753   6.049
 5134SOL     OW16300   6.876   0.167   2.504
 5134SOL    HW116301   6.916   0.076   2.518
 5134SOL    HW216302   6.948   0.231   2.475
 5135SOL     OW16303   6.028   3.641   3.600
 5135SOL    HW116304   6.003   3.688   3.685
 5135SOL    HW216305   6.038   3.543   3.619
 5136SOL     OW16306   5.926   0.521   5.938
 5136SOL    HW116307   5.891   0.578   5.863
 5136SOL    HW216308   5.952   0.579   6.015
 5137SOL     OW16309   5.433   3.222   4.966
 5137SOL    HW116310   5.437   3.127   5.000
 5137SOL    HW216311   5.505   3.276   5.009
 5138SOL     OW16312   4.041   3.789   3.958
 5138SOL    HW116313   3.975   3.833   3.897
 5138SOL    HW216314   4.108   3.857   3.989
 5139SOL     OW16315   1.157   6.892   4.800
 5139SOL    HW116316   1.144   6.857   4.707
 5139SOL    HW216317   1.123   6.986   4.805
 5140SOL     OW16318   3.253   2.051   5.395
 5140SOL    HW116319   3.183   2.108   5.352
 5140SOL    HW216320   3.244   1.957   5.362
 5141SOL     OW16321   6.843   3.685   1.592
 5141SOL    HW116322   6.818   3.751   1.521
 5141SOL    HW216323   6.779   3.609   1.590
 5142SOL     OW16324   5.703   6.582   5.864
 5142SOL    HW116325   5.719   6.502   5.806
 5142SOL    HW216326   5.765   6.578   5.943
 5143SOL     OW16327   0.995   4.091   5.028
 5143SOL    HW116328   0.970   3.999   5.000
 5143SOL    HW216329   0.960   4.109   5.120
 5144SOL     OW16330   1.695   4.032   5.814
 5144SOL    HW116331   1.626   3.977   5.767
 5144SOL    HW216332   1.650   4.096   5.876
 5145SOL     OW16333   3.997   6.603   6.167
 5145SOL    HW116334   3.916   6.565   6.121
 5145SOL    HW216335   3.969   6.671   6.234
 5146SOL     OW16336   3.698   3.895   4.920
 5146SOL    HW116337   3.727   3.990   4.906
 5146SOL    HW216338   3.664   3.883   5.014
 5147SOL     OW16339   5.888   5.143   3.483
 5147SOL    HW116340   5.966   5.205   3.496
 5147SOL    HW216341   5.885   5.113   3.388
 5148SOL     OW16342   0.553   0.515   2.168
 5148SOL    HW116343   0.572   0.550   2.260
 5148SOL    HW216344   0.579   0.583   2.100
 5149SOL     OW16345   5.973   5.246   4.385
 5149SOL    HW116346   5.961   5.287   4.294
 5149SOL    HW216347   6.024   5.161   4.376
 5150SOL     OW16348   2.160   4.139   4.016
 5150SOL    HW116349   2.204   4.066   4.069
 5150SOL    HW216350   2.153   4.110   3.920
 5151SOL     OW16351   6.465   3.998   1.697
 5151SOL    HW116352   6.418   3.924   1.648
 5151SOL    HW216353   6.558   4.006   1.663
 5152SOL     OW16354   1.838   5.778   6.431
 5152SOL    HW116355   1.794   5.718   6.364
 5152SOL    HW216356   1.921   5.734   6.466
 5153SOL     OW16357   0.833   2.129   0.422
 5153SOL    HW116358   0.862   2.074   0.343
 5153SOL    HW216359   0.907   2.191   0.449
 5154SOL     OW16360   1.503   2.680   6.532
 5154SOL    HW116361   1.517   2.779   6.545
 5154SOL    HW216362   1.570   2.630   6.587
 5155SOL     OW16363   4.455   1.229   1.163
 5155SOL    HW116364   4.410   1.265   1.082
 5155SOL    HW216365   4.386   1.211   1.234
 5156SOL     OW16366   5.536   4.460   4.696
 5156SOL    HW116367   5.597   4.527   4.738
 5156SOL    HW216368   5.552   4.457   4.597
 5157SOL     OW16369   3.480   2.026   2.269
 5157SOL    HW116370   3.497   2.035   2.171
 5157SOL    HW216371   3.382   2.019   2.285
 5158SOL     OW16372   3.251   2.308   0.571
 5158SOL    HW116373   3.189   2.294   0.648
 5158SOL    HW216374   3.329   2.246   0.580
 5159SOL     OW16375   6.068   4.239   6.450
 5159SOL    HW116376   6.064   4.155   6.504
 5159SOL    HW216377   5.975   4.271   6.432
 5160SOL     OW16378   6.926   5.770   3.515
 5160SOL    HW116379   6.832   5.787   3.545
 5160SOL    HW216380   6.943   5.672   3.512
 5161SOL     OW16381   1.170   3.198   0.063
 5161SOL    HW116382   1.212   3.189   0.154
 5161SOL    HW216383   1.242   3.202   7.012
 5162SOL     OW16384   1.031   5.268   2.241
 5162SOL    HW116385   0.959   5.245   2.306
 5162SOL    HW216386   1.005   5.350   2.190
 5163SOL     OW16387   3.886   6.917   0.803
 5163SOL    HW116388   3.787   6.929   0.791
 5163SOL    HW216389   3.907   6.910   0.901
 5164SOL     OW16390   3.235   2.901   6.737
 5164SOL    HW116391   3.205   2.867   6.648
 5164SOL    HW216392   3.214   2.998   6.745
 5165SOL     OW16393   1.106   4.472   6.593
 5165SOL    HW116394   1.197   4.445   6.624
 5165SOL    HW216395   1.063   4.397   6.543
 5166SOL     OW16396   1.457   4.958   2.800
 5166SOL    HW116397   1.359   4.936   2.799
 5166SOL    HW216398   1.480   5.002   2.887
 5167SOL     OW16399   6.469   4.382   4.779
 5167SOL    HW116400   6.496   4.402   4.685
 5167SOL    HW216401   6.551   4.379   4.837
 5168SOL     OW16402   5.219   2.524   2.968
 5168SOL    HW116403   5.146   2.456   2.979
 5168SOL    HW216404   5.288   2.489   2.906
 5169SOL     OW16405   4.530   1.908   3.211
 5169SOL    HW116406   4.557   1.815   3.237
 5169SOL    HW216407   4.468   1.945   3.280
 5170SOL     OW16408   1.345   3.399   5.392
 5170SOL    HW116409   1.274   3.463   5.422
 5170SOL    HW216410   1.409   3.384   5.468
 5171SOL     OW16411   0.027   4.877   5.320
 5171SOL    HW116412   6.985   4.956   5.306
 5171SOL    HW216413   0.002   4.832   5.406
 5172SOL     OW16414   1.090   4.280   3.257
 5172SOL    HW116415   1.015   4.233   3.211
 5172SOL    HW216416   1.133   4.344   3.193
 5173SOL     OW16417   4.125   4.439   6.008
 5173SOL    HW116418   4.206   4.444   6.066
 5173SOL    HW216419   4.145   4.388   5.925
 5174SOL     OW16420   2.338   5.960   4.242
 5174SOL    HW116421   2.319   5.876   4.192
 5174SOL    HW216422   2.320   5.945   4.340
 5175SOL     OW16423   2.720   3.635   6.897
 5175SOL    HW116424   2.769   3.700   6.955
 5175SOL    HW216425   2.671   3.686   6.826
 5176SOL     OW16426   5.070   4.691   6.699
 5176SOL    HW116427   5.117   4.779   6.703
 5176SOL    HW216428   5.040   4.665   6.791
 5177SOL     OW16429   4.555   6.374   1.440
 5177SOL    HW116430   4.549   6.288   1.389
 5177SOL    HW216431   4.622   6.364   1.514
 5178SOL     OW16432   1.177   4.617   2.120
 5178SOL    HW116433   1.177   4.521   2.150
 5178SOL    HW216434   1.082   4.646   2.103
 5179SOL     OW16435   4.680   4.382   3.963
 5179SOL    HW116436   4.742   4.461   3.964
 5179SOL    HW216437   4.602   4.401   4.022
 5180SOL     OW16438   3.537   0.851   1.175
 5180SOL    HW116439   3.525   0.939   1.220
 5180SOL    HW216440   3.625   0.811   1.203
 5181SOL     OW16441   6.270   6.958   1.126
 5181SOL    HW116442   6.343   6.994   1.183
 5181SOL    HW216443   6.273   7.002   1.036
 5182SOL     OW16444   4.553   4.566   2.022
 5182SOL    HW116445   4.502   4.618   2.090
 5182SOL    HW216446   4.527   4.469   2.027
 5183SOL     OW16447   4.251   2.109   2.502
 5183SOL    HW116448   4.209   2.048   2.569
 5183SOL    HW216449   4.330   2.065   2.461
 5184SOL     OW16450   2.127   1.687   2.901
 5184SOL    HW116451   2.173   1.625   2.964
 5184SOL    HW216452   2.194   1.749   2.860
 5185SOL     OW16453   5.325   0.326   2.571
 5185SOL    HW116454   5.265   0.304   2.648
 5185SOL    HW216455   5.420   0.311   2.598
 5186SOL     OW16456   6.473   2.996   5.920
 5186SOL    HW116457   6.460   3.095   5.920
 5186SOL    HW216458   6.496   2.966   6.013
 5187SOL     OW16459   1.231   5.450   5.148
 5187SOL    HW116460   1.237   5.505   5.064
 5187SOL    HW216461   1.135   5.435   5.171
 5188SOL     OW16462   6.029   5.663   1.921
 5188SOL    HW116463   6.100   5.696   1.859
 5188SOL    HW216464   6.070   5.601   1.989
 5189SOL     OW16465   4.873   5.951   0.393
 5189SOL    HW116466   4.887   5.921   0.299
 5189SOL    HW216467   4.776   5.948   0.416
 5190SOL     OW16468   1.233   3.585   3.297
 5190SOL    HW116469   1.193   3.498   3.326
 5190SOL    HW216470   1.319   3.568   3.249
 5191SOL     OW16471   3.568   5.926   2.825
 5191SOL    HW116472   3.503   6.002   2.821
 5191SOL    HW216473   3.519   5.840   2.836
 5192SOL     OW16474   1.715   5.902   1.192
 5192SOL    HW116475   1.636   5.956   1.219
 5192SOL    HW216476   1.753   5.855   1.271
 5193SOL     OW16477   4.291   6.055   5.291
 5193SOL    HW116478   4.369   6.064   5.229
 5193SOL    HW216479   4.325   6.041   5.385
 5194SOL     OW16480   3.542   2.431   6.934
 5194SOL    HW116481   3.595   2.490   6.995
 5194SOL    HW216482   3.499   2.486   6.863
 5195SOL     OW16483   0.238   0.580   4.392
 5195SOL    HW116484   0.186   0.495   4.391
 5195SOL    HW216485   0.323   0.567   4.443
 5196SOL     OW16486   4.358   6.825   2.438
 5196SOL    HW116487   4.406   6.881   2.505
 5196SOL    HW216488   4.332   6.738   2.480
 5197SOL     OW16489   1.317   3.783   6.483
 5197SOL    HW116490   1.234   3.816   6.439
 5197SOL    HW216491   1.320   3.683   6.477
 5198SOL     OW16492   4.337   5.349   3.486
 5198SOL    HW116493   4.391   5.417   3.535
 5198SOL    HW216494   4.245   5.386   3.469
 5199SOL     OW16495   0.656   5.572   0.347
 5199SOL    HW116496   0.690   5.615   0.264
 5199SOL    HW216497   0.732   5.536   0.400
 5200SOL     OW16498   6.895   3.917   5.018
 5200SOL    HW116499   6.880   4.014   4.997
 5200SOL    HW216500   6.982   3.887   4.978
 5201SOL     OW16501   0.712   6.709   3.344
 5201SOL    HW116502   0.664   6.793   3.319
 5201SOL    HW216503   0.808   6.716   3.316
 5202SOL     OW16504   6.074   3.031   6.508
 5202SOL    HW116505   6.006   2.957   6.502
 5202SOL    HW216506   6.057   3.084   6.591
 5203SOL     OW16507   1.771   1.815   6.888
 5203SOL    HW116508   1.842   1.756   6.927
 5203SOL    HW216509   1.780   1.907   6.925
 5204SOL     OW16510   4.053   5.329   0.221
 5204SOL    HW116511   4.116   5.406   0.226
 5204SOL    HW216512   4.034   5.295   0.313
 5205SOL     OW16513   2.300   0.083   0.861
 5205SOL    HW116514   2.368   0.011   0.842
 5205SOL    HW216515   2.344   0.172   0.856
 5206SOL     OW16516   0.247   3.793   5.587
 5206SOL    HW116517   0.329   3.750   5.550
 5206SOL    HW216518   0.219   3.868   5.528
 5207SOL     OW16519   1.053   5.530   4.185
 5207SOL    HW116520   0.957   5.536   4.212
 5207SOL    HW216521   1.072   5.596   4.112
 5208SOL     OW16522   3.820   1.738   0.202
 5208SOL    HW116523   3.755   1.664   0.186
 5208SOL    HW216524   3.820   1.762   0.300
 5209SOL     OW16525   5.759   5.813   3.974
 5209SOL    HW116526   5.738   5.861   3.889
 5209SOL    HW216527   5.681   5.818   4.036
 5210SOL     OW16528   5.928   2.752   5.841
 5210SOL    HW116529   5.890   2.735   5.932
 5210SOL    HW216530   6.025   2.729   5.841
 5211SOL     OW16531   3.655   2.831   4.750
 5211SOL    HW116532   3.697   2.872   4.669
 5211SOL    HW216533   3.679   2.734   4.754
 5212SOL     OW16534   6.287   1.850   0.826
 5212SOL    HW116535   6.284   1.755   0.858
 5212SOL    HW216536   6.377   1.870   0.789
 5213SOL     OW16537   5.027   4.044   6.468
 5213SOL    HW116538   5.038   4.129   6.519
 5213SOL    HW216539   4.995   3.972   6.529
 5214SOL     OW16540   5.394   1.649   6.511
 5214SOL    HW116541   5.468   1.716   6.502
 5214SOL    HW216542   5.354   1.654   6.602
 5215SOL     OW16543   5.323   5.480   3.578
 5215SOL    HW116544   5.258   5.421   3.626
 5215SOL    HW216545   5.331   5.567   3.626
 5216SOL     OW16546   4.034   6.032   2.055
 5216SOL    HW116547   3.948   6.069   2.022
 5216SOL    HW216548   4.098   6.024   1.978
 5217SOL     OW16549   4.069   5.435   4.107
 5217SOL    HW116550   4.004   5.418   4.181
 5217SOL    HW216551   4.146   5.372   4.115
 5218SOL     OW16552   1.119   0.459   3.455
 5218SOL    HW116553   1.025   0.467   3.422
 5218SOL    HW216554   1.120   0.473   3.554
 5219SOL     OW16555   3.674   0.404   6.185
 5219SOL    HW116556   3.674   0.477   6.116
 5219SOL    HW216557   3.581   0.386   6.214
 5220SOL     OW16558   1.783   5.507   2.838
 5220SOL    HW116559   1.690   5.503   2.873
 5220SOL    HW216560   1.846   5.469   2.906
 5221SOL     OW16561   5.634   2.297   4.139
 5221SOL    HW116562   5.565   2.283   4.068
 5221SOL    HW216563   5.588   2.310   4.227
 5222SOL     OW16564   2.207   0.106   3.976
 5222SOL    HW116565   2.278   0.042   4.005
 5222SOL    HW216566   2.248   0.178   3.921
 5223SOL     OW16567   5.503   0.558   0.997
 5223SOL    HW116568   5.428   0.520   0.943
 5223SOL    HW216569   5.548   0.484   1.048
 5224SOL     OW16570   1.092   1.749   3.565
 5224SOL    HW116571   1.157   1.823   3.584
 5224SOL    HW216572   1.062   1.754   3.469
 5225SOL     OW16573   6.258   0.038   2.771
 5225SOL    HW116574   6.194   6.985   2.801
 5225SOL    HW216575   6.207   0.120   2.745
 5226SOL     OW16576   0.977   5.452   5.267
 5226SOL    HW116577   0.987   5.524   5.335
 5226SOL    HW216578   0.913   5.383   5.301
 5227SOL     OW16579   1.509   4.318   3.621
 5227SOL    HW116580   1.523   4.281   3.529
 5227SOL    HW216581   1.416   4.300   3.651
 5228SOL     OW16582   6.586   2.614   1.153
 5228SOL    HW116583   6.496   2.572   1.147
 5228SOL    HW216584   6.583   2.705   1.111
 5229SOL     OW16585   1.355   3.921   0.345
 5229SOL    HW116586   1.274   3.928   0.287
 5229SOL    HW216587   1.328   3.904   0.440
 5230SOL     OW16588   0.034   6.536   1.554
 5230SOL    HW116589   0.035   6.436   1.548
 5230SOL    HW216590   0.077   6.574   1.472
 5231SOL     OW16591   3.894   3.996   4.124
 5231SOL    HW116592   3.809   3.985   4.072
 5231SOL    HW216593   3.914   3.911   4.173
 5232SOL     OW16594   3.186   2.271   5.818
 5232SOL    HW116595   3.214   2.358   5.777
 5232SOL    HW216596   3.130   2.220   5.753
 5233SOL     OW16597   6.130   6.818   1.603
 5233SOL    HW116598   6.125   6.862   1.514
 5233SOL    HW216599   6.079   6.732   1.600
 5234SOL     OW16600   3.002   0.187   6.496
 5234SOL    HW116601   2.948   0.254   6.548
 5234SOL    HW216602   2.952   0.101   6.491
 5235SOL     OW16603   1.935   3.198   1.081
 5235SOL    HW116604   1.984   3.124   1.035
 5235SOL    HW216605   1.872   3.159   1.148
 5236SOL     OW16606   5.693   3.634   2.151
 5236SOL    HW116607   5.720   3.674   2.063
 5236SOL    HW216608   5.774   3.622   2.208
 5237SOL     OW16609   2.759   0.838   5.415
 5237SOL    HW116610   2.772   0.931   5.450
 5237SOL    HW216611   2.847   0.797   5.392
 5238SOL     OW16612   1.553   4.896   0.396
 5238SOL    HW116613   1.645   4.875   0.429
 5238SOL    HW216614   1.543   4.995   0.386
 5239SOL     OW16615   4.116   3.550   4.058
 5239SOL    HW116616   4.094   3.642   4.024
 5239SOL    HW216617   4.171   3.558   4.141
 5240SOL     OW16618   2.627   1.217   6.002
 5240SOL    HW116619   2.709   1.160   6.001
 5240SOL    HW216620   2.629   1.279   5.924
 5241SOL     OW16621   1.254   5.758   6.086
 5241SOL    HW116622   1.190   5.831   6.110
 5241SOL    HW216623   1.218   5.704   6.010
 5242SOL     OW16624   6.516   6.341   6.099
 5242SOL    HW116625   6.556   6.332   6.190
 5242SOL    HW216626   6.499   6.250   6.061
 5243SOL     OW16627   1.166   6.102   1.501
 5243SOL    HW116628   1.068   6.088   1.512
 5243SOL    HW216629   1.197   6.175   1.562
 5244SOL     OW16630   3.988   4.213   6.167
 5244SOL    HW116631   3.899   4.186   6.202
 5244SOL    HW216632   3.984   4.307   6.133
 5245SOL     OW16633   4.088   4.391   0.370
 5245SOL    HW116634   4.094   4.315   0.306
 5245SOL    HW216635   4.094   4.357   0.464
 5246SOL     OW16636   5.608   4.623   2.846
 5246SOL    HW116637   5.536   4.606   2.779
 5246SOL    HW216638   5.567   4.657   2.931
 5247SOL     OW16639   1.409   5.981   0.725
 5247SOL    HW116640   1.334   6.045   0.710
 5247SOL    HW216641   1.378   5.888   0.707
 5248SOL     OW16642   6.145   0.941   4.981
 5248SOL    HW116643   6.134   0.977   4.889
 5248SOL    HW216644   6.143   0.841   4.978
 5249SOL     OW16645   0.795   4.999   5.522
 5249SOL    HW116646   0.697   4.981   5.529
 5249SOL    HW216647   0.832   4.953   5.440
 5250SOL     OW16648   0.019   1.140   5.724
 5250SOL    HW116649   0.069   1.226   5.738
 5250SOL    HW216650   6.999   1.139   5.632
 5251SOL     OW16651   0.548   3.132   1.293
 5251SOL    HW116652   0.643   3.125   1.323
 5251SOL    HW216653   0.516   3.043   1.259
 5252SOL     OW16654   2.201   5.622   1.143
 5252SOL    HW116655   2.186   5.681   1.222
 5252SOL    HW216656   2.126   5.635   1.077
 5253SOL     OW16657   5.682   4.062   5.724
 5253SOL    HW116658   5.711   4.133   5.788
 5253SOL    HW216659   5.621   4.101   5.655
 5254SOL     OW16660   5.803   1.373   3.501
 5254SOL    HW116661   5.878   1.391   3.437
 5254SOL    HW216662   5.790   1.275   3.512
 5255SOL     OW16663   4.478   0.479   5.853
 5255SOL    HW116664   4.417   0.401   5.868
 5255SOL    HW216665   4.548   0.481   5.924
 5256SOL     OW16666   4.582   1.130   3.276
 5256SOL    HW116667   4.678   1.138   3.301
 5256SOL    HW216668   4.541   1.053   3.325
 5257SOL     OW16669   4.238   0.529   1.965
 5257SOL    HW116670   4.160   0.501   2.021
 5257SOL    HW216671   4.236   0.479   1.878
 5258SOL     OW16672   5.323   4.282   1.800
 5258SOL    HW116673   5.292   4.226   1.876
 5258SOL    HW216674   5.320   4.229   1.715
 5259SOL     OW16675   4.358   6.367   1.162
 5259SOL    HW116676   4.426   6.294   1.151
 5259SOL    HW216677   4.404   6.455   1.168
 5260SOL     OW16678   5.797   3.731   1.183
 5260SOL    HW116679   5.793   3.828   1.157
 5260SOL    HW216680   5.888   3.709   1.219
 5261SOL     OW16681   1.631   3.154   5.964
 5261SOL    HW116682   1.541   3.139   6.006
 5261SOL    HW216683   1.676   3.066   5.950
 5262SOL     OW16684   3.420   0.451   2.590
 5262SOL    HW116685   3.490   0.511   2.628
 5262SOL    HW216686   3.442   0.430   2.495
 5263SOL     OW16687   0.901   1.053   5.619
 5263SOL    HW116688   0.910   1.152   5.606
 5263SOL    HW216689   0.894   1.008   5.530
 5264SOL     OW16690   6.656   0.140   2.158
 5264SOL    HW116691   6.563   0.165   2.132
 5264SOL    HW216692   6.718   0.216   2.136
 5265SOL     OW16693   4.883   4.304   2.771
 5265SOL    HW116694   4.792   4.279   2.803
 5265SOL    HW216695   4.945   4.313   2.850
 5266SOL     OW16696   2.859   0.492   2.227
 5266SOL    HW116697   2.797   0.535   2.294
 5266SOL    HW216698   2.805   0.440   2.161
 5267SOL     OW16699   4.562   4.877   6.038
 5267SOL    HW116700   4.533   4.784   6.019
 5267SOL    HW216701   4.621   4.878   6.119
 5268SOL     OW16702   6.034   5.762   6.325
 5268SOL    HW116703   6.021   5.675   6.372
 5268SOL    HW216704   6.129   5.791   6.334
 5269SOL     OW16705   2.812   6.488   4.288
 5269SOL    HW116706   2.852   6.473   4.378
 5269SOL    HW216707   2.771   6.579   4.285
 5270SOL     OW16708   4.708   1.621   1.684
 5270SOL    HW116709   4.720   1.595   1.588
 5270SOL    HW216710   4.783   1.584   1.738
 5271SOL     OW16711   4.458   5.129   4.935
 5271SOL    HW116712   4.509   5.042   4.929
 5271SOL    HW216713   4.439   5.162   4.843
 5272SOL     OW16714   2.031   5.695   3.499
 5272SOL    HW116715   2.040   5.751   3.416
 5272SOL    HW216716   1.935   5.696   3.528
 5273SOL     OW16717   0.350   3.593   3.583
 5273SOL    HW116718   0.381   3.506   3.545
 5273SOL    HW216719   0.379   3.600   3.679
 5274SOL     OW16720   5.921   5.004   2.392
 5274SOL    HW116721   5.888   4.995   2.298
 5274SOL    HW216722   5.987   4.932   2.412
 5275SOL     OW16723   3.324   1.256   6.239
 5275SOL    HW116724   3.272   1.263   6.324
 5275SOL    HW216725   3.276   1.194   6.176
 5276SOL     OW16726   1.136   6.626   0.956
 5276SOL    HW116727   1.138   6.541   1.009
 5276SOL    HW216728   1.138   6.605   0.858
 5277SOL     OW16729   1.342   2.396   3.277
 5277SOL    HW116730   1.419   2.458   3.262
 5277SOL    HW216731   1.258   2.448   3.290
 5278SOL     OW16732   5.170   6.643   4.445
 5278SOL    HW116733   5.255   6.601   4.477
 5278SOL    HW216734   5.092   6.601   4.492
 5279SOL     OW16735   1.626   5.373   6.571
 5279SOL    HW116736   1.544   5.429   6.580
 5279SOL    HW216737   1.602   5.285   6.530
 5280SOL     OW16738   2.912   5.574   5.546
 5280SOL    HW116739   2.870   5.512   5.612
 5280SOL    HW216740   2.967   5.521   5.481
 5281SOL     OW16741   1.279   0.617   3.781
 5281SOL    HW116742   1.225   0.533   3.786
 5281SOL    HW216743   1.282   0.650   3.687
 5282SOL     OW16744   1.665   1.313   2.710
 5282SOL    HW116745   1.729   1.252   2.663
 5282SOL    HW216746   1.579   1.266   2.727
 5283SOL     OW16747   3.061   0.136   2.574
 5283SOL    HW116748   3.064   0.116   2.476
 5283SOL    HW216749   3.154   0.146   2.609
 5284SOL     OW16750   4.803   3.002   2.525
 5284SOL    HW116751   4.764   2.912   2.549
 5284SOL    HW216752   4.745   3.046   2.457
 5285SOL     OW16753   1.408   3.708   4.091
 5285SOL    HW116754   1.350   3.768   4.036
 5285SOL    HW216755   1.368   3.616   4.093
 5286SOL     OW16756   6.576   3.680   1.147
 5286SOL    HW116757   6.483   3.698   1.114
 5286SOL    HW216758   6.631   3.644   1.071
 5287SOL     OW16759   2.402   6.062   1.617
 5287SOL    HW116760   2.372   6.145   1.663
 5287SOL    HW216761   2.459   6.086   1.539
 5288SOL     OW16762   3.731   1.144   2.498
 5288SOL    HW116763   3.781   1.162   2.582
 5288SOL    HW216764   3.783   1.176   2.419
 5289SOL     OW16765   1.560   5.991   6.144
 5289SOL    HW116766   1.656   5.974   6.123
 5289SOL    HW216767   1.508   5.999   6.059
 5290SOL     OW16768   0.867   4.536   6.122
 5290SOL    HW116769   0.778   4.491   6.117
 5290SOL    HW216770   0.882   4.571   6.214
 5291SOL     OW16771   3.124   4.887   6.395
 5291SOL    HW116772   3.113   4.969   6.340
 5291SOL    HW216773   3.041   4.831   6.389
 5292SOL     OW16774   6.342   4.749   6.587
 5292SOL    HW116775   6.254   4.795   6.597
 5292SOL    HW216776   6.409   4.812   6.548
 5293SOL     OW16777   1.552   0.239   4.802
 5293SOL    HW116778   1.520   0.315   4.860
 5293SOL    HW216779   1.503   0.155   4.827
 5294SOL     OW16780   5.707   2.953   4.839
 5294SOL    HW116781   5.619   2.964   4.886
 5294SOL    HW216782   5.708   2.866   4.791
 5295SOL     OW16783   4.368   0.584   3.039
 5295SOL    HW116784   4.304   0.528   2.987
 5295SOL    HW216785   4.428   0.633   2.975
 5296SOL     OW16786   3.298   5.012   6.943
 5296SOL    HW116787   3.244   4.994   6.861
 5296SOL    HW216788   3.248   4.977   0.005
 5297SOL     OW16789   1.756   3.069   0.656
 5297SOL    HW116790   1.735   3.059   0.558
 5297SOL    HW216791   1.804   3.156   0.671
 5298SOL     OW16792   0.888   6.166   0.190
 5298SOL    HW116793   0.857   6.178   0.096
 5298SOL    HW216794   0.934   6.250   0.221
 5299SOL     OW16795   2.501   3.546   0.320
 5299SOL    HW116796   2.461   3.610   0.386
 5299SOL    HW216797   2.461   3.455   0.333
 5300SOL     OW16798   1.098   5.824   0.872
 5300SOL    HW116799   1.102   5.758   0.947
 5300SOL    HW216800   1.058   5.910   0.905
 5301SOL     OW16801   3.543   2.152   6.317
 5301SOL    HW116802   3.525   2.221   6.388
 5301SOL    HW216803   3.575   2.197   6.234
 5302SOL     OW16804   5.919   5.639   3.829
 5302SOL    HW116805   5.895   5.680   3.741
 5302SOL    HW216806   5.900   5.704   3.903
 5303SOL     OW16807   0.164   5.377   4.127
 5303SOL    HW116808   0.152   5.423   4.039
 5303SOL    HW216809   0.239   5.419   4.177
 5304SOL     OW16810   5.274   1.053   0.445
 5304SOL    HW116811   5.269   1.151   0.464
 5304SOL    HW216812   5.315   1.006   0.524
 5305SOL     OW16813   0.783   4.806   2.928
 5305SOL    HW116814   0.802   4.749   2.848
 5305SOL    HW216815   0.797   4.753   3.011
 5306SOL     OW16816   1.318   4.235   4.819
 5306SOL    HW116817   1.299   4.175   4.897
 5306SOL    HW216818   1.417   4.237   4.802
 5307SOL     OW16819   4.317   1.857   0.202
 5307SOL    HW116820   4.236   1.842   0.146
 5307SOL    HW216821   4.314   1.949   0.241
 5308SOL     OW16822   0.906   4.761   3.765
 5308SOL    HW116823   0.981   4.788   3.704
 5308SOL    HW216824   0.866   4.843   3.807
 5309SOL     OW16825   4.021   4.760   1.654
 5309SOL    HW116826   3.936   4.711   1.636
 5309SOL    HW216827   4.001   4.852   1.687
 5310SOL     OW16828   6.361   3.979   1.961
 5310SOL    HW116829   6.337   3.897   1.908
 5310SOL    HW216830   6.416   4.041   1.904
 5311SOL     OW16831   6.594   5.759   6.720
 5311SOL    HW116832   6.550   5.690   6.663
 5311SOL    HW216833   6.524   5.816   6.764
 5312SOL     OW16834   6.889   5.050   1.735
 5312SOL    HW116835   6.874   5.033   1.832
 5312SOL    HW216836   6.882   5.149   1.717
 5313SOL     OW16837   1.603   3.630   5.954
 5313SOL    HW116838   1.540   3.646   5.878
 5313SOL    HW216839   1.593   3.702   6.023
 5314SOL     OW16840   3.081   6.623   0.596
 5314SOL    HW116841   3.083   6.720   0.623
 5314SOL    HW216842   2.994   6.603   0.552
 5315SOL     OW16843   4.922   3.636   1.710
 5315SOL    HW116844   4.871   3.575   1.771
 5315SOL    HW216845   4.972   3.582   1.643
 5316SOL     OW16846   0.907   3.576   4.446
 5316SOL    HW116847   0.988   3.573   4.388
 5316SOL    HW216848   0.862   3.665   4.436
 5317SOL     OW16849   6.157   0.218   4.417
 5317SOL    HW116850   6.147   0.207   4.516
 5317SOL    HW216851   6.132   0.312   4.392
 5318SOL     OW16852   0.551   3.099   6.336
 5318SOL    HW116853   0.508   3.020   6.380
 5318SOL    HW216854   0.650   3.087   6.337
 5319SOL     OW16855   3.517   6.532   0.182
 5319SOL    HW116856   3.452   6.458   0.199
 5319SOL    HW216857   3.608   6.505   0.213
 5320SOL     OW16858   5.224   5.029   0.331
 5320SOL    HW116859   5.194   4.940   0.367
 5320SOL    HW216860   5.320   5.043   0.353
 5321SOL     OW16861   1.168   5.119   4.540
 5321SOL    HW116862   1.136   5.198   4.488
 5321SOL    HW216863   1.154   5.036   4.487
 5322SOL     OW16864   5.073   6.365   6.067
 5322SOL    HW116865   5.085   6.450   6.118
 5322SOL    HW216866   4.975   6.348   6.053
 5323SOL     OW16867   4.228   2.015   6.873
 5323SOL    HW116868   4.210   1.961   6.955
 5323SOL    HW216869   4.143   2.061   6.845
 5324SOL     OW16870   3.661   2.384   0.636
 5324SOL    HW116871   3.691   2.385   0.540
 5324SOL    HW216872   3.615   2.297   0.656
 5325SOL     OW16873   4.571   0.638   4.425
 5325SOL    HW116874   4.554   0.553   4.475
 5325SOL    HW216875   4.519   0.638   4.340
 5326SOL     OW16876   6.710   5.020   3.119
 5326SOL    HW116877   6.785   5.071   3.077
 5326SOL    HW216878   6.625   5.073   3.110
 5327SOL     OW16879   5.784   3.074   5.538
 5327SOL    HW116880   5.781   3.106   5.444
 5327SOL    HW216881   5.695   3.089   5.581
 5328SOL     OW16882   4.288   3.015   5.402
 5328SOL    HW116883   4.334   3.091   5.357
 5328SOL    HW216884   4.356   2.949   5.434
 5329SOL     OW16885   0.238   4.474   0.323
 5329SOL    HW116886   0.165   4.488   0.257
 5329SOL    HW216887   0.263   4.561   0.364
 5330SOL     OW16888   3.385   4.416   5.771
 5330SOL    HW116889   3.347   4.504   5.745
 5330SOL    HW216890   3.482   4.427   5.793
 5331SOL     OW16891   5.195   1.322   0.511
 5331SOL    HW116892   5.274   1.383   0.518
 5331SOL    HW216893   5.113   1.371   0.539
 5332SOL     OW16894   0.716   3.593   1.113
 5332SOL    HW116895   0.632   3.616   1.063
 5332SOL    HW216896   0.795   3.629   1.064
 5333SOL     OW16897   0.847   0.600   3.657
 5333SOL    HW116898   0.865   0.689   3.614
 5333SOL    HW216899   0.800   0.541   3.592
 5334SOL     OW16900   3.904   0.091   4.575
 5334SOL    HW116901   3.929   0.185   4.549
 5334SOL    HW216902   3.987   0.041   4.601
 5335SOL     OW16903   6.451   5.375   2.427
 5335SOL    HW116904   6.547   5.383   2.399
 5335SOL    HW216905   6.404   5.312   2.364
 5336SOL     OW16906   2.528   2.226   3.055
 5336SOL    HW116907   2.486   2.208   3.144
 5336SOL    HW216908   2.463   2.202   2.982
 5337SOL     OW16909   5.328   4.425   1.337
 5337SOL    HW116910   5.398   4.420   1.408
 5337SOL    HW216911   5.243   4.460   1.377
 5338SOL     OW16912   5.801   1.885   6.209
 5338SOL    HW116913   5.827   1.964   6.263
 5338SOL    HW216914   5.735   1.912   6.139
 5339SOL     OW16915   6.766   2.093   4.226
 5339SOL    HW116916   6.849   2.108   4.172
 5339SOL    HW216917   6.772   2.145   4.312
 5340SOL     OW16918   5.700   3.087   0.985
 5340SOL    HW116919   5.689   3.014   1.052
 5340SOL    HW216920   5.611   3.127   0.965
 5341SOL     OW16921   3.463   3.717   6.363
 5341SOL    HW116922   3.492   3.709   6.268
 5341SOL    HW216923   3.365   3.701   6.370
 5342SOL     OW16924   3.053   0.171   3.838
 5342SOL    HW116925   3.009   0.081   3.831
 5342SOL    HW216926   3.143   0.167   3.795
 5343SOL     OW16927   3.826   3.566   4.725
 5343SOL    HW116928   3.774   3.554   4.809
 5343SOL    HW216929   3.769   3.612   4.657
 5344SOL     OW16930   2.292   2.177   2.523
 5344SOL    HW116931   2.241   2.186   2.609
 5344SOL    HW216932   2.374   2.121   2.539
 5345SOL     OW16933   3.760   6.893   1.371
 5345SOL    HW116934   3.718   6.959   1.433
 5345SOL    HW216935   3.690   6.831   1.335
 5346SOL     OW16936   3.169   5.795   4.417
 5346SOL    HW116937   3.096   5.858   4.444
 5346SOL    HW216938   3.130   5.707   4.391
 5347SOL     OW16939   0.601   2.568   1.576
 5347SOL    HW116940   0.573   2.584   1.671
 5347SOL    HW216941   0.576   2.646   1.520
 5348SOL     OW16942   6.595   2.128   1.071
 5348SOL    HW116943   6.642   2.215   1.086
 5348SOL    HW216944   6.644   2.055   1.117
 5349SOL     OW16945   2.003   2.819   0.332
 5349SOL    HW116946   1.920   2.785   0.377
 5349SOL    HW216947   1.979   2.890   0.266
 5350SOL     OW16948   1.437   6.991   5.331
 5350SOL    HW116949   1.488   6.913   5.368
 5350SOL    HW216950   1.372   6.958   5.262
 5351SOL     OW16951   6.776   5.243   2.742
 5351SOL    HW116952   6.786   5.144   2.739
 5351SOL    HW216953   6.684   5.266   2.776
 5352SOL     OW16954   2.693   4.663   3.521
 5352SOL    HW116955   2.650   4.591   3.576
 5352SOL    HW216956   2.684   4.641   3.424
 5353SOL     OW16957   4.157   4.710   3.764
 5353SOL    HW116958   4.092   4.750   3.829
 5353SOL    HW216959   4.206   4.636   3.808
 5354SOL     OW16960   2.705   5.582   1.860
 5354SOL    HW116961   2.611   5.607   1.835
 5354SOL    HW216962   2.724   5.613   1.953
 5355SOL     OW16963   6.630   4.098   3.985
 5355SOL    HW116964   6.586   4.013   3.954
 5355SOL    HW216965   6.559   4.164   4.011
 5356SOL     OW16966   5.856   4.627   1.690
 5356SOL    HW116967   5.913   4.688   1.636
 5356SOL    HW216968   5.894   4.534   1.687
 5357SOL     OW16969   3.960   6.183   1.021
 5357SOL    HW116970   3.899   6.259   1.045
 5357SOL    HW216971   4.052   6.219   1.007
 5358SOL     OW16972   4.624   1.561   0.308
 5358SOL    HW116973   4.721   1.577   0.322
 5358SOL    HW216974   4.607   1.462   0.303
 5359SOL     OW16975   0.887   1.312   5.618
 5359SOL    HW116976   0.935   1.391   5.582
 5359SOL    HW216977   0.796   1.307   5.577
 5360SOL     OW16978   3.744   6.810   4.946
 5360SOL    HW116979   3.738   6.743   5.020
 5360SOL    HW216980   3.799   6.773   4.871
 5361SOL     OW16981   2.648   1.071   5.683
 5361SOL    HW116982   2.588   1.058   5.604
 5361SOL    HW216983   2.615   1.149   5.736
 5362SOL     OW16984   6.592   5.920   3.378
 5362SOL    HW116985   6.642   6.007   3.384
 5362SOL    HW216986   6.514   5.930   3.316
 5363SOL     OW16987   0.168   0.770   6.991
 5363SOL    HW116988   0.129   0.687   0.014
 5363SOL    HW216989   0.117   0.794   6.909
 5364SOL     OW16990   0.010   6.555   1.996
 5364SOL    HW116991   0.072   6.516   1.928
 5364SOL    HW216992   0.027   6.512   2.085
 5365SOL     OW16993   3.649   3.343   6.989
 5365SOL    HW116994   3.694   3.273   6.933
 5365SOL    HW216995   3.706   3.425   6.992
 5366SOL     OW16996   5.324   5.843   1.899
 5366SOL    HW116997   5.235   5.860   1.857
 5366SOL    HW216998   5.331   5.746   1.923
 5367SOL     OW16999   0.914   6.640   1.188
 5367SOL    HW117000   0.962   6.552   1.187
 5367SOL    HW217001   0.977   6.711   1.157
 5368SOL     OW17002   5.520   6.999   2.392
 5368SOL    HW117003   5.472   0.054   2.343
 5368SOL    HW217004   5.535   6.922   2.329
 5369SOL     OW17005   2.638   0.100   1.966
 5369SOL    HW117006   2.678   0.052   2.044
 5369SOL    HW217007   2.538   0.095   1.970
 5370SOL     OW17008   4.500   2.807   1.709
 5370SOL    HW117009   4.401   2.809   1.691
 5370SOL    HW217010   4.529   2.896   1.744
 5371SOL     OW17011   0.946   3.825   5.026
 5371SOL    HW117012   0.999   3.768   4.964
 5371SOL    HW217013   0.854   3.839   4.988
 5372SOL     OW17014   2.116   6.264   4.065
 5372SOL    HW117015   2.194   6.251   4.126
 5372SOL    HW217016   2.103   6.362   4.048
 5373SOL     OW17017   3.667   7.003   4.495
 5373SOL    HW117018   3.752   0.031   4.519
 5373SOL    HW217019   3.686   6.925   4.436
 5374SOL     OW17020   1.337   4.456   6.936
 5374SOL    HW117021   1.368   4.550   6.928
 5374SOL    HW217022   1.412   4.394   6.912
 5375SOL     OW17023   0.932   4.913   5.307
 5375SOL    HW117024   1.009   4.964   5.270
 5375SOL    HW217025   0.884   4.867   5.233
 5376SOL     OW17026   1.692   3.089   1.225
 5376SOL    HW117027   1.611   3.144   1.244
 5376SOL    HW217028   1.666   3.006   1.175
 5377SOL     OW17029   0.190   6.617   2.590
 5377SOL    HW117030   0.106   6.594   2.641
 5377SOL    HW217031   0.167   6.635   2.495
 5378SOL     OW17032   6.749   0.326   1.632
 5378SOL    HW117033   6.768   0.229   1.613
 5378SOL    HW217034   6.756   0.342   1.731
 5379SOL     OW17035   1.401   4.488   5.120
 5379SOL    HW117036   1.381   4.520   5.212
 5379SOL    HW217037   1.319   4.445   5.081
 5380SOL     OW17038   2.018   1.313   2.711
 5380SOL    HW117039   1.999   1.373   2.633
 5380SOL    HW217040   2.103   1.262   2.694
 5381SOL     OW17041   6.463   4.693   1.977
 5381SOL    HW117042   6.412   4.657   2.055
 5381SOL    HW217043   6.560   4.703   2.003
 5382SOL     OW17044   3.266   1.175   2.309
 5382SOL    HW117045   3.357   1.182   2.349
 5382SOL    HW217046   3.198   1.202   2.377
 5383SOL     OW17047   2.420   2.354   5.414
 5383SOL    HW117048   2.483   2.342   5.490
 5383SOL    HW217049   2.470   2.344   5.328
 5384SOL     OW17050   6.092   6.951   5.061
 5384SOL    HW117051   6.171   7.010   5.078
 5384SOL    HW217052   6.101   6.867   5.115
 5385SOL     OW17053   3.524   3.283   4.174
 5385SOL    HW117054   3.437   3.236   4.188
 5385SOL    HW217055   3.568   3.247   4.091
 5386SOL     OW17056   4.716   0.897   4.322
 5386SOL    HW117057   4.701   0.990   4.355
 5386SOL    HW217058   4.651   0.835   4.368
 5387SOL     OW17059   2.421   7.005   3.315
 5387SOL    HW117060   2.437   0.077   3.357
 5387SOL    HW217061   2.456   6.934   3.375
 5388SOL     OW17062   0.130   0.921   4.045
 5388SOL    HW117063   0.221   0.950   4.073
 5388SOL    HW217064   0.126   0.912   3.946
 5389SOL     OW17065   4.776   1.099   2.908
 5389SOL    HW117066   4.817   1.070   2.995
 5389SOL    HW217067   4.822   1.181   2.875
 5390SOL     OW17068   4.741   4.079   3.037
 5390SOL    HW117069   4.691   4.135   2.971
 5390SOL    HW217070   4.795   4.011   2.987
 5391SOL     OW17071   2.320   2.046   0.860
 5391SOL    HW117072   2.401   2.089   0.900
 5391SOL    HW217073   2.346   1.962   0.813
 5392SOL     OW17074   5.457   3.165   0.932
 5392SOL    HW117075   5.447   3.205   0.840
 5392SOL    HW217076   5.387   3.095   0.945
 5393SOL     OW17077   4.487   6.967   6.816
 5393SOL    HW117078   4.509   6.896   6.883
 5393SOL    HW217079   4.568   6.988   6.761
 5394SOL     OW17080   6.766   4.561   0.121
 5394SOL    HW117081   6.860   4.590   0.140
 5394SOL    HW217082   6.703   4.633   0.149
 5395SOL     OW17083   5.063   1.656   1.164
 5395SOL    HW117084   4.965   1.665   1.150
 5395SOL    HW217085   5.082   1.655   1.262
 5396SOL     OW17086   4.344   4.498   1.828
 5396SOL    HW117087   4.419   4.538   1.881
 5396SOL    HW217088   4.350   4.398   1.830
 5397SOL     OW17089   0.525   2.792   1.456
 5397SOL    HW117090   0.512   2.803   1.357
 5397SOL    HW217091   0.531   2.881   1.499
 5398SOL     OW17092   3.612   2.158   3.663
 5398SOL    HW117093   3.692   2.155   3.602
 5398SOL    HW217094   3.530   2.173   3.608
 5399SOL     OW17095   2.956   5.852   0.735
 5399SOL    HW117096   3.010   5.770   0.752
 5399SOL    HW217097   3.011   5.918   0.683
 5400SOL     OW17098   2.406   4.047   0.019
 5400SOL    HW117099   2.338   4.059   6.965
 5400SOL    HW217100   2.384   3.965   0.073
 5401SOL     OW17101   6.308   3.809   1.202
 5401SOL    HW117102   6.237   3.877   1.183
 5401SOL    HW217103   6.265   3.724   1.232
 5402SOL     OW17104   2.846   5.058   2.036
 5402SOL    HW117105   2.865   4.988   1.968
 5402SOL    HW217106   2.828   5.145   1.990
 5403SOL     OW17107   5.590   2.917   6.343
 5403SOL    HW117108   5.571   3.005   6.387
 5403SOL    HW217109   5.581   2.843   6.410
 5404SOL     OW17110   0.845   0.642   2.052
 5404SOL    HW117111   0.812   0.548   2.054
 5404SOL    HW217112   0.778   0.702   2.096
 5405SOL     OW17113   5.986   6.087   0.224
 5405SOL    HW117114   6.084   6.069   0.234
 5405SOL    HW217115   5.950   6.123   0.310
 5406SOL     OW17116   2.852   6.984   6.529
 5406SOL    HW117117   2.789   6.995   6.605
 5406SOL    HW217118   2.910   6.904   6.545
 5407SOL     OW17119   4.469   2.455   1.460
 5407SOL    HW117120   4.568   2.440   1.460
 5407SOL    HW217121   4.425   2.383   1.514
 5408SOL     OW17122   3.553   0.955   5.876
 5408SOL    HW117123   3.526   1.039   5.923
 5408SOL    HW217124   3.475   0.891   5.873
 5409SOL     OW17125   5.819   2.049   3.898
 5409SOL    HW117126   5.836   1.957   3.933
 5409SOL    HW217127   5.887   2.112   3.935
 5410SOL     OW17128   1.688   3.321   0.468
 5410SOL    HW117129   1.650   3.348   0.557
 5410SOL    HW217130   1.672   3.224   0.453
 5411SOL     OW17131   6.359   4.948   5.578
 5411SOL    HW117132   6.268   4.964   5.540
 5411SOL    HW217133   6.408   5.035   5.585
 5412SOL     OW17134   4.481   0.457   0.226
 5412SOL    HW117135   4.520   0.373   0.187
 5412SOL    HW217136   4.540   0.535   0.203
 5413SOL     OW17137   0.295   0.474   1.376
 5413SOL    HW117138   0.370   0.417   1.343
 5413SOL    HW217139   0.282   0.552   1.314
 5414SOL     OW17140   6.368   3.085   5.349
 5414SOL    HW117141   6.415   3.051   5.267
 5414SOL    HW217142   6.317   3.168   5.327
 5415SOL     OW17143   1.533   6.595   1.653
 5415SOL    HW117144   1.508   6.613   1.748
 5415SOL    HW217145   1.603   6.660   1.623
 5416SOL     OW17146   3.545   4.883   6.183
 5416SOL    HW117147   3.507   4.970   6.214
 5416SOL    HW217148   3.572   4.891   6.087
 5417SOL     OW17149   4.009   0.121   4.942
 5417SOL    HW117150   3.913   0.106   4.966
 5417SOL    HW217151   4.023   0.101   4.845
 5418SOL     OW17152   4.760   0.208   4.661
 5418SOL    HW117153   4.791   0.300   4.636
 5418SOL    HW217154   4.824   0.140   4.626
 5419SOL     OW17155   2.853   5.623   0.507
 5419SOL    HW117156   2.940   5.666   0.480
 5419SOL    HW217157   2.810   5.677   0.579
 5420SOL     OW17158   1.444   2.846   2.080
 5420SOL    HW117159   1.505   2.770   2.102
 5420SOL    HW217160   1.496   2.932   2.079
 5421SOL     OW17161   2.172   3.983   2.968
 5421SOL    HW117162   2.150   3.892   2.934
 5421SOL    HW217163   2.181   3.981   3.068
 5422SOL     OW17164   0.867   5.678   5.900
 5422SOL    HW117165   0.913   5.734   5.832
 5422SOL    HW217166   0.925   5.600   5.924
 5423SOL     OW17167   5.621   3.503   6.810
 5423SOL    HW117168   5.704   3.549   6.841
 5423SOL    HW217169   5.543   3.536   6.864
 5424SOL     OW17170   5.685   3.285   4.047
 5424SOL    HW117171   5.735   3.275   4.133
 5424SOL    HW217172   5.588   3.299   4.065
 5425SOL     OW17173   4.856   1.759   4.243
 5425SOL    HW117174   4.790   1.700   4.288
 5425SOL    HW217175   4.906   1.707   4.173
 5426SOL     OW17176   6.856   5.551   3.783
 5426SOL    HW117177   6.769   5.599   3.794
 5426SOL    HW217178   6.891   5.565   3.691
 5427SOL     OW17179   5.078   4.949   0.954
 5427SOL    HW117180   5.160   4.997   0.987
 5427SOL    HW217181   4.998   5.008   0.966
 5428SOL     OW17182   0.040   0.345   1.725
 5428SOL    HW117183   0.037   0.418   1.658
 5428SOL    HW217184   7.012   0.374   1.809
 5429SOL     OW17185   1.113   1.280   5.813
 5429SOL    HW117186   1.151   1.373   5.802
 5429SOL    HW217187   1.031   1.271   5.757
 5430SOL     OW17188   1.132   2.881   5.124
 5430SOL    HW117189   1.211   2.940   5.112
 5430SOL    HW217190   1.079   2.913   5.203
 5431SOL     OW17191   3.622   5.540   6.344
 5431SOL    HW117192   3.650   5.533   6.440
 5431SOL    HW217193   3.690   5.495   6.286
 5432SOL     OW17194   4.056   6.348   6.400
 5432SOL    HW117195   4.047   6.316   6.306
 5432SOL    HW217196   4.023   6.277   6.462
 5433SOL     OW17197   6.911   1.399   3.628
 5433SOL    HW117198   6.832   1.371   3.574
 5433SOL    HW217199   6.995   1.374   3.581
 5434SOL     OW17200   3.806   0.763   4.582
 5434SOL    HW117201   3.781   0.732   4.673
 5434SOL    HW217202   3.727   0.758   4.521
 5435SOL     OW17203   5.948   1.778   1.281
 5435SOL    HW117204   5.987   1.856   1.231
 5435SOL    HW217205   5.967   1.788   1.378
 5436SOL     OW17206   5.496   3.922   4.863
 5436SOL    HW117207   5.503   3.901   4.766
 5436SOL    HW217208   5.493   3.837   4.916
 5437SOL     OW17209   2.384   5.168   4.977
 5437SOL    HW117210   2.396   5.069   4.968
 5437SOL    HW217211   2.378   5.191   5.074
 5438SOL     OW17212   5.878   3.810   2.704
 5438SOL    HW117213   5.863   3.846   2.796
 5438SOL    HW217214   5.800   3.754   2.677
 5439SOL     OW17215   6.995   2.186   0.519
 5439SOL    HW117216   6.997   2.224   0.427
 5439SOL    HW217217   6.905   2.144   0.536
 5440SOL     OW17218   0.406   0.299   2.345
 5440SOL    HW117219   0.438   0.309   2.251
 5440SOL    HW217220   0.456   0.363   2.404
 5441SOL     OW17221   4.912   3.101   3.191
 5441SOL    HW117222   4.839   3.099   3.124
 5441SOL    HW217223   4.885   3.049   3.272
 5442SOL     OW17224   3.512   6.613   3.319
 5442SOL    HW117225   3.570   6.677   3.270
 5442SOL    HW217226   3.417   6.643   3.315
 5443SOL     OW17227   2.524   6.828   3.820
 5443SOL    HW117228   2.560   6.882   3.744
 5443SOL    HW217229   2.429   6.803   3.801
 5444SOL     OW17230   0.640   0.372   3.541
 5444SOL    HW117231   0.629   0.346   3.445
 5444SOL    HW217232   0.621   0.293   3.600
 5445SOL     OW17233   6.184   4.336   4.143
 5445SOL    HW117234   6.137   4.424   4.146
 5445SOL    HW217235   6.264   4.343   4.084
 5446SOL     OW17236   5.551   5.251   5.330
 5446SOL    HW117237   5.550   5.256   5.430
 5446SOL    HW217238   5.639   5.215   5.300
 5447SOL     OW17239   1.262   1.938   0.685
 5447SOL    HW117240   1.268   1.867   0.756
 5447SOL    HW217241   1.212   1.902   0.606
 5448SOL     OW17242   5.722   3.594   4.866
 5448SOL    HW117243   5.758   3.564   4.777
 5448SOL    HW217244   5.789   3.651   4.912
 5449SOL     OW17245   1.232   1.804   7.009
 5449SOL    HW117246   1.317   1.758   0.016
 5449SOL    HW217247   1.248   1.902   6.999
 5450SOL     OW17248   2.174   0.859   2.062
 5450SOL    HW117249   2.261   0.907   2.052
 5450SOL    HW217250   2.176   0.776   2.007
 5451SOL     OW17251   1.857   5.459   3.340
 5451SOL    HW117252   1.921   5.385   3.322
 5451SOL    HW217253   1.896   5.546   3.311
 5452SOL     OW17254   2.032   3.907   6.947
 5452SOL    HW117255   2.116   3.914   6.893
 5452SOL    HW217256   2.024   3.814   6.983
 5453SOL     OW17257   5.194   4.124   1.155
 5453SOL    HW117258   5.248   4.105   1.237
 5453SOL    HW217259   5.101   4.088   1.168
 5454SOL     OW17260   6.145   4.136   5.550
 5454SOL    HW117261   6.119   4.219   5.499
 5454SOL    HW217262   6.064   4.095   5.591
 5455SOL     OW17263   6.314   2.247   1.811
 5455SOL    HW117264   6.214   2.238   1.813
 5455SOL    HW217265   6.355   2.178   1.871
 5456SOL     OW17266   2.688   0.191   0.226
 5456SOL    HW117267   2.675   0.116   0.161
 5456SOL    HW217268   2.717   0.154   0.314
 5457SOL     OW17269   0.247   2.468   0.929
 5457SOL    HW117270   0.180   2.412   0.881
 5457SOL    HW217271   0.315   2.409   0.973
 5458SOL     OW17272   0.475   4.045   0.383
 5458SOL    HW117273   0.381   4.039   0.417
 5458SOL    HW217274   0.498   4.140   0.362
 5459SOL     OW17275   2.672   4.202   6.764
 5459SOL    HW117276   2.616   4.123   6.741
 5459SOL    HW217277   2.710   4.241   6.680
 5460SOL     OW17278   3.796   0.148   3.306
 5460SOL    HW117279   3.879   0.093   3.312
 5460SOL    HW217280   3.768   0.178   3.397
 5461SOL     OW17281   0.270   0.556   5.732
 5461SOL    HW117282   0.314   0.550   5.822
 5461SOL    HW217283   0.174   0.532   5.740
 5462SOL     OW17284   0.121   6.625   1.328
 5462SOL    HW117285   0.202   6.605   1.273
 5462SOL    HW217286   0.043   6.645   1.268
 5463SOL     OW17287   6.938   1.422   0.297
 5463SOL    HW117288   6.974   1.379   0.214
 5463SOL    HW217289   6.969   1.517   0.301
 5464SOL     OW17290   0.416   0.766   4.679
 5464SOL    HW117291   0.469   0.700   4.625
 5464SOL    HW217292   0.322   0.735   4.687
 5465SOL     OW17293   4.732   0.367   4.247
 5465SOL    HW117294   4.717   0.268   4.258
 5465SOL    HW217295   4.648   0.410   4.214
 5466SOL     OW17296   5.283   3.129   4.737
 5466SOL    HW117297   5.212   3.059   4.747
 5466SOL    HW217298   5.344   3.126   4.816
 5467SOL     OW17299   4.882   3.882   3.560
 5467SOL    HW117300   4.899   3.853   3.466
 5467SOL    HW217301   4.869   3.802   3.618
 5468SOL     OW17302   6.569   2.660   3.741
 5468SOL    HW117303   6.486   2.617   3.707
 5468SOL    HW217304   6.570   2.757   3.714
 5469SOL     OW17305   2.914   5.771   5.986
 5469SOL    HW117306   2.978   5.712   6.034
 5469SOL    HW217307   2.937   5.773   5.888
 5470SOL     OW17308   3.258   5.601   3.073
 5470SOL    HW117309   3.336   5.599   3.135
 5470SOL    HW217310   3.291   5.598   2.978
 5471SOL     OW17311   5.828   6.977   2.656
 5471SOL    HW117312   5.812   6.905   2.589
 5471SOL    HW217313   5.749   6.985   2.717
 5472SOL     OW17314   3.694   3.907   6.106
 5472SOL    HW117315   3.669   3.812   6.090
 5472SOL    HW217316   3.793   3.914   6.124
 5473SOL     OW17317   0.526   2.986   2.435
 5473SOL    HW117318   0.550   2.931   2.354
 5473SOL    HW217319   0.518   2.926   2.514
 5474SOL     OW17320   0.986   4.698   4.032
 5474SOL    HW117321   1.023   4.780   4.074
 5474SOL    HW217322   0.944   4.721   3.944
 5475SOL     OW17323   2.376   2.924   1.099
 5475SOL    HW117324   2.345   2.837   1.139
 5475SOL    HW217325   2.476   2.931   1.109
 5476SOL     OW17326   2.452   4.369   5.590
 5476SOL    HW117327   2.504   4.289   5.561
 5476SOL    HW217328   2.377   4.339   5.650
 5477SOL     OW17329   2.081   4.626   2.911
 5477SOL    HW117330   2.144   4.629   2.989
 5477SOL    HW217331   2.101   4.546   2.855
 5478SOL     OW17332   3.420   5.865   4.798
 5478SOL    HW117333   3.346   5.867   4.731
 5478SOL    HW217334   3.381   5.870   4.890
 5479SOL     OW17335   5.441   1.601   5.868
 5479SOL    HW117336   5.476   1.556   5.950
 5479SOL    HW217337   5.509   1.595   5.795
 5480SOL     OW17338   5.542   4.772   3.160
 5480SOL    HW117339   5.637   4.779   3.189
 5480SOL    HW217340   5.514   4.857   3.116
 5481SOL     OW17341   4.162   1.781   4.121
 5481SOL    HW117342   4.214   1.762   4.038
 5481SOL    HW217343   4.113   1.868   4.109
 5482SOL     OW17344   3.477   4.354   1.683
 5482SOL    HW117345   3.508   4.437   1.730
 5482SOL    HW217346   3.456   4.284   1.751
 5483SOL     OW17347   0.017   1.678   5.614
 5483SOL    HW117348   0.101   1.729   5.598
 5483SOL    HW217349   0.008   1.605   5.545
 5484SOL     OW17350   4.087   1.452   4.078
 5484SOL    HW117351   4.072   1.420   3.984
 5484SOL    HW217352   4.016   1.518   4.103
 5485SOL     OW17353   3.934   0.217   5.295
 5485SOL    HW117354   4.012   0.242   5.237
 5485SOL    HW217355   3.944   0.123   5.325
 5486SOL     OW17356   2.352   6.168   5.369
 5486SOL    HW117357   2.393   6.124   5.449
 5486SOL    HW217358   2.274   6.114   5.337
 5487SOL     OW17359   4.672   2.521   0.021
 5487SOL    HW117360   4.591   2.531   0.079
 5487SOL    HW217361   4.750   2.495   0.078
 5488SOL     OW17362   6.129   0.261   1.133
 5488SOL    HW117363   6.118   0.348   1.086
 5488SOL    HW217364   6.148   0.277   1.230
 5489SOL     OW17365   0.397   4.857   1.374
 5489SOL    HW117366   0.467   4.785   1.371
 5489SOL    HW217367   0.306   4.815   1.372
 5490SOL     OW17368   3.443   0.367   2.322
 5490SOL    HW117369   3.450   0.286   2.265
 5490SOL    HW217370   3.386   0.435   2.276
 5491SOL     OW17371   1.055   2.959   0.282
 5491SOL    HW117372   1.010   2.894   0.343
 5491SOL    HW217373   1.005   2.963   0.195
 5492SOL     OW17374   0.865   3.794   6.473
 5492SOL    HW117375   0.795   3.728   6.499
 5492SOL    HW217376   0.872   3.798   6.373
 5493SOL     OW17377   3.365   4.072   3.803
 5493SOL    HW117378   3.332   4.106   3.891
 5493SOL    HW217379   3.434   4.001   3.818
 5494SOL     OW17380   0.821   3.947   5.830
 5494SOL    HW117381   0.819   3.854   5.795
 5494SOL    HW217382   0.768   4.007   5.771
 5495SOL     OW17383   5.673   1.280   0.613
 5495SOL    HW117384   5.664   1.374   0.646
 5495SOL    HW217385   5.726   1.280   0.528
 5496SOL     OW17386   4.142   0.913   3.533
 5496SOL    HW117387   4.206   0.934   3.607
 5496SOL    HW217388   4.053   0.953   3.554
 5497SOL     OW17389   0.176   0.706   5.030
 5497SOL    HW117390   0.263   0.755   5.035
 5497SOL    HW217391   0.148   0.696   4.934
 5498SOL     OW17392   6.753   5.440   1.422
 5498SOL    HW117393   6.820   5.370   1.399
 5498SOL    HW217394   6.801   5.521   1.459
 5499SOL     OW17395   0.981   0.743   4.629
 5499SOL    HW117396   0.953   0.648   4.613
 5499SOL    HW217397   1.005   0.754   4.725
 5500SOL     OW17398   0.706   0.518   0.046
 5500SOL    HW117399   0.686   0.440   0.105
 5500SOL    HW217400   0.800   0.512   0.013
 5501SOL     OW17401   3.760   1.442   6.714
 5501SOL    HW117402   3.670   1.465   6.752
 5501SOL    HW217403   3.766   1.477   6.621
 5502SOL     OW17404   4.932   3.636   0.215
 5502SOL    HW117405   5.029   3.613   0.224
 5502SOL    HW217406   4.884   3.559   0.172
 5503SOL     OW17407   6.818   4.203   0.982
 5503SOL    HW117408   6.850   4.262   0.907
 5503SOL    HW217409   6.828   4.252   1.069
 5504SOL     OW17410   4.665   1.568   5.220
 5504SOL    HW117411   4.655   1.492   5.284
 5504SOL    HW217412   4.596   1.638   5.240
 5505SOL     OW17413   1.957   5.239   3.947
 5505SOL    HW117414   2.019   5.263   4.022
 5505SOL    HW217415   2.004   5.176   3.885
 5506SOL     OW17416   0.596   3.684   0.631
 5506SOL    HW117417   0.637   3.602   0.672
 5506SOL    HW217418   0.612   3.683   0.532
 5507SOL     OW17419   4.255   1.109   4.928
 5507SOL    HW117420   4.169   1.147   4.893
 5507SOL    HW217421   4.249   1.098   5.027
 5508SOL     OW17422   1.255   1.333   0.652
 5508SOL    HW117423   1.200   1.371   0.726
 5508SOL    HW217424   1.259   1.234   0.660
 5509SOL     OW17425   0.105   6.117   6.616
 5509SOL    HW117426   0.193   6.071   6.598
 5509SOL    HW217427   0.032   6.070   6.566
 5510SOL     OW17428   4.547   5.596   6.556
 5510SOL    HW117429   4.500   5.514   6.523
 5510SOL    HW217430   4.613   5.627   6.488
 5511SOL     OW17431   0.667   6.977   4.238
 5511SOL    HW117432   0.731   0.023   4.281
 5511SOL    HW217433   0.581   0.006   4.219
 5512SOL     OW17434   4.905   2.205   0.824
 5512SOL    HW117435   4.917   2.302   0.803
 5512SOL    HW217436   4.955   2.182   0.908
 5513SOL     OW17437   3.567   5.469   5.849
 5513SOL    HW117438   3.477   5.498   5.818
 5513SOL    HW217439   3.562   5.437   5.943
 5514SOL     OW17440   3.681   0.293   4.713
 5514SOL    HW117441   3.584   0.301   4.694
 5514SOL    HW217442   3.699   0.205   4.758
 5515SOL     OW17443   0.898   5.797   1.599
 5515SOL    HW117444   0.962   5.816   1.673
 5515SOL    HW217445   0.864   5.882   1.561
 5516SOL     OW17446   1.814   2.615   5.548
 5516SOL    HW117447   1.866   2.610   5.634
 5516SOL    HW217448   1.755   2.535   5.540
 5517SOL     OW17449   2.106   3.755   2.130
 5517SOL    HW117450   2.086   3.807   2.048
 5517SOL    HW217451   2.159   3.673   2.106
 5518SOL     OW17452   5.972   5.519   6.892
 5518SOL    HW117453   5.964   5.536   6.991
 5518SOL    HW217454   5.882   5.531   6.850
 5519SOL     OW17455   5.311   3.007   3.028
 5519SOL    HW117456   5.351   3.007   2.936
 5519SOL    HW217457   5.311   2.913   3.064
 5520SOL     OW17458   5.981   6.715   2.388
 5520SOL    HW117459   6.057   6.768   2.426
 5520SOL    HW217460   6.008   6.619   2.381
 5521SOL     OW17461   4.497   6.486   2.222
 5521SOL    HW117462   4.595   6.500   2.228
 5521SOL    HW217463   4.463   6.452   2.310
 5522SOL     OW17464   6.191   4.934   0.429
 5522SOL    HW117465   6.111   4.924   0.487
 5522SOL    HW217466   6.270   4.959   0.485
 5523SOL     OW17467   3.812   1.373   1.689
 5523SOL    HW117468   3.863   1.374   1.775
 5523SOL    HW217469   3.714   1.372   1.709
 5524SOL     OW17470   4.143   7.014   4.668
 5524SOL    HW117471   4.214   0.006   4.598
 5524SOL    HW217472   4.140   6.919   4.700
 5525SOL     OW17473   0.519   2.478   0.130
 5525SOL    HW117474   0.610   2.492   0.171
 5525SOL    HW217475   0.455   2.448   0.201
 5526SOL     OW17476   5.011   5.174   2.697
 5526SOL    HW117477   4.998   5.080   2.664
 5526SOL    HW217478   5.051   5.171   2.788
 5527SOL     OW17479   4.956   3.643   3.704
 5527SOL    HW117480   4.896   3.565   3.720
 5527SOL    HW217481   4.923   3.721   3.758
 5528SOL     OW17482   1.646   0.865   0.754
 5528SOL    HW117483   1.691   0.942   0.708
 5528SOL    HW217484   1.706   0.830   0.826
 5529SOL     OW17485   3.422   6.682   4.890
 5529SOL    HW117486   3.335   6.725   4.916
 5529SOL    HW217487   3.498   6.733   4.931
 5530SOL     OW17488   6.147   2.112   0.684
 5530SOL    HW117489   6.135   2.034   0.746
 5530SOL    HW217490   6.175   2.192   0.737
 5531SOL     OW17491   3.845   3.448   1.673
 5531SOL    HW117492   3.763   3.504   1.661
 5531SOL    HW217493   3.909   3.494   1.734
 5532SOL     OW17494   1.209   3.311   1.355
 5532SOL    HW117495   1.298   3.276   1.324
 5532SOL    HW217496   1.136   3.258   1.313
 5533SOL     OW17497   4.179   1.888   3.223
 5533SOL    HW117498   4.241   1.962   3.250
 5533SOL    HW217499   4.221   1.834   3.150
 5534SOL     OW17500   0.895   1.729   6.912
 5534SOL    HW117501   0.916   1.814   6.865
 5534SOL    HW217502   0.921   1.738   7.009
 5535SOL     OW17503   1.257   1.067   2.989
 5535SOL    HW117504   1.353   1.093   2.997
 5535SOL    HW217505   1.210   1.087   3.076
 5536SOL     OW17506   3.883   0.522   4.278
 5536SOL    HW117507   3.868   0.480   4.367
 5536SOL    HW217508   3.796   0.524   4.228
 5537SOL     OW17509   3.348   1.366   2.517
 5537SOL    HW117510   3.249   1.357   2.521
 5537SOL    HW217511   3.388   1.337   2.604
 5538SOL     OW17512   3.927   5.613   5.003
 5538SOL    HW117513   4.012   5.564   5.023
 5538SOL    HW217514   3.927   5.700   5.053
 5539SOL     OW17515   1.461   4.295   1.998
 5539SOL    HW117516   1.523   4.334   2.065
 5539SOL    HW217517   1.482   4.332   1.907
 5540SOL     OW17518   4.664   4.709   4.114
 5540SOL    HW117519   4.609   4.630   4.144
 5540SOL    HW217520   4.756   4.678   4.090
 5541SOL     OW17521   4.849   0.088   6.435
 5541SOL    HW117522   4.889   0.125   6.351
 5541SOL    HW217523   4.871   7.008   6.443
 5542SOL     OW17524   4.395   3.357   5.891
 5542SOL    HW117525   4.485   3.353   5.934
 5542SOL    HW217526   4.398   3.311   5.802
 5543SOL     OW17527   4.425   3.799   6.809
 5543SOL    HW117528   4.490   3.764   6.742
 5543SOL    HW217529   4.461   3.882   6.851
 5544SOL     OW17530   5.115   5.402   6.946
 5544SOL    HW117531   5.201   5.366   6.911
 5544SOL    HW217532   5.055   5.424   6.868
 5545SOL     OW17533   4.556   0.667   2.748
 5545SOL    HW117534   4.634   0.629   2.698
 5545SOL    HW217535   4.501   0.593   2.786
 5546SOL     OW17536   0.366   4.588   4.498
 5546SOL    HW117537   0.276   4.617   4.529
 5546SOL    HW217538   0.435   4.652   4.531
 5547SOL     OW17539   3.175   6.862   5.618
 5547SOL    HW117540   3.111   6.838   5.545
 5547SOL    HW217541   3.133   6.929   5.679
 5548SOL     OW17542   6.239   2.879   5.804
 5548SOL    HW117543   6.230   2.884   5.704
 5548SOL    HW217544   6.331   2.909   5.830
 5549SOL     OW17545   4.330   4.895   0.170
 5549SOL    HW117546   4.386   4.816   0.146
 5549SOL    HW217547   4.321   4.900   0.269
 5550SOL     OW17548   2.967   5.591   2.480
 5550SOL    HW117549   3.042   5.539   2.437
 5550SOL    HW217550   2.964   5.570   2.578
 5551SOL     OW17551   1.757   1.049   2.895
 5551SOL    HW117552   1.723   1.127   2.947
 5551SOL    HW217553   1.771   1.076   2.799
 5552SOL     OW17554   0.086   1.078   6.970
 5552SOL    HW117555   0.072   0.983   6.996
 5552SOL    HW217556   0.071   1.137   0.031
 5553SOL     OW17557   3.919   6.603   0.466
 5553SOL    HW117558   3.883   6.628   0.556
 5553SOL    HW217559   3.858   6.537   0.423
 5554SOL     OW17560   2.572   1.747   5.951
 5554SOL    HW117561   2.643   1.789   5.894
 5554SOL    HW217562   2.606   1.739   6.045
 5555SOL     OW17563   0.773   4.635   3.568
 5555SOL    HW117564   0.765   4.540   3.600
 5555SOL    HW217565   0.851   4.679   3.612
 5556SOL     OW17566   0.579   2.639   4.178
 5556SOL    HW117567   0.620   2.628   4.269
 5556SOL    HW217568   0.518   2.561   4.160
 5557SOL     OW17569   3.276   4.970   4.031
 5557SOL    HW117570   3.257   5.057   3.985
 5557SOL    HW217571   3.223   4.964   4.116
 5558SOL     OW17572   5.015   3.255   5.414
 5558SOL    HW117573   4.987   3.328   5.352
 5558SOL    HW217574   4.965   3.171   5.392
 5559SOL     OW17575   2.599   6.868   2.445
 5559SOL    HW117576   2.574   6.933   2.517
 5559SOL    HW217577   2.664   6.802   2.480
 5560SOL     OW17578   0.378   6.765   2.754
 5560SOL    HW117579   0.342   6.858   2.749
 5560SOL    HW217580   0.390   6.728   2.662
 5561SOL     OW17581   2.262   2.238   4.179
 5561SOL    HW117582   2.207   2.180   4.119
 5561SOL    HW217583   2.288   2.321   4.130
 5562SOL     OW17584   1.701   1.902   6.633
 5562SOL    HW117585   1.701   1.882   6.731
 5562SOL    HW217586   1.792   1.935   6.606
 5563SOL     OW17587   4.244   6.243   2.499
 5563SOL    HW117588   4.219   6.195   2.415
 5563SOL    HW217589   4.163   6.291   2.536
 5564SOL     OW17590   5.042   2.449   1.321
 5564SOL    HW117591   5.135   2.484   1.338
 5564SOL    HW217592   5.040   2.351   1.340
 5565SOL     OW17593   4.984   2.122   5.860
 5565SOL    HW117594   4.998   2.042   5.920
 5565SOL    HW217595   5.044   2.196   5.889
 5566SOL     OW17596   0.844   5.935   1.257
 5566SOL    HW117597   0.880   5.842   1.248
 5566SOL    HW217598   0.911   5.992   1.305
 5567SOL     OW17599   0.759   5.017   0.589
 5567SOL    HW117600   0.813   4.950   0.640
 5567SOL    HW217601   0.803   5.036   0.502
 5568SOL     OW17602   4.578   2.921   1.265
 5568SOL    HW117603   4.621   2.878   1.344
 5568SOL    HW217604   4.537   2.850   1.207
 5569SOL     OW17605   4.088   2.004   1.918
 5569SOL    HW117606   3.992   2.020   1.896
 5569SOL    HW217607   4.099   1.995   2.017
 5570SOL     OW17608   6.293   4.848   5.015
 5570SOL    HW117609   6.340   4.760   5.009
 5570SOL    HW217610   6.276   4.870   5.112
 5571SOL     OW17611   0.386   6.441   0.665
 5571SOL    HW117612   0.470   6.405   0.705
 5571SOL    HW217613   0.339   6.369   0.614
 5572SOL     OW17614   2.958   2.574   6.255
 5572SOL    HW117615   2.895   2.515   6.306
 5572SOL    HW217616   2.917   2.597   6.167
 5573SOL     OW17617   1.144   2.686   0.532
 5573SOL    HW117618   1.123   2.671   0.629
 5573SOL    HW217619   1.060   2.705   0.482
 5574SOL     OW17620   6.679   0.715   4.514
 5574SOL    HW117621   6.683   0.757   4.423
 5574SOL    HW217622   6.619   0.768   4.573
 5575SOL     OW17623   1.644   0.575   1.575
 5575SOL    HW117624   1.609   0.623   1.495
 5575SOL    HW217625   1.700   0.637   1.630
 5576SOL     OW17626   6.152   5.281   1.557
 5576SOL    HW117627   6.206   5.258   1.638
 5576SOL    HW217628   6.180   5.223   1.480
 5577SOL     OW17629   2.194   3.455   5.249
 5577SOL    HW117630   2.251   3.375   5.267
 5577SOL    HW217631   2.234   3.536   5.292
 5578SOL     OW17632   3.205   2.649   0.220
 5578SOL    HW117633   3.242   2.691   0.137
 5578SOL    HW217634   3.106   2.661   0.221
 5579SOL     OW17635   5.397   4.122   6.226
 5579SOL    HW117636   5.485   4.130   6.178
 5579SOL    HW217637   5.375   4.209   6.269
 5580SOL     OW17638   4.621   1.758   0.912
 5580SOL    HW117639   4.616   1.669   0.957
 5580SOL    HW217640   4.647   1.827   0.979
 5581SOL     OW17641   2.514   0.478   0.425
 5581SOL    HW117642   2.453   0.409   0.385
 5581SOL    HW217643   2.498   0.566   0.380
 5582SOL     OW17644   3.727   3.683   4.180
 5582SOL    HW117645   3.759   3.656   4.089
 5582SOL    HW217646   3.805   3.711   4.236
 5583SOL     OW17647   4.287   6.889   2.738
 5583SOL    HW117648   4.222   6.939   2.680
 5583SOL    HW217649   4.324   6.951   2.807
 5584SOL     OW17650   5.331   4.008   3.488
 5584SOL    HW117651   5.279   4.027   3.571
 5584SOL    HW217652   5.423   3.978   3.513
 5585SOL     OW17653   5.554   0.253   3.748
 5585SOL    HW117654   5.528   0.335   3.697
 5585SOL    HW217655   5.652   0.257   3.770
 5586SOL     OW17656   1.713   1.620   6.636
 5586SOL    HW117657   1.687   1.716   6.636
 5586SOL    HW217658   1.755   1.596   6.548
 5587SOL     OW17659   3.515   0.215   2.862
 5587SOL    HW117660   3.544   0.160   2.940
 5587SOL    HW217661   3.596   0.250   2.814
 5588SOL     OW17662   1.828   6.462   4.883
 5588SOL    HW117663   1.816   6.559   4.906
 5588SOL    HW217664   1.861   6.454   4.789
 5589SOL     OW17665   4.992   3.175   5.669
 5589SOL    HW117666   5.031   3.225   5.592
 5589SOL    HW217667   4.937   3.099   5.635
 5590SOL     OW17668   6.595   5.676   3.465
 5590SOL    HW117669   6.498   5.666   3.487
 5590SOL    HW217670   6.609   5.758   3.411
 5591SOL     OW17671   5.992   0.525   0.300
 5591SOL    HW117672   5.973   0.623   0.312
 5591SOL    HW217673   5.998   0.482   0.390
 5592SOL     OW17674   2.017   3.469   3.901
 5592SOL    HW117675   1.928   3.455   3.857
 5592SOL    HW217676   2.076   3.391   3.883
 5593SOL     OW17677   0.468   2.265   5.494
 5593SOL    HW117678   0.368   2.276   5.491
 5593SOL    HW217679   0.509   2.354   5.514
 5594SOL     OW17680   2.174   0.972   0.170
 5594SOL    HW117681   2.101   1.029   0.207
 5594SOL    HW217682   2.207   1.011   0.084
 5595SOL     OW17683   6.438   0.577   6.257
 5595SOL    HW117684   6.514   0.599   6.196
 5595SOL    HW217685   6.382   0.505   6.216
 5596SOL     OW17686   5.918   0.487   2.368
 5596SOL    HW117687   6.006   0.475   2.413
 5596SOL    HW217688   5.911   0.426   2.289
 5597SOL     OW17689   5.413   2.381   6.038
 5597SOL    HW117690   5.407   2.350   6.133
 5597SOL    HW217691   5.323   2.376   5.995
 5598SOL     OW17692   4.900   2.018   4.321
 5598SOL    HW117693   4.874   1.922   4.309
 5598SOL    HW217694   4.871   2.050   4.411
 5599SOL     OW17695   5.603   3.864   1.759
 5599SOL    HW117696   5.647   3.776   1.777
 5599SOL    HW217697   5.607   3.884   1.662
 5600SOL     OW17698   2.237   0.299   3.035
 5600SOL    HW117699   2.271   0.211   3.068
 5600SOL    HW217700   2.276   0.373   3.090
 5601SOL     OW17701   5.314   3.160   6.023
 5601SOL    HW117702   5.325   3.243   5.970
 5601SOL    HW217703   5.337   3.081   5.967
 5602SOL     OW17704   0.036   1.511   3.309
 5602SOL    HW117705   0.043   1.418   3.345
 5602SOL    HW217706   6.998   1.510   3.226
 5603SOL     OW17707   4.460   2.668   5.175
 5603SOL    HW117708   4.408   2.623   5.102
 5603SOL    HW217709   4.540   2.713   5.136
 5604SOL     OW17710   0.925   0.010   4.610
 5604SOL    HW117711   0.923   0.070   4.530
 5604SOL    HW217712   0.976   6.945   4.588
 5605SOL     OW17713   1.079   6.832   4.507
 5605SOL    HW117714   1.041   6.741   4.491
 5605SOL    HW217715   1.095   6.877   4.419
 5606SOL     OW17716   4.771   1.435   7.017
 5606SOL    HW117717   4.771   1.495   6.937
 5606SOL    HW217718   4.789   1.488   0.081
 5607SOL     OW17719   6.053   2.557   3.194
 5607SOL    HW117720   5.958   2.529   3.203
 5607SOL    HW217721   6.085   2.537   3.101
 5608SOL     OW17722   6.076   0.503   3.416
 5608SOL    HW117723   6.062   0.485   3.319
 5608SOL    HW217724   6.165   0.467   3.445
 5609SOL     OW17725   4.729   6.531   0.193
 5609SOL    HW117726   4.631   6.513   0.198
 5609SOL    HW217727   4.779   6.444   0.192
 5610SOL     OW17728   5.787   3.766   6.874
 5610SOL    HW117729   5.753   3.819   6.797
 5610SOL    HW217730   5.885   3.781   6.885
 5611SOL     OW17731   0.283   4.989   1.736
 5611SOL    HW117732   0.301   5.043   1.654
 5611SOL    HW217733   0.298   5.047   1.817
 5612SOL     OW17734   2.952   2.531   6.899
 5612SOL    HW117735   2.923   2.569   6.811
 5612SOL    HW217736   2.985   2.605   6.958
 5613SOL     OW17737   0.155   5.399   4.768
 5613SOL    HW117738   0.129   5.324   4.707
 5613SOL    HW217739   0.086   5.471   4.764
 5614SOL     OW17740   6.161   1.757   4.338
 5614SOL    HW117741   6.143   1.692   4.412
 5614SOL    HW217742   6.202   1.840   4.376
 5615SOL     OW17743   0.142   1.926   2.652
 5615SOL    HW117744   0.149   1.845   2.593
 5615SOL    HW217745   0.212   1.922   2.722
 5616SOL     OW17746   1.984   1.746   4.380
 5616SOL    HW117747   2.016   1.725   4.288
 5616SOL    HW217748   2.059   1.785   4.433
 5617SOL     OW17749   1.805   5.375   5.118
 5617SOL    HW117750   1.786   5.340   5.209
 5617SOL    HW217751   1.824   5.299   5.056
 5618SOL     OW17752   6.691   5.084   3.783
 5618SOL    HW117753   6.697   5.094   3.683
 5618SOL    HW217754   6.690   5.174   3.826
 5619SOL     OW17755   3.064   3.225   3.476
 5619SOL    HW117756   3.097   3.172   3.554
 5619SOL    HW217757   3.031   3.314   3.508
 5620SOL     OW17758   4.243   3.560   5.979
 5620SOL    HW117759   4.298   3.484   5.944
 5620SOL    HW217760   4.233   3.551   6.078
 5621SOL     OW17761   1.635   3.057   5.671
 5621SOL    HW117762   1.697   3.116   5.619
 5621SOL    HW217763   1.688   2.989   5.721
 5622SOL     OW17764   4.385   5.802   4.807
 5622SOL    HW117765   4.428   5.786   4.718
 5622SOL    HW217766   4.436   5.752   4.877
 5623SOL     OW17767   4.673   6.503   4.030
 5623SOL    HW117768   4.757   6.460   4.063
 5623SOL    HW217769   4.685   6.602   4.029
 5624SOL     OW17770   0.460   5.116   3.753
 5624SOL    HW117771   0.531   5.170   3.707
 5624SOL    HW217772   0.387   5.095   3.688
 5625SOL     OW17773   0.897   5.638   4.465
 5625SOL    HW117774   0.959   5.710   4.434
 5625SOL    HW217775   0.850   5.669   4.548
 5626SOL     OW17776   1.940   4.611   4.218
 5626SOL    HW117777   1.977   4.520   4.197
 5626SOL    HW217778   1.915   4.658   4.134
 5627SOL     OW17779   0.898   6.051   6.275
 5627SOL    HW117780   0.860   5.984   6.212
 5627SOL    HW217781   0.828   6.119   6.298
 5628SOL     OW17782   2.685   3.407   0.693
 5628SOL    HW117783   2.602   3.354   0.711
 5628SOL    HW217784   2.684   3.490   0.749
 5629SOL     OW17785   4.074   3.570   0.988
 5629SOL    HW117786   4.021   3.649   0.958
 5629SOL    HW217787   4.047   3.545   1.081
 5630SOL     OW17788   1.663   4.320   6.410
 5630SOL    HW117789   1.762   4.316   6.397
 5630SOL    HW217790   1.621   4.236   6.376
 5631SOL     OW17791   4.769   1.086   1.973
 5631SOL    HW117792   4.687   1.034   1.948
 5631SOL    HW217793   4.798   1.060   2.065
 5632SOL     OW17794   5.092   1.201   6.109
 5632SOL    HW117795   5.191   1.202   6.093
 5632SOL    HW217796   5.062   1.109   6.130
 5633SOL     OW17797   0.357   5.011   4.628
 5633SOL    HW117798   0.414   4.932   4.652
 5633SOL    HW217799   0.377   5.086   4.690
 5634SOL     OW17800   2.495   5.211   5.558
 5634SOL    HW117801   2.587   5.218   5.520
 5634SOL    HW217802   2.496   5.236   5.655
 5635SOL     OW17803   3.097   0.002   6.759
 5635SOL    HW117804   3.021   0.059   6.790
 5635SOL    HW217805   3.173   0.060   6.729
 5636SOL     OW17806   5.660   1.212   5.540
 5636SOL    HW117807   5.593   1.160   5.487
 5636SOL    HW217808   5.748   1.167   5.536
 5637SOL     OW17809   5.803   6.296   4.611
 5637SOL    HW117810   5.756   6.250   4.535
 5637SOL    HW217811   5.860   6.370   4.575
 5638SOL     OW17812   5.028   6.300   1.591
 5638SOL    HW117813   5.065   6.390   1.615
 5638SOL    HW217814   5.097   6.230   1.611
 5639SOL     OW17815   2.065   0.375   1.931
 5639SOL    HW117816   2.130   0.451   1.931
 5639SOL    HW217817   2.047   0.347   1.837
 5640SOL     OW17818   2.408   6.847   2.826
 5640SOL    HW117819   2.455   6.904   2.759
 5640SOL    HW217820   2.457   6.852   2.913
 5641SOL     OW17821   0.589   4.438   5.602
 5641SOL    HW117822   0.679   4.396   5.597
 5641SOL    HW217823   0.549   4.422   5.692
 5642SOL     OW17824   0.294   4.981   6.170
 5642SOL    HW117825   0.323   5.056   6.228
 5642SOL    HW217826   0.311   5.003   6.074
 5643SOL     OW17827   3.722   1.287   4.533
 5643SOL    HW117828   3.721   1.345   4.451
 5643SOL    HW217829   3.648   1.315   4.595
 5644SOL     OW17830   5.311   2.045   4.204
 5644SOL    HW117831   5.277   2.135   4.230
 5644SOL    HW217832   5.296   1.981   4.280
 5645SOL     OW17833   5.726   4.186   2.731
 5645SOL    HW117834   5.735   4.244   2.812
 5645SOL    HW217835   5.629   4.178   2.706
 5646SOL     OW17836   1.068   5.462   3.708
 5646SOL    HW117837   0.979   5.450   3.664
 5646SOL    HW217838   1.077   5.397   3.783
 5647SOL     OW17839   6.687   6.121   6.628
 5647SOL    HW117840   6.691   6.193   6.697
 5647SOL    HW217841   6.623   6.050   6.657
 5648SOL     OW17842   1.719   1.148   3.308
 5648SOL    HW117843   1.798   1.087   3.306
 5648SOL    HW217844   1.749   1.243   3.301
 5649SOL     OW17845   1.485   0.464   4.910
 5649SOL    HW117846   1.509   0.561   4.905
 5649SOL    HW217847   1.392   0.454   4.944
 5650SOL     OW17848   0.088   4.590   0.980
 5650SOL    HW117849   0.030   4.653   1.031
 5650SOL    HW217850   0.031   4.535   0.917
 5651SOL     OW17851   0.403   2.047   1.297
 5651SOL    HW117852   0.391   1.995   1.381
 5651SOL    HW217853   0.313   2.069   1.258
 5652SOL     OW17854   4.709   6.036   2.547
 5652SOL    HW117855   4.794   5.990   2.520
 5652SOL    HW217856   4.659   6.065   2.465
 5653SOL     OW17857   0.159   6.615   6.562
 5653SOL    HW117858   0.081   6.573   6.514
 5653SOL    HW217859   0.158   6.714   6.545
 5654SOL     OW17860   0.641   0.471   6.202
 5654SOL    HW117861   0.582   0.495   6.279
 5654SOL    HW217862   0.726   0.522   6.208
 5655SOL     OW17863   0.915   2.874   4.410
 5655SOL    HW117864   0.986   2.808   4.438
 5655SOL    HW217865   0.856   2.894   4.488
 5656SOL     OW17866   3.281   4.714   1.047
 5656SOL    HW117867   3.250   4.626   1.083
 5656SOL    HW217868   3.328   4.765   1.119
 5657SOL     OW17869   4.824   6.823   1.371
 5657SOL    HW117870   4.742   6.851   1.321
 5657SOL    HW217871   4.829   6.872   1.458
 5658SOL     OW17872   2.620   6.863   6.107
 5658SOL    HW117873   2.654   6.925   6.178
 5658SOL    HW217874   2.524   6.841   6.127
 5659SOL     OW17875   3.080   3.125   2.975
 5659SOL    HW117876   3.050   3.220   2.979
 5659SOL    HW217877   3.163   3.118   2.919
 5660SOL     OW17878   5.588   0.508   6.864
 5660SOL    HW117879   5.579   0.507   6.964
 5660SOL    HW217880   5.572   0.416   6.829
 5661SOL     OW17881   6.934   5.236   5.511
 5661SOL    HW117882   6.985   5.164   5.558
 5661SOL    HW217883   6.965   5.326   5.543
 5662SOL     OW17884   2.427   5.013   4.129
 5662SOL    HW117885   2.327   5.006   4.128
 5662SOL    HW217886   2.455   5.089   4.072
 5663SOL     OW17887   1.147   4.054   6.869
 5663SOL    HW117888   1.055   4.015   6.861
 5663SOL    HW217889   1.158   4.125   6.799
 5664SOL     OW17890   0.422   3.835   3.516
 5664SOL    HW117891   0.385   3.743   3.524
 5664SOL    HW217892   0.519   3.835   3.543
 5665SOL     OW17893   1.724   1.482   6.926
 5665SOL    HW117894   1.795   1.539   6.969
 5665SOL    HW217895   1.691   1.527   6.843
 5666SOL     OW17896   4.821   5.827   1.257
 5666SOL    HW117897   4.908   5.777   1.255
 5666SOL    HW217898   4.773   5.813   1.170
 5667SOL     OW17899   0.523   4.683   3.519
 5667SOL    HW117900   0.621   4.666   3.520
 5667SOL    HW217901   0.506   4.782   3.519
 5668SOL     OW17902   5.675   2.054   6.572
 5668SOL    HW117903   5.722   2.029   6.487
 5668SOL    HW217904   5.627   2.140   6.560
 5669SOL     OW17905   0.404   3.797   6.245
 5669SOL    HW117906   0.486   3.782   6.190
 5669SOL    HW217907   0.353   3.711   6.254
 5670SOL     OW17908   0.086   3.205   3.715
 5670SOL    HW117909   7.012   3.212   3.755
 5670SOL    HW217910   0.107   3.289   3.664
 5671SOL     OW17911   1.191   0.012   6.467
 5671SOL    HW117912   1.126   0.054   6.404
 5671SOL    HW217913   1.251   0.082   6.505
 5672SOL     OW17914   4.357   4.678   6.269
 5672SOL    HW117915   4.349   4.596   6.211
 5672SOL    HW217916   4.278   4.737   6.254
 5673SOL     OW17917   0.656   0.030   1.783
 5673SOL    HW117918   0.756   0.021   1.784
 5673SOL    HW217919   0.614   6.959   1.764
 5674SOL     OW17920   6.967   3.993   1.932
 5674SOL    HW117921   6.907   3.945   1.868
 5674SOL    HW217922   7.014   3.926   1.990
 5675SOL     OW17923   4.220   2.494   5.679
 5675SOL    HW117924   4.202   2.401   5.650
 5675SOL    HW217925   4.136   2.535   5.715
 5676SOL     OW17926   2.191   1.277   2.001
 5676SOL    HW117927   2.098   1.241   1.998
 5676SOL    HW217928   2.200   1.351   1.934
 5677SOL     OW17929   0.878   1.972   3.428
 5677SOL    HW117930   0.857   1.875   3.436
 5677SOL    HW217931   0.938   1.987   3.350
 5678SOL     OW17932   3.460   6.612   2.935
 5678SOL    HW117933   3.514   6.671   2.875
 5678SOL    HW217934   3.518   6.578   3.009
 5679SOL     OW17935   2.032   6.955   4.544
 5679SOL    HW117936   1.975   6.985   4.468
 5679SOL    HW217937   1.975   6.919   4.617
 5680SOL     OW17938   1.723   5.587   0.741
 5680SOL    HW117939   1.700   5.623   0.831
 5680SOL    HW217940   1.641   5.549   0.698
 5681SOL     OW17941   1.410   3.514   6.529
 5681SOL    HW117942   1.344   3.452   6.571
 5681SOL    HW217943   1.459   3.467   6.456
 5682SOL     OW17944   2.362   4.291   5.925
 5682SOL    HW117945   2.284   4.251   5.877
 5682SOL    HW217946   2.382   4.381   5.885
 5683SOL     OW17947   4.613   1.942   6.197
 5683SOL    HW117948   4.547   1.883   6.244
 5683SOL    HW217949   4.706   1.911   6.218
 5684SOL     OW17950   4.066   3.450   4.761
 5684SOL    HW117951   3.983   3.491   4.722
 5684SOL    HW217952   4.108   3.514   4.824
 5685SOL     OW17953   1.057   4.540   1.470
 5685SOL    HW117954   1.019   4.611   1.529
 5685SOL    HW217955   1.022   4.451   1.498
 5686SOL     OW17956   3.386   0.732   0.082
 5686SOL    HW117957   3.455   0.704   0.148
 5686SOL    HW217958   3.337   0.651   0.049
 5687SOL     OW17959   6.240   3.999   4.821
 5687SOL    HW117960   6.218   3.930   4.891
 5687SOL    HW217961   6.204   3.969   4.733
 5688SOL     OW17962   6.321   1.652   0.404
 5688SOL    HW117963   6.349   1.589   0.332
 5688SOL    HW217964   6.369   1.630   0.489
 5689SOL     OW17965   4.057   1.185   0.251
 5689SOL    HW117966   3.968   1.218   0.221
 5689SOL    HW217967   4.085   1.233   0.334
 5690SOL     OW17968   3.032   6.214   0.974
 5690SOL    HW117969   2.949   6.237   1.025
 5690SOL    HW217970   3.038   6.272   0.893
 5691SOL     OW17971   3.100   6.260   2.094
 5691SOL    HW117972   3.134   6.193   2.029
 5691SOL    HW217973   3.027   6.219   2.149
 5692SOL     OW17974   6.719   2.378   5.819
 5692SOL    HW117975   6.637   2.391   5.875
 5692SOL    HW217976   6.787   2.326   5.870
 5693SOL     OW17977   5.559   3.007   2.121
 5693SOL    HW117978   5.465   3.014   2.086
 5693SOL    HW217979   5.591   2.913   2.112
 5694SOL     OW17980   0.543   1.195   3.761
 5694SOL    HW117981   0.612   1.153   3.821
 5694SOL    HW217982   0.564   1.292   3.749
 5695SOL     OW17983   1.235   2.195   3.094
 5695SOL    HW117984   1.291   2.247   3.158
 5695SOL    HW217985   1.231   2.243   3.006
 5696SOL     OW17986   1.905   0.318   3.290
 5696SOL    HW117987   1.810   0.297   3.315
 5696SOL    HW217988   1.916   0.308   3.192
 5697SOL     OW17989   6.091   1.882   1.057
 5697SOL    HW117990   6.004   1.933   1.054
 5697SOL    HW217991   6.122   1.865   0.964
 5698SOL     OW17992   0.396   2.285   2.394
 5698SOL    HW117993   0.481   2.294   2.445
 5698SOL    HW217994   0.407   2.323   2.303
 5699SOL     OW17995   6.677   1.971   3.550
 5699SOL    HW117996   6.652   1.964   3.453
 5699SOL    HW217997   6.776   1.960   3.559
 5700SOL     OW17998   6.776   5.962   4.769
 5700SOL    HW117999   6.822   5.957   4.858
 5700SOL    HW218000   6.680   5.938   4.780
 5701SOL     OW18001   1.156   5.679   3.564
 5701SOL    HW118002   1.128   5.606   3.627
 5701SOL    HW218003   1.126   5.656   3.471
 5702SOL     OW18004   1.674   6.778   5.786
 5702SOL    HW118005   1.629   6.861   5.753
 5702SOL    HW218006   1.633   6.749   5.872
 5703SOL     OW18007   4.872   4.575   0.438
 5703SOL    HW118008   4.954   4.519   0.433
 5703SOL    HW218009   4.849   4.593   0.534
 5704SOL     OW18010   4.164   5.596   2.596
 5704SOL    HW118011   4.099   5.524   2.620
 5704SOL    HW218012   4.120   5.662   2.536
 5705SOL     OW18013   6.105   1.091   0.209
 5705SOL    HW118014   6.140   1.181   0.235
 5705SOL    HW218015   6.044   1.100   0.130
 5706SOL     OW18016   1.485   1.533   0.683
 5706SOL    HW118017   1.458   1.449   0.637
 5706SOL    HW218018   1.532   1.593   0.618
 5707SOL     OW18019   0.964   0.080   0.280
 5707SOL    HW118020   0.943   0.137   0.201
 5707SOL    HW218021   0.883   0.070   0.337
 5708SOL     OW18022   5.459   6.894   1.612
 5708SOL    HW118023   5.381   6.906   1.673
 5708SOL    HW218024   5.428   6.860   1.524
 5709SOL     OW18025   0.950   6.473   3.608
 5709SOL    HW118026   0.974   6.512   3.520
 5709SOL    HW218027   0.872   6.410   3.598
 5710SOL     OW18028   2.577   3.577   5.510
 5710SOL    HW118029   2.597   3.666   5.552
 5710SOL    HW218030   2.573   3.507   5.581
 5711SOL     OW18031   5.471   0.526   2.879
 5711SOL    HW118032   5.533   0.555   2.806
 5711SOL    HW218033   5.511   0.449   2.928
 5712SOL     OW18034   0.467   6.511   5.595
 5712SOL    HW118035   0.478   6.586   5.660
 5712SOL    HW218036   0.392   6.531   5.533
 5713SOL     OW18037   1.386   2.203   1.118
 5713SOL    HW118038   1.455   2.202   1.045
 5713SOL    HW218039   1.379   2.296   1.156
 5714SOL     OW18040   1.170   6.882   6.989
 5714SOL    HW118041   1.074   6.857   7.003
 5714SOL    HW218042   1.217   6.808   6.941
 5715SOL     OW18043   1.437   5.830   3.439
 5715SOL    HW118044   1.405   5.795   3.350
 5715SOL    HW218045   1.378   5.906   3.467
 5716SOL     OW18046   1.108   3.531   5.505
 5716SOL    HW118047   1.036   3.571   5.448
 5716SOL    HW218048   1.107   3.573   5.595
 5717SOL     OW18049   1.381   5.624   0.205
 5717SOL    HW118050   1.418   5.532   0.197
 5717SOL    HW218051   1.445   5.690   0.165
 5718SOL     OW18052   1.533   4.090   6.293
 5718SOL    HW118053   1.454   4.109   6.351
 5718SOL    HW218054   1.551   3.992   6.292
 5719SOL     OW18055   2.339   1.255   5.995
 5719SOL    HW118056   2.420   1.200   6.014
 5719SOL    HW218057   2.258   1.212   6.035
 5720SOL     OW18058   0.697   4.555   5.049
 5720SOL    HW118059   0.754   4.609   4.987
 5720SOL    HW218060   0.613   4.528   5.002
 5721SOL     OW18061   0.758   3.905   0.621
 5721SOL    HW118062   0.690   3.831   0.631
 5721SOL    HW218063   0.808   3.916   0.706
 5722SOL     OW18064   5.548   1.931   5.303
 5722SOL    HW118065   5.558   1.831   5.296
 5722SOL    HW218066   5.517   1.955   5.394
 5723SOL     OW18067   4.371   3.880   0.412
 5723SOL    HW118068   4.333   3.911   0.325
 5723SOL    HW218069   4.454   3.828   0.396
 5724SOL     OW18070   3.969   2.270   5.319
 5724SOL    HW118071   4.026   2.343   5.283
 5724SOL    HW218072   3.895   2.250   5.255
 5725SOL     OW18073   5.200   6.165   3.469
 5725SOL    HW118074   5.253   6.181   3.552
 5725SOL    HW218075   5.250   6.103   3.409
 5726SOL     OW18076   6.467   3.121   3.783
 5726SOL    HW118077   6.415   3.046   3.826
 5726SOL    HW218078   6.532   3.082   3.717
 5727SOL     OW18079   6.536   3.414   3.256
 5727SOL    HW118080   6.460   3.435   3.318
 5727SOL    HW218081   6.594   3.494   3.246
 5728SOL     OW18082   4.964   1.510   6.077
 5728SOL    HW118083   5.047   1.516   6.020
 5728SOL    HW218084   4.985   1.460   6.161
 5729SOL     OW18085   1.194   1.773   0.905
 5729SOL    HW118086   1.113   1.725   0.871
 5729SOL    HW218087   1.247   1.712   0.964
 5730SOL     OW18088   4.367   5.569   5.475
 5730SOL    HW118089   4.454   5.565   5.525
 5730SOL    HW218090   4.293   5.589   5.539
 5731SOL     OW18091   2.272   6.513   4.012
 5731SOL    HW118092   2.343   6.457   4.056
 5731SOL    HW218093   2.280   6.505   3.913
 5732SOL     OW18094   6.436   4.480   5.169
 5732SOL    HW118095   6.466   4.512   5.079
 5732SOL    HW218096   6.371   4.405   5.158
 5733SOL     OW18097   3.515   0.752   5.620
 5733SOL    HW118098   3.567   0.739   5.704
 5733SOL    HW218099   3.505   0.849   5.600
 5734SOL     OW18100   1.451   6.588   6.343
 5734SOL    HW118101   1.422   6.551   6.254
 5734SOL    HW218102   1.512   6.523   6.388
 5735SOL     OW18103   3.381   1.519   2.280
 5735SOL    HW118104   3.350   1.492   2.371
 5735SOL    HW218105   3.347   1.454   2.213
 5736SOL     OW18106   5.373   4.591   0.254
 5736SOL    HW118107   5.439   4.662   0.280
 5736SOL    HW218108   5.380   4.575   0.155
 5737SOL     OW18109   5.430   6.410   0.720
 5737SOL    HW118110   5.471   6.422   0.810
 5737SOL    HW218111   5.450   6.318   0.686
 5738SOL     OW18112   3.549   1.549   6.892
 5738SOL    HW118113   3.558   1.638   6.847
 5738SOL    HW218114   3.598   1.551   6.979
 5739SOL     OW18115   1.222   6.774   5.718
 5739SOL    HW118116   1.182   6.783   5.809
 5739SOL    HW218117   1.184   6.693   5.672
 5740SOL     OW18118   4.452   3.678   1.189
 5740SOL    HW118119   4.490   3.629   1.111
 5740SOL    HW218120   4.520   3.683   1.262
 5741SOL     OW18121   0.078   3.902   4.244
 5741SOL    HW118122   0.178   3.899   4.247
 5741SOL    HW218123   0.043   3.810   4.226
 5742SOL     OW18124   4.379   6.752   3.254
 5742SOL    HW118125   4.413   6.761   3.348
 5742SOL    HW218126   4.454   6.767   3.190
 5743SOL     OW18127   3.421   5.543   5.438
 5743SOL    HW118128   3.500   5.482   5.448
 5743SOL    HW218129   3.454   5.637   5.425
 5744SOL     OW18130   5.644   1.365   2.485
 5744SOL    HW118131   5.688   1.281   2.452
 5744SOL    HW218132   5.547   1.347   2.501
 5745SOL     OW18133   2.400   0.712   4.106
 5745SOL    HW118134   2.301   0.694   4.104
 5745SOL    HW218135   2.419   0.793   4.050
 5746SOL     OW18136   4.680   6.835   1.989
 5746SOL    HW118137   4.740   6.916   1.989
 5746SOL    HW218138   4.634   6.829   2.078
 5747SOL     OW18139   0.639   5.642   1.866
 5747SOL    HW118140   0.712   5.653   1.934
 5747SOL    HW218141   0.679   5.649   1.774
 5748SOL     OW18142   2.013   0.030   0.832
 5748SOL    HW118143   1.989   0.079   0.749
 5748SOL    HW218144   2.111   0.042   0.851
 5749SOL     OW18145   1.727   6.518   5.232
 5749SOL    HW118146   1.800   6.583   5.211
 5749SOL    HW218147   1.740   6.435   5.177
 5750SOL     OW18148   6.197   6.067   5.707
 5750SOL    HW118149   6.244   5.981   5.686
 5750SOL    HW218150   6.140   6.055   5.788
 5751SOL     OW18151   2.176   2.696   4.986
 5751SOL    HW118152   2.193   2.776   5.043
 5751SOL    HW218153   2.077   2.688   4.968
 5752SOL     OW18154   5.435   0.174   0.524
 5752SOL    HW118155   5.429   0.112   0.446
 5752SOL    HW218156   5.456   0.266   0.493
 5753SOL     OW18157   2.932   3.821   4.475
 5753SOL    HW118158   2.916   3.737   4.527
 5753SOL    HW218159   2.905   3.900   4.529
 5754SOL     OW18160   1.003   5.694   1.365
 5754SOL    HW118161   0.992   5.596   1.381
 5754SOL    HW218162   0.979   5.744   1.447
 5755SOL     OW18163   1.720   1.915   5.840
 5755SOL    HW118164   1.745   1.971   5.761
 5755SOL    HW218165   1.784   1.838   5.848
 5756SOL     OW18166   0.357   0.514   2.617
 5756SOL    HW118167   0.375   0.604   2.576
 5756SOL    HW218168   0.441   0.459   2.613
 5757SOL     OW18169   0.410   5.489   4.247
 5757SOL    HW118170   0.470   5.531   4.180
 5757SOL    HW218171   0.464   5.433   4.310
 5758SOL     OW18172   2.468   1.440   2.951
 5758SOL    HW118173   2.400   1.459   3.022
 5758SOL    HW218174   2.460   1.344   2.922
 5759SOL     OW18175   4.754   1.132   0.417
 5759SOL    HW118176   4.699   1.197   0.469
 5759SOL    HW218177   4.815   1.082   0.479
 5760SOL     OW18178   6.394   2.246   1.296
 5760SOL    HW118179   6.490   2.230   1.320
 5760SOL    HW218180   6.389   2.322   1.231
 5761SOL     OW18181   5.803   5.292   6.005
 5761SOL    HW118182   5.771   5.208   6.048
 5761SOL    HW218183   5.746   5.312   5.924
 5762SOL     OW18184   4.676   4.290   0.960
 5762SOL    HW118185   4.598   4.351   0.977
 5762SOL    HW218186   4.749   4.309   1.025
 5763SOL     OW18187   5.981   6.129   1.220
 5763SOL    HW118188   5.937   6.172   1.299
 5763SOL    HW218189   6.067   6.088   1.248
 5764SOL     OW18190   4.404   5.034   4.433
 5764SOL    HW118191   4.443   4.942   4.421
 5764SOL    HW218192   4.387   5.075   4.344
 5765SOL     OW18193   6.207   3.588   0.562
 5765SOL    HW118194   6.239   3.496   0.544
 5765SOL    HW218195   6.285   3.647   0.582
 5766SOL     OW18196   1.558   1.821   4.986
 5766SOL    HW118197   1.513   1.748   5.038
 5766SOL    HW218198   1.549   1.907   5.036
 5767SOL     OW18199   2.539   0.525   0.695
 5767SOL    HW118200   2.544   0.512   0.596
 5767SOL    HW218201   2.617   0.580   0.725
 5768SOL     OW18202   0.562   0.171   3.698
 5768SOL    HW118203   0.514   0.207   3.777
 5768SOL    HW218204   0.498   0.121   3.639
 5769SOL     OW18205   2.727   5.705   4.581
 5769SOL    HW118206   2.817   5.748   4.585
 5769SOL    HW218207   2.733   5.611   4.613
 5770SOL     OW18208   6.882   6.831   6.545
 5770SOL    HW118209   6.811   6.899   6.562
 5770SOL    HW218210   6.929   6.811   6.631
 5771SOL     OW18211   1.457   0.029   4.126
 5771SOL    HW118212   1.528   0.070   4.070
 5771SOL    HW218213   1.477   6.949   4.138
 5772SOL     OW18214   5.538   0.963   0.936
 5772SOL    HW118215   5.601   1.035   0.964
 5772SOL    HW218216   5.450   1.003   0.909
 5773SOL     OW18217   4.506   1.096   3.571
 5773SOL    HW118218   4.507   1.021   3.506
 5773SOL    HW218219   4.596   1.141   3.571
 5774SOL     OW18220   3.069   0.453   4.384
 5774SOL    HW118221   3.030   0.361   4.379
 5774SOL    HW218222   3.168   0.448   4.371
 5775SOL     OW18223   1.071   0.274   2.174
 5775SOL    HW118224   1.001   0.328   2.126
 5775SOL    HW218225   1.040   0.254   2.266
 5776SOL     OW18226   0.668   6.751   3.780
 5776SOL    HW118227   0.725   6.710   3.851
 5776SOL    HW218228   0.667   6.850   3.792
 5777SOL     OW18229   0.639   0.491   4.756
 5777SOL    HW118230   0.569   0.523   4.820
 5777SOL    HW218231   0.657   0.394   4.772
 5778SOL     OW18232   1.722   0.322   0.294
 5778SOL    HW118233   1.729   0.396   0.361
 5778SOL    HW218234   1.687   0.359   0.207
 5779SOL     OW18235   4.625   2.861   0.707
 5779SOL    HW118236   4.551   2.796   0.727
 5779SOL    HW218237   4.589   2.938   0.654
 5780SOL     OW18238   6.222   5.903   3.783
 5780SOL    HW118239   6.253   5.908   3.878
 5780SOL    HW218240   6.188   5.810   3.765
 5781SOL     OW18241   0.133   4.635   4.620
 5781SOL    HW118242   0.111   4.708   4.556
 5781SOL    HW218243   0.148   4.674   4.711
 5782SOL     OW18244   1.793   1.618   0.704
 5782SOL    HW118245   1.770   1.522   0.723
 5782SOL    HW218246   1.816   1.664   0.790
 5783SOL     OW18247   1.120   0.703   1.573
 5783SOL    HW118248   1.160   0.758   1.647
 5783SOL    HW218249   1.156   0.609   1.579
 5784SOL     OW18250   0.212   6.653   5.401
 5784SOL    HW118251   0.237   6.558   5.382
 5784SOL    HW218252   0.128   6.676   5.352
 5785SOL     OW18253   2.199   1.938   0.532
 5785SOL    HW118254   2.143   1.866   0.574
 5785SOL    HW218255   2.156   2.026   0.548
 5786SOL     OW18256   0.425   3.580   0.380
 5786SOL    HW118257   0.518   3.580   0.345
 5786SOL    HW218258   0.381   3.667   0.356
 5787SOL     OW18259   2.264   1.543   4.873
 5787SOL    HW118260   2.281   1.606   4.949
 5787SOL    HW218261   2.324   1.464   4.882
 5788SOL     OW18262   2.719   1.571   1.698
 5788SOL    HW118263   2.688   1.662   1.673
 5788SOL    HW218264   2.773   1.576   1.783
 5789SOL     OW18265   3.597   4.981   0.156
 5789SOL    HW118266   3.615   4.891   0.117
 5789SOL    HW218267   3.502   4.986   0.187
 5790SOL     OW18268   1.582   4.214   4.782
 5790SOL    HW118269   1.603   4.275   4.859
 5790SOL    HW218270   1.661   4.209   4.721
 5791SOL     OW18271   3.849   1.247   2.273
 5791SOL    HW118272   3.846   1.250   2.173
 5791SOL    HW218273   3.910   1.318   2.306
 5792SOL     OW18274   6.405   3.104   2.606
 5792SOL    HW118275   6.369   3.012   2.589
 5792SOL    HW218276   6.472   3.127   2.535
 5793SOL     OW18277   5.371   0.880   3.975
 5793SOL    HW118278   5.319   0.913   3.896
 5793SOL    HW218279   5.307   0.854   4.048
 5794SOL     OW18280   2.940   1.380   0.389
 5794SOL    HW118281   2.952   1.288   0.350
 5794SOL    HW218282   3.027   1.429   0.385
 5795SOL     OW18283   6.715   6.738   0.348
 5795SOL    HW118284   6.752   6.831   0.355
 5795SOL    HW218285   6.788   6.675   0.321
 5796SOL     OW18286   4.118   1.463   6.731
 5796SOL    HW118287   4.055   1.519   6.677
 5796SOL    HW218288   4.200   1.516   6.754
 5797SOL     OW18289   4.843   2.208   6.081
 5797SOL    HW118290   4.883   2.169   5.999
 5797SOL    HW218291   4.858   2.307   6.082
 5798SOL     OW18292   0.770   4.667   5.448
 5798SOL    HW118293   0.722   4.755   5.445
 5798SOL    HW218294   0.782   4.639   5.543
 5799SOL     OW18295   6.925   0.589   2.336
 5799SOL    HW118296   6.999   0.650   2.366
 5799SOL    HW218297   6.857   0.581   2.409
 5800SOL     OW18298   6.347   6.483   1.941
 5800SOL    HW118299   6.420   6.475   1.873
 5800SOL    HW218300   6.317   6.392   1.970
 5801SOL     OW18301   1.875   2.375   3.057
 5801SOL    HW118302   1.877   2.340   3.151
 5801SOL    HW218303   1.929   2.459   3.052
 5802SOL     OW18304   1.470   4.709   1.582
 5802SOL    HW118305   1.557   4.674   1.616
 5802SOL    HW218306   1.487   4.789   1.524
 5803SOL     OW18307   2.266   4.712   2.648
 5803SOL    HW118308   2.189   4.667   2.602
 5803SOL    HW218309   2.231   4.782   2.710
 5804SOL     OW18310   0.512   4.942   4.178
 5804SOL    HW118311   0.610   4.954   4.193
 5804SOL    HW218312   0.497   4.881   4.100
 5805SOL     OW18313   2.481   4.025   6.601
 5805SOL    HW118314   2.455   4.120   6.583
 5805SOL    HW218315   2.487   3.975   6.514
 5806SOL     OW18316   6.928   6.110   5.291
 5806SOL    HW118317   6.852   6.097   5.354
 5806SOL    HW218318   7.001   6.045   5.314
 5807SOL     OW18319   0.525   3.693   2.504
 5807SOL    HW118320   0.457   3.745   2.557
 5807SOL    HW218321   0.491   3.600   2.488
 5808SOL     OW18322   5.575   5.585   4.824
 5808SOL    HW118323   5.635   5.515   4.785
 5808SOL    HW218324   5.549   5.559   4.917
 5809SOL     OW18325   5.774   1.461   4.962
 5809SOL    HW118326   5.690   1.499   4.922
 5809SOL    HW218327   5.761   1.363   4.976
 5810SOL     OW18328   3.681   1.904   4.605
 5810SOL    HW118329   3.687   1.850   4.688
 5810SOL    HW218330   3.671   2.001   4.629
 5811SOL     OW18331   3.186   0.578   5.791
 5811SOL    HW118332   3.177   0.505   5.859
 5811SOL    HW218333   3.248   0.549   5.719
 5812SOL     OW18334   6.579   2.341   4.268
 5812SOL    HW118335   6.639   2.376   4.196
 5812SOL    HW218336   6.634   2.295   4.338
 5813SOL     OW18337   1.941   1.719   0.910
 5813SOL    HW118338   2.029   1.734   0.954
 5813SOL    HW218339   1.870   1.706   0.980
 5814SOL     OW18340   6.318   4.657   1.262
 5814SOL    HW118341   6.252   4.588   1.291
 5814SOL    HW218342   6.355   4.704   1.342
 5815SOL     OW18343   4.178   2.185   4.756
 5815SOL    HW118344   4.182   2.086   4.765
 5815SOL    HW218345   4.252   2.216   4.696
 5816SOL     OW18346   4.488   5.621   7.003
 5816SOL    HW118347   4.411   5.559   6.991
 5816SOL    HW218348   4.476   5.701   6.945
 5817SOL     OW18349   5.696   3.777   6.274
 5817SOL    HW118350   5.773   3.807   6.330
 5817SOL    HW218351   5.673   3.850   6.209
 5818SOL     OW18352   6.492   5.748   4.951
 5818SOL    HW118353   6.536   5.752   5.040
 5818SOL    HW218354   6.473   5.841   4.919
 5819SOL     OW18355   4.152   6.516   6.909
 5819SOL    HW118356   4.123   6.611   6.916
 5819SOL    HW218357   4.131   6.481   6.818
 5820SOL     OW18358   3.979   5.701   3.973
 5820SOL    HW118359   3.958   5.620   4.027
 5820SOL    HW218360   4.012   5.774   4.033
 5821SOL     OW18361   0.275   6.897   1.271
 5821SOL    HW118362   0.276   6.982   1.324
 5821SOL    HW218363   0.184   6.856   1.276
 5822SOL     OW18364   0.894   2.419   2.436
 5822SOL    HW118365   0.890   2.466   2.348
 5822SOL    HW218366   0.909   2.485   2.509
 5823SOL     OW18367   1.646   0.977   5.443
 5823SOL    HW118368   1.567   0.920   5.420
 5823SOL    HW218369   1.615   1.065   5.478
 5824SOL     OW18370   6.545   5.284   2.889
 5824SOL    HW118371   6.560   5.380   2.913
 5824SOL    HW218372   6.503   5.236   2.965
 5825SOL     OW18373   2.249   2.091   5.708
 5825SOL    HW118374   2.276   2.180   5.744
 5825SOL    HW218375   2.226   2.100   5.611
 5826SOL     OW18376   0.066   5.038   5.622
 5826SOL    HW118377   0.047   4.940   5.635
 5826SOL    HW218378   0.163   5.056   5.638
 5827SOL     OW18379   1.725   4.547   4.654
 5827SOL    HW118380   1.798   4.496   4.609
 5827SOL    HW218381   1.643   4.490   4.659
 5828SOL     OW18382   6.583   2.699   1.448
 5828SOL    HW118383   6.679   2.692   1.475
 5828SOL    HW218384   6.575   2.677   1.351
 5829SOL     OW18385   2.026   0.797   3.209
 5829SOL    HW118386   2.119   0.806   3.245
 5829SOL    HW218387   1.989   0.708   3.235
 5830SOL     OW18388   5.181   0.104   5.304
 5830SOL    HW118389   5.084   0.117   5.283
 5830SOL    HW218390   5.206   0.162   5.382
 5831SOL     OW18391   6.986   0.792   5.158
 5831SOL    HW118392   6.973   0.888   5.135
 5831SOL    HW218393   0.055   0.760   5.120
 5832SOL     OW18394   3.240   4.903   6.085
 5832SOL    HW118395   3.325   4.900   6.138
 5832SOL    HW218396   3.168   4.946   6.139
 5833SOL     OW18397   3.986   3.986   4.736
 5833SOL    HW118398   3.990   4.061   4.802
 5833SOL    HW218399   3.898   3.988   4.688
 5834SOL     OW18400   6.968   3.558   6.798
 5834SOL    HW118401   0.049   3.560   6.810
 5834SOL    HW218402   6.941   3.475   6.749
 5835SOL     OW18403   4.862   3.145   3.821
 5835SOL    HW118404   4.793   3.074   3.808
 5835SOL    HW218405   4.892   3.145   3.916
 5836SOL     OW18406   2.959   6.808   2.726
 5836SOL    HW118407   2.964   6.746   2.804
 5836SOL    HW218408   2.907   6.890   2.753
 5837SOL     OW18409   3.664   4.483   5.727
 5837SOL    HW118410   3.619   4.546   5.664
 5837SOL    HW218411   3.755   4.516   5.749
 5838SOL     OW18412   3.376   2.644   6.817
 5838SOL    HW118413   3.371   2.721   6.754
 5838SOL    HW218414   3.332   2.565   6.775
 5839SOL     OW18415   0.353   1.997   2.427
 5839SOL    HW118416   0.282   1.978   2.360
 5839SOL    HW218417   0.389   2.089   2.413
 5840SOL     OW18418   0.992   5.527   6.285
 5840SOL    HW118419   0.915   5.545   6.346
 5840SOL    HW218420   1.070   5.584   6.310
 5841SOL     OW18421   5.176   1.598   2.797
 5841SOL    HW118422   5.162   1.695   2.779
 5841SOL    HW218423   5.138   1.543   2.722
 5842SOL     OW18424   4.601   3.236   1.484
 5842SOL    HW118425   4.584   3.310   1.549
 5842SOL    HW218426   4.678   3.182   1.516
 5843SOL     OW18427   2.018   3.621   2.680
 5843SOL    HW118428   1.939   3.644   2.735
 5843SOL    HW218429   2.096   3.600   2.739
 5844SOL     OW18430   1.749   6.398   6.271
 5844SOL    HW118431   1.708   6.396   6.180
 5844SOL    HW218432   1.677   6.400   6.340
 5845SOL     OW18433   0.375   0.868   2.083
 5845SOL    HW118434   0.439   0.860   2.159
 5845SOL    HW218435   0.403   0.942   2.023
 5846SOL     OW18436   0.450   2.194   4.112
 5846SOL    HW118437   0.406   2.283   4.122
 5846SOL    HW218438   0.509   2.195   4.031
 5847SOL     OW18439   2.184   2.268   1.620
 5847SOL    HW118440   2.096   2.268   1.669
 5847SOL    HW218441   2.167   2.257   1.522
 5848SOL     OW18442   2.390   5.239   3.249
 5848SOL    HW118443   2.338   5.324   3.263
 5848SOL    HW218444   2.428   5.209   3.336
 5849SOL     OW18445   0.351   0.367   6.627
 5849SOL    HW118446   0.385   0.408   6.711
 5849SOL    HW218447   0.364   0.430   6.550
 5850SOL     OW18448   0.199   3.155   1.866
 5850SOL    HW118449   0.225   3.064   1.832
 5850SOL    HW218450   0.109   3.150   1.909
 5851SOL     OW18451   5.752   3.710   3.406
 5851SOL    HW118452   5.710   3.642   3.345
 5851SOL    HW218453   5.846   3.683   3.426
 5852SOL     OW18454   6.298   6.152   3.359
 5852SOL    HW118455   6.217   6.166   3.416
 5852SOL    HW218456   6.372   6.211   3.392
 5853SOL     OW18457   3.722   5.747   4.612
 5853SOL    HW118458   3.787   5.823   4.611
 5853SOL    HW218459   3.634   5.779   4.578
 5854SOL     OW18460   5.740   5.058   6.147
 5854SOL    HW118461   5.684   5.007   6.082
 5854SOL    HW218462   5.828   5.012   6.159
 5855SOL     OW18463   7.017   1.006   4.324
 5855SOL    HW118464   0.049   1.016   4.239
 5855SOL    HW218465   0.055   0.957   4.391
 5856SOL     OW18466   1.730   5.772   3.979
 5856SOL    HW118467   1.633   5.761   3.958
 5856SOL    HW218468   1.775   5.682   3.973
 5857SOL     OW18469   6.190   2.610   5.747
 5857SOL    HW118470   6.127   2.600   5.670
 5857SOL    HW218471   6.212   2.706   5.760
 5858SOL     OW18472   2.077   2.727   2.247
 5858SOL    HW118473   2.076   2.659   2.320
 5858SOL    HW218474   2.150   2.793   2.264
 5859SOL     OW18475   5.363   5.940   2.238
 5859SOL    HW118476   5.401   6.016   2.290
 5859SOL    HW218477   5.425   5.918   2.161
 5860SOL     OW18478   1.683   4.157   1.608
 5860SOL    HW118479   1.711   4.094   1.681
 5860SOL    HW218480   1.655   4.104   1.528
 5861SOL     OW18481   4.390   1.442   4.609
 5861SOL    HW118482   4.443   1.381   4.668
 5861SOL    HW218483   4.317   1.390   4.564
 5862SOL     OW18484   5.203   5.159   2.118
 5862SOL    HW118485   5.150   5.244   2.111
 5862SOL    HW218486   5.255   5.160   2.204
 5863SOL     OW18487   3.203   0.884   4.842
 5863SOL    HW118488   3.251   0.918   4.762
 5863SOL    HW218489   3.147   0.957   4.882
 5864SOL     OW18490   4.088   3.828   1.601
 5864SOL    HW118491   4.098   3.747   1.658
 5864SOL    HW218492   4.039   3.899   1.652
 5865SOL     OW18493   6.006   0.655   5.077
 5865SOL    HW118494   6.028   0.720   5.151
 5865SOL    HW218495   5.910   0.628   5.085
 5866SOL     OW18496   4.221   4.804   1.066
 5866SOL    HW118497   4.273   4.720   1.079
 5866SOL    HW218498   4.249   4.849   0.982
 5867SOL     OW18499   1.023   4.089   0.711
 5867SOL    HW118500   1.063   4.177   0.739
 5867SOL    HW218501   0.955   4.106   0.639
 5868SOL     OW18502   0.224   1.134   4.967
 5868SOL    HW118503   0.177   1.143   4.879
 5868SOL    HW218504   0.249   1.038   4.982
 5869SOL     OW18505   2.501   6.434   4.184
 5869SOL    HW118506   2.560   6.414   4.262
 5869SOL    HW218507   2.522   6.525   4.148
 5870SOL     OW18508   5.155   6.226   4.886
 5870SOL    HW118509   5.207   6.141   4.894
 5870SOL    HW218510   5.058   6.204   4.872
 5871SOL     OW18511   4.026   3.045   1.073
 5871SOL    HW118512   4.098   3.055   1.004
 5871SOL    HW218513   4.045   3.105   1.150
 5872SOL     OW18514   3.837   5.430   1.128
 5872SOL    HW118515   3.806   5.341   1.094
 5872SOL    HW218516   3.785   5.503   1.082
 5873SOL     OW18517   2.927   2.133   1.156
 5873SOL    HW118518   2.970   2.060   1.208
 5873SOL    HW218519   2.994   2.204   1.136
 5874SOL     OW18520   3.642   4.227   0.367
 5874SOL    HW118521   3.583   4.147   0.377
 5874SOL    HW218522   3.689   4.245   0.453
 5875SOL     OW18523   4.117   1.197   6.797
 5875SOL    HW118524   4.145   1.200   6.893
 5875SOL    HW218525   4.098   1.290   6.765
 5876SOL     OW18526   3.143   3.012   0.164
 5876SOL    HW118527   3.120   2.918   0.187
 5876SOL    HW218528   3.062   3.059   0.129
 5877SOL     OW18529   0.059   6.771   0.648
 5877SOL    HW118530   0.125   6.731   0.712
 5877SOL    HW218531   0.059   6.870   0.658
 5878SOL     OW18532   5.485   5.016   3.729
 5878SOL    HW118533   5.501   4.949   3.801
 5878SOL    HW218534   5.565   5.077   3.723
 5879SOL     OW18535   1.982   3.229   6.163
 5879SOL    HW118536   1.965   3.133   6.141
 5879SOL    HW218537   1.902   3.284   6.138
 5880SOL     OW18538   4.748   4.566   6.764
 5880SOL    HW118539   4.717   4.638   6.827
 5880SOL    HW218540   4.772   4.607   6.676
 5881SOL     OW18541   1.740   6.957   1.756
 5881SOL    HW118542   1.735   0.013   1.823
 5881SOL    HW218543   1.748   6.870   1.804
 5882SOL     OW18544   0.920   6.793   6.099
 5882SOL    HW118545   0.916   6.745   6.011
 5882SOL    HW218546   0.877   6.737   6.170
 5883SOL     OW18547   0.879   1.265   6.975
 5883SOL    HW118548   0.953   1.218   6.927
 5883SOL    HW218549   0.816   1.197   7.012
 5884SOL     OW18550   4.890   1.108   4.786
 5884SOL    HW118551   4.938   1.187   4.823
 5884SOL    HW218552   4.935   1.078   4.702
 5885SOL     OW18553   0.498   5.496   2.441
 5885SOL    HW118554   0.500   5.397   2.427
 5885SOL    HW218555   0.406   5.524   2.469
 5886SOL     OW18556   1.139   1.933   3.869
 5886SOL    HW118557   1.235   1.923   3.844
 5886SOL    HW218558   1.095   2.000   3.809
 5887SOL     OW18559   2.357   2.054   1.649
 5887SOL    HW118560   2.297   2.132   1.666
 5887SOL    HW218561   2.430   2.051   1.718
 5888SOL     OW18562   2.473   6.730   1.522
 5888SOL    HW118563   2.423   6.812   1.551
 5888SOL    HW218564   2.569   6.738   1.549
 5889SOL     OW18565   6.011   1.730   6.193
 5889SOL    HW118566   6.046   1.729   6.287
 5889SOL    HW218567   5.916   1.762   6.193
 5890SOL     OW18568   2.140   6.998   2.898
 5890SOL    HW118569   2.094   6.921   2.943
 5890SOL    HW218570   2.238   6.982   2.896
 5891SOL     OW18571   2.576   4.290   0.937
 5891SOL    HW118572   2.589   4.192   0.951
 5891SOL    HW218573   2.547   4.307   0.843
 5892SOL     OW18574   0.125   5.278   2.061
 5892SOL    HW118575   0.089   5.344   1.995
 5892SOL    HW218576   0.211   5.312   2.099
 5893SOL     OW18577   2.389   4.862   2.059
 5893SOL    HW118578   2.351   4.912   2.137
 5893SOL    HW218579   2.453   4.793   2.092
 5894SOL     OW18580   0.691   5.712   5.476
 5894SOL    HW118581   0.647   5.681   5.561
 5894SOL    HW218582   0.695   5.812   5.475
 5895SOL     OW18583   6.206   3.925   3.524
 5895SOL    HW118584   6.194   3.951   3.428
 5895SOL    HW218585   6.176   4.000   3.582
 5896SOL     OW18586   4.754   1.473   0.915
 5896SOL    HW118587   4.833   1.519   0.957
 5896SOL    HW218588   4.776   1.376   0.901
 5897SOL     OW18589   4.296   0.943   0.872
 5897SOL    HW118590   4.235   0.887   0.815
 5897SOL    HW218591   4.389   0.906   0.868
 5898SOL     OW18592   2.560   0.847   5.236
 5898SOL    HW118593   2.540   0.753   5.206
 5898SOL    HW218594   2.628   0.844   5.309
 5899SOL     OW18595   5.574   6.156   6.746
 5899SOL    HW118596   5.539   6.088   6.811
 5899SOL    HW218597   5.573   6.117   6.653
 5900SOL     OW18598   6.881   4.967   2.713
 5900SOL    HW118599   6.958   5.022   2.682
 5900SOL    HW218600   6.914   4.881   2.752
 5901SOL     OW18601   2.734   1.581   0.571
 5901SOL    HW118602   2.815   1.548   0.521
 5901SOL    HW218603   2.732   1.540   0.662
 5902SOL     OW18604   5.395   3.937   5.804
 5902SOL    HW118605   5.448   3.937   5.720
 5902SOL    HW218606   5.312   3.992   5.791
 5903SOL     OW18607   4.773   3.896   0.053
 5903SOL    HW118608   4.681   3.857   0.051
 5903SOL    HW218609   4.837   3.830   0.093
 5904SOL     OW18610   1.077   4.542   1.185
 5904SOL    HW118611   1.076   4.545   1.285
 5904SOL    HW218612   1.010   4.476   1.153
 5905SOL     OW18613   6.213   0.802   3.640
 5905SOL    HW118614   6.296   0.746   3.632
 5905SOL    HW218615   6.169   0.809   3.551
 5906SOL     OW18616   4.853   1.525   4.781
 5906SOL    HW118617   4.881   1.621   4.787
 5906SOL    HW218618   4.770   1.512   4.835
 5907SOL     OW18619   1.252   6.625   0.469
 5907SOL    HW118620   1.350   6.608   0.481
 5907SOL    HW218621   1.236   6.662   0.377
 5908SOL     OW18622   6.740   3.903   0.100
 5908SOL    HW118623   6.812   3.848   0.059
 5908SOL    HW218624   6.688   3.950   0.029
 5909SOL     OW18625   6.231   5.149   6.310
 5909SOL    HW118626   6.242   5.152   6.409
 5909SOL    HW218627   6.241   5.241   6.272
 5910SOL     OW18628   0.792   4.675   1.276
 5910SOL    HW118629   0.892   4.680   1.274
 5910SOL    HW218630   0.756   4.747   1.335
 5911SOL     OW18631   6.240   4.989   6.793
 5911SOL    HW118632   6.173   4.920   6.818
 5911SOL    HW218633   6.212   5.078   6.829
 5912SOL     OW18634   6.046   3.408   7.002
 5912SOL    HW118635   6.001   3.394   0.072
 5912SOL    HW218636   6.105   3.489   7.007
 5913SOL     OW18637   3.018   3.023   6.356
 5913SOL    HW118638   2.927   2.982   6.349
 5913SOL    HW218639   3.014   3.119   6.328
 5914SOL     OW18640   2.884   5.442   6.045
 5914SOL    HW118641   2.843   5.351   6.053
 5914SOL    HW218642   2.954   5.453   6.116
 5915SOL     OW18643   6.113   4.181   1.858
 5915SOL    HW118644   6.068   4.095   1.835
 5915SOL    HW218645   6.179   4.205   1.787
 5916SOL     OW18646   4.444   6.164   5.722
 5916SOL    HW118647   4.523   6.128   5.771
 5916SOL    HW218648   4.417   6.100   5.650
 5917SOL     OW18649   3.763   2.923   4.527
 5917SOL    HW118650   3.699   2.914   4.451
 5917SOL    HW218651   3.838   2.984   4.501
 5918SOL     OW18652   2.404   3.721   5.310
 5918SOL    HW118653   2.451   3.677   5.386
 5918SOL    HW218654   2.433   3.816   5.304
 5919SOL     OW18655   2.855   2.508   0.494
 5919SOL    HW118656   2.879   2.424   0.542
 5919SOL    HW218657   2.756   2.516   0.489
 5920SOL     OW18658   3.711   0.047   0.598
 5920SOL    HW118659   3.803   0.020   0.624
 5920SOL    HW218660   3.709   0.071   0.501
 5921SOL     OW18661   3.649   5.741   5.688
 5921SOL    HW118662   3.609   5.776   5.603
 5921SOL    HW218663   3.699   5.657   5.669
 5922SOL     OW18664   6.659   5.338   4.201
 5922SOL    HW118665   6.702   5.258   4.243
 5922SOL    HW218666   6.709   5.421   4.227
 5923SOL     OW18667   5.258   0.716   1.393
 5923SOL    HW118668   5.173   0.767   1.410
 5923SOL    HW218669   5.297   0.744   1.306
 5924SOL     OW18670   6.091   2.063   4.885
 5924SOL    HW118671   6.150   1.989   4.917
 5924SOL    HW218672   6.128   2.100   4.800
 5925SOL     OW18673   3.988   6.100   3.519
 5925SOL    HW118674   3.906   6.053   3.487
 5925SOL    HW218675   3.973   6.199   3.517
 5926SOL     OW18676   3.767   4.936   2.323
 5926SOL    HW118677   3.792   4.899   2.234
 5926SOL    HW218678   3.681   4.986   2.315
 5927SOL     OW18679   1.551   4.226   3.371
 5927SOL    HW118680   1.539   4.129   3.391
 5927SOL    HW218681   1.601   4.236   3.285
 5928SOL     OW18682   3.192   0.649   1.592
 5928SOL    HW118683   3.269   0.714   1.591
 5928SOL    HW218684   3.137   0.665   1.673
 5929SOL     OW18685   0.956   6.629   5.893
 5929SOL    HW118686   0.923   6.581   5.811
 5929SOL    HW218687   0.957   6.565   5.970
 5930SOL     OW18688   6.988   1.037   3.004
 5930SOL    HW118689   6.917   1.020   3.073
 5930SOL    HW218690   6.948   1.084   2.925
 5931SOL     OW18691   5.516   5.327   3.476
 5931SOL    HW118692   5.551   5.295   3.564
 5931SOL    HW218693   5.438   5.388   3.491
 5932SOL     OW18694   2.770   6.085   1.129
 5932SOL    HW118695   2.761   5.994   1.168
 5932SOL    HW218696   2.693   6.142   1.158
 5933SOL     OW18697   0.674   5.687   3.086
 5933SOL    HW118698   0.650   5.728   3.174
 5933SOL    HW218699   0.733   5.608   3.101
 5934SOL     OW18700   4.157   3.616   4.325
 5934SOL    HW118701   4.164   3.650   4.419
 5934SOL    HW218702   4.077   3.556   4.318
 5935SOL     OW18703   4.116   3.308   5.032
 5935SOL    HW118704   4.045   3.353   5.085
 5935SOL    HW218705   4.179   3.376   4.995
 5936SOL     OW18706   3.861   3.468   0.524
 5936SOL    HW118707   3.774   3.445   0.566
 5936SOL    HW218708   3.899   3.387   0.478
 5937SOL     OW18709   0.315   4.805   2.287
 5937SOL    HW118710   0.347   4.714   2.314
 5937SOL    HW218711   0.217   4.812   2.302
 5938SOL     OW18712   1.475   5.671   4.279
 5938SOL    HW118713   1.571   5.656   4.301
 5938SOL    HW218714   1.446   5.759   4.316
 5939SOL     OW18715   3.305   0.498   3.638
 5939SOL    HW118716   3.209   0.473   3.644
 5939SOL    HW218717   3.357   0.452   3.710
 5940SOL     OW18718   4.359   5.693   1.743
 5940SOL    HW118719   4.319   5.739   1.664
 5940SOL    HW218720   4.326   5.598   1.746
 5941SOL     OW18721   6.249   3.195   1.859
 5941SOL    HW118722   6.194   3.162   1.782
 5941SOL    HW218723   6.190   3.206   1.939
 5942SOL     OW18724   4.921   2.771   6.716
 5942SOL    HW118725   4.847   2.836   6.731
 5942SOL    HW218726   4.961   2.786   6.626
 5943SOL     OW18727   3.282   5.365   0.889
 5943SOL    HW118728   3.297   5.330   0.982
 5943SOL    HW218729   3.191   5.405   0.883
 5944SOL     OW18730   5.441   2.108   1.399
 5944SOL    HW118731   5.417   2.171   1.325
 5944SOL    HW218732   5.538   2.085   1.394
 5945SOL     OW18733   6.585   5.173   5.351
 5945SOL    HW118734   6.556   5.133   5.438
 5945SOL    HW218735   6.675   5.138   5.327
 5946SOL     OW18736   3.618   3.245   5.443
 5946SOL    HW118737   3.654   3.153   5.425
 5946SOL    HW218738   3.563   3.274   5.365
 5947SOL     OW18739   3.995   2.984   1.793
 5947SOL    HW118740   3.916   2.937   1.832
 5947SOL    HW218741   3.966   3.039   1.715
 5948SOL     OW18742   3.527   5.137   3.331
 5948SOL    HW118743   3.564   5.097   3.415
 5948SOL    HW218744   3.595   5.198   3.291
 5949SOL     OW18745   3.985   3.523   1.245
 5949SOL    HW118746   4.030   3.470   1.316
 5949SOL    HW218747   3.973   3.617   1.276
 5950SOL     OW18748   5.711   3.592   5.602
 5950SOL    HW118749   5.787   3.542   5.644
 5950SOL    HW218750   5.625   3.562   5.643
 5951SOL     OW18751   0.344   5.639   5.089
 5951SOL    HW118752   0.412   5.613   5.158
 5951SOL    HW218753   0.272   5.570   5.086
 5952SOL     OW18754   5.546   5.336   4.262
 5952SOL    HW118755   5.587   5.262   4.314
 5952SOL    HW218756   5.614   5.407   4.244
 5953SOL     OW18757   6.581   2.757   5.878
 5953SOL    HW118758   6.553   2.852   5.891
 5953SOL    HW218759   6.575   2.733   5.781
 5954SOL     OW18760   0.106   4.360   5.509
 5954SOL    HW118761   0.024   4.385   5.458
 5954SOL    HW218762   0.098   4.266   5.542
 5955SOL     OW18763   5.590   5.929   2.774
 5955SOL    HW118764   5.599   5.972   2.864
 5955SOL    HW218765   5.560   5.834   2.785
 5956SOL     OW18766   3.804   1.940   6.869
 5956SOL    HW118767   3.816   1.841   6.866
 5956SOL    HW218768   3.821   1.973   6.961
 5957SOL     OW18769   4.513   0.295   5.565
 5957SOL    HW118770   4.508   0.329   5.659
 5957SOL    HW218771   4.421   0.291   5.526
 5958SOL     OW18772   6.812   5.741   2.789
 5958SOL    HW118773   6.786   5.798   2.711
 5958SOL    HW218774   6.906   5.709   2.777
 5959SOL     OW18775   3.701   2.031   5.250
 5959SOL    HW118776   3.648   2.045   5.166
 5959SOL    HW218777   3.638   2.023   5.327
 5960SOL     OW18778   3.905   6.615   4.459
 5960SOL    HW118779   3.917   6.545   4.388
 5960SOL    HW218780   3.986   6.675   4.461
 5961SOL     OW18781   5.032   1.073   3.837
 5961SOL    HW118782   4.934   1.072   3.819
 5961SOL    HW218783   5.050   1.117   3.925
 5962SOL     OW18784   5.083   5.831   1.713
 5962SOL    HW118785   5.100   5.734   1.725
 5962SOL    HW218786   4.991   5.853   1.745
 5963SOL     OW18787   3.021   3.218   4.536
 5963SOL    HW118788   3.105   3.272   4.542
 5963SOL    HW218789   2.958   3.262   4.472
 5964SOL     OW18790   0.304   4.971   5.846
 5964SOL    HW118791   0.383   4.914   5.825
 5964SOL    HW218792   0.316   5.062   5.806
 5965SOL     OW18793   1.589   1.875   6.073
 5965SOL    HW118794   1.625   1.892   6.165
 5965SOL    HW218795   1.649   1.919   6.006
 5966SOL     OW18796   2.999   6.010   5.464
 5966SOL    HW118797   3.098   5.994   5.457
 5966SOL    HW218798   2.983   6.102   5.500
 5967SOL     OW18799   4.246   6.315   1.424
 5967SOL    HW118800   4.261   6.393   1.363
 5967SOL    HW218801   4.285   6.233   1.384
 5968SOL     OW18802   4.564   1.000   2.383
 5968SOL    HW118803   4.527   0.998   2.476
 5968SOL    HW218804   4.619   1.083   2.370
 5969SOL     OW18805   6.589   1.033   5.993
 5969SOL    HW118806   6.652   1.104   6.023
 5969SOL    HW218807   6.510   1.030   6.054
 5970SOL     OW18808   0.588   4.568   2.393
 5970SOL    HW118809   0.517   4.520   2.444
 5970SOL    HW218810   0.674   4.516   2.398
 5971SOL     OW18811   1.844   0.823   2.999
 5971SOL    HW118812   1.895   0.842   3.083
 5971SOL    HW218813   1.817   0.909   2.956
 5972SOL     OW18814   5.516   6.653   0.125
 5972SOL    HW118815   5.465   6.668   0.041
 5972SOL    HW218816   5.466   6.693   0.202
 5973SOL     OW18817   1.772   4.658   2.393
 5973SOL    HW118818   1.792   4.686   2.299
 5973SOL    HW218819   1.691   4.598   2.394
 5974SOL     OW18820   5.755   4.589   6.682
 5974SOL    HW118821   5.671   4.546   6.650
 5974SOL    HW218822   5.834   4.537   6.650
 5975SOL     OW18823   3.249   2.156   0.237
 5975SOL    HW118824   3.245   2.227   0.166
 5975SOL    HW218825   3.340   2.155   0.278
 5976SOL     OW18826   3.172   3.717   4.502
 5976SOL    HW118827   3.211   3.688   4.414
 5976SOL    HW218828   3.095   3.778   4.485
 5977SOL     OW18829   2.200   5.121   1.646
 5977SOL    HW118830   2.131   5.063   1.690
 5977SOL    HW218831   2.159   5.208   1.619
 5978SOL     OW18832   5.001   5.121   3.498
 5978SOL    HW118833   5.030   5.029   3.470
 5978SOL    HW218834   4.904   5.119   3.523
 5979SOL     OW18835   6.194   6.871   2.491
 5979SOL    HW118836   6.289   6.874   2.460
 5979SOL    HW218837   6.191   6.856   2.590
 5980SOL     OW18838   4.041   3.644   6.845
 5980SOL    HW118839   4.129   3.618   6.885
 5980SOL    HW218840   4.048   3.736   6.805
 5981SOL     OW18841   6.380   0.520   1.991
 5981SOL    HW118842   6.384   0.555   2.084
 5981SOL    HW218843   6.433   0.580   1.931
 5982SOL     OW18844   6.367   2.515   0.477
 5982SOL    HW118845   6.409   2.604   0.494
 5982SOL    HW218846   6.287   2.527   0.418
 5983SOL     OW18847   1.635   1.018   4.717
 5983SOL    HW118848   1.697   0.947   4.749
 5983SOL    HW218849   1.677   1.108   4.729
 5984SOL     OW18850   6.323   6.487   5.036
 5984SOL    HW118851   6.414   6.450   5.052
 5984SOL    HW218852   6.309   6.567   5.095
 5985SOL     OW18853   6.061   3.218   3.788
 5985SOL    HW118854   6.094   3.150   3.724
 5985SOL    HW218855   5.961   3.220   3.787
 5986SOL     OW18856   3.513   3.847   3.776
 5986SOL    HW118857   3.550   3.755   3.792
 5986SOL    HW218858   3.479   3.853   3.682
 5987SOL     OW18859   4.223   1.096   5.224
 5987SOL    HW118860   4.288   1.097   5.300
 5987SOL    HW218861   4.131   1.082   5.260
 5988SOL     OW18862   4.388   0.211   4.793
 5988SOL    HW118863   4.435   0.135   4.748
 5988SOL    HW218864   4.310   0.240   4.737
 5989SOL     OW18865   2.790   5.835   6.770
 5989SOL    HW118866   2.848   5.915   6.757
 5989SOL    HW218867   2.749   5.808   6.683
 5990SOL     OW18868   3.854   4.600   0.355
 5990SOL    HW118869   3.826   4.592   0.451
 5990SOL    HW218870   3.927   4.534   0.336
 5991SOL     OW18871   4.251   5.229   5.476
 5991SOL    HW118872   4.286   5.267   5.390
 5991SOL    HW218873   4.158   5.261   5.492
 5992SOL     OW18874   3.685   0.948   3.391
 5992SOL    HW118875   3.766   0.889   3.395
 5992SOL    HW218876   3.614   0.911   3.451
 5993SOL     OW18877   3.424   6.723   5.590
 5993SOL    HW118878   3.384   6.667   5.663
 5993SOL    HW218879   3.352   6.779   5.549
 5994SOL     OW18880   6.329   1.792   1.947
 5994SOL    HW118881   6.339   1.836   2.036
 5994SOL    HW218882   6.232   1.781   1.926
 5995SOL     OW18883   6.118   4.306   2.669
 5995SOL    HW118884   6.069   4.258   2.595
 5995SOL    HW218885   6.214   4.277   2.669
 5996SOL     OW18886   0.752   5.983   0.834
 5996SOL    HW118887   0.676   6.038   0.800
 5996SOL    HW218888   0.794   6.030   0.912
 5997SOL     OW18889   1.261   5.869   2.638
 5997SOL    HW118890   1.216   5.798   2.585
 5997SOL    HW218891   1.314   5.828   2.712
 5998SOL     OW18892   6.034   2.197   1.799
 5998SOL    HW118893   5.981   2.268   1.751
 5998SOL    HW218894   5.990   2.108   1.785
 5999SOL     OW18895   1.373   2.015   2.645
 5999SOL    HW118896   1.382   2.036   2.548
 5999SOL    HW218897   1.278   2.028   2.673
 6000SOL     OW18898   3.711   6.820   1.991
 6000SOL    HW118899   3.695   6.905   2.042
 6000SOL    HW218900   3.807   6.815   1.965
 6001SOL     OW18901   0.569   4.056   6.389
 6001SOL    HW118902   0.500   4.128   6.390
 6001SOL    HW218903   0.554   3.996   6.310
 6002SOL     OW18904   6.937   0.540   0.933
 6002SOL    HW118905   6.940   0.619   0.872
 6002SOL    HW218906   6.843   0.507   0.940
 6003SOL     OW18907   0.227   1.870   4.380
 6003SOL    HW118908   0.322   1.893   4.359
 6003SOL    HW218909   0.182   1.835   4.298
 6004SOL     OW18910   0.035   4.567   2.965
 6004SOL    HW118911   6.982   4.498   2.949
 6004SOL    HW218912   0.084   4.545   3.049
 6005SOL     OW18913   4.558   4.839   4.932
 6005SOL    HW118914   4.485   4.788   4.886
 6005SOL    HW218915   4.646   4.815   4.890
 6006SOL     OW18916   3.527   6.656   6.875
 6006SOL    HW118917   3.492   6.683   6.965
 6006SOL    HW218918   3.510   6.558   6.861
 6007SOL     OW18919   5.008   3.445   4.630
 6007SOL    HW118920   4.986   3.537   4.662
 6007SOL    HW218921   5.088   3.449   4.570
 6008SOL     OW18922   2.213   5.539   6.026
 6008SOL    HW118923   2.192   5.624   6.074
 6008SOL    HW218924   2.302   5.504   6.057
 6009SOL     OW18925   3.995   0.864   5.040
 6009SOL    HW118926   4.060   0.797   5.073
 6009SOL    HW218927   3.903   0.840   5.069
 6010SOL     OW18928   1.227   4.137   2.649
 6010SOL    HW118929   1.318   4.110   2.681
 6010SOL    HW218930   1.180   4.058   2.610
 6011SOL     OW18931   4.666   2.684   2.936
 6011SOL    HW118932   4.714   2.770   2.957
 6011SOL    HW218933   4.610   2.658   3.014
 6012SOL     OW18934   6.410   1.499   0.049
 6012SOL    HW118935   6.327   1.528   0.001
 6012SOL    HW218936   6.479   1.570   0.041
 6013SOL     OW18937   5.575   1.993   2.839
 6013SOL    HW118938   5.493   2.036   2.801
 6013SOL    HW218939   5.627   1.950   2.765
 6014SOL     OW18940   4.034   2.094   0.848
 6014SOL    HW118941   3.993   2.118   0.936
 6014SOL    HW218942   4.093   2.169   0.818
 6015SOL     OW18943   5.806   2.472   5.410
 6015SOL    HW118944   5.895   2.475   5.366
 6015SOL    HW218945   5.807   2.404   5.483
 6016SOL     OW18946   0.399   1.809   6.618
 6016SOL    HW118947   0.369   1.843   6.707
 6016SOL    HW218948   0.491   1.771   6.626
 6017SOL     OW18949   6.429   4.587   2.836
 6017SOL    HW118950   6.413   4.632   2.749
 6017SOL    HW218951   6.515   4.619   2.876
 6018SOL     OW18952   3.321   1.448   0.086
 6018SOL    HW118953   3.315   1.406   7.013
 6018SOL    HW218954   3.293   1.381   0.155
 6019SOL     OW18955   5.698   1.793   4.335
 6019SOL    HW118956   5.795   1.771   4.327
 6019SOL    HW218957   5.672   1.858   4.264
 6020SOL     OW18958   1.997   5.816   1.618
 6020SOL    HW118959   2.047   5.899   1.641
 6020SOL    HW218960   2.000   5.800   1.520
 6021SOL     OW18961   3.813   0.700   2.213
 6021SOL    HW118962   3.748   0.638   2.256
 6021SOL    HW218963   3.784   0.795   2.228
 6022SOL     OW18964   4.692   1.236   5.159
 6022SOL    HW118965   4.616   1.250   5.222
 6022SOL    HW218966   4.779   1.239   5.210
 6023SOL     OW18967   6.129   1.849   2.516
 6023SOL    HW118968   6.168   1.810   2.432
 6023SOL    HW218969   6.202   1.860   2.584
 6024SOL     OW18970   0.618   4.175   3.543
 6024SOL    HW118971   0.532   4.222   3.566
 6024SOL    HW218972   0.615   4.148   3.447
 6025SOL     OW18973   3.784   1.497   2.046
 6025SOL    HW118974   3.797   1.568   2.116
 6025SOL    HW218975   3.732   1.534   1.970
 6026SOL     OW18976   6.651   4.443   4.194
 6026SOL    HW118977   6.635   4.347   4.217
 6026SOL    HW218978   6.742   4.453   4.154
 6027SOL     OW18979   1.789   4.319   5.669
 6027SOL    HW118980   1.706   4.301   5.616
 6027SOL    HW218981   1.835   4.233   5.691
 6028SOL     OW18982   0.953   3.697   0.491
 6028SOL    HW118983   0.907   3.776   0.533
 6028SOL    HW218984   1.043   3.685   0.534
 6029SOL     OW18985   1.878   6.060   5.229
 6029SOL    HW118986   1.895   6.017   5.140
 6029SOL    HW218987   1.852   5.991   5.295
 6030SOL     OW18988   3.628   6.812   3.198
 6030SOL    HW118989   3.652   6.834   3.104
 6030SOL    HW218990   3.706   6.828   3.258
 6031SOL     OW18991   3.825   5.227   3.762
 6031SOL    HW118992   3.916   5.266   3.748
 6031SOL    HW218993   3.810   5.211   3.860
 6032SOL     OW18994   2.161   3.203   3.053
 6032SOL    HW118995   2.156   3.194   2.953
 6032SOL    HW218996   2.200   3.120   3.092
 6033SOL     OW18997   3.002   1.892   2.475
 6033SOL    HW118998   3.026   1.988   2.488
 6033SOL    HW218999   2.917   1.872   2.525
 6034SOL     OW19000   1.432   5.660   4.572
 6034SOL    HW119001   1.474   5.593   4.510
 6034SOL    HW219002   1.357   5.706   4.525
 6035SOL     OW19003   6.994   0.740   3.269
 6035SOL    HW119004   0.025   0.654   3.254
 6035SOL    HW219005   6.990   0.760   3.367
 6036SOL     OW19006   6.713   6.207   4.093
 6036SOL    HW119007   6.665   6.262   4.024
 6036SOL    HW219008   6.653   6.193   4.172
 6037SOL     OW19009   3.948   4.540   5.828
 6037SOL    HW119010   3.991   4.564   5.741
 6037SOL    HW219011   4.016   4.540   5.900
 6038SOL     OW19012   1.199   2.914   6.259
 6038SOL    HW119013   1.128   2.857   6.217
 6038SOL    HW219014   1.158   2.972   6.329
 6039SOL     OW19015   3.594   2.901   2.708
 6039SOL    HW119016   3.565   2.890   2.613
 6039SOL    HW219017   3.689   2.932   2.710
 6040SOL     OW19018   0.913   2.459   6.452
 6040SOL    HW119019   0.943   2.429   6.543
 6040SOL    HW219020   0.835   2.402   6.423
 6041SOL     OW19021   1.661   0.927   5.046
 6041SOL    HW119022   1.593   0.854   5.036
 6041SOL    HW219023   1.615   1.015   5.040
 6042SOL     OW19024   5.114   5.449   2.094
 6042SOL    HW119025   5.040   5.505   2.058
 6042SOL    HW219026   5.201   5.494   2.078
 6043SOL     OW19027   0.785   4.246   5.540
 6043SOL    HW119028   0.868   4.301   5.547
 6043SOL    HW219029   0.791   4.185   5.461
 6044SOL     OW19030   1.304   2.487   1.193
 6044SOL    HW119031   1.215   2.486   1.148
 6044SOL    HW219032   1.352   2.571   1.171
 6045SOL     OW19033   6.311   5.883   1.345
 6045SOL    HW119034   6.308   5.894   1.245
 6045SOL    HW219035   6.265   5.961   1.388
 6046SOL     OW19036   2.945   1.733   0.310
 6046SOL    HW119037   2.952   1.828   0.340
 6046SOL    HW219038   2.895   1.728   0.224
 6047SOL     OW19039   6.314   1.954   2.179
 6047SOL    HW119040   6.289   2.046   2.206
 6047SOL    HW219041   6.379   1.916   2.245
 6048SOL     OW19042   4.625   6.343   3.529
 6048SOL    HW119043   4.604   6.421   3.588
 6048SOL    HW219044   4.545   6.322   3.472
 6049SOL     OW19045   5.166   4.077   5.668
 6049SOL    HW119046   5.097   4.005   5.678
 6049SOL    HW219047   5.122   4.166   5.678
 6050SOL     OW19048   3.050   4.542   5.391
 6050SOL    HW119049   3.002   4.595   5.461
 6050SOL    HW219050   2.995   4.539   5.308
 6051SOL     OW19051   2.196   1.463   3.881
 6051SOL    HW119052   2.156   1.395   3.820
 6051SOL    HW219053   2.166   1.554   3.852
 6052SOL     OW19054   6.609   6.325   0.307
 6052SOL    HW119055   6.591   6.381   0.226
 6052SOL    HW219056   6.575   6.371   0.388
 6053SOL     OW19057   3.872   0.394   6.401
 6053SOL    HW119058   3.839   0.343   6.480
 6053SOL    HW219059   3.804   0.389   6.328
 6054SOL     OW19060   3.110   4.210   0.531
 6054SOL    HW119061   3.107   4.272   0.610
 6054SOL    HW219062   3.019   4.207   0.489
 6055SOL     OW19063   5.400   1.130   5.370
 6055SOL    HW119064   5.330   1.166   5.433
 6055SOL    HW219065   5.395   1.180   5.284
 6056SOL     OW19066   5.312   3.456   4.866
 6056SOL    HW119067   5.218   3.469   4.896
 6056SOL    HW219068   5.346   3.368   4.900
 6057SOL     OW19069   5.495   3.135   4.562
 6057SOL    HW119070   5.513   3.065   4.493
 6057SOL    HW219071   5.417   3.107   4.618
 6058SOL     OW19072   5.041   2.627   2.302
 6058SOL    HW119073   4.983   2.708   2.296
 6058SOL    HW219074   5.038   2.577   2.216
 6059SOL     OW19075   4.536   5.779   5.026
 6059SOL    HW119076   4.507   5.868   5.062
 6059SOL    HW219077   4.624   5.789   4.980
 6060SOL     OW19078   3.060   4.157   6.510
 6060SOL    HW119079   3.056   4.072   6.562
 6060SOL    HW219080   3.100   4.138   6.420
 6061SOL     OW19081   4.249   1.794   1.056
 6061SOL    HW119082   4.246   1.798   0.956
 6061SOL    HW219083   4.278   1.702   1.084
 6062SOL     OW19084   1.931   0.805   4.628
 6062SOL    HW119085   1.845   0.774   4.589
 6062SOL    HW219086   1.974   0.871   4.566
 6063SOL     OW19087   3.576   1.252   0.034
 6063SOL    HW119088   3.546   1.346   0.047
 6063SOL    HW219089   3.520   1.191   0.090
 6064SOL     OW19090   2.808   6.343   2.049
 6064SOL    HW119091   2.825   6.244   2.051
 6064SOL    HW219092   2.841   6.380   1.963
 6065SOL     OW19093   5.772   0.040   2.227
 6065SOL    HW119094   5.722   0.047   2.314
 6065SOL    HW219095   5.827   0.122   2.214
 6066SOL     OW19096   4.417   1.594   0.124
 6066SOL    HW119097   4.346   1.662   0.143
 6066SOL    HW219098   4.501   1.620   0.172
 6067SOL     OW19099   5.338   1.966   6.507
 6067SOL    HW119100   5.320   1.950   6.605
 6067SOL    HW219101   5.282   2.042   6.475
 6068SOL     OW19102   5.665   2.761   4.627
 6068SOL    HW119103   5.650   2.727   4.534
 6068SOL    HW219104   5.629   2.694   4.693
 6069SOL     OW19105   0.197   3.192   4.857
 6069SOL    HW119106   0.184   3.155   4.949
 6069SOL    HW219107   0.131   3.150   4.795
 6070SOL     OW19108   2.160   1.609   6.274
 6070SOL    HW119109   2.113   1.563   6.198
 6070SOL    HW219110   2.229   1.548   6.312
 6071SOL     OW19111   4.898   5.041   4.722
 6071SOL    HW119112   4.941   4.984   4.792
 6071SOL    HW219113   4.883   5.133   4.759
 6072SOL     OW19114   7.003   0.684   1.824
 6072SOL    HW119115   7.015   0.619   1.749
 6072SOL    HW219116   0.019   0.643   1.909
 6073SOL     OW19117   6.701   3.845   0.374
 6073SOL    HW119118   6.723   3.864   0.278
 6073SOL    HW219119   6.784   3.853   0.429
 6074SOL     OW19120   0.776   6.816   4.075
 6074SOL    HW119121   0.723   6.877   4.133
 6074SOL    HW219122   0.734   6.725   4.075
 6075SOL     OW19123   0.099   2.614   6.625
 6075SOL    HW119124   0.186   2.574   6.595
 6075SOL    HW219125   0.029   2.599   6.555
 6076SOL     OW19126   3.011   5.804   5.274
 6076SOL    HW119127   2.978   5.859   5.351
 6076SOL    HW219128   3.107   5.827   5.256
 6077SOL     OW19129   4.491   5.459   2.059
 6077SOL    HW119130   4.515   5.463   2.156
 6077SOL    HW219131   4.391   5.459   2.050
 6078SOL     OW19132   3.663   4.942   1.781
 6078SOL    HW119133   3.626   4.874   1.845
 6078SOL    HW219134   3.621   4.930   1.691
 6079SOL     OW19135   3.315   3.499   5.999
 6079SOL    HW119136   3.288   3.560   5.925
 6079SOL    HW219137   3.381   3.433   5.965
 6080SOL     OW19138   0.036   1.593   1.160
 6080SOL    HW119139   6.994   1.601   1.240
 6080SOL    HW219140   0.073   1.683   1.136
 6081SOL     OW19141   6.202   3.235   4.848
 6081SOL    HW119142   6.275   3.216   4.915
 6081SOL    HW219143   6.171   3.330   4.859
 6082SOL     OW19144   3.688   1.630   3.062
 6082SOL    HW119145   3.770   1.677   3.095
 6082SOL    HW219146   3.636   1.692   3.003
 6083SOL     OW19147   0.533   6.106   6.250
 6083SOL    HW119148   0.610   6.157   6.289
 6083SOL    HW219149   0.466   6.087   6.322
 6084SOL     OW19150   0.321   5.505   3.875
 6084SOL    HW119151   0.364   5.555   3.800
 6084SOL    HW219152   0.238   5.553   3.905
 6085SOL     OW19153   0.476   4.392   0.019
 6085SOL    HW119154   0.432   4.478   7.012
 6085SOL    HW219155   0.546   4.370   6.970
 6086SOL     OW19156   3.095   1.471   5.131
 6086SOL    HW119157   3.045   1.551   5.097
 6086SOL    HW219158   3.044   1.388   5.108
 6087SOL     OW19159   4.318   6.036   6.702
 6087SOL    HW119160   4.380   5.975   6.751
 6087SOL    HW219161   4.269   5.985   6.631
 6088SOL     OW19162   6.270   6.284   4.584
 6088SOL    HW119163   6.366   6.272   4.607
 6088SOL    HW219164   6.236   6.370   4.621
 6089SOL     OW19165   0.614   3.791   1.294
 6089SOL    HW119166   0.640   3.707   1.246
 6089SOL    HW219167   0.667   3.868   1.258
 6090SOL     OW19168   1.846   5.995   6.129
 6090SOL    HW119169   1.850   6.023   6.225
 6090SOL    HW219170   1.894   5.908   6.118
 6091SOL     OW19171   1.549   1.773   2.239
 6091SOL    HW119172   1.496   1.697   2.202
 6091SOL    HW219173   1.584   1.748   2.329
 6092SOL     OW19174   2.863   0.428   3.473
 6092SOL    HW119175   2.904   0.466   3.390
 6092SOL    HW219176   2.774   0.469   3.488
 6093SOL     OW19177   1.350   3.045   3.107
 6093SOL    HW119178   1.424   3.112   3.096
 6093SOL    HW219179   1.365   2.968   3.045
 6094SOL     OW19180   3.879   0.714   0.891
 6094SOL    HW119181   3.818   0.641   0.862
 6094SOL    HW219182   3.973   0.691   0.866
 6095SOL     OW19183   4.743   2.998   6.719
 6095SOL    HW119184   4.726   3.064   6.793
 6095SOL    HW219185   4.775   3.047   6.638
 6096SOL     OW19186   5.769   0.548   3.174
 6096SOL    HW119187   5.859   0.505   3.172
 6096SOL    HW219188   5.700   0.481   3.200
 6097SOL     OW19189   1.781   0.167   1.952
 6097SOL    HW119190   1.768   0.111   2.033
 6097SOL    HW219191   1.879   0.175   1.933
 6098SOL     OW19192   1.074   2.113   6.199
 6098SOL    HW119193   1.095   2.158   6.112
 6098SOL    HW219194   1.033   2.023   6.181
 6099SOL     OW19195   0.149   6.021   0.500
 6099SOL    HW119196   0.140   6.028   0.400
 6099SOL    HW219197   0.234   5.973   0.522
 6100SOL     OW19198   5.387   3.431   6.568
 6100SOL    HW119199   5.378   3.414   6.666
 6100SOL    HW219200   5.396   3.344   6.519
 6101SOL     OW19201   5.984   2.215   5.295
 6101SOL    HW119202   5.998   2.219   5.394
 6101SOL    HW219203   5.917   2.145   5.274
 6102SOL     OW19204   3.875   0.711   3.818
 6102SOL    HW119205   3.777   0.729   3.809
 6102SOL    HW219206   3.922   0.797   3.840
 6103SOL     OW19207   0.358   1.697   3.075
 6103SOL    HW119208   0.281   1.739   3.122
 6103SOL    HW219209   0.443   1.731   3.114
 6104SOL     OW19210   6.380   2.647   6.030
 6104SOL    HW119211   6.424   2.682   5.947
 6104SOL    HW219212   6.310   2.711   6.060
 6105SOL     OW19213   2.408   0.131   5.869
 6105SOL    HW119214   2.353   0.162   5.792
 6105SOL    HW219215   2.502   0.116   5.839
 6106SOL     OW19216   1.255   4.379   5.509
 6106SOL    HW119217   1.247   4.407   5.414
 6106SOL    HW219218   1.315   4.443   5.558
 6107SOL     OW19219   2.380   4.684   3.844
 6107SOL    HW119220   2.326   4.758   3.803
 6107SOL    HW219221   2.355   4.675   3.941
 6108SOL     OW19222   0.549   2.508   2.940
 6108SOL    HW119223   0.454   2.488   2.917
 6108SOL    HW219224   0.555   2.600   2.979
 6109SOL     OW19225   5.090   3.272   6.139
 6109SOL    HW119226   5.168   3.226   6.095
 6109SOL    HW219227   5.099   3.371   6.129
 6110SOL     OW19228   3.829   3.196   6.821
 6110SOL    HW119229   3.919   3.226   6.853
 6110SOL    HW219230   3.822   3.210   6.722
 6111SOL     OW19231   1.746   4.688   2.720
 6111SOL    HW119232   1.702   4.644   2.799
 6111SOL    HW219233   1.676   4.718   2.656
 6112SOL     OW19234   3.778   1.378   3.366
 6112SOL    HW119235   3.738   1.397   3.456
 6112SOL    HW219236   3.846   1.448   3.345
 6113SOL     OW19237   0.332   1.056   5.775
 6113SOL    HW119238   0.393   1.031   5.850
 6113SOL    HW219239   0.256   0.992   5.771
 6114SOL     OW19240   4.718   4.597   1.223
 6114SOL    HW119241   4.815   4.618   1.234
 6114SOL    HW219242   4.674   4.669   1.170
 6115SOL     OW19243   5.594   6.097   2.992
 6115SOL    HW119244   5.694   6.110   2.992
 6115SOL    HW219245   5.553   6.162   2.928
 6116SOL     OW19246   2.739   1.237   1.110
 6116SOL    HW119247   2.714   1.141   1.118
 6116SOL    HW219248   2.669   1.293   1.155
 6117SOL     OW19249   6.506   0.407   5.974
 6117SOL    HW119250   6.443   0.382   6.048
 6117SOL    HW219251   6.506   0.334   5.905
 6118SOL     OW19252   6.720   0.498   1.429
 6118SOL    HW119253   6.746   0.464   1.520
 6118SOL    HW219254   6.789   0.471   1.362
 6119SOL     OW19255   1.112   3.340   4.144
 6119SOL    HW119256   1.117   3.259   4.202
 6119SOL    HW219257   1.103   3.422   4.200
 6120SOL     OW19258   4.121   6.980   3.701
 6120SOL    HW119259   4.031   6.956   3.738
 6120SOL    HW219260   4.190   6.969   3.773
 6121SOL     OW19261   0.179   2.846   4.463
 6121SOL    HW119262   0.088   2.842   4.504
 6121SOL    HW219263   0.182   2.919   4.394
 6122SOL     OW19264   3.593   0.066   1.524
 6122SOL    HW119265   3.501   0.087   1.492
 6122SOL    HW219266   3.590   0.044   1.622
 6123SOL     OW19267   6.730   0.426   0.154
 6123SOL    HW119268   6.810   0.371   0.129
 6123SOL    HW219269   6.757   0.494   0.222
 6124SOL     OW19270   3.356   0.532   5.585
 6124SOL    HW119271   3.416   0.612   5.582
 6124SOL    HW219272   3.366   0.479   5.501
 6125SOL     OW19273   3.165   5.653   0.649
 6125SOL    HW119274   3.219   5.715   0.707
 6125SOL    HW219275   3.138   5.701   0.566
 6126SOL     OW19276   5.798   6.750   4.279
 6126SOL    HW119277   5.847   6.823   4.326
 6126SOL    HW219278   5.751   6.788   4.199
 6127SOL     OW19279   2.595   0.673   2.633
 6127SOL    HW119280   2.624   0.670   2.728
 6127SOL    HW219281   2.499   0.647   2.626
 6128SOL     OW19282   6.579   3.399   0.556
 6128SOL    HW119283   6.500   3.356   0.514
 6128SOL    HW219284   6.597   3.488   0.512
 6129SOL     OW19285   6.119   4.621   3.238
 6129SOL    HW119286   6.062   4.589   3.314
 6129SOL    HW219287   6.191   4.680   3.273
 6130SOL     OW19288   5.534   2.030   3.812
 6130SOL    HW119289   5.470   1.975   3.866
 6130SOL    HW219290   5.624   2.027   3.853
 6131SOL     OW19291   6.455   1.619   5.316
 6131SOL    HW119292   6.482   1.576   5.402
 6131SOL    HW219293   6.355   1.630   5.314
 6132SOL     OW19294   5.230   1.592   0.168
 6132SOL    HW119295   5.235   1.667   0.101
 6132SOL    HW219296   5.262   1.508   0.126
 6133SOL     OW19297   1.084   2.690   2.835
 6133SOL    HW119298   1.142   2.615   2.867
 6133SOL    HW219299   1.074   2.685   2.736
 6134SOL     OW19300   3.420   4.051   0.429
 6134SOL    HW119301   3.385   4.044   0.522
 6134SOL    HW219302   3.363   4.114   0.376
 6135SOL     OW19303   0.483   6.854   1.699
 6135SOL    HW119304   0.476   6.791   1.622
 6135SOL    HW219305   0.394   6.864   1.742
 6136SOL     OW19306   0.648   2.285   2.518
 6136SOL    HW119307   0.725   2.317   2.463
 6136SOL    HW219308   0.674   2.282   2.615
 6137SOL     OW19309   4.863   1.800   4.815
 6137SOL    HW119310   4.782   1.836   4.861
 6137SOL    HW219311   4.900   1.870   4.754
 6138SOL     OW19312   3.675   6.619   2.722
 6138SOL    HW119313   3.620   6.583   2.647
 6138SOL    HW219314   3.714   6.708   2.696
 6139SOL     OW19315   1.921   2.586   4.946
 6139SOL    HW119316   1.958   2.514   4.887
 6139SOL    HW219317   1.846   2.549   5.001
 6140SOL     OW19318   0.381   5.886   1.610
 6140SOL    HW119319   0.474   5.855   1.590
 6140SOL    HW219320   0.366   5.884   1.708
 6141SOL     OW19321   5.801   6.183   5.469
 6141SOL    HW119322   5.899   6.196   5.456
 6141SOL    HW219323   5.764   6.131   5.392
 6142SOL     OW19324   6.835   5.240   0.941
 6142SOL    HW119325   6.791   5.211   0.855
 6142SOL    HW219326   6.769   5.235   1.015
 6143SOL     OW19327   6.246   4.702   0.278
 6143SOL    HW119328   6.241   4.790   0.326
 6143SOL    HW219329   6.239   4.627   0.343
 6144SOL     OW19330   6.270   4.641   2.577
 6144SOL    HW119331   6.187   4.696   2.584
 6144SOL    HW219332   6.247   4.552   2.538
 6145SOL     OW19333   4.848   6.118   4.235
 6145SOL    HW119334   4.750   6.121   4.254
 6145SOL    HW219335   4.895   6.070   4.310
 6146SOL     OW19336   4.146   1.394   3.708
 6146SOL    HW119337   4.091   1.324   3.754
 6146SOL    HW219338   4.220   1.350   3.657
 6147SOL     OW19339   1.513   4.182   4.299
 6147SOL    HW119340   1.495   4.165   4.202
 6147SOL    HW219341   1.472   4.109   4.354
 6148SOL     OW19342   6.814   0.234   4.560
 6148SOL    HW119343   6.879   0.167   4.595
 6148SOL    HW219344   6.853   0.326   4.572
 6149SOL     OW19345   2.979   4.866   2.922
 6149SOL    HW119346   3.079   4.872   2.934
 6149SOL    HW219347   2.935   4.940   2.973
 6150SOL     OW19348   4.225   5.103   6.820
 6150SOL    HW119349   4.154   5.102   6.749
 6150SOL    HW219350   4.193   5.052   6.900
 6151SOL     OW19351   5.695   4.148   4.831
 6151SOL    HW119352   5.707   4.203   4.914
 6151SOL    HW219353   5.606   4.103   4.834
 6152SOL     OW19354   5.826   5.189   5.530
 6152SOL    HW119355   5.754   5.254   5.551
 6152SOL    HW219356   5.853   5.198   5.434
 6153SOL     OW19357   4.842   4.058   1.746
 6153SOL    HW119358   4.840   4.109   1.832
 6153SOL    HW219359   4.921   3.997   1.745
 6154SOL     OW19360   5.644   1.520   2.962
 6154SOL    HW119361   5.587   1.585   2.912
 6154SOL    HW219362   5.681   1.452   2.898
 6155SOL     OW19363   1.978   1.670   4.992
 6155SOL    HW119364   2.053   1.736   4.986
 6155SOL    HW219365   1.891   1.718   4.979
 6156SOL     OW19366   4.358   4.885   2.474
 6156SOL    HW119367   4.324   4.791   2.471
 6156SOL    HW219368   4.458   4.883   2.477
 6157SOL     OW19369   1.265   1.865   4.529
 6157SOL    HW119370   1.302   1.833   4.616
 6157SOL    HW219371   1.252   1.964   4.532
 6158SOL     OW19372   4.516   0.901   5.826
 6158SOL    HW119373   4.544   0.847   5.747
 6158SOL    HW219374   4.597   0.923   5.881
 6159SOL     OW19375   4.734   2.865   0.972
 6159SOL    HW119376   4.738   2.765   0.984
 6159SOL    HW219377   4.697   2.886   0.882
 6160SOL     OW19378   5.341   6.417   0.177
 6160SOL    HW119379   5.327   6.351   0.103
 6160SOL    HW219380   5.402   6.490   0.146
 6161SOL     OW19381   5.793   2.232   5.573
 6161SOL    HW119382   5.805   2.199   5.666
 6161SOL    HW219383   5.745   2.164   5.518
 6162SOL     OW19384   0.788   5.521   3.932
 6162SOL    HW119385   0.814   5.461   4.007
 6162SOL    HW219386   0.812   5.615   3.956
 6163SOL     OW19387   5.080   6.321   2.005
 6163SOL    HW119388   5.166   6.328   1.953
 6163SOL    HW219389   5.019   6.256   1.959
 6164SOL     OW19390   2.066   3.087   1.421
 6164SOL    HW119391   2.036   2.995   1.394
 6164SOL    HW219392   2.137   3.119   1.358
 6165SOL     OW19393   3.950   6.873   5.960
 6165SOL    HW119394   3.863   6.828   5.975
 6165SOL    HW219395   4.018   6.838   6.025
 6166SOL     OW19396   3.961   1.061   5.328
 6166SOL    HW119397   3.917   1.117   5.258
 6166SOL    HW219398   3.943   0.964   5.309
 6167SOL     OW19399   0.212   4.482   2.287
 6167SOL    HW119400   0.200   4.421   2.208
 6167SOL    HW219401   0.273   4.438   2.354
 6168SOL     OW19402   0.533   3.160   0.498
 6168SOL    HW119403   0.443   3.153   0.455
 6168SOL    HW219404   0.583   3.236   0.458
 6169SOL     OW19405   0.759   3.483   2.200
 6169SOL    HW119406   0.759   3.432   2.286
 6169SOL    HW219407   0.664   3.498   2.170
 6170SOL     OW19408   0.931   3.420   5.093
 6170SOL    HW119409   0.994   3.438   5.017
 6170SOL    HW219410   0.954   3.333   5.135
 6171SOL     OW19411   0.760   1.745   0.355
 6171SOL    HW119412   0.734   1.750   0.259
 6171SOL    HW219413   0.682   1.716   0.410
 6172SOL     OW19414   1.332   3.388   2.883
 6172SOL    HW119415   1.303   3.362   2.791
 6172SOL    HW219416   1.410   3.333   2.911
 6173SOL     OW19417   6.987   5.564   3.175
 6173SOL    HW119418   6.962   5.660   3.185
 6173SOL    HW219419   6.966   5.533   3.082
 6174SOL     OW19420   4.979   5.149   4.136
 6174SOL    HW119421   4.969   5.092   4.054
 6174SOL    HW219422   5.076   5.166   4.153
 6175SOL     OW19423   3.641   0.513   4.172
 6175SOL    HW119424   3.564   0.533   4.111
 6175SOL    HW219425   3.620   0.430   4.225
 6176SOL     OW19426   4.693   3.940   5.286
 6176SOL    HW119427   4.741   4.020   5.321
 6176SOL    HW219428   4.738   3.857   5.321
 6177SOL     OW19429   5.497   1.921   2.180
 6177SOL    HW119430   5.581   1.937   2.127
 6177SOL    HW219431   5.471   1.825   2.173
 6178SOL     OW19432   5.330   3.762   2.375
 6178SOL    HW119433   5.257   3.806   2.428
 6178SOL    HW219434   5.320   3.662   2.381
 6179SOL     OW19435   6.533   4.341   2.186
 6179SOL    HW119436   6.612   4.329   2.247
 6179SOL    HW219437   6.455   4.376   2.238
 6180SOL     OW19438   2.752   4.992   1.233
 6180SOL    HW119439   2.726   5.081   1.194
 6180SOL    HW219440   2.824   4.952   1.176
 6181SOL     OW19441   4.882   6.344   6.403
 6181SOL    HW119442   4.947   6.351   6.478
 6181SOL    HW219443   4.850   6.435   6.377
 6182SOL     OW19444   4.555   3.258   6.176
 6182SOL    HW119445   4.631   3.313   6.141
 6182SOL    HW219446   4.526   3.294   6.265
 6183SOL     OW19447   1.723   2.425   2.203
 6183SOL    HW119448   1.800   2.373   2.239
 6183SOL    HW219449   1.662   2.365   2.151
 6184SOL     OW19450   3.421   0.139   5.908
 6184SOL    HW119451   3.347   0.160   5.971
 6184SOL    HW219452   3.451   0.045   5.922
 6185SOL     OW19453   1.617   4.549   6.038
 6185SOL    HW119454   1.530   4.589   6.064
 6185SOL    HW219455   1.637   4.470   6.097
 6186SOL     OW19456   6.056   1.496   1.262
 6186SOL    HW119457   6.021   1.588   1.280
 6186SOL    HW219458   6.039   1.472   1.166
 6187SOL     OW19459   4.886   3.197   4.644
 6187SOL    HW119460   4.942   3.279   4.637
 6187SOL    HW219461   4.793   3.216   4.613
 6188SOL     OW19462   1.481   1.707   5.895
 6188SOL    HW119463   1.519   1.768   5.965
 6188SOL    HW219464   1.515   1.614   5.909
 6189SOL     OW19465   3.446   5.006   3.107
 6189SOL    HW119466   3.466   5.056   3.191
 6189SOL    HW219467   3.510   4.929   3.098
 6190SOL     OW19468   0.142   3.369   5.489
 6190SOL    HW119469   0.192   3.357   5.403
 6190SOL    HW219470   0.143   3.284   5.541
 6191SOL     OW19471   2.745   3.235   6.024
 6191SOL    HW119472   2.662   3.188   6.053
 6191SOL    HW219473   2.810   3.168   5.988
 6192SOL     OW19474   2.789   1.895   6.625
 6192SOL    HW119475   2.769   1.993   6.611
 6192SOL    HW219476   2.734   1.861   6.701
 6193SOL     OW19477   4.351   6.057   1.332
 6193SOL    HW119478   4.315   5.972   1.294
 6193SOL    HW219479   4.445   6.071   1.299
 6194SOL     OW19480   6.006   0.399   6.643
 6194SOL    HW119481   5.923   0.389   6.588
 6194SOL    HW219482   6.069   0.325   6.622
 6195SOL     OW19483   5.543   6.396   4.722
 6195SOL    HW119484   5.622   6.398   4.661
 6195SOL    HW219485   5.530   6.303   4.757
 6196SOL     OW19486   4.544   4.420   2.538
 6196SOL    HW119487   4.513   4.451   2.448
 6196SOL    HW219488   4.487   4.463   2.608
 6197SOL     OW19489   2.471   5.329   2.364
 6197SOL    HW119490   2.529   5.360   2.439
 6197SOL    HW219491   2.527   5.291   2.291
 6198SOL     OW19492   4.595   5.920   0.431
 6198SOL    HW119493   4.556   5.979   0.501
 6198SOL    HW219494   4.526   5.903   0.360
 6199SOL     OW19495   0.687   0.962   0.391
 6199SOL    HW119496   0.694   0.883   0.451
 6199SOL    HW219497   0.591   0.988   0.381
 6200SOL     OW19498   0.831   1.791   4.318
 6200SOL    HW119499   0.927   1.799   4.292
 6200SOL    HW219500   0.805   1.695   4.325
 6201SOL     OW19501   1.306   3.060   4.530
 6201SOL    HW119502   1.362   3.111   4.464
 6201SOL    HW219503   1.316   2.962   4.514
 6202SOL     OW19504   5.978   1.539   2.160
 6202SOL    HW119505   5.973   1.490   2.073
 6202SOL    HW219506   5.886   1.545   2.199
 6203SOL     OW19507   5.539   5.206   2.088
 6203SOL    HW119508   5.521   5.227   1.992
 6203SOL    HW219509   5.607   5.133   2.094
 6204SOL     OW19510   0.789   6.025   5.244
 6204SOL    HW119511   0.744   6.027   5.333
 6204SOL    HW219512   0.871   5.969   5.250
 6205SOL     OW19513   6.117   4.460   1.332
 6205SOL    HW119514   6.110   4.366   1.367
 6205SOL    HW219515   6.031   4.486   1.290
 6206SOL     OW19516   5.302   1.281   3.093
 6206SOL    HW119517   5.347   1.196   3.066
 6206SOL    HW219518   5.370   1.350   3.115
 6207SOL     OW19519   1.628   6.255   4.811
 6207SOL    HW119520   1.535   6.259   4.848
 6207SOL    HW219521   1.689   6.311   4.868
 6208SOL     OW19522   3.168   2.415   5.455
 6208SOL    HW119523   3.247   2.466   5.486
 6208SOL    HW219524   3.180   2.388   5.360
 6209SOL     OW19525   3.495   5.487   0.743
 6209SOL    HW119526   3.516   5.429   0.665
 6209SOL    HW219527   3.411   5.455   0.787
 6210SOL     OW19528   5.487   3.849   3.147
 6210SOL    HW119529   5.501   3.793   3.229
 6210SOL    HW219530   5.421   3.921   3.167
 6211SOL     OW19531   3.620   6.606   5.458
 6211SOL    HW119532   3.703   6.597   5.514
 6211SOL    HW219533   3.543   6.633   5.516
 6212SOL     OW19534   2.275   4.610   4.136
 6212SOL    HW119535   2.341   4.630   4.208
 6212SOL    HW219536   2.241   4.516   4.146
 6213SOL     OW19537   4.491   6.718   6.972
 6213SOL    HW119538   4.485   6.631   6.923
 6213SOL    HW219539   4.407   6.770   6.957
 6214SOL     OW19540   5.678   5.903   5.633
 6214SOL    HW119541   5.688   5.965   5.711
 6214SOL    HW219542   5.687   5.953   5.548
 6215SOL     OW19543   3.914   2.910   6.111
 6215SOL    HW119544   4.013   2.905   6.101
 6215SOL    HW219545   3.874   2.958   6.033
 6216SOL     OW19546   6.098   2.688   2.520
 6216SOL    HW119547   6.032   2.613   2.515
 6216SOL    HW219548   6.067   2.764   2.462
 6217SOL     OW19549   0.933   4.910   2.528
 6217SOL    HW119550   0.872   4.945   2.457
 6217SOL    HW219551   0.899   4.940   2.618
 6218SOL     OW19552   3.864   6.468   6.966
 6218SOL    HW119553   3.952   6.433   6.996
 6218SOL    HW219554   3.862   6.474   6.866
 6219SOL     OW19555   1.767   0.697   4.877
 6219SOL    HW119556   1.790   0.612   4.830
 6219SOL    HW219557   1.850   0.734   4.920
 6220SOL     OW19558   3.323   0.901   6.245
 6220SOL    HW119559   3.327   0.831   6.174
 6220SOL    HW219560   3.228   0.930   6.258
 6221SOL     OW19561   6.269   6.626   6.545
 6221SOL    HW119562   6.326   6.677   6.610
 6221SOL    HW219563   6.173   6.638   6.569
 6222SOL     OW19564   6.617   0.097   2.435
 6222SOL    HW119565   6.676   0.078   2.514
 6222SOL    HW219566   6.657   0.172   2.382
 6223SOL     OW19567   1.605   5.556   3.371
 6223SOL    HW119568   1.605   5.628   3.441
 6223SOL    HW219569   1.690   5.504   3.378
 6224SOL     OW19570   4.013   1.658   5.545
 6224SOL    HW119571   4.014   1.655   5.445
 6224SOL    HW219572   3.961   1.738   5.576
 6225SOL     OW19573   4.355   2.222   6.476
 6225SOL    HW119574   4.274   2.190   6.427
 6225SOL    HW219575   4.420   2.260   6.410
 6226SOL     OW19576   1.170   1.249   3.757
 6226SOL    HW119577   1.190   1.340   3.721
 6226SOL    HW219578   1.175   1.251   3.857
 6227SOL     OW19579   3.147   4.803   5.216
 6227SOL    HW119580   3.245   4.810   5.197
 6227SOL    HW219581   3.130   4.725   5.276
 6228SOL     OW19582   0.615   2.349   3.291
 6228SOL    HW119583   0.559   2.273   3.324
 6228SOL    HW219584   0.569   2.436   3.312
 6229SOL     OW19585   0.070   2.996   5.341
 6229SOL    HW119586   0.052   2.900   5.357
 6229SOL    HW219587   7.004   3.049   5.352
 6230SOL     OW19588   1.536   1.826   3.382
 6230SOL    HW119589   1.503   1.900   3.325
 6230SOL    HW219590   1.621   1.854   3.427
 6231SOL     OW19591   5.419   5.822   0.871
 6231SOL    HW119592   5.341   5.883   0.856
 6231SOL    HW219593   5.469   5.851   0.953
 6232SOL     OW19594   6.297   1.375   0.745
 6232SOL    HW119595   6.304   1.278   0.724
 6232SOL    HW219596   6.345   1.428   0.675
 6233SOL     OW19597   6.780   3.296   1.708
 6233SOL    HW119598   6.768   3.299   1.807
 6233SOL    HW219599   6.821   3.208   1.683
 6234SOL     OW19600   6.813   0.491   5.603
 6234SOL    HW119601   6.763   0.405   5.604
 6234SOL    HW219602   6.806   0.532   5.512
 6235SOL     OW19603   7.001   0.562   1.572
 6235SOL    HW119604   0.074   0.601   1.558
 6235SOL    HW219605   6.945   0.579   1.490
 6236SOL     OW19606   0.070   4.548   0.568
 6236SOL    HW119607   0.142   4.506   0.512
 6236SOL    HW219608   0.054   4.642   0.535
 6237SOL     OW19609   3.311   6.658   0.074
 6237SOL    HW119610   3.384   6.626   0.135
 6237SOL    HW219611   3.240   6.588   0.068
 6238SOL     OW19612   4.068   6.728   3.566
 6238SOL    HW119613   4.045   6.672   3.646
 6238SOL    HW219614   4.099   6.818   3.595
 6239SOL     OW19615   3.388   0.655   1.369
 6239SOL    HW119616   3.394   0.556   1.356
 6239SOL    HW219617   3.480   0.695   1.371
 6240SOL     OW19618   2.892   3.649   4.913
 6240SOL    HW119619   2.795   3.646   4.887
 6240SOL    HW219620   2.909   3.580   4.984
 6241SOL     OW19621   4.042   0.335   3.452
 6241SOL    HW119622   3.957   0.384   3.431
 6241SOL    HW219623   4.030   0.282   3.536
 6242SOL     OW19624   2.718   1.009   3.757
 6242SOL    HW119625   2.810   0.980   3.781
 6242SOL    HW219626   2.722   1.092   3.702
 6243SOL     OW19627   6.772   0.679   5.823
 6243SOL    HW119628   6.851   0.737   5.803
 6243SOL    HW219629   6.770   0.602   5.759
 6244SOL     OW19630   5.037   4.153   3.258
 6244SOL    HW119631   4.958   4.091   3.261
 6244SOL    HW219632   5.047   4.199   3.346
 6245SOL     OW19633   0.989   5.196   1.663
 6245SOL    HW119634   1.026   5.154   1.745
 6245SOL    HW219635   0.917   5.261   1.688
 6246SOL     OW19636   0.732   0.694   4.352
 6246SOL    HW119637   0.787   0.755   4.409
 6246SOL    HW219638   0.769   0.601   4.357
 6247SOL     OW19639   1.203   6.001   3.442
 6247SOL    HW119640   1.131   6.003   3.511
 6247SOL    HW219641   1.179   5.934   3.372
 6248SOL     OW19642   3.324   4.033   0.056
 6248SOL    HW119643   3.413   4.000   0.086
 6248SOL    HW219644   3.282   4.088   0.128
 6249SOL     OW19645   0.213   3.108   1.342
 6249SOL    HW119646   0.313   3.104   1.352
 6249SOL    HW219647   0.188   3.194   1.297
 6250SOL     OW19648   6.573   6.572   0.830
 6250SOL    HW119649   6.624   6.646   0.786
 6250SOL    HW219650   6.498   6.610   0.883
 6251SOL     OW19651   3.961   5.648   4.324
 6251SOL    HW119652   3.913   5.735   4.332
 6251SOL    HW219653   3.899   5.573   4.345
 6252SOL     OW19654   2.935   5.198   0.453
 6252SOL    HW119655   2.905   5.117   0.503
 6252SOL    HW219656   3.019   5.177   0.403
 6253SOL     OW19657   2.400   5.380   4.792
 6253SOL    HW119658   2.387   5.308   4.860
 6253SOL    HW219659   2.418   5.338   4.703
 6254SOL     OW19660   0.491   6.679   1.451
 6254SOL    HW119661   0.584   6.715   1.443
 6254SOL    HW219662   0.454   6.661   1.360
 6255SOL     OW19663   2.094   2.408   0.795
 6255SOL    HW119664   2.082   2.344   0.871
 6255SOL    HW219665   2.113   2.357   0.712
 6256SOL     OW19666   4.399   5.281   2.417
 6256SOL    HW119667   4.319   5.257   2.472
 6256SOL    HW219668   4.482   5.249   2.463
 6257SOL     OW19669   4.027   3.272   0.403
 6257SOL    HW119670   4.048   3.185   0.447
 6257SOL    HW219671   4.000   3.257   0.308
 6258SOL     OW19672   3.279   0.247   5.442
 6258SOL    HW119673   3.345   0.217   5.511
 6258SOL    HW219674   3.268   0.174   5.374
 6259SOL     OW19675   1.956   1.044   6.064
 6259SOL    HW119676   2.050   1.017   6.043
 6259SOL    HW219677   1.922   0.988   6.139
 6260SOL     OW19678   1.937   0.470   0.894
 6260SOL    HW119679   1.966   0.453   0.989
 6260SOL    HW219680   1.878   0.396   0.864
 6261SOL     OW19681   4.522   6.579   1.186
 6261SOL    HW119682   4.505   6.658   1.245
 6261SOL    HW219683   4.514   6.606   1.090
 6262SOL     OW19684   0.692   6.190   2.484
 6262SOL    HW119685   0.653   6.118   2.541
 6262SOL    HW219686   0.723   6.265   2.542
 6263SOL     OW19687   7.009   6.647   5.259
 6263SOL    HW119688   7.018   6.689   5.168
 6263SOL    HW219689   6.996   6.548   5.249
 6264SOL     OW19690   1.379   6.929   1.229
 6264SOL    HW119691   1.293   6.926   1.281
 6264SOL    HW219692   1.384   7.015   1.178
 6265SOL     OW19693   3.931   2.670   0.714
 6265SOL    HW119694   3.883   2.590   0.750
 6265SOL    HW219695   4.018   2.681   0.762
 6266SOL     OW19696   3.818   6.590   3.442
 6266SOL    HW119697   3.852   6.592   3.349
 6266SOL    HW219698   3.879   6.641   3.502
 6267SOL     OW19699   1.120   0.030   5.299
 6267SOL    HW119700   1.152   0.044   5.393
 6267SOL    HW219701   1.149   6.958   5.267
 6268SOL     OW19702   3.001   0.752   2.139
 6268SOL    HW119703   3.092   0.733   2.102
 6268SOL    HW219704   2.961   0.668   2.176
 6269SOL     OW19705   5.642   6.461   1.477
 6269SOL    HW119706   5.624   6.400   1.400
 6269SOL    HW219707   5.662   6.406   1.558
 6270SOL     OW19708   0.647   6.405   0.189
 6270SOL    HW119709   0.726   6.447   0.234
 6270SOL    HW219710   0.678   6.345   0.116
 6271SOL     OW19711   6.130   2.661   6.544
 6271SOL    HW119712   6.211   2.693   6.495
 6271SOL    HW219713   6.122   2.562   6.533
 6272SOL     OW19714   0.535   0.585   0.270
 6272SOL    HW119715   0.596   0.606   0.346
 6272SOL    HW219716   0.589   0.571   0.187
 6273SOL     OW19717   0.289   6.077   3.450
 6273SOL    HW119718   0.335   6.069   3.538
 6273SOL    HW219719   0.250   5.989   3.425
 6274SOL     OW19720   2.514   7.006   4.804
 6274SOL    HW119721   2.527   0.041   4.720
 6274SOL    HW219722   2.418   7.008   4.830
 6275SOL     OW19723   2.179   6.050   0.681
 6275SOL    HW119724   2.261   6.095   0.647
 6275SOL    HW219725   2.130   6.008   0.604
 6276SOL     OW19726   3.616   5.532   3.627
 6276SOL    HW119727   3.696   5.579   3.663
 6276SOL    HW219728   3.547   5.598   3.601
 6277SOL     OW19729   5.180   1.951   0.980
 6277SOL    HW119730   5.246   2.003   0.926
 6277SOL    HW219731   5.227   1.905   1.055
 6278SOL     OW19732   3.953   0.760   6.016
 6278SOL    HW119733   3.884   0.740   5.946
 6278SOL    HW219734   3.959   0.859   6.030
 6279SOL     OW19735   3.994   6.276   0.559
 6279SOL    HW119736   4.048   6.334   0.498
 6279SOL    HW219737   4.035   6.185   0.564
 6280SOL     OW19738   0.336   1.325   6.541
 6280SOL    HW119739   0.270   1.287   6.606
 6280SOL    HW219740   0.310   1.419   6.519
 6281SOL     OW19741   5.913   4.922   3.665
 6281SOL    HW119742   5.892   5.002   3.609
 6281SOL    HW219743   5.920   4.950   3.761
 6282SOL     OW19744   6.189   3.294   5.319
 6282SOL    HW119745   6.190   3.380   5.370
 6282SOL    HW219746   6.177   3.313   5.221
 6283SOL     OW19747   0.748   4.746   4.508
 6283SOL    HW119748   0.772   4.658   4.467
 6283SOL    HW219749   0.832   4.796   4.532
 6284SOL     OW19750   1.188   5.695   6.432
 6284SOL    HW119751   1.248   5.625   6.394
 6284SOL    HW219752   1.216   5.716   6.526
 6285SOL     OW19753   1.465   3.188   3.393
 6285SOL    HW119754   1.497   3.102   3.434
 6285SOL    HW219755   1.493   3.265   3.450
 6286SOL     OW19756   6.249   3.370   4.173
 6286SOL    HW119757   6.335   3.322   4.187
 6286SOL    HW219758   6.246   3.407   4.080
 6287SOL     OW19759   4.244   4.994   5.283
 6287SOL    HW119760   4.243   5.061   5.209
 6287SOL    HW219761   4.266   5.040   5.369
 6288SOL     OW19762   4.301   4.609   1.413
 6288SOL    HW119763   4.347   4.696   1.393
 6288SOL    HW219764   4.314   4.587   1.510
 6289SOL     OW19765   2.703   4.797   6.762
 6289SOL    HW119766   2.761   4.856   6.818
 6289SOL    HW219767   2.648   4.739   6.822
 6290SOL     OW19768   6.218   5.391   6.237
 6290SOL    HW119769   6.121   5.404   6.257
 6290SOL    HW219770   6.233   5.399   6.138
 6291SOL     OW19771   3.957   3.026   3.323
 6291SOL    HW119772   3.927   3.012   3.417
 6291SOL    HW219773   3.910   2.962   3.263
 6292SOL     OW19774   2.019   2.452   4.746
 6292SOL    HW119775   1.968   2.457   4.660
 6292SOL    HW219776   2.060   2.361   4.755
 6293SOL     OW19777   4.252   1.371   0.443
 6293SOL    HW119778   4.280   1.457   0.487
 6293SOL    HW219779   4.323   1.342   0.379
 6294SOL     OW19780   4.469   0.438   3.256
 6294SOL    HW119781   4.483   0.482   3.345
 6294SOL    HW219782   4.455   0.508   3.186
 6295SOL     OW19783   5.366   4.890   5.062
 6295SOL    HW119784   5.369   4.947   5.144
 6295SOL    HW219785   5.369   4.793   5.089
 6296SOL     OW19786   0.377   4.301   6.097
 6296SOL    HW119787   0.319   4.332   6.022
 6296SOL    HW219788   0.328   4.314   6.184
 6297SOL     OW19789   6.247   0.086   5.396
 6297SOL    HW119790   6.233   0.162   5.458
 6297SOL    HW219791   6.158   0.044   5.375
 6298SOL     OW19792   6.639   4.963   6.242
 6298SOL    HW119793   6.681   4.896   6.181
 6298SOL    HW219794   6.547   4.933   6.266
 6299SOL     OW19795   5.639   2.992   2.376
 6299SOL    HW119796   5.592   3.020   2.292
 6299SOL    HW219797   5.704   2.919   2.354
 6300SOL     OW19798   4.727   0.667   6.962
 6300SOL    HW119799   4.698   0.584   6.914
 6300SOL    HW219800   4.773   0.728   6.898
 6301SOL     OW19801   2.987   6.884   6.195
 6301SOL    HW119802   3.069   6.853   6.242
 6301SOL    HW219803   2.934   6.805   6.164
 6302SOL     OW19804   2.372   1.564   5.654
 6302SOL    HW119805   2.347   1.609   5.568
 6302SOL    HW219806   2.339   1.619   5.731
 6303SOL     OW19807   0.466   6.406   6.008
 6303SOL    HW119808   0.481   6.500   6.038
 6303SOL    HW219809   0.467   6.403   5.908
 6304SOL     OW19810   3.899   1.739   3.234
 6304SOL    HW119811   3.940   1.787   3.312
 6304SOL    HW219812   3.907   1.795   3.152
 6305SOL     OW19813   6.085   5.823   0.097
 6305SOL    HW119814   6.073   5.830   7.016
 6305SOL    HW219815   6.058   5.909   0.140
 6306SOL     OW19816   0.346   3.284   4.013
 6306SOL    HW119817   0.432   3.288   4.065
 6306SOL    HW219818   0.349   3.352   3.940
 6307SOL     OW19819   3.388   2.855   4.112
 6307SOL    HW119820   3.309   2.816   4.064
 6307SOL    HW219821   3.470   2.843   4.057
 6308SOL     OW19822   0.773   2.204   5.636
 6308SOL    HW119823   0.709   2.128   5.628
 6308SOL    HW219824   0.843   2.181   5.704
 6309SOL     OW19825   0.337   0.205   4.456
 6309SOL    HW119826   0.411   0.257   4.412
 6309SOL    HW219827   0.330   0.115   4.412
 6310SOL     OW19828   2.057   6.208   2.728
 6310SOL    HW119829   2.037   6.137   2.796
 6310SOL    HW219830   2.141   6.184   2.679
 6311SOL     OW19831   4.921   1.052   7.014
 6311SOL    HW119832   4.832   1.086   0.025
 6311SOL    HW219833   4.981   1.043   0.076
 6312SOL     OW19834   1.745   6.707   6.552
 6312SOL    HW119835   1.708   6.798   6.571
 6312SOL    HW219836   1.841   6.715   6.526
 6313SOL     OW19837   5.520   6.801   3.484
 6313SOL    HW119838   5.431   6.846   3.493
 6313SOL    HW219839   5.576   6.851   3.418
 6314SOL     OW19840   3.507   0.399   1.345
 6314SOL    HW119841   3.511   0.395   1.245
 6314SOL    HW219842   3.599   0.388   1.383
 6315SOL     OW19843   2.149   2.224   4.802
 6315SOL    HW119844   2.248   2.241   4.799
 6315SOL    HW219845   2.132   2.127   4.783
 6316SOL     OW19846   5.125   1.501   5.843
 6316SOL    HW119847   5.106   1.553   5.760
 6316SOL    HW219848   5.219   1.520   5.874
 6317SOL     OW19849   5.183   3.982   2.978
 6317SOL    HW119850   5.241   3.904   2.999
 6317SOL    HW219851   5.239   4.059   2.947
 6318SOL     OW19852   4.947   0.061   0.145
 6318SOL    HW119853   4.881   0.025   0.079
 6318SOL    HW219854   4.900   0.117   0.213
 6319SOL     OW19855   5.907   1.967   4.431
 6319SOL    HW119856   5.837   1.989   4.500
 6319SOL    HW219857   5.899   2.032   4.355
 6320SOL     OW19858   0.187   0.158   3.931
 6320SOL    HW119859   0.152   0.065   3.920
 6320SOL    HW219860   0.285   0.160   3.908
 6321SOL     OW19861   5.070   3.979   6.925
 6321SOL    HW119862   5.110   4.036   6.997
 6321SOL    HW219863   4.980   4.016   6.900
 6322SOL     OW19864   2.526   1.189   0.794
 6322SOL    HW119865   2.474   1.163   0.876
 6322SOL    HW219866   2.536   1.288   0.791
 6323SOL     OW19867   1.977   2.825   1.219
 6323SOL    HW119868   2.016   2.899   1.164
 6323SOL    HW219869   1.910   2.863   1.283
 6324SOL     OW19870   4.339   1.500   0.769
 6324SOL    HW119871   4.429   1.476   0.734
 6324SOL    HW219872   4.340   1.593   0.804
 6325SOL     OW19873   1.879   2.710   2.808
 6325SOL    HW119874   1.904   2.615   2.791
 6325SOL    HW219875   1.958   2.760   2.843
 6326SOL     OW19876   4.909   5.493   5.900
 6326SOL    HW119877   4.849   5.422   5.936
 6326SOL    HW219878   4.985   5.451   5.851
 6327SOL     OW19879   0.089   1.261   3.822
 6327SOL    HW119880   0.004   1.239   3.774
 6327SOL    HW219881   0.071   1.333   3.890
 6328SOL     OW19882   4.799   3.398   0.117
 6328SOL    HW119883   4.765   3.458   0.044
 6328SOL    HW219884   4.722   3.356   0.164
 6329SOL     OW19885   0.806   3.010   5.091
 6329SOL    HW119886   0.827   2.920   5.053
 6329SOL    HW219887   0.795   3.076   5.017
 6330SOL     OW19888   5.630   0.406   2.346
 6330SOL    HW119889   5.718   0.452   2.340
 6330SOL    HW219890   5.619   0.367   2.438
 6331SOL     OW19891   6.537   3.203   4.689
 6331SOL    HW119892   6.542   3.296   4.654
 6331SOL    HW219893   6.465   3.198   4.759
 6332SOL     OW19894   0.839   2.044   1.386
 6332SOL    HW119895   0.918   2.062   1.328
 6332SOL    HW219896   0.854   1.959   1.437
 6333SOL     OW19897   4.889   6.830   6.452
 6333SOL    HW119898   4.953   6.753   6.442
 6333SOL    HW219899   4.806   6.799   6.497
 6334SOL     OW19900   2.549   1.588   2.000
 6334SOL    HW119901   2.484   1.543   2.061
 6334SOL    HW219902   2.553   1.539   1.913
 6335SOL     OW19903   4.927   1.351   0.600
 6335SOL    HW119904   4.955   1.405   0.679
 6335SOL    HW219905   4.936   1.254   0.620
 6336SOL     OW19906   0.091   4.152   6.573
 6336SOL    HW119907   0.125   4.199   6.492
 6336SOL    HW219908   0.091   4.215   6.651
 6337SOL     OW19909   4.362   6.074   4.821
 6337SOL    HW119910   4.347   5.977   4.803
 6337SOL    HW219911   4.342   6.127   4.739
 6338SOL     OW19912   3.066   1.704   4.374
 6338SOL    HW119913   3.129   1.709   4.296
 6338SOL    HW219914   3.081   1.618   4.423
 6339SOL     OW19915   1.066   3.763   3.088
 6339SOL    HW119916   1.098   3.694   3.154
 6339SOL    HW219917   1.130   3.766   3.011
 6340SOL     OW19918   2.457   3.365   1.130
 6340SOL    HW119919   2.435   3.276   1.170
 6340SOL    HW219920   2.397   3.435   1.171
 6341SOL     OW19921   1.061   3.396   3.582
 6341SOL    HW119922   1.065   3.439   3.672
 6341SOL    HW219923   1.092   3.301   3.589
 6342SOL     OW19924   3.381   1.384   0.814
 6342SOL    HW119925   3.360   1.460   0.754
 6342SOL    HW219926   3.446   1.414   0.884
 6343SOL     OW19927   3.837   6.426   6.630
 6343SOL    HW119928   3.845   6.406   6.532
 6343SOL    HW219929   3.788   6.351   6.675
 6344SOL     OW19930   6.095   2.138   3.668
 6344SOL    HW119931   6.098   2.208   3.597
 6344SOL    HW219932   6.012   2.083   3.657
 6345SOL     OW19933   5.054   2.942   1.920
 6345SOL    HW119934   4.960   2.919   1.946
 6345SOL    HW219935   5.053   2.997   1.837
 6346SOL     OW19936   6.653   4.075   5.021
 6346SOL    HW119937   6.658   4.172   4.997
 6346SOL    HW219938   6.676   4.020   4.941
 6347SOL     OW19939   2.422   1.836   2.049
 6347SOL    HW119940   2.395   1.854   2.143
 6347SOL    HW219941   2.476   1.752   2.045
 6348SOL     OW19942   0.942   1.904   5.876
 6348SOL    HW119943   0.968   1.979   5.815
 6348SOL    HW219944   0.980   1.818   5.841
 6349SOL     OW19945   1.555   0.080   0.294
 6349SOL    HW119946   1.622   0.154   0.298
 6349SOL    HW219947   1.476   0.104   0.350
 6350SOL     OW19948   0.849   5.021   2.756
 6350SOL    HW119949   0.878   5.104   2.802
 6350SOL    HW219950   0.824   4.952   2.824
 6351SOL     OW19951   6.388   4.341   3.960
 6351SOL    HW119952   6.461   4.408   3.954
 6351SOL    HW219953   6.335   4.341   3.875
 6352SOL     OW19954   2.490   0.523   3.914
 6352SOL    HW119955   2.453   0.560   3.829
 6352SOL    HW219956   2.455   0.575   3.992
 6353SOL     OW19957   2.366   5.419   0.446
 6353SOL    HW119958   2.365   5.495   0.380
 6353SOL    HW219959   2.312   5.343   0.410
 6354SOL     OW19960   3.742   5.764   2.653
 6354SOL    HW119961   3.668   5.818   2.694
 6354SOL    HW219962   3.777   5.699   2.721
 6355SOL     OW19963   3.052   5.760   0.389
 6355SOL    HW119964   3.118   5.737   0.317
 6355SOL    HW219965   3.017   5.852   0.374
 6356SOL     OW19966   5.488   5.064   0.388
 6356SOL    HW119967   5.531   4.989   0.337
 6356SOL    HW219968   5.540   5.148   0.373
 6357SOL     OW19969   5.856   2.395   1.726
 6357SOL    HW119970   5.795   2.448   1.785
 6357SOL    HW219971   5.904   2.457   1.664
 6358SOL     OW19972   0.954   2.517   6.838
 6358SOL    HW119973   0.978   2.585   6.768
 6358SOL    HW219974   0.934   2.430   6.794
 6359SOL     OW19975   5.914   6.237   0.721
 6359SOL    HW119976   5.856   6.316   0.741
 6359SOL    HW219977   5.988   6.264   0.661
 6360SOL     OW19978   0.481   3.640   4.246
 6360SOL    HW119979   0.563   3.653   4.190
 6360SOL    HW219980   0.507   3.609   4.337
 6361SOL     OW19981   0.373   0.980   0.330
 6361SOL    HW119982   0.277   0.957   0.341
 6361SOL    HW219983   0.414   0.920   0.261
 6362SOL     OW19984   1.549   6.392   6.989
 6362SOL    HW119985   1.561   6.425   6.896
 6362SOL    HW219986   1.491   6.311   6.989
 6363SOL     OW19987   2.781   4.976   3.949
 6363SOL    HW119988   2.739   4.890   3.918
 6363SOL    HW219989   2.763   4.989   4.046
 6364SOL     OW19990   2.253   2.058   5.433
 6364SOL    HW119991   2.238   1.974   5.381
 6364SOL    HW219992   2.250   2.136   5.370
 6365SOL     OW19993   5.684   5.943   5.069
 6365SOL    HW119994   5.737   5.947   4.984
 6365SOL    HW219995   5.650   5.850   5.082
 6366SOL     OW19996   6.709   6.757   4.941
 6366SOL    HW119997   6.636   6.798   4.996
 6366SOL    HW219998   6.705   6.793   4.848
 6367SOL     OW19999   3.327   1.973   2.690
 6367SOL    HW120000   3.293   1.888   2.648
 6367SOL    HW220001   3.339   1.959   2.788
 6368SOL     OW20002   4.331   4.655   4.315
 6368SOL    HW120003   4.382   4.676   4.398
 6368SOL    HW220004   4.295   4.739   4.276
 6369SOL     OW20005   2.161   6.707   4.763
 6369SOL    HW120006   2.108   6.789   4.787
 6369SOL    HW220007   2.137   6.633   4.826
 6370SOL     OW20008   5.121   3.994   3.688
 6370SOL    HW120009   5.030   3.974   3.652
 6370SOL    HW220010   5.118   4.001   3.787
 6371SOL     OW20011   5.751   3.880   1.514
 6371SOL    HW120012   5.709   3.791   1.499
 6371SOL    HW220013   5.798   3.910   1.431
 6372SOL     OW20014   0.470   1.236   2.058
 6372SOL    HW120015   0.444   1.325   2.019
 6372SOL    HW220016   0.448   1.164   1.992
 6373SOL     OW20017   5.713   3.921   2.039
 6373SOL    HW120018   5.662   3.893   1.958
 6373SOL    HW220019   5.651   3.919   2.118
 6374SOL     OW20020   4.565   2.433   0.432
 6374SOL    HW120021   4.649   2.379   0.435
 6374SOL    HW220022   4.520   2.430   0.521
 6375SOL     OW20023   0.896   2.515   2.182
 6375SOL    HW120024   0.918   2.463   2.100
 6375SOL    HW220025   0.857   2.603   2.156
 6376SOL     OW20026   3.764   1.775   5.284
 6376SOL    HW120027   3.754   1.760   5.382
 6376SOL    HW220028   3.741   1.870   5.263
 6377SOL     OW20029   6.768   1.292   5.741
 6377SOL    HW120030   6.731   1.317   5.831
 6377SOL    HW220031   6.817   1.370   5.703
 6378SOL     OW20032   4.982   5.617   3.078
 6378SOL    HW120033   4.897   5.572   3.051
 6378SOL    HW220034   4.989   5.706   3.033
 6379SOL     OW20035   0.993   4.415   5.574
 6379SOL    HW120036   1.090   4.428   5.555
 6379SOL    HW220037   0.961   4.487   5.635
 6380SOL     OW20038   0.050   3.337   4.045
 6380SOL    HW120039   0.035   3.312   4.140
 6380SOL    HW220040   0.136   3.299   4.013
 6381SOL     OW20041   4.232   2.654   0.344
 6381SOL    HW120042   4.141   2.652   0.302
 6381SOL    HW220043   4.295   2.598   0.290
 6382SOL     OW20044   3.259   2.091   1.167
 6382SOL    HW120045   3.308   2.176   1.149
 6382SOL    HW220046   3.308   2.039   1.238
 6383SOL     OW20047   1.417   2.507   2.179
 6383SOL    HW120048   1.326   2.515   2.218
 6383SOL    HW220049   1.481   2.474   2.248
 6384SOL     OW20050   5.933   2.981   1.995
 6384SOL    HW120051   5.892   2.941   1.913
 6384SOL    HW220052   5.956   2.908   2.059
 6385SOL     OW20053   6.757   3.900   1.753
 6385SOL    HW120054   6.783   3.821   1.698
 6385SOL    HW220055   6.769   3.984   1.699
 6386SOL     OW20056   1.955   3.667   0.057
 6386SOL    HW120057   1.973   3.633   0.149
 6386SOL    HW220058   1.858   3.658   0.036
 6387SOL     OW20059   6.041   1.498   0.279
 6387SOL    HW120060   6.066   1.595   0.266
 6387SOL    HW220061   6.117   1.441   0.248
 6388SOL     OW20062   6.267   4.485   2.085
 6388SOL    HW120063   6.248   4.475   2.182
 6388SOL    HW220064   6.181   4.492   2.035
 6389SOL     OW20065   1.544   6.785   1.400
 6389SOL    HW120066   1.459   6.751   1.440
 6389SOL    HW220067   1.523   6.852   1.330
 6390SOL     OW20068   6.424   0.664   6.506
 6390SOL    HW120069   6.519   0.665   6.538
 6390SOL    HW220070   6.420   0.620   6.416
 6391SOL     OW20071   1.377   1.235   6.523
 6391SOL    HW120072   1.400   1.321   6.567
 6391SOL    HW220073   1.286   1.241   6.483
 6392SOL     OW20074   3.019   6.376   3.539
 6392SOL    HW120075   3.005   6.281   3.566
 6392SOL    HW220076   3.094   6.381   3.473
 6393SOL     OW20077   5.853   6.111   1.488
 6393SOL    HW120078   5.797   6.040   1.444
 6393SOL    HW220079   5.805   6.145   1.569
 6394SOL     OW20080   1.569   4.705   1.052
 6394SOL    HW120081   1.586   4.611   1.081
 6394SOL    HW220082   1.621   4.724   0.968
 6395SOL     OW20083   0.017   3.648   2.363
 6395SOL    HW120084   0.007   3.686   2.271
 6395SOL    HW220085   6.949   3.661   2.413
 6396SOL     OW20086   6.199   3.618   5.904
 6396SOL    HW120087   6.225   3.711   5.878
 6396SOL    HW220088   6.238   3.553   5.840
 6397SOL     OW20089   6.042   1.108   2.337
 6397SOL    HW120090   6.083   1.107   2.246
 6397SOL    HW220091   6.044   1.201   2.374
 6398SOL     OW20092   1.307   6.694   1.492
 6398SOL    HW120093   1.318   6.644   1.578
 6398SOL    HW220094   1.218   6.740   1.491
 6399SOL     OW20095   1.993   0.212   0.269
 6399SOL    HW120096   2.034   0.207   0.359
 6399SOL    HW220097   1.894   0.224   0.278
 6400SOL     OW20098   1.928   5.211   2.756
 6400SOL    HW120099   1.924   5.241   2.851
 6400SOL    HW220100   1.922   5.291   2.696
 6401SOL     OW20101   4.935   5.035   3.149
 6401SOL    HW120102   4.967   4.984   3.229
 6401SOL    HW220103   4.950   4.980   3.067
 6402SOL     OW20104   2.113   3.360   3.608
 6402SOL    HW120105   2.139   3.452   3.579
 6402SOL    HW220106   2.016   3.345   3.587
 6403SOL     OW20107   5.694   6.516   5.304
 6403SOL    HW120108   5.633   6.481   5.233
 6403SOL    HW220109   5.735   6.602   5.274
 6404SOL     OW20110   3.844   1.557   2.535
 6404SOL    HW120111   3.870   1.653   2.518
 6404SOL    HW220112   3.771   1.531   2.473
 6405SOL     OW20113   4.492   1.722   4.097
 6405SOL    HW120114   4.415   1.669   4.061
 6405SOL    HW220115   4.492   1.719   4.197
 6406SOL     OW20116   1.559   2.930   2.353
 6406SOL    HW120117   1.533   2.981   2.271
 6406SOL    HW220118   1.627   2.981   2.404
 6407SOL     OW20119   1.641   6.555   3.251
 6407SOL    HW120120   1.698   6.495   3.194
 6407SOL    HW220121   1.648   6.648   3.217
 6408SOL     OW20122   5.903   0.651   1.152
 6408SOL    HW120123   5.964   0.613   1.083
 6408SOL    HW220124   5.950   0.723   1.202
 6409SOL     OW20125   6.981   5.057   3.287
 6409SOL    HW120126   0.019   4.977   3.265
 6409SOL    HW220127   6.887   5.040   3.257
 6410SOL     OW20128   2.379   0.809   6.893
 6410SOL    HW120129   2.409   0.740   6.959
 6410SOL    HW220130   2.405   0.781   6.801
 6411SOL     OW20131   1.020   3.128   2.197
 6411SOL    HW120132   0.969   3.132   2.283
 6411SOL    HW220133   1.085   3.205   2.194
 6412SOL     OW20134   2.764   0.559   6.842
 6412SOL    HW120135   2.725   0.514   6.922
 6412SOL    HW220136   2.690   0.589   6.782
 6413SOL     OW20137   4.061   4.804   4.586
 6413SOL    HW120138   4.018   4.790   4.676
 6413SOL    HW220139   4.146   4.752   4.581
 6414SOL     OW20140   6.418   6.385   6.730
 6414SOL    HW120141   6.516   6.370   6.716
 6414SOL    HW220142   6.393   6.476   6.698
 6415SOL     OW20143   1.638   3.175   3.833
 6415SOL    HW120144   1.567   3.140   3.773
 6415SOL    HW220145   1.660   3.269   3.807
 6416SOL     OW20146   2.996   6.779   6.632
 6416SOL    HW120147   2.998   6.686   6.668
 6416SOL    HW220148   3.044   6.840   6.695
 6417SOL     OW20149   5.208   2.300   0.712
 6417SOL    HW120150   5.186   2.378   0.771
 6417SOL    HW220151   5.193   2.215   0.763
 6418SOL     OW20152   5.144   4.048   2.630
 6418SOL    HW120153   5.070   3.981   2.625
 6418SOL    HW220154   5.230   4.001   2.646
 6419SOL     OW20155   0.236   5.317   5.387
 6419SOL    HW120156   0.230   5.415   5.408
 6419SOL    HW220157   0.165   5.292   5.322
 6420SOL     OW20158   1.506   1.628   3.712
 6420SOL    HW120159   1.528   1.535   3.681
 6420SOL    HW220160   1.444   1.671   3.647
 6421SOL     OW20161   4.949   0.480   0.875
 6421SOL    HW120162   4.932   0.493   0.972
 6421SOL    HW220163   5.038   0.436   0.861
 6422SOL     OW20164   6.531   1.519   5.565
 6422SOL    HW120165   6.498   1.494   5.656
 6422SOL    HW220166   6.625   1.551   5.572
 6423SOL     OW20167   4.594   5.367   4.939
 6423SOL    HW120168   4.541   5.284   4.956
 6423SOL    HW220169   4.557   5.443   4.993
 6424SOL     OW20170   1.331   3.415   4.651
 6424SOL    HW120171   1.358   3.495   4.706
 6424SOL    HW220172   1.409   3.353   4.642
 6425SOL     OW20173   0.462   5.694   2.748
 6425SOL    HW120174   0.542   5.753   2.741
 6425SOL    HW220175   0.417   5.710   2.836
 6426SOL     OW20176   5.536   4.831   3.923
 6426SOL    HW120177   5.602   4.851   3.996
 6426SOL    HW220178   5.455   4.789   3.962
 6427SOL     OW20179   2.908   3.808   2.958
 6427SOL    HW120180   2.902   3.729   2.896
 6427SOL    HW220181   2.952   3.884   2.910
 6428SOL     OW20182   5.469   3.297   0.083
 6428SOL    HW120183   5.468   3.392   0.112
 6428SOL    HW220184   5.376   3.261   0.083
 6429SOL     OW20185   1.238   0.466   5.412
 6429SOL    HW120186   1.266   0.533   5.481
 6429SOL    HW220187   1.202   0.513   5.332
 6430SOL     OW20188   6.029   0.904   4.476
 6430SOL    HW120189   6.042   0.839   4.401
 6430SOL    HW220190   6.112   0.957   4.490
 6431SOL     OW20191   4.597   5.001   2.893
 6431SOL    HW120192   4.509   5.018   2.939
 6431SOL    HW220193   4.669   5.053   2.939
 6432SOL     OW20194   3.428   4.065   6.070
 6432SOL    HW120195   3.525   4.040   6.071
 6432SOL    HW220196   3.398   4.085   6.163
 6433SOL     OW20197   3.093   5.231   0.050
 6433SOL    HW120198   3.096   5.321   0.006
 6433SOL    HW220199   3.118   5.161   7.001
 6434SOL     OW20200   2.499   6.472   6.081
 6434SOL    HW120201   2.406   6.478   6.115
 6434SOL    HW220202   2.505   6.520   5.993
 6435SOL     OW20203   6.405   7.009   0.604
 6435SOL    HW120204   6.383   0.085   0.628
 6435SOL    HW220205   6.504   6.994   0.610
 6436SOL     OW20206   0.850   3.432   3.463
 6436SOL    HW120207   0.938   3.419   3.509
 6436SOL    HW220208   0.810   3.343   3.443
 6437SOL     OW20209   1.279   2.166   5.629
 6437SOL    HW120210   1.343   2.173   5.705
 6437SOL    HW220211   1.296   2.080   5.580
 6438SOL     OW20212   1.433   5.043   6.201
 6438SOL    HW120213   1.402   4.947   6.207
 6438SOL    HW220214   1.510   5.048   6.137
 6439SOL     OW20215   6.242   1.111   3.015
 6439SOL    HW120216   6.156   1.101   3.064
 6439SOL    HW220217   6.227   1.164   2.931
 6440SOL     OW20218   2.638   0.673   6.340
 6440SOL    HW120219   2.567   0.609   6.313
 6440SOL    HW220220   2.666   0.728   6.261
 6441SOL     OW20221   0.246   1.248   2.348
 6441SOL    HW120222   0.230   1.217   2.442
 6441SOL    HW220223   0.340   1.228   2.322
 6442SOL     OW20224   2.633   2.099   4.916
 6442SOL    HW120225   2.715   2.146   4.949
 6442SOL    HW220226   2.560   2.166   4.900
 6443SOL     OW20227   3.646   2.286   6.093
 6443SOL    HW120228   3.745   2.271   6.094
 6443SOL    HW220229   3.625   2.368   6.145
 6444SOL     OW20230   6.742   2.697   4.637
 6444SOL    HW120231   6.682   2.670   4.562
 6444SOL    HW220232   6.795   2.617   4.668
 6445SOL     OW20233   3.972   3.282   3.245
 6445SOL    HW120234   3.975   3.185   3.270
 6445SOL    HW220235   4.016   3.337   3.316
 6446SOL     OW20236   0.868   2.246   0.102
 6446SOL    HW120237   0.809   2.222   0.025
 6446SOL    HW220238   0.813   2.254   0.185
 6447SOL     OW20239   6.692   4.304   1.839
 6447SOL    HW120240   6.729   4.267   1.925
 6447SOL    HW220241   6.597   4.332   1.853
 6448SOL     OW20242   5.112   5.310   1.379
 6448SOL    HW120243   5.030   5.342   1.426
 6448SOL    HW220244   5.185   5.377   1.389
 6449SOL     OW20245   2.677   5.172   2.204
 6449SOL    HW120246   2.749   5.119   2.158
 6449SOL    HW220247   2.601   5.187   2.141
 6450SOL     OW20248   1.543   3.882   0.111
 6450SOL    HW120249   1.473   3.899   0.041
 6450SOL    HW220250   1.502   3.888   0.202
 6451SOL     OW20251   2.984   1.734   5.950
 6451SOL    HW120252   3.079   1.764   5.953
 6451SOL    HW220253   2.932   1.794   5.889
 6452SOL     OW20254   4.881   3.919   2.600
 6452SOL    HW120255   4.834   3.997   2.559
 6452SOL    HW220256   4.881   3.928   2.700
 6453SOL     OW20257   3.047   6.981   1.412
 6453SOL    HW120258   2.956   6.957   1.447
 6453SOL    HW220259   3.117   6.945   1.474
 6454SOL     OW20260   0.255   1.632   1.576
 6454SOL    HW120261   0.337   1.594   1.619
 6454SOL    HW220262   0.236   1.584   1.491
 6455SOL     OW20263   6.714   3.696   3.489
 6455SOL    HW120264   6.630   3.649   3.518
 6455SOL    HW220265   6.793   3.646   3.525
 6456SOL     OW20266   1.123   0.519   3.025
 6456SOL    HW120267   1.140   0.462   3.106
 6456SOL    HW220268   1.124   0.616   3.052
 6457SOL     OW20269   4.751   6.571   2.269
 6457SOL    HW120270   4.820   6.560   2.197
 6457SOL    HW220271   4.747   6.667   2.298
 6458SOL     OW20272   1.274   4.962   5.185
 6458SOL    HW120273   1.362   5.005   5.165
 6458SOL    HW220274   1.270   4.873   5.139
 6459SOL     OW20275   6.090   2.263   2.575
 6459SOL    HW120276   6.047   2.340   2.621
 6459SOL    HW220277   6.189   2.266   2.592
 6460SOL     OW20278   5.689   6.052   5.896
 6460SOL    HW120279   5.593   6.079   5.902
 6460SOL    HW220280   5.744   6.110   5.957
 6461SOL     OW20281   3.137   5.095   0.304
 6461SOL    HW120282   3.102   5.149   0.228
 6461SOL    HW220283   3.167   5.005   0.271
 6462SOL     OW20284   0.588   3.006   4.445
 6462SOL    HW120285   0.596   3.008   4.346
 6462SOL    HW220286   0.524   3.077   4.475
 6463SOL     OW20287   5.224   6.711   0.855
 6463SOL    HW120288   5.168   6.742   0.932
 6463SOL    HW220289   5.207   6.614   0.839
 6464SOL     OW20290   1.535   5.629   5.326
 6464SOL    HW120291   1.538   5.530   5.341
 6464SOL    HW220292   1.494   5.648   5.236
 6465SOL     OW20293   6.498   2.398   2.382
 6465SOL    HW120294   6.451   2.360   2.462
 6465SOL    HW220295   6.566   2.332   2.350
 6466SOL     OW20296   7.011   2.307   6.621
 6466SOL    HW120297   7.001   2.373   6.695
 6466SOL    HW220298   6.931   2.312   6.561
 6467SOL     OW20299   4.469   0.709   0.716
 6467SOL    HW120300   4.461   0.661   0.628
 6467SOL    HW220301   4.466   0.642   0.790
 6468SOL     OW20302   3.541   6.314   1.421
 6468SOL    HW120303   3.541   6.287   1.324
 6468SOL    HW220304   3.542   6.414   1.428
 6469SOL     OW20305   3.167   2.095   4.135
 6469SOL    HW120306   3.248   2.118   4.082
 6469SOL    HW220307   3.194   2.071   4.228
 6470SOL     OW20308   5.650   2.440   0.114
 6470SOL    HW120309   5.734   2.423   0.062
 6470SOL    HW220310   5.641   2.373   0.187
 6471SOL     OW20311   0.592   6.682   5.287
 6471SOL    HW120312   0.562   6.611   5.351
 6471SOL    HW220313   0.642   6.752   5.337
 6472SOL     OW20314   6.239   5.927   2.635
 6472SOL    HW120315   6.328   5.963   2.663
 6472SOL    HW220316   6.252   5.842   2.583
 6473SOL     OW20317   1.806   1.893   4.933
 6473SOL    HW120318   1.840   1.924   5.022
 6473SOL    HW220319   1.717   1.849   4.945
 6474SOL     OW20320   3.792   5.540   5.581
 6474SOL    HW120321   3.808   5.554   5.484
 6474SOL    HW220322   3.727   5.465   5.594
 6475SOL     OW20323   5.943   4.959   4.161
 6475SOL    HW120324   6.022   4.898   4.171
 6475SOL    HW220325   5.945   5.002   4.071
 6476SOL     OW20326   4.690   2.816   6.492
 6476SOL    HW120327   4.632   2.853   6.418
 6476SOL    HW220328   4.653   2.844   6.580
 6477SOL     OW20329   6.759   5.116   0.729
 6477SOL    HW120330   6.710   5.050   0.786
 6477SOL    HW220331   6.715   5.122   0.639
 6478SOL     OW20332   3.030   6.573   2.337
 6478SOL    HW120333   3.010   6.527   2.250
 6478SOL    HW220334   2.976   6.531   2.410
 6479SOL     OW20335   3.053   5.006   4.255
 6479SOL    HW120336   2.980   4.939   4.248
 6479SOL    HW220337   3.036   5.081   4.191
 6480SOL     OW20338   2.444   1.313   0.028
 6480SOL    HW120339   2.479   1.255   6.972
 6480SOL    HW220340   2.477   1.407   0.015
 6481SOL     OW20341   3.231   2.658   1.756
 6481SOL    HW120342   3.290   2.580   1.734
 6481SOL    HW220343   3.287   2.738   1.774
 6482SOL     OW20344   6.355   2.382   5.721
 6482SOL    HW120345   6.315   2.474   5.723
 6482SOL    HW220346   6.329   2.335   5.637
 6483SOL     OW20347   0.583   6.115   4.011
 6483SOL    HW120348   0.620   6.206   3.996
 6483SOL    HW220349   0.575   6.067   3.924
 6484SOL     OW20350   2.477   1.907   2.752
 6484SOL    HW120351   2.536   1.851   2.809
 6484SOL    HW220352   2.381   1.888   2.773
 6485SOL     OW20353   1.944   5.661   4.335
 6485SOL    HW120354   1.863   5.718   4.349
 6485SOL    HW220355   1.972   5.666   4.239
 6486SOL     OW20356   1.070   5.184   2.908
 6486SOL    HW120357   1.117   5.237   2.838
 6486SOL    HW220358   1.005   5.243   2.956
 6487SOL     OW20359   1.250   6.423   4.742
 6487SOL    HW120360   1.157   6.441   4.775
 6487SOL    HW220361   1.255   6.444   4.645
 6488SOL     OW20362   4.194   5.900   5.108
 6488SOL    HW120363   4.218   5.965   5.180
 6488SOL    HW220364   4.252   5.915   5.028
 6489SOL     OW20365   3.212   3.605   6.370
 6489SOL    HW120366   3.142   3.572   6.433
 6489SOL    HW220367   3.248   3.529   6.316
 6490SOL     OW20368   2.886   1.435   6.391
 6490SOL    HW120369   2.928   1.365   6.333
 6490SOL    HW220370   2.958   1.497   6.424
 6491SOL     OW20371   2.885   0.953   1.917
 6491SOL    HW120372   2.859   1.046   1.892
 6491SOL    HW220373   2.855   0.933   2.010
 6492SOL     OW20374   4.120   3.619   4.993
 6492SOL    HW120375   4.162   3.702   5.028
 6492SOL    HW220376   4.023   3.617   5.018
 6493SOL     OW20377   1.579   4.574   6.367
 6493SOL    HW120378   1.620   4.485   6.386
 6493SOL    HW220379   1.591   4.634   6.447
 6494SOL     OW20380   6.745   6.579   2.452
 6494SOL    HW120381   6.739   6.533   2.364
 6494SOL    HW220382   6.691   6.530   2.520
 6495SOL     OW20383   6.727   0.321   4.295
 6495SOL    HW120384   6.740   0.281   4.386
 6495SOL    HW220385   6.629   0.328   4.275
 6496SOL     OW20386   5.702   6.794   1.530
 6496SOL    HW120387   5.675   6.709   1.485
 6496SOL    HW220388   5.622   6.852   1.544
 6497SOL     OW20389   1.039   0.451   1.157
 6497SOL    HW120390   1.106   0.525   1.155
 6497SOL    HW220391   1.047   0.395   1.075
 6498SOL     OW20392   0.890   3.703   3.817
 6498SOL    HW120393   0.920   3.751   3.899
 6498SOL    HW220394   0.897   3.764   3.738
 6499SOL     OW20395   5.530   3.698   4.606
 6499SOL    HW120396   5.561   3.615   4.651
 6499SOL    HW220397   5.605   3.739   4.555
 6500SOL     OW20398   0.393   4.127   1.773
 6500SOL    HW120399   0.308   4.180   1.775
 6500SOL    HW220400   0.409   4.088   1.863
 6501SOL     OW20401   0.293   1.200   1.448
 6501SOL    HW120402   0.279   1.291   1.408
 6501SOL    HW220403   0.263   1.201   1.543
 6502SOL     OW20404   6.683   3.440   1.504
 6502SOL    HW120405   6.700   3.390   1.588
 6502SOL    HW220406   6.665   3.375   1.430
 6503SOL     OW20407   5.546   0.853   3.711
 6503SOL    HW120408   5.481   0.838   3.786
 6503SOL    HW220409   5.554   0.951   3.693
 6504SOL     OW20410   4.632   6.278   6.971
 6504SOL    HW120411   4.714   6.283   0.010
 6504SOL    HW220412   4.621   6.364   6.921
 6505SOL     OW20413   4.635   6.782   6.494
 6505SOL    HW120414   4.567   6.729   6.545
 6505SOL    HW220415   4.610   6.879   6.497
 6506SOL     OW20416   0.142   3.176   3.431
 6506SOL    HW120417   0.240   3.180   3.410
 6506SOL    HW220418   0.113   3.263   3.470
 6507SOL     OW20419   2.615   5.511   6.294
 6507SOL    HW120420   2.649   5.565   6.218
 6507SOL    HW220421   2.539   5.559   6.337
 6508SOL     OW20422   1.552   0.265   3.025
 6508SOL    HW120423   1.552   0.211   3.109
 6508SOL    HW220424   1.644   0.271   2.989
 6509SOL     OW20425   4.979   1.322   4.938
 6509SOL    HW120426   4.991   1.386   4.863
 6509SOL    HW220427   4.935   1.368   5.015
 6510SOL     OW20428   4.440   5.224   0.079
 6510SOL    HW120429   4.434   5.195   0.174
 6510SOL    HW220430   4.533   5.205   0.045
 6511SOL     OW20431   4.069   1.264   5.470
 6511SOL    HW120432   4.100   1.324   5.396
 6511SOL    HW220433   4.022   1.185   5.430
 6512SOL     OW20434   3.331   6.712   2.584
 6512SOL    HW120435   3.256   6.700   2.649
 6512SOL    HW220436   3.316   6.795   2.531
 6513SOL     OW20437   1.978   5.996   4.402
 6513SOL    HW120438   1.909   5.927   4.423
 6513SOL    HW220439   1.950   6.049   4.322
 6514SOL     OW20440   6.062   0.580   4.810
 6514SOL    HW120441   6.081   0.576   4.908
 6514SOL    HW220442   6.145   0.609   4.762
 6515SOL     OW20443   1.028   3.494   2.306
 6515SOL    HW120444   1.102   3.555   2.276
 6515SOL    HW220445   0.949   3.506   2.246
 6516SOL     OW20446   6.568   3.480   1.805
 6516SOL    HW120447   6.577   3.556   1.869
 6516SOL    HW220448   6.477   3.482   1.763
 6517SOL     OW20449   6.967   2.135   0.952
 6517SOL    HW120450   6.916   2.052   0.975
 6517SOL    HW220451   7.013   2.122   0.864
 6518SOL     OW20452   6.841   0.338   2.200
 6518SOL    HW120453   6.875   0.269   2.263
 6518SOL    HW220454   6.865   0.429   2.233
 6519SOL     OW20455   0.408   1.203   3.139
 6519SOL    HW120456   0.502   1.237   3.134
 6519SOL    HW220457   0.389   1.171   3.232
 6520SOL     OW20458   6.953   5.262   6.921
 6520SOL    HW120459   7.001   5.306   6.845
 6520SOL    HW220460   6.868   5.311   6.941
 6521SOL     OW20461   1.761   2.968   4.000
 6521SOL    HW120462   1.711   2.906   4.060
 6521SOL    HW220463   1.698   3.010   3.935
 6522SOL     OW20464   2.275   4.504   5.425
 6522SOL    HW120465   2.191   4.488   5.476
 6522SOL    HW220466   2.352   4.465   5.473
 6523SOL     OW20467   3.831   0.095   0.157
 6523SOL    HW120468   3.784   0.089   0.245
 6523SOL    HW220469   3.768   0.065   0.085
 6524SOL     OW20470   2.708   2.587   1.779
 6524SOL    HW120471   2.802   2.614   1.763
 6524SOL    HW220472   2.649   2.667   1.778
 6525SOL     OW20473   2.035   5.275   3.297
 6525SOL    HW120474   2.027   5.191   3.351
 6525SOL    HW220475   2.104   5.262   3.226
 6526SOL     OW20476   0.799   0.659   1.016
 6526SOL    HW120477   0.783   0.584   1.080
 6526SOL    HW220478   0.896   0.660   0.990
 6527SOL     OW20479   0.031   2.099   0.178
 6527SOL    HW120480   0.090   2.109   0.098
 6527SOL    HW220481   0.051   2.013   0.225
 6528SOL     OW20482   6.349   1.745   5.615
 6528SOL    HW120483   6.401   1.686   5.554
 6528SOL    HW220484   6.292   1.690   5.676
 6529SOL     OW20485   1.285   0.489   2.167
 6529SOL    HW120486   1.240   0.403   2.194
 6529SOL    HW220487   1.381   0.470   2.147
 6530SOL     OW20488   0.259   1.778   0.833
 6530SOL    HW120489   0.218   1.688   0.824
 6530SOL    HW220490   0.245   1.812   0.926
 6531SOL     OW20491   4.837   3.692   5.333
 6531SOL    HW120492   4.840   3.631   5.412
 6531SOL    HW220493   4.800   3.642   5.254
 6532SOL     OW20494   1.923   0.974   1.331
 6532SOL    HW120495   1.985   0.920   1.389
 6532SOL    HW220496   1.962   1.065   1.318
 6533SOL     OW20497   4.524   6.477   0.521
 6533SOL    HW120498   4.510   6.512   0.428
 6533SOL    HW220499   4.612   6.430   0.526
 6534SOL     OW20500   4.993   5.098   1.896
 6534SOL    HW120501   4.948   5.183   1.869
 6534SOL    HW220502   4.924   5.030   1.921
 6535SOL     OW20503   5.813   4.520   4.472
 6535SOL    HW120504   5.815   4.475   4.562
 6535SOL    HW220505   5.885   4.483   4.414
 6536SOL     OW20506   0.221   1.621   4.849
 6536SOL    HW120507   0.124   1.625   4.825
 6536SOL    HW220508   0.266   1.548   4.797
 6537SOL     OW20509   6.884   5.067   4.869
 6537SOL    HW120510   6.942   5.135   4.824
 6537SOL    HW220511   6.891   4.980   4.821
 6538SOL     OW20512   1.173   3.659   5.750
 6538SOL    HW120513   1.185   3.595   5.825
 6538SOL    HW220514   1.262   3.679   5.708
 6539SOL     OW20515   4.558   0.219   6.909
 6539SOL    HW120516   4.550   0.297   6.847
 6539SOL    HW220517   4.530   0.136   6.861
 6540SOL     OW20518   2.884   2.604   5.995
 6540SOL    HW120519   2.903   2.521   5.942
 6540SOL    HW220520   2.944   2.678   5.963
 6541SOL     OW20521   5.249   2.764   5.879
 6541SOL    HW120522   5.172   2.701   5.884
 6541SOL    HW220523   5.321   2.735   5.941
 6542SOL     OW20524   1.430   2.999   4.782
 6542SOL    HW120525   1.432   3.065   4.857
 6542SOL    HW220526   1.373   3.035   4.708
 6543SOL     OW20527   3.716   2.797   5.728
 6543SOL    HW120528   3.753   2.744   5.652
 6543SOL    HW220529   3.694   2.736   5.804
 6544SOL     OW20530   1.245   6.204   2.780
 6544SOL    HW120531   1.339   6.205   2.747
 6544SOL    HW220532   1.189   6.263   2.723
 6545SOL     OW20533   4.131   0.292   0.446
 6545SOL    HW120534   4.147   0.375   0.501
 6545SOL    HW220535   4.174   0.304   0.356
 6546SOL     OW20536   3.935   3.854   6.221
 6546SOL    HW120537   4.034   3.856   6.214
 6546SOL    HW220538   3.906   3.896   6.307
 6547SOL     OW20539   5.036   0.917   6.318
 6547SOL    HW120540   4.967   0.973   6.363
 6547SOL    HW220541   5.025   0.822   6.345
 6548SOL     OW20542   1.679   3.065   0.383
 6548SOL    HW120543   1.717   3.005   0.313
 6548SOL    HW220544   1.580   3.073   0.371
 6549SOL     OW20545   4.513   0.512   2.038
 6549SOL    HW120546   4.474   0.478   2.123
 6549SOL    HW220547   4.441   0.549   1.980
 6550SOL     OW20548   0.393   6.920   3.934
 6550SOL    HW120549   0.299   6.927   3.903
 6550SOL    HW220550   0.417   6.825   3.951
 6551SOL     OW20551   2.577   3.499   1.746
 6551SOL    HW120552   2.589   3.479   1.649
 6551SOL    HW220553   2.491   3.458   1.778
 6552SOL     OW20554   2.606   0.026   0.754
 6552SOL    HW120555   2.592   0.121   0.781
 6552SOL    HW220556   2.666   6.999   0.821
 6553SOL     OW20557   0.496   2.215   3.033
 6553SOL    HW120558   0.524   2.306   3.064
 6553SOL    HW220559   0.512   2.206   2.935
 6554SOL     OW20560   2.635   0.944   4.695
 6554SOL    HW120561   2.605   0.929   4.789
 6554SOL    HW220562   2.708   0.879   4.673
 6555SOL     OW20563   5.613   1.910   3.577
 6555SOL    HW120564   5.600   1.969   3.657
 6555SOL    HW220565   5.583   1.817   3.598
 6556SOL     OW20566   6.101   3.060   3.085
 6556SOL    HW120567   6.070   3.148   3.121
 6556SOL    HW220568   6.111   3.065   2.986
 6557SOL     OW20569   2.638   0.656   2.906
 6557SOL    HW120570   2.688   0.714   2.971
 6557SOL    HW220571   2.544   0.645   2.938
 6558SOL     OW20572   6.026   5.556   0.710
 6558SOL    HW120573   6.011   5.646   0.749
 6558SOL    HW220574   5.970   5.488   0.758
 6559SOL     OW20575   6.983   3.513   6.112
 6559SOL    HW120576   0.038   3.566   6.154
 6559SOL    HW220577   6.960   3.551   6.022
 6560SOL     OW20578   3.906   4.733   1.051
 6560SOL    HW120579   3.851   4.813   1.076
 6560SOL    HW220580   4.002   4.751   1.069
 6561SOL     OW20581   3.764   4.592   1.272
 6561SOL    HW120582   3.850   4.576   1.224
 6561SOL    HW220583   3.776   4.667   1.337
 6562SOL     OW20584   5.669   1.885   1.328
 6562SOL    HW120585   5.625   1.830   1.399
 6562SOL    HW220586   5.757   1.844   1.304
 6563SOL     OW20587   5.114   6.888   5.982
 6563SOL    HW120588   5.151   6.799   6.007
 6563SOL    HW220589   5.015   6.887   5.996
 6564SOL     OW20590   6.336   3.506   1.679
 6564SOL    HW120591   6.238   3.488   1.671
 6564SOL    HW220592   6.376   3.513   1.588
 6565SOL     OW20593   5.958   6.601   2.674
 6565SOL    HW120594   5.970   6.562   2.583
 6565SOL    HW220595   5.861   6.622   2.689
 6566SOL     OW20596   3.311   5.899   2.489
 6566SOL    HW120597   3.295   5.826   2.556
 6566SOL    HW220598   3.402   5.938   2.504
 6567SOL     OW20599   4.935   1.316   2.013
 6567SOL    HW120600   5.022   1.282   2.048
 6567SOL    HW220601   4.881   1.240   1.978
 6568SOL     OW20602   3.814   1.897   2.759
 6568SOL    HW120603   3.716   1.882   2.770
 6568SOL    HW220604   3.833   1.995   2.755
 6569SOL     OW20605   2.085   2.783   6.394
 6569SOL    HW120606   2.112   2.719   6.322
 6569SOL    HW220607   2.149   2.860   6.396
 6570SOL     OW20608   3.051   1.074   2.698
 6570SOL    HW120609   2.968   1.019   2.712
 6570SOL    HW220610   3.101   1.080   2.785
 6571SOL     OW20611   2.492   4.872   2.738
 6571SOL    HW120612   2.433   4.805   2.693
 6571SOL    HW220613   2.575   4.826   2.771
 6572SOL     OW20614   6.928   4.468   4.071
 6572SOL    HW120615   6.890   4.392   4.019
 6572SOL    HW220616   0.002   4.444   4.103
 6573SOL     OW20617   0.935   0.959   3.379
 6573SOL    HW120618   0.842   0.938   3.351
 6573SOL    HW220619   0.934   1.026   3.454
 6574SOL     OW20620   2.420   5.882   3.419
 6574SOL    HW120621   2.403   5.900   3.323
 6574SOL    HW220622   2.506   5.832   3.429
 6575SOL     OW20623   0.309   6.660   3.233
 6575SOL    HW120624   0.357   6.697   3.153
 6575SOL    HW220625   0.211   6.662   3.217
 6576SOL     OW20626   3.152   6.025   0.627
 6576SOL    HW120627   3.226   6.058   0.686
 6576SOL    HW220628   3.187   6.007   0.535
 6577SOL     OW20629   1.301   1.923   3.573
 6577SOL    HW120630   1.301   2.012   3.617
 6577SOL    HW220631   1.375   1.918   3.507
 6578SOL     OW20632   0.928   6.101   1.828
 6578SOL    HW120633   0.919   6.195   1.859
 6578SOL    HW220634   0.864   6.085   1.752
 6579SOL     OW20635   6.798   2.846   4.094
 6579SOL    HW120636   6.747   2.776   4.043
 6579SOL    HW220637   6.761   2.852   4.187
 6580SOL     OW20638   0.718   1.905   0.109
 6580SOL    HW120639   0.810   1.945   0.121
 6580SOL    HW220640   0.664   1.923   0.192
 6581SOL     OW20641   1.782   1.006   1.069
 6581SOL    HW120642   1.836   1.070   1.014
 6581SOL    HW220643   1.829   0.987   1.155
 6582SOL     OW20644   0.104   0.427   2.699
 6582SOL    HW120645   0.115   0.386   2.790
 6582SOL    HW220646   0.187   0.477   2.675
 6583SOL     OW20647   4.818   6.499   5.359
 6583SOL    HW120648   4.830   6.546   5.272
 6583SOL    HW220649   4.737   6.441   5.355
 6584SOL     OW20650   3.769   1.985   0.803
 6584SOL    HW120651   3.864   2.016   0.807
 6584SOL    HW220652   3.766   1.889   0.778
 6585SOL     OW20653   6.372   6.093   0.020
 6585SOL    HW120654   6.407   6.052   0.105
 6585SOL    HW220655   6.285   6.050   7.014
 6586SOL     OW20656   6.716   1.876   5.938
 6586SOL    HW120657   6.653   1.800   5.955
 6586SOL    HW220658   6.713   1.902   5.842
 6587SOL     OW20659   1.417   4.896   6.805
 6587SOL    HW120660   1.362   4.874   6.724
 6587SOL    HW220661   1.481   4.970   6.782
 6588SOL     OW20662   0.418   3.289   1.877
 6588SOL    HW120663   0.345   3.222   1.861
 6588SOL    HW220664   0.400   3.336   1.963
 6589SOL     OW20665   4.091   0.942   1.950
 6589SOL    HW120666   4.121   0.867   2.010
 6589SOL    HW220667   4.088   0.910   1.856
 6590SOL     OW20668   0.587   0.283   5.990
 6590SOL    HW120669   0.582   0.368   6.043
 6590SOL    HW220670   0.666   0.230   6.019
 6591SOL     OW20671   5.514   6.116   4.017
 6591SOL    HW120672   5.500   6.023   4.052
 6591SOL    HW220673   5.529   6.178   4.094
 6592SOL     OW20674   4.887   6.518   2.778
 6592SOL    HW120675   4.834   6.504   2.694
 6592SOL    HW220676   4.961   6.451   2.782
 6593SOL     OW20677   2.669   2.338   2.234
 6593SOL    HW120678   2.636   2.245   2.214
 6593SOL    HW220679   2.763   2.347   2.203
 6594SOL     OW20680   3.449   1.329   5.786
 6594SOL    HW120681   3.429   1.403   5.850
 6594SOL    HW220682   3.427   1.358   5.693
 6595SOL     OW20683   1.410   3.820   6.045
 6595SOL    HW120684   1.454   3.818   6.135
 6595SOL    HW220685   1.383   3.913   6.023
 6596SOL     OW20686   3.352   6.569   3.826
 6596SOL    HW120687   3.302   6.499   3.775
 6596SOL    HW220688   3.445   6.576   3.790
 6597SOL     OW20689   2.121   5.147   2.108
 6597SOL    HW120690   2.167   5.200   2.037
 6597SOL    HW220691   2.098   5.056   2.074
 6598SOL     OW20692   1.732   4.821   3.689
 6598SOL    HW120693   1.785   4.906   3.684
 6598SOL    HW220694   1.657   4.832   3.755
 6599SOL     OW20695   4.232   5.863   6.459
 6599SOL    HW120696   4.243   5.954   6.418
 6599SOL    HW220697   4.151   5.819   6.421
 6600SOL     OW20698   3.651   6.742   4.350
 6600SOL    HW120699   3.561   6.703   4.370
 6600SOL    HW220700   3.721   6.692   4.402
 6601SOL     OW20701   0.899   1.996   3.715
 6601SOL    HW120702   0.905   1.910   3.765
 6601SOL    HW220703   0.902   1.978   3.617
 6602SOL     OW20704   1.852   0.392   1.487
 6602SOL    HW120705   1.761   0.408   1.525
 6602SOL    HW220706   1.867   0.450   1.408
 6603SOL     OW20707   0.807   3.049   3.921
 6603SOL    HW120708   0.800   3.030   3.823
 6603SOL    HW220709   0.871   3.125   3.936
 6604SOL     OW20710   1.975   7.011   1.651
 6604SOL    HW120711   2.039   6.935   1.640
 6604SOL    HW220712   1.885   6.975   1.675
 6605SOL     OW20713   5.746   5.903   2.548
 6605SOL    HW120714   5.708   5.841   2.480
 6605SOL    HW220715   5.673   5.935   2.609
 6606SOL     OW20716   6.651   4.833   2.287
 6606SOL    HW120717   6.560   4.832   2.327
 6606SOL    HW220718   6.697   4.919   2.308
 6607SOL     OW20719   0.506   4.954   3.428
 6607SOL    HW120720   0.434   5.004   3.476
 6607SOL    HW220721   0.562   5.018   3.375
 6608SOL     OW20722   6.821   6.416   0.090
 6608SOL    HW120723   6.831   6.316   0.085
 6608SOL    HW220724   6.723   6.439   0.087
 6609SOL     OW20725   5.386   1.320   6.801
 6609SOL    HW120726   5.344   1.382   6.866
 6609SOL    HW220727   5.410   1.234   6.846
 6610SOL     OW20728   2.500   6.686   0.342
 6610SOL    HW120729   2.551   6.603   0.322
 6610SOL    HW220730   2.526   6.758   0.277
 6611SOL     OW20731   4.855   2.728   3.492
 6611SOL    HW120732   4.779   2.764   3.438
 6611SOL    HW220733   4.916   2.675   3.433
 6612SOL     OW20734   0.121   2.488   6.151
 6612SOL    HW120735   0.107   2.537   6.237
 6612SOL    HW220736   0.056   2.411   6.146
 6613SOL     OW20737   5.901   6.470   5.545
 6613SOL    HW120738   5.839   6.477   5.468
 6613SOL    HW220739   5.867   6.401   5.609
 6614SOL     OW20740   4.426   6.573   0.250
 6614SOL    HW120741   4.411   6.664   0.212
 6614SOL    HW220742   4.364   6.507   0.205
 6615SOL     OW20743   1.304   5.834   1.236
 6615SOL    HW120744   1.231   5.867   1.178
 6615SOL    HW220745   1.365   5.910   1.261
 6616SOL     OW20746   4.657   6.980   6.213
 6616SOL    HW120747   4.595   6.992   6.290
 6616SOL    HW220748   4.752   6.982   6.245
 6617SOL     OW20749   4.270   6.139   3.561
 6617SOL    HW120750   4.324   6.091   3.492
 6617SOL    HW220751   4.173   6.129   3.539
 6618SOL     OW20752   1.222   1.818   2.346
 6618SOL    HW120753   1.144   1.843   2.404
 6618SOL    HW220754   1.297   1.882   2.362
 6619SOL     OW20755   4.716   6.968   3.619
 6619SOL    HW120756   4.641   0.016   3.628
 6619SOL    HW220757   4.766   6.985   3.534
 6620SOL     OW20758   2.144   3.312   4.853
 6620SOL    HW120759   2.090   3.347   4.929
 6620SOL    HW220760   2.166   3.216   4.869
 6621SOL     OW20761   3.780   2.793   5.252
 6621SOL    HW120762   3.842   2.727   5.293
 6621SOL    HW220763   3.832   2.858   5.197
 6622SOL     OW20764   6.294   5.908   2.053
 6622SOL    HW120765   6.259   5.874   1.966
 6622SOL    HW220766   6.226   5.891   2.125
 6623SOL     OW20767   3.334   3.739   4.950
 6623SOL    HW120768   3.411   3.743   4.886
 6623SOL    HW220769   3.249   3.757   4.900
 6624SOL     OW20770   0.942   3.614   5.286
 6624SOL    HW120771   0.939   3.536   5.224
 6624SOL    HW220772   0.945   3.699   5.233
 6625SOL     OW20773   5.047   1.742   5.002
 6625SOL    HW120774   4.978   1.783   4.943
 6625SOL    HW220775   5.116   1.695   4.946
 6626SOL     OW20776   3.445   0.131   5.620
 6626SOL    HW120777   3.434   0.141   5.719
 6626SOL    HW220778   3.502   0.051   5.601
 6627SOL     OW20779   1.698   6.682   3.978
 6627SOL    HW120780   1.768   6.690   4.049
 6627SOL    HW220781   1.739   6.643   3.896
 6628SOL     OW20782   5.610   4.725   4.455
 6628SOL    HW120783   5.692   4.673   4.477
 6628SOL    HW220784   5.543   4.665   4.411
 6629SOL     OW20785   4.733   5.813   6.033
 6629SOL    HW120786   4.803   5.743   6.047
 6629SOL    HW220787   4.760   5.897   6.079
 6630SOL     OW20788   3.633   2.221   1.414
 6630SOL    HW120789   3.692   2.252   1.488
 6630SOL    HW220790   3.593   2.132   1.438
 6631SOL     OW20791   2.240   6.020   4.487
 6631SOL    HW120792   2.147   6.008   4.452
 6631SOL    HW220793   2.245   5.988   4.581
 6632SOL     OW20794   1.385   0.862   1.032
 6632SOL    HW120795   1.297   0.841   1.073
 6632SOL    HW220796   1.381   0.845   0.933
 6633SOL     OW20797   2.011   4.864   6.162
 6633SOL    HW120798   1.978   4.950   6.122
 6633SOL    HW220799   1.933   4.804   6.182
 6634SOL     OW20800   4.999   2.008   5.172
 6634SOL    HW120801   4.936   1.952   5.227
 6634SOL    HW220802   5.090   1.968   5.175
 6635SOL     OW20803   4.800   4.561   3.515
 6635SOL    HW120804   4.794   4.606   3.426
 6635SOL    HW220805   4.709   4.530   3.543
 6636SOL     OW20806   4.388   1.794   0.737
 6636SOL    HW120807   4.464   1.763   0.794
 6636SOL    HW220808   4.415   1.790   0.641
 6637SOL     OW20809   2.039   6.783   6.470
 6637SOL    HW120810   2.060   6.876   6.500
 6637SOL    HW220811   2.067   6.718   6.542
 6638SOL     OW20812   3.173   3.021   3.268
 6638SOL    HW120813   3.133   3.052   3.182
 6638SOL    HW220814   3.117   3.051   3.345
 6639SOL     OW20815   3.602   3.747   6.928
 6639SOL    HW120816   3.627   3.806   6.852
 6639SOL    HW220817   3.579   3.803   7.008
 6640SOL     OW20818   0.354   1.912   4.635
 6640SOL    HW120819   0.289   1.893   4.709
 6640SOL    HW220820   0.305   1.951   4.557
 6641SOL     OW20821   3.605   1.536   0.148
 6641SOL    HW120822   3.656   1.505   0.229
 6641SOL    HW220823   3.513   1.563   0.175
 6642SOL     OW20824   2.712   5.217   6.121
 6642SOL    HW120825   2.673   5.142   6.067
 6642SOL    HW220826   2.639   5.273   6.158
 6643SOL     OW20827   6.334   6.323   0.186
 6643SOL    HW120828   6.392   6.376   0.125
 6643SOL    HW220829   6.308   6.237   0.141
 6644SOL     OW20830   2.111   5.955   2.461
 6644SOL    HW120831   2.125   5.869   2.510
 6644SOL    HW220832   2.117   6.031   2.526
 6645SOL     OW20833   5.350   3.621   0.466
 6645SOL    HW120834   5.444   3.589   0.450
 6645SOL    HW220835   5.292   3.543   0.489
 6646SOL     OW20836   4.604   1.346   5.403
 6646SOL    HW120837   4.518   1.376   5.445
 6646SOL    HW220838   4.668   1.316   5.473
 6647SOL     OW20839   4.520   6.753   0.587
 6647SOL    HW120840   4.575   6.769   0.505
 6647SOL    HW220841   4.476   6.663   0.580
 6648SOL     OW20842   2.871   6.843   4.732
 6648SOL    HW120843   2.784   6.798   4.712
 6648SOL    HW220844   2.864   6.892   4.819
 6649SOL     OW20845   5.943   2.210   6.019
 6649SOL    HW120846   5.927   2.198   6.117
 6649SOL    HW220847   5.961   2.306   6.000
 6650SOL     OW20848   3.994   1.937   4.696
 6650SOL    HW120849   4.045   1.867   4.645
 6650SOL    HW220850   3.948   1.894   4.773
 6651SOL     OW20851   1.588   1.359   6.105
 6651SOL    HW120852   1.578   1.271   6.150
 6651SOL    HW220853   1.575   1.432   6.172
 6652SOL     OW20854   0.440   4.767   6.786
 6652SOL    HW120855   0.438   4.699   6.713
 6652SOL    HW220856   0.368   4.834   6.771
 6653SOL     OW20857   4.422   2.978   0.971
 6653SOL    HW120858   4.352   2.963   0.901
 6653SOL    HW220859   4.421   2.903   1.036
 6654SOL     OW20860   1.433   5.564   2.573
 6654SOL    HW120861   1.458   5.620   2.652
 6654SOL    HW220862   1.496   5.487   2.566
 6655SOL     OW20863   6.972   6.261   2.601
 6655SOL    HW120864   6.890   6.220   2.642
 6655SOL    HW220865   6.950   6.292   2.508
 6656SOL     OW20866   5.743   2.452   3.010
 6656SOL    HW120867   5.776   2.545   2.997
 6656SOL    HW220868   5.820   2.390   3.024
 6657SOL     OW20869   6.300   3.480   5.046
 6657SOL    HW120870   6.230   3.530   4.995
 6657SOL    HW220871   6.387   3.484   4.996
 6658SOL     OW20872   5.244   6.652   5.808
 6658SOL    HW120873   5.313   6.670   5.878
 6658SOL    HW220874   5.232   6.733   5.750
 6659SOL     OW20875   1.439   3.102   1.376
 6659SOL    HW120876   1.479   3.148   1.455
 6659SOL    HW220877   1.443   3.003   1.390
 6660SOL     OW20878   1.558   5.157   1.582
 6660SOL    HW120879   1.461   5.173   1.595
 6660SOL    HW220880   1.606   5.244   1.577
 6661SOL     OW20881   2.432   0.011   5.457
 6661SOL    HW120882   2.442   6.990   5.365
 6661SOL    HW220883   2.455   0.109   5.454
 6662SOL     OW20884   2.054   0.662   0.481
 6662SOL    HW120885   2.060   0.603   0.400
 6662SOL    HW220886   2.112   0.742   0.468
 6663SOL     OW20887   6.479   6.032   4.868
 6663SOL    HW120888   6.464   6.067   4.961
 6663SOL    HW220889   6.394   6.039   4.816
 6664SOL     OW20890   2.469   0.187   1.151
 6664SOL    HW120891   2.405   0.219   1.081
 6664SOL    HW220892   2.500   0.095   1.128
 6665SOL     OW20893   1.877   6.737   5.152
 6665SOL    HW120894   1.975   6.756   5.157
 6665SOL    HW220895   1.825   6.811   5.195
 6666SOL     OW20896   6.324   5.823   5.707
 6666SOL    HW120897   6.368   5.837   5.796
 6666SOL    HW220898   6.394   5.812   5.637
 6667SOL     OW20899   0.079   6.719   5.649
 6667SOL    HW120900   0.136   6.674   5.579
 6667SOL    HW220901   0.122   6.708   5.738
 6668SOL     OW20902   6.482   6.421   1.128
 6668SOL    HW120903   6.426   6.503   1.140
 6668SOL    HW220904   6.438   6.360   1.062
 6669SOL     OW20905   3.218   2.268   1.748
 6669SOL    HW120906   3.168   2.249   1.663
 6669SOL    HW220907   3.154   2.298   1.818
 6670SOL     OW20908   3.067   0.871   6.288
 6670SOL    HW120909   3.010   0.932   6.342
 6670SOL    HW220910   3.080   0.785   6.338
 6671SOL     OW20911   5.587   6.609   6.796
 6671SOL    HW120912   5.673   6.659   6.811
 6671SOL    HW220913   5.586   6.572   6.704
 6672SOL     OW20914   0.286   2.137   0.656
 6672SOL    HW120915   0.345   2.180   0.588
 6672SOL    HW220916   0.224   2.206   0.694
 6673SOL     OW20917   4.836   4.080   3.744
 6673SOL    HW120918   4.823   4.000   3.685
 6673SOL    HW220919   4.822   4.052   3.839
 6674SOL     OW20920   0.677   3.918   0.260
 6674SOL    HW120921   0.753   3.982   0.255
 6674SOL    HW220922   0.597   3.963   0.298
 6675SOL     OW20923   6.043   2.681   0.105
 6675SOL    HW120924   6.091   2.681   0.017
 6675SOL    HW220925   6.059   2.768   0.152
 6676SOL     OW20926   0.721   3.376   4.356
 6676SOL    HW120927   0.789   3.448   4.367
 6676SOL    HW220928   0.762   3.287   4.379
 6677SOL     OW20929   0.693   1.409   6.279
 6677SOL    HW120930   0.688   1.309   6.278
 6677SOL    HW220931   0.681   1.441   6.373
 6678SOL     OW20932   2.940   4.750   0.686
 6678SOL    HW120933   3.014   4.801   0.729
 6678SOL    HW220934   2.867   4.734   0.752
 6679SOL     OW20935   3.811   0.448   3.777
 6679SOL    HW120936   3.846   0.541   3.791
 6679SOL    HW220937   3.823   0.395   3.861
 6680SOL     OW20938   4.105   6.378   6.675
 6680SOL    HW120939   4.160   6.326   6.610
 6680SOL    HW220940   4.022   6.411   6.629
 6681SOL     OW20941   4.987   5.786   0.870
 6681SOL    HW120942   5.067   5.731   0.891
 6681SOL    HW220943   4.980   5.797   0.771
 6682SOL     OW20944   2.291   5.092   6.938
 6682SOL    HW120945   2.299   5.036   0.003
 6682SOL    HW220946   2.378   5.139   6.921
 6683SOL     OW20947   6.036   3.214   5.624
 6683SOL    HW120948   5.990   3.126   5.615
 6683SOL    HW220949   6.121   3.213   5.572
 6684SOL     OW20950   4.105   6.742   2.324
 6684SOL    HW120951   4.099   6.826   2.269
 6684SOL    HW220952   4.087   6.764   2.420
 6685SOL     OW20953   4.898   2.806   6.056
 6685SOL    HW120954   4.869   2.861   6.134
 6685SOL    HW220955   4.847   2.835   5.974
 6686SOL     OW20956   5.354   5.651   4.018
 6686SOL    HW120957   5.337   5.689   3.927
 6686SOL    HW220958   5.402   5.564   4.009
 6687SOL     OW20959   0.576   2.832   2.659
 6687SOL    HW120960   0.640   2.755   2.671
 6687SOL    HW220961   0.607   2.910   2.713
 6688SOL     OW20962   3.939   5.007   1.133
 6688SOL    HW120963   3.992   5.059   1.067
 6688SOL    HW220964   4.000   4.958   1.195
 6689SOL     OW20965   4.437   4.191   5.649
 6689SOL    HW120966   4.342   4.166   5.631
 6689SOL    HW220967   4.497   4.120   5.613
 6690SOL     OW20968   0.668   0.013   0.865
 6690SOL    HW120969   0.737   6.959   0.871
 6690SOL    HW220970   0.700   0.094   0.914
 6691SOL     OW20971   1.921   0.283   2.675
 6691SOL    HW120972   1.954   0.311   2.765
 6691SOL    HW220973   1.991   0.301   2.606
 6692SOL     OW20974   4.048   3.871   3.203
 6692SOL    HW120975   4.049   3.776   3.173
 6692SOL    HW220976   4.043   3.875   3.303
 6693SOL     OW20977   4.429   2.439   4.838
 6693SOL    HW120978   4.391   2.406   4.751
 6693SOL    HW220979   4.355   2.473   4.896
 6694SOL     OW20980   4.137   6.505   1.842
 6694SOL    HW120981   4.124   6.587   1.786
 6694SOL    HW220982   4.097   6.519   1.932
 6695SOL     OW20983   2.819   2.462   6.467
 6695SOL    HW120984   2.870   2.379   6.491
 6695SOL    HW220985   2.846   2.537   6.528
 6696SOL     OW20986   3.932   3.193   3.893
 6696SOL    HW120987   3.893   3.264   3.952
 6696SOL    HW220988   4.018   3.225   3.854
 6697SOL     OW20989   4.710   1.680   3.270
 6697SOL    HW120990   4.770   1.709   3.196
 6697SOL    HW220991   4.683   1.585   3.257
 6698SOL     OW20992   2.972   3.344   1.040
 6698SOL    HW120993   2.878   3.324   1.067
 6698SOL    HW220994   2.978   3.347   0.940
 6699SOL     OW20995   2.076   6.409   5.735
 6699SOL    HW120996   2.164   6.457   5.743
 6699SOL    HW220997   2.011   6.467   5.686
 6700SOL     OW20998   6.901   2.068   1.287
 6700SOL    HW120999   6.831   2.111   1.343
 6700SOL    HW221000   6.965   2.018   1.345
 6701SOL     OW21001   5.319   5.641   2.080
 6701SOL    HW121002   5.358   5.556   2.116
 6701SOL    HW221003   5.294   5.702   2.155
 6702SOL     OW21004   1.930   2.591   1.938
 6702SOL    HW121005   1.964   2.516   1.995
 6702SOL    HW221006   1.858   2.641   1.987
 6703SOL     OW21007   6.579   0.192   0.823
 6703SOL    HW121008   6.615   0.104   0.792
 6703SOL    HW221009   6.594   0.261   0.752
 6704SOL     OW21010   4.097   2.257   3.402
 6704SOL    HW121011   4.016   2.225   3.352
 6704SOL    HW221012   4.137   2.335   3.355
 6705SOL     OW21013   5.900   2.763   0.651
 6705SOL    HW121014   5.932   2.825   0.722
 6705SOL    HW221015   5.806   2.787   0.625
 6706SOL     OW21016   0.676   5.723   0.890
 6706SOL    HW121017   0.698   5.817   0.866
 6706SOL    HW221018   0.717   5.701   0.978
 6707SOL     OW21019   5.642   6.266   3.447
 6707SOL    HW121020   5.657   6.182   3.500
 6707SOL    HW221021   5.594   6.333   3.503
 6708SOL     OW21022   5.698   5.231   1.541
 6708SOL    HW121023   5.609   5.243   1.498
 6708SOL    HW221024   5.763   5.192   1.475
 6709SOL     OW21025   1.218   5.381   2.786
 6709SOL    HW121026   1.268   5.452   2.837
 6709SOL    HW221027   1.199   5.415   2.694
 6710SOL     OW21028   3.907   0.646   6.537
 6710SOL    HW121029   3.884   0.550   6.555
 6710SOL    HW221030   3.993   0.651   6.487
 6711SOL     OW21031   5.010   6.059   5.951
 6711SOL    HW121032   5.091   6.117   5.962
 6711SOL    HW221033   4.970   6.042   6.041
 6712SOL     OW21034   5.668   3.503   1.068
 6712SOL    HW121035   5.604   3.498   1.144
 6712SOL    HW221036   5.717   3.591   1.072
 6713SOL     OW21037   0.878   0.502   3.301
 6713SOL    HW121038   0.783   0.530   3.307
 6713SOL    HW221039   0.934   0.580   3.273
 6714SOL     OW21040   6.742   1.525   6.356
 6714SOL    HW121041   6.775   1.612   6.319
 6714SOL    HW221042   6.817   1.459   6.359
 6715SOL     OW21043   1.881   0.572   1.295
 6715SOL    HW121044   1.830   0.601   1.214
 6715SOL    HW221045   1.973   0.611   1.293
 6716SOL     OW21046   0.283   5.616   1.808
 6716SOL    HW121047   0.310   5.609   1.712
 6716SOL    HW221048   0.350   5.568   1.865
 6717SOL     OW21049   3.279   2.977   6.220
 6717SOL    HW121050   3.242   2.946   6.132
 6717SOL    HW221051   3.205   3.017   6.274
 6718SOL     OW21052   4.495   6.988   1.023
 6718SOL    HW121053   4.449   0.058   1.036
 6718SOL    HW221054   4.526   6.981   0.928
 6719SOL     OW21055   2.262   6.829   0.391
 6719SOL    HW121056   2.250   6.878   0.304
 6719SOL    HW221057   2.334   6.761   0.381
 6720SOL     OW21058   2.104   0.629   3.642
 6720SOL    HW121059   2.069   0.589   3.726
 6720SOL    HW221060   2.059   0.587   3.563
 6721SOL     OW21061   0.068   6.489   0.973
 6721SOL    HW121062   7.013   6.455   0.914
 6721SOL    HW221063   0.028   6.540   1.049
 6722SOL     OW21064   6.774   2.368   0.326
 6722SOL    HW121065   6.741   2.287   0.374
 6722SOL    HW221066   6.850   2.408   0.378
 6723SOL     OW21067   1.237   6.679   4.916
 6723SOL    HW121068   1.316   6.640   4.867
 6723SOL    HW221069   1.201   6.756   4.864
 6724SOL     OW21070   1.908   2.968   6.087
 6724SOL    HW121071   1.836   2.955   6.156
 6724SOL    HW221072   1.990   2.918   6.115
 6725SOL     OW21073   6.986   2.381   1.864
 6725SOL    HW121074   0.015   2.433   1.793
 6725SOL    HW221075   6.887   2.394   1.855
 6726SOL     OW21076   0.351   2.344   3.843
 6726SOL    HW121077   0.305   2.257   3.858
 6726SOL    HW221078   0.299   2.398   3.776
 6727SOL     OW21079   7.001   4.787   5.577
 6727SOL    HW121080   0.044   4.712   5.601
 6727SOL    HW221081   6.924   4.789   5.641
 6728SOL     OW21082   4.000   2.156   2.992
 6728SOL    HW121083   3.997   2.153   2.892
 6728SOL    HW221084   4.093   2.175   3.022
 6729SOL     OW21085   0.114   1.646   0.269
 6729SOL    HW121086   0.165   1.577   0.321
 6729SOL    HW221087   0.117   1.623   0.172
 6730SOL     OW21088   2.411   6.813   0.822
 6730SOL    HW121089   2.489   6.806   0.884
 6730SOL    HW221090   2.328   6.782   0.869
 6731SOL     OW21091   1.529   6.779   0.822
 6731SOL    HW121092   1.480   6.769   0.909
 6731SOL    HW221093   1.569   6.692   0.795
 6732SOL     OW21094   5.822   4.393   4.706
 6732SOL    HW121095   5.861   4.403   4.798
 6732SOL    HW221096   5.725   4.369   4.713
 6733SOL     OW21097   4.062   5.084   6.606
 6733SOL    HW121098   4.044   5.183   6.606
 6733SOL    HW221099   4.052   5.048   6.513
 6734SOL     OW21100   5.797   2.714   5.239
 6734SOL    HW121101   5.796   2.655   5.158
 6734SOL    HW221102   5.794   2.658   5.322
 6735SOL     OW21103   6.114   3.559   4.845
 6735SOL    HW121104   6.022   3.519   4.839
 6735SOL    HW221105   6.138   3.601   4.758
 6736SOL     OW21106   3.004   3.487   6.557
 6736SOL    HW121107   2.973   3.579   6.579
 6736SOL    HW221108   2.998   3.429   6.639
 6737SOL     OW21109   1.583   3.222   0.979
 6737SOL    HW121110   1.655   3.278   0.939
 6737SOL    HW221111   1.575   3.136   0.927
 6738SOL     OW21112   1.722   5.972   4.151
 6738SOL    HW121113   1.742   5.899   4.086
 6738SOL    HW221114   1.750   6.060   4.114
 6739SOL     OW21115   5.810   6.295   3.945
 6739SOL    HW121116   5.796   6.394   3.949
 6739SOL    HW221117   5.765   6.259   3.863
 6740SOL     OW21118   6.456   0.239   5.768
 6740SOL    HW121119   6.486   0.292   5.689
 6740SOL    HW221120   6.356   0.246   5.777
 6741SOL     OW21121   3.420   2.929   5.311
 6741SOL    HW121122   3.446   2.973   5.225
 6741SOL    HW221123   3.451   2.834   5.312
 6742SOL     OW21124   5.981   5.755   3.182
 6742SOL    HW121125   6.054   5.816   3.210
 6742SOL    HW221126   5.989   5.735   3.084
 6743SOL     OW21127   3.984   4.714   6.410
 6743SOL    HW121128   4.046   4.745   6.482
 6743SOL    HW221129   3.889   4.726   6.439
 6744SOL     OW21130   0.125   5.932   5.677
 6744SOL    HW121131   0.206   5.876   5.664
 6744SOL    HW221132   0.109   5.946   5.775
 6745SOL     OW21133   6.926   6.226   3.529
 6745SOL    HW121134   7.002   6.228   3.464
 6745SOL    HW221135   6.960   6.203   3.620
 6746SOL     OW21136   0.446   0.253   3.940
 6746SOL    HW121137   0.435   0.346   3.976
 6746SOL    HW221138   0.474   0.193   4.015
 6747SOL     OW21139   5.872   0.831   6.567
 6747SOL    HW121140   5.891   0.739   6.602
 6747SOL    HW221141   5.949   0.861   6.511
 6748SOL     OW21142   4.148   1.375   2.832
 6748SOL    HW121143   4.146   1.380   2.732
 6748SOL    HW221144   4.055   1.384   2.868
 6749SOL     OW21145   3.696   4.084   0.792
 6749SOL    HW121146   3.665   4.069   0.886
 6749SOL    HW221147   3.795   4.074   0.788
 6750SOL     OW21148   3.319   2.109   3.892
 6750SOL    HW121149   3.355   2.042   3.827
 6750SOL    HW221150   3.376   2.109   3.974
 6751SOL     OW21151   5.144   0.468   3.142
 6751SOL    HW121152   5.154   0.565   3.162
 6751SOL    HW221153   5.123   0.456   3.045
 6752SOL     OW21154   2.241   6.670   2.654
 6752SOL    HW121155   2.207   6.601   2.718
 6752SOL    HW221156   2.317   6.719   2.696
 6753SOL     OW21157   3.029   1.296   6.198
 6753SOL    HW121158   2.964   1.338   6.134
 6753SOL    HW221159   3.122   1.304   6.161
 6754SOL     OW21160   6.758   0.890   0.527
 6754SOL    HW121161   6.712   0.972   0.560
 6754SOL    HW221162   6.697   0.840   0.465
 6755SOL     OW21163   4.198   2.595   1.476
 6755SOL    HW121164   4.223   2.690   1.458
 6755SOL    HW221165   4.281   2.539   1.484
 6756SOL     OW21166   3.852   6.388   5.026
 6756SOL    HW121167   3.770   6.399   4.971
 6756SOL    HW221168   3.929   6.435   4.981
 6757SOL     OW21169   3.099   1.944   0.090
 6757SOL    HW121170   3.155   2.015   0.132
 6757SOL    HW221171   3.147   1.856   0.095
 6758SOL     OW21172   6.213   2.422   1.431
 6758SOL    HW121173   6.237   2.389   1.340
 6758SOL    HW221174   6.291   2.469   1.472
 6759SOL     OW21175   0.615   3.864   2.960
 6759SOL    HW121176   0.698   3.833   3.006
 6759SOL    HW221177   0.547   3.791   2.961
 6760SOL     OW21178   7.013   3.268   2.203
 6760SOL    HW121179   6.915   3.283   2.216
 6760SOL    HW221180   0.016   3.171   2.215
 6761SOL     OW21181   6.477   2.571   5.002
 6761SOL    HW121182   6.430   2.640   4.948
 6761SOL    HW221183   6.413   2.500   5.030
 6762SOL     OW21184   0.991   4.001   4.426
 6762SOL    HW121185   0.904   3.974   4.383
 6762SOL    HW221186   0.980   4.001   4.525
 6763SOL     OW21187   6.441   5.441   3.687
 6763SOL    HW121188   6.450   5.366   3.753
 6763SOL    HW221189   6.465   5.409   3.596
 6764SOL     OW21190   2.158   6.020   1.725
 6764SOL    HW121191   2.157   5.993   1.821
 6764SOL    HW221192   2.252   6.014   1.690
 6765SOL     OW21193   5.685   4.846   4.157
 6765SOL    HW121194   5.780   4.877   4.165
 6765SOL    HW221195   5.627   4.905   4.213
 6766SOL     OW21196   5.030   6.065   5.665
 6766SOL    HW121197   5.011   6.060   5.763
 6766SOL    HW221198   5.125   6.039   5.649
 6767SOL     OW21199   2.525   0.964   1.600
 6767SOL    HW121200   2.595   1.026   1.633
 6767SOL    HW221201   2.559   0.915   1.519
 6768SOL     OW21202   1.775   0.478   5.334
 6768SOL    HW121203   1.692   0.463   5.387
 6768SOL    HW221204   1.764   0.559   5.276
 6769SOL     OW21205   3.350   0.496   6.537
 6769SOL    HW121206   3.433   0.546   6.513
 6769SOL    HW221207   3.325   0.515   6.632
 6770SOL     OW21208   7.012   0.950   2.103
 6770SOL    HW121209   0.041   0.904   2.027
 6770SOL    HW221210   7.017   1.049   2.090
 6771SOL     OW21211   5.030   1.917   3.465
 6771SOL    HW121212   4.960   1.846   3.472
 6771SOL    HW221213   4.990   2.000   3.428
 6772SOL     OW21214   3.943   2.139   2.724
 6772SOL    HW121215   3.896   2.186   2.649
 6772SOL    HW221216   3.998   2.064   2.688
 6773SOL     OW21217   6.431   5.094   2.336
 6773SOL    HW121218   6.433   5.038   2.418
 6773SOL    HW221219   6.524   5.121   2.311
 6774SOL     OW21220   1.197   2.890   5.569
 6774SOL    HW121221   1.256   2.810   5.567
 6774SOL    HW221222   1.248   2.969   5.601
 6775SOL     OW21223   2.315   2.504   1.707
 6775SOL    HW121224   2.383   2.521   1.636
 6775SOL    HW221225   2.248   2.437   1.674
 6776SOL     OW21226   4.852   4.470   0.180
 6776SOL    HW121227   4.862   4.552   0.236
 6776SOL    HW221228   4.755   4.444   0.177
 6777SOL     OW21229   4.303   4.326   0.656
 6777SOL    HW121230   4.401   4.313   0.668
 6777SOL    HW221231   4.261   4.240   0.626
 6778SOL     OW21232   6.414   5.320   1.792
 6778SOL    HW121233   6.422   5.394   1.726
 6778SOL    HW221234   6.456   5.237   1.755
 6779SOL     OW21235   5.741   5.271   6.788
 6779SOL    HW121236   5.755   5.364   6.822
 6779SOL    HW221237   5.779   5.206   6.854
 6780SOL     OW21238   1.163   2.520   2.312
 6780SOL    HW121239   1.074   2.488   2.280
 6780SOL    HW221240   1.154   2.615   2.344
 6781SOL     OW21241   6.557   1.683   4.218
 6781SOL    HW121242   6.578   1.612   4.151
 6781SOL    HW221243   6.639   1.737   4.236
 6782SOL     OW21244   6.914   1.077   3.498
 6782SOL    HW121245   6.816   1.081   3.519
 6782SOL    HW221246   6.941   0.982   3.487
 6783SOL     OW21247   6.169   1.982   5.282
 6783SOL    HW121248   6.185   1.958   5.378
 6783SOL    HW221249   6.122   2.070   5.278
 6784SOL     OW21250   2.343   3.324   0.416
 6784SOL    HW121251   2.346   3.252   0.485
 6784SOL    HW221252   2.257   3.317   0.365
 6785SOL     OW21253   6.363   5.209   3.858
 6785SOL    HW121254   6.405   5.120   3.841
 6785SOL    HW221255   6.371   5.232   3.955
 6786SOL     OW21256   1.869   2.591   0.194
 6786SOL    HW121257   1.830   2.634   0.276
 6786SOL    HW221258   1.934   2.520   0.222
 6787SOL     OW21259   2.240   2.620   0.832
 6787SOL    HW121260   2.181   2.541   0.813
 6787SOL    HW221261   2.233   2.643   0.929
 6788SOL     OW21262   1.627   3.827   1.609
 6788SOL    HW121263   1.584   3.800   1.523
 6788SOL    HW221264   1.625   3.749   1.673
 6789SOL     OW21265   0.521   5.236   3.019
 6789SOL    HW121266   0.505   5.295   3.098
 6789SOL    HW221267   0.450   5.252   2.950
 6790SOL     OW21268   0.233   3.653   0.980
 6790SOL    HW121269   0.308   3.589   0.967
 6790SOL    HW221270   0.269   3.743   1.006
 6791SOL     OW21271   4.123   2.276   1.754
 6791SOL    HW121272   4.089   2.221   1.830
 6791SOL    HW221273   4.064   2.356   1.741
 6792SOL     OW21274   6.577   6.214   5.182
 6792SOL    HW121275   6.508   6.145   5.207
 6792SOL    HW221276   6.545   6.304   5.211
 6793SOL     OW21277   1.873   2.046   0.939
 6793SOL    HW121278   1.867   1.955   0.978
 6793SOL    HW221279   1.959   2.089   0.967
 6794SOL     OW21280   4.800   1.289   6.039
 6794SOL    HW121281   4.878   1.350   6.024
 6794SOL    HW221282   4.717   1.331   6.004
 6795SOL     OW21283   2.543   6.676   1.164
 6795SOL    HW121284   2.448   6.675   1.196
 6795SOL    HW221285   2.561   6.593   1.110
 6796SOL     OW21286   6.807   6.936   2.127
 6796SOL    HW121287   6.834   6.903   2.217
 6796SOL    HW221288   6.757   0.005   2.136
 6797SOL     OW21289   6.412   2.189   1.561
 6797SOL    HW121290   6.383   2.243   1.482
 6797SOL    HW221291   6.352   2.207   1.638
 6798SOL     OW21292   4.992   0.123   2.296
 6798SOL    HW121293   5.013   0.149   2.390
 6798SOL    HW221294   5.075   0.089   2.251
 6799SOL     OW21295   6.570   6.441   1.784
 6799SOL    HW121296   6.564   6.353   1.831
 6799SOL    HW221297   6.666   6.467   1.773
 6800SOL     OW21298   2.186   3.581   1.681
 6800SOL    HW121299   2.223   3.517   1.749
 6800SOL    HW221300   2.201   3.675   1.711
 6801SOL     OW21301   1.017   6.861   3.176
 6801SOL    HW121302   1.041   6.783   3.234
 6801SOL    HW221303   1.084   6.934   3.188
 6802SOL     OW21304   3.271   5.970   1.251
 6802SOL    HW121305   3.230   5.896   1.197
 6802SOL    HW221306   3.315   6.036   1.191
 6803SOL     OW21307   4.759   2.846   5.818
 6803SOL    HW121308   4.743   2.753   5.784
 6803SOL    HW221309   4.673   2.884   5.852
 6804SOL     OW21310   3.452   5.468   4.025
 6804SOL    HW121311   3.518   5.418   3.969
 6804SOL    HW221312   3.501   5.528   4.089
 6805SOL     OW21313   6.856   4.732   6.271
 6805SOL    HW121314   6.931   4.798   6.278
 6805SOL    HW221315   6.826   4.707   6.363
 6806SOL     OW21316   5.861   0.640   3.490
 6806SOL    HW121317   5.958   0.616   3.483
 6806SOL    HW221318   5.825   0.606   3.577
 6807SOL     OW21319   3.182   3.119   0.593
 6807SOL    HW121320   3.148   3.213   0.606
 6807SOL    HW221321   3.256   3.101   0.657
 6808SOL     OW21322   6.702   2.173   5.219
 6808SOL    HW121323   6.766   2.217   5.156
 6808SOL    HW221324   6.734   2.081   5.241
 6809SOL     OW21325   0.846   2.766   1.228
 6809SOL    HW121326   0.782   2.840   1.250
 6809SOL    HW221327   0.939   2.796   1.246
 6810SOL     OW21328   1.441   1.155   2.713
 6810SOL    HW121329   1.425   1.147   2.615
 6810SOL    HW221330   1.431   1.065   2.756
 6811SOL     OW21331   6.122   4.003   1.170
 6811SOL    HW121332   6.044   3.977   1.227
 6811SOL    HW221333   6.119   4.102   1.153
 6812SOL     OW21334   2.984   3.460   3.665
 6812SOL    HW121335   3.035   3.536   3.704
 6812SOL    HW221336   2.935   3.411   3.737
 6813SOL     OW21337   5.249   2.433   2.381
 6813SOL    HW121338   5.217   2.359   2.322
 6813SOL    HW221339   5.179   2.505   2.385
 6814SOL     OW21340   3.404   1.912   6.414
 6814SOL    HW121341   3.470   1.974   6.370
 6814SOL    HW221342   3.340   1.966   6.469
 6815SOL     OW21343   3.364   6.993   1.195
 6815SOL    HW121344   3.334   0.048   1.257
 6815SOL    HW221345   3.284   6.940   1.165
 6816SOL     OW21346   6.452   0.087   6.637
 6816SOL    HW121347   6.416   0.023   6.568
 6816SOL    HW221348   6.377   0.144   6.671
 6817SOL     OW21349   1.908   2.461   2.713
 6817SOL    HW121350   1.953   2.379   2.748
 6817SOL    HW221351   1.944   2.484   2.623
 6818SOL     OW21352   2.965   6.110   2.281
 6818SOL    HW121353   2.937   6.035   2.222
 6818SOL    HW221354   2.915   6.104   2.368
 6819SOL     OW21355   5.226   1.513   3.943
 6819SOL    HW121356   5.226   1.513   3.843
 6819SOL    HW221357   5.312   1.476   3.977
 6820SOL     OW21358   2.225   5.395   2.186
 6820SOL    HW121359   2.292   5.389   2.260
 6820SOL    HW221360   2.187   5.305   2.168
 6821SOL     OW21361   3.649   1.871   4.897
 6821SOL    HW121362   3.601   1.813   4.963
 6821SOL    HW221363   3.622   1.966   4.910
 6822SOL     OW21364   5.198   2.509   6.374
 6822SOL    HW121365   5.162   2.501   6.467
 6822SOL    HW221366   5.214   2.418   6.337
 6823SOL     OW21367   4.409   3.269   5.380
 6823SOL    HW121368   4.503   3.295   5.359
 6823SOL    HW221369   4.347   3.311   5.314
 6824SOL     OW21370   0.745   2.138   6.135
 6824SOL    HW121371   0.653   2.177   6.125
 6824SOL    HW221372   0.777   2.152   6.228
 6825SOL     OW21373   5.138   6.630   1.527
 6825SOL    HW121374   5.082   6.688   1.586
 6825SOL    HW221375   5.218   6.599   1.578
 6826SOL     OW21376   1.824   3.626   3.010
 6826SOL    HW121377   1.898   3.561   3.026
 6826SOL    HW221378   1.736   3.580   3.017
 6827SOL     OW21379   4.500   5.772   5.665
 6827SOL    HW121380   4.561   5.703   5.627
 6827SOL    HW221381   4.554   5.842   5.713
 6828SOL     OW21382   3.065   1.969   1.707
 6828SOL    HW121383   3.150   1.994   1.754
 6828SOL    HW221384   3.023   1.891   1.753
 6829SOL     OW21385   4.343   6.686   4.160
 6829SOL    HW121386   4.268   6.623   4.141
 6829SOL    HW221387   4.397   6.652   4.237
 6830SOL     OW21388   5.486   1.127   3.702
 6830SOL    HW121389   5.501   1.155   3.797
 6830SOL    HW221390   5.400   1.077   3.696
 6831SOL     OW21391   1.554   0.596   6.634
 6831SOL    HW121392   1.605   0.510   6.629
 6831SOL    HW221393   1.500   0.607   6.550
 6832SOL     OW21394   2.958   4.257   0.963
 6832SOL    HW121395   2.859   4.266   0.966
 6832SOL    HW221396   2.995   4.254   1.056
 6833SOL     OW21397   3.408   4.557   6.494
 6833SOL    HW121398   3.327   4.511   6.531
 6833SOL    HW221399   3.398   4.656   6.506
 6834SOL     OW21400   4.718   6.414   1.154
 6834SOL    HW121401   4.810   6.453   1.150
 6834SOL    HW221402   4.659   6.474   1.208
 6835SOL     OW21403   4.209   0.304   4.609
 6835SOL    HW121404   4.267   0.373   4.565
 6835SOL    HW221405   4.175   0.241   4.539
 6836SOL     OW21406   2.444   5.266   0.164
 6836SOL    HW121407   2.516   5.271   0.233
 6836SOL    HW221408   2.484   5.243   0.076
 6837SOL     OW21409   0.260   1.752   2.040
 6837SOL    HW121410   0.317   1.823   2.081
 6837SOL    HW221411   0.225   1.692   2.113
 6838SOL     OW21412   3.352   6.340   0.334
 6838SOL    HW121413   3.433   6.305   0.381
 6838SOL    HW221414   3.326   6.429   0.373
 6839SOL     OW21415   5.289   1.029   6.905
 6839SOL    HW121416   5.365   0.979   6.948
 6839SOL    HW221417   5.203   0.984   6.927
 6840SOL     OW21418   3.706   1.046   4.408
 6840SOL    HW121419   3.691   1.068   4.505
 6840SOL    HW221420   3.665   0.957   4.388
 6841SOL     OW21421   3.956   4.232   6.900
 6841SOL    HW121422   3.885   4.229   6.969
 6841SOL    HW221423   3.993   4.325   6.893
 6842SOL     OW21424   2.259   4.642   0.989
 6842SOL    HW121425   2.341   4.598   1.026
 6842SOL    HW221426   2.285   4.705   0.916
 6843SOL     OW21427   6.018   6.798   1.140
 6843SOL    HW121428   6.111   6.830   1.124
 6843SOL    HW221429   6.020   6.715   1.195
 6844SOL     OW21430   5.406   0.640   3.836
 6844SOL    HW121431   5.313   0.674   3.818
 6844SOL    HW221432   5.420   0.632   3.935
 6845SOL     OW21433   6.498   3.301   2.999
 6845SOL    HW121434   6.591   3.303   3.036
 6845SOL    HW221435   6.447   3.380   3.032
 6846SOL     OW21436   3.729   2.948   6.887
 6846SOL    HW121437   3.779   3.031   6.863
 6846SOL    HW221438   3.763   2.871   6.833
 6847SOL     OW21439   0.050   3.304   4.303
 6847SOL    HW121440   0.123   3.235   4.311
 6847SOL    HW221441   0.060   3.370   4.377
 6848SOL     OW21442   4.786   5.231   3.869
 6848SOL    HW121443   4.780   5.270   3.961
 6848SOL    HW221444   4.695   5.228   3.827
 6849SOL     OW21445   4.706   4.747   5.468
 6849SOL    HW121446   4.775   4.679   5.442
 6849SOL    HW221447   4.745   4.809   5.537
 6850SOL     OW21448   5.533   3.342   2.818
 6850SOL    HW121449   5.438   3.360   2.841
 6850SOL    HW221450   5.569   3.270   2.878
 6851SOL     OW21451   0.063   1.259   3.411
 6851SOL    HW121452   0.152   1.214   3.409
 6851SOL    HW221453   7.010   1.191   3.434
 6852SOL     OW21454   2.764   4.429   1.465
 6852SOL    HW121455   2.813   4.515   1.451
 6852SOL    HW221456   2.722   4.429   1.555
 6853SOL     OW21457   5.517   4.754   6.989
 6853SOL    HW121458   5.429   4.797   6.968
 6853SOL    HW221459   5.503   4.655   7.002
 6854SOL     OW21460   5.120   0.872   5.562
 6854SOL    HW121461   5.179   0.951   5.578
 6854SOL    HW221462   5.120   0.849   5.465
 6855SOL     OW21463   4.170   6.486   4.101
 6855SOL    HW121464   4.173   6.398   4.148
 6855SOL    HW221465   4.075   6.515   4.088
 6856SOL     OW21466   0.146   2.499   5.153
 6856SOL    HW121467   0.193   2.582   5.183
 6856SOL    HW221468   0.065   2.484   5.211
 6857SOL     OW21469   2.004   2.174   6.321
 6857SOL    HW121470   2.047   2.131   6.242
 6857SOL    HW221471   1.945   2.108   6.368
 6858SOL     OW21472   3.950   3.301   2.136
 6858SOL    HW121473   3.924   3.315   2.232
 6858SOL    HW221474   3.870   3.318   2.078
 6859SOL     OW21475   1.095   1.345   0.867
 6859SOL    HW121476   1.023   1.334   0.798
 6859SOL    HW221477   1.075   1.287   0.946
 6860SOL     OW21478   6.957   5.243   1.351
 6860SOL    HW121479   6.989   5.260   1.257
 6860SOL    HW221480   7.003   5.162   1.387
 6861SOL     OW21481   3.815   4.312   0.125
 6861SOL    HW121482   3.822   4.408   0.098
 6861SOL    HW221483   3.752   4.303   0.202
 6862SOL     OW21484   0.969   5.430   6.042
 6862SOL    HW121485   0.995   5.333   6.046
 6862SOL    HW221486   0.990   5.473   6.130
 6863SOL     OW21487   5.829   6.767   6.126
 6863SOL    HW121488   5.799   6.733   6.215
 6863SOL    HW221489   5.761   6.830   6.090
 6864SOL     OW21490   2.081   4.749   4.449
 6864SOL    HW121491   2.082   4.661   4.400
 6864SOL    HW221492   2.013   4.809   4.408
 6865SOL     OW21493   0.922   6.142   4.751
 6865SOL    HW121494   0.961   6.221   4.704
 6865SOL    HW221495   0.879   6.171   4.836
 6866SOL     OW21496   5.578   5.653   3.218
 6866SOL    HW121497   5.599   5.737   3.167
 6866SOL    HW221498   5.488   5.662   3.260
 6867SOL     OW21499   2.184   3.914   2.331
 6867SOL    HW121500   2.126   3.907   2.412
 6867SOL    HW221501   2.154   3.847   2.263
 6868SOL     OW21502   1.742   6.185   6.584
 6868SOL    HW121503   1.672   6.250   6.555
 6868SOL    HW221504   1.739   6.175   6.683
 6869SOL     OW21505   4.990   1.094   6.535
 6869SOL    HW121506   4.994   1.147   6.620
 6869SOL    HW221507   4.921   1.133   6.474
 6870SOL     OW21508   6.921   3.978   1.194
 6870SOL    HW121509   6.837   4.011   1.151
 6870SOL    HW221510   6.977   4.057   1.222
 6871SOL     OW21511   6.315   4.121   3.305
 6871SOL    HW121512   6.414   4.110   3.309
 6871SOL    HW221513   6.278   4.065   3.230
 6872SOL     OW21514   0.641   2.211   1.317
 6872SOL    HW121515   0.558   2.157   1.306
 6872SOL    HW221516   0.718   2.150   1.335
 6873SOL     OW21517   6.699   3.651   3.784
 6873SOL    HW121518   6.612   3.609   3.810
 6873SOL    HW221519   6.693   3.750   3.799
 6874SOL     OW21520   6.989   5.446   2.928
 6874SOL    HW121521   6.971   5.441   2.829
 6874SOL    HW221522   0.048   5.387   2.951
 6875SOL     OW21523   2.279   2.857   2.359
 6875SOL    HW121524   2.307   2.798   2.435
 6875SOL    HW221525   2.360   2.903   2.321
 6876SOL     OW21526   3.923   0.286   3.958
 6876SOL    HW121527   3.911   0.351   4.034
 6876SOL    HW221528   3.978   0.209   3.989
 6877SOL     OW21529   2.695   4.031   0.933
 6877SOL    HW121530   2.773   4.050   0.873
 6877SOL    HW221531   2.685   3.932   0.944
 6878SOL     OW21532   4.027   0.997   4.042
 6878SOL    HW121533   3.947   1.028   3.990
 6878SOL    HW221534   4.002   0.986   4.138
 6879SOL     OW21535   1.571   2.830   1.038
 6879SOL    HW121536   1.632   2.751   1.034
 6879SOL    HW221537   1.586   2.889   0.959
 6880SOL     OW21538   1.984   5.456   5.904
 6880SOL    HW121539   2.069   5.472   5.955
 6880SOL    HW221540   1.967   5.534   5.844
 6881SOL     OW21541   2.076   3.754   1.089
 6881SOL    HW121542   2.123   3.790   1.170
 6881SOL    HW221543   2.134   3.765   1.009
 6882SOL     OW21544   3.284   0.485   0.038
 6882SOL    HW121545   3.198   0.447   0.004
 6882SOL    HW221546   3.292   0.467   0.136
 6883SOL     OW21547   5.190   2.047   0.118
 6883SOL    HW121548   5.196   1.949   0.102
 6883SOL    HW221549   5.281   2.086   0.126
 6884SOL     OW21550   1.016   4.197   3.522
 6884SOL    HW121551   1.059   4.227   3.437
 6884SOL    HW221552   0.935   4.253   3.541
 6885SOL     OW21553   4.508   4.857   3.950
 6885SOL    HW121554   4.541   4.846   3.856
 6885SOL    HW221555   4.580   4.830   4.014
 6886SOL     OW21556   6.930   1.514   4.285
 6886SOL    HW121557   6.938   1.417   4.308
 6886SOL    HW221558   6.835   1.543   4.297
 6887SOL     OW21559   5.037   5.272   6.394
 6887SOL    HW121560   4.951   5.221   6.388
 6887SOL    HW221561   5.017   5.369   6.408
 6888SOL     OW21562   5.550   5.665   6.594
 6888SOL    HW121563   5.472   5.728   6.598
 6888SOL    HW221564   5.586   5.662   6.501
 6889SOL     OW21565   0.932   2.971   6.041
 6889SOL    HW121566   0.961   3.021   5.959
 6889SOL    HW221567   0.968   2.878   6.039
 6890SOL     OW21568   3.738   6.534   2.127
 6890SOL    HW121569   3.690   6.621   2.131
 6890SOL    HW221570   3.752   6.508   2.031
 6891SOL     OW21571   2.032   3.880   2.549
 6891SOL    HW121572   2.035   3.792   2.597
 6891SOL    HW221573   1.939   3.917   2.553
 6892SOL     OW21574   3.173   2.171   3.624
 6892SOL    HW121575   3.209   2.171   3.718
 6892SOL    HW221576   3.246   2.148   3.560
 6893SOL     OW21577   4.498   4.003   6.962
 6893SOL    HW121578   4.437   4.073   6.926
 6893SOL    HW221579   4.583   4.045   6.993
 6894SOL     OW21580   5.846   4.532   0.618
 6894SOL    HW121581   5.805   4.537   0.527
 6894SOL    HW221582   5.816   4.610   0.673
 6895SOL     OW21583   2.376   4.524   0.628
 6895SOL    HW121584   2.352   4.532   0.531
 6895SOL    HW221585   2.294   4.503   0.681
 6896SOL     OW21586   2.898   1.522   4.100
 6896SOL    HW121587   2.992   1.532   4.133
 6896SOL    HW221588   2.890   1.566   4.011
 6897SOL     OW21589   4.907   3.875   4.931
 6897SOL    HW121590   4.859   3.788   4.940
 6897SOL    HW221591   4.842   3.950   4.939
 6898SOL     OW21592   4.130   1.581   1.524
 6898SOL    HW121593   4.076   1.664   1.542
 6898SOL    HW221594   4.223   1.607   1.498
 6899SOL     OW21595   4.444   6.033   1.991
 6899SOL    HW121596   4.473   5.942   2.021
 6899SOL    HW221597   4.433   6.092   2.070
 6900SOL     OW21598   5.949   5.792   5.003
 6900SOL    HW121599   5.926   5.863   4.936
 6900SOL    HW221600   6.044   5.803   5.033
 6901SOL     OW21601   6.164   6.039   6.597
 6901SOL    HW121602   6.097   5.970   6.626
 6901SOL    HW221603   6.213   6.006   6.516
 6902SOL     OW21604   6.478   5.635   0.196
 6902SOL    HW121605   6.439   5.582   0.120
 6902SOL    HW221606   6.569   5.666   0.172
 6903SOL     OW21607   2.972   5.015   5.276
 6903SOL    HW121608   2.909   5.011   5.199
 6903SOL    HW221609   3.026   4.931   5.280
 6904SOL     OW21610   6.171   0.443   5.262
 6904SOL    HW121611   6.101   0.372   5.265
 6904SOL    HW221612   6.128   0.533   5.273
 6905SOL     OW21613   5.500   5.989   0.449
 6905SOL    HW121614   5.570   5.924   0.419
 6905SOL    HW221615   5.422   5.986   0.386
 6906SOL     OW21616   3.430   1.668   3.997
 6906SOL    HW121617   3.502   1.668   3.927
 6906SOL    HW221618   3.344   1.698   3.956
 6907SOL     OW21619   5.727   2.439   1.384
 6907SOL    HW121620   5.728   2.379   1.464
 6907SOL    HW221621   5.664   2.404   1.315
 6908SOL     OW21622   1.334   5.453   6.612
 6908SOL    HW121623   1.267   5.382   6.631
 6908SOL    HW221624   1.303   5.539   6.653
 6909SOL     OW21625   4.911   3.828   1.164
 6909SOL    HW121626   4.846   3.815   1.090
 6909SOL    HW221627   4.929   3.926   1.176
 6910SOL     OW21628   1.150   3.012   3.849
 6910SOL    HW121629   1.134   2.945   3.921
 6910SOL    HW221630   1.090   3.091   3.864
 6911SOL     OW21631   3.895   6.886   3.821
 6911SOL    HW121632   3.909   6.788   3.833
 6911SOL    HW221633   3.839   6.921   3.896
 6912SOL     OW21634   2.755   3.712   6.355
 6912SOL    HW121635   2.777   3.808   6.337
 6912SOL    HW221636   2.763   3.659   6.271
 6913SOL     OW21637   5.698   6.149   4.377
 6913SOL    HW121638   5.775   6.135   4.315
 6913SOL    HW221639   5.659   6.060   4.401
 6914SOL     OW21640   5.884   4.267   3.809
 6914SOL    HW121641   5.911   4.270   3.905
 6914SOL    HW221642   5.784   4.272   3.801
 6915SOL     OW21643   6.252   2.751   1.466
 6915SOL    HW121644   6.336   2.751   1.411
 6915SOL    HW221645   6.264   2.811   1.545
 6916SOL     OW21646   5.562   1.881   6.764
 6916SOL    HW121647   5.470   1.912   6.788
 6916SOL    HW221648   5.598   1.937   6.689
 6917SOL     OW21649   3.644   6.734   1.117
 6917SOL    HW121650   3.680   6.646   1.085
 6917SOL    HW221651   3.626   6.793   1.038
 6918SOL     OW21652   0.655   2.244   3.932
 6918SOL    HW121653   0.672   2.321   3.871
 6918SOL    HW221654   0.728   2.237   4.000
 6919SOL     OW21655   5.552   6.054   4.625
 6919SOL    HW121656   5.526   6.106   4.544
 6919SOL    HW221657   5.473   6.047   4.686
 6920SOL     OW21658   4.461   6.762   5.528
 6920SOL    HW121659   4.548   6.751   5.481
 6920SOL    HW221660   4.402   6.684   5.506
 6921SOL     OW21661   4.562   6.370   4.227
 6921SOL    HW121662   4.580   6.420   4.143
 6921SOL    HW221663   4.481   6.313   4.215
 6922SOL     OW21664   1.967   5.948   4.973
 6922SOL    HW121665   1.932   5.903   4.891
 6922SOL    HW221666   1.953   6.047   4.966
 6923SOL     OW21667   5.057   5.805   2.683
 6923SOL    HW121668   5.156   5.812   2.686
 6923SOL    HW221669   5.031   5.719   2.638
 6924SOL     OW21670   1.898   4.628   0.179
 6924SOL    HW121671   1.917   4.531   0.192
 6924SOL    HW221672   1.851   4.664   0.260
 6925SOL     OW21673   5.007   5.961   4.427
 6925SOL    HW121674   5.098   6.000   4.415
 6925SOL    HW221675   5.009   5.895   4.502
 6926SOL     OW21676   2.746   2.724   0.778
 6926SOL    HW121677   2.826   2.752   0.725
 6926SOL    HW221678   2.690   2.663   0.723
 6927SOL     OW21679   3.739   2.984   5.461
 6927SOL    HW121680   3.822   3.016   5.507
 6927SOL    HW221681   3.762   2.953   5.368
 6928SOL     OW21682   5.655   5.582   0.966
 6928SOL    HW121683   5.748   5.608   0.991
 6928SOL    HW221684   5.648   5.576   0.866
 6929SOL     OW21685   4.954   5.637   1.953
 6929SOL    HW121686   4.867   5.587   1.949
 6929SOL    HW221687   5.011   5.609   1.876
 6930SOL     OW21688   1.473   0.365   1.645
 6930SOL    HW121689   1.548   0.431   1.635
 6930SOL    HW221690   1.500   0.277   1.604
 6931SOL     OW21691   1.814   1.419   2.197
 6931SOL    HW121692   1.799   1.336   2.250
 6931SOL    HW221693   1.737   1.433   2.135
 6932SOL     OW21694   4.264   6.861   0.077
 6932SOL    HW121695   4.261   6.952   0.117
 6932SOL    HW221696   4.172   6.833   0.049
 6933SOL     OW21697   3.559   6.165   5.318
 6933SOL    HW121698   3.650   6.208   5.321
 6933SOL    HW221699   3.564   6.080   5.266
 6934SOL     OW21700   4.655   3.000   6.222
 6934SOL    HW121701   4.639   3.085   6.172
 6934SOL    HW221702   4.749   2.998   6.256
 6935SOL     OW21703   4.735   5.525   2.972
 6935SOL    HW121704   4.777   5.478   2.894
 6935SOL    HW221705   4.705   5.616   2.945
 6936SOL     OW21706   6.221   3.031   3.935
 6936SOL    HW121707   6.185   2.946   3.897
 6936SOL    HW221708   6.187   3.109   3.881
 6937SOL     OW21709   5.771   6.022   0.686
 6937SOL    HW121710   5.674   6.024   0.709
 6937SOL    HW221711   5.815   6.106   0.717
 6938SOL     OW21712   6.642   2.781   4.888
 6938SOL    HW121713   6.660   2.769   4.790
 6938SOL    HW221714   6.584   2.706   4.921
 6939SOL     OW21715   0.733   5.386   2.018
 6939SOL    HW121716   0.645   5.432   2.028
 6939SOL    HW221717   0.800   5.430   2.077
 6940SOL     OW21718   3.641   0.130   6.157
 6940SOL    HW121719   3.552   0.147   6.116
 6940SOL    HW221720   3.677   0.214   6.197
 6941SOL     OW21721   3.008   4.052   1.908
 6941SOL    HW121722   3.031   4.092   1.997
 6941SOL    HW221723   3.056   3.964   1.898
 6942SOL     OW21724   5.730   6.766   2.445
 6942SOL    HW121725   5.825   6.750   2.419
 6942SOL    HW221726   5.680   6.804   2.368
 6943SOL     OW21727   3.941   5.772   0.784
 6943SOL    HW121728   3.915   5.739   0.694
 6943SOL    HW221729   3.862   5.816   0.828
 6944SOL     OW21730   0.886   4.837   6.546
 6944SOL    HW121731   0.928   4.895   6.476
 6944SOL    HW221732   0.799   4.876   6.574
 6945SOL     OW21733   6.682   1.764   0.290
 6945SOL    HW121734   6.738   1.837   0.329
 6945SOL    HW221735   6.663   1.786   0.194
 6946SOL     OW21736   4.233   6.985   1.374
 6946SOL    HW121737   4.236   7.012   1.278
 6946SOL    HW221738   4.143   7.007   1.413
 6947SOL     OW21739   3.392   5.411   6.885
 6947SOL    HW121740   3.388   5.402   6.786
 6947SOL    HW221741   3.463   5.476   6.910
 6948SOL     OW21742   0.772   6.757   1.425
 6948SOL    HW121743   0.826   6.698   1.365
 6948SOL    HW221744   0.823   6.841   1.443
 6949SOL     OW21745   3.983   6.929   3.325
 6949SOL    HW121746   3.994   6.830   3.332
 6949SOL    HW221747   4.063   6.974   3.366
 6950SOL     OW21748   1.819   1.189   4.870
 6950SOL    HW121749   1.892   1.121   4.877
 6950SOL    HW221750   1.860   1.278   4.847
 6951SOL     OW21751   6.382   5.836   5.979
 6951SOL    HW121752   6.426   5.776   6.045
 6951SOL    HW221753   6.409   5.931   5.996
 6952SOL     OW21754   1.246   5.805   3.175
 6952SOL    HW121755   1.158   5.800   3.127
 6952SOL    HW221756   1.304   5.873   3.131
 6953SOL     OW21757   4.453   6.552   1.819
 6953SOL    HW121758   4.387   6.582   1.750
 6953SOL    HW221759   4.405   6.536   1.905
 6954SOL     OW21760   0.714   4.147   2.005
 6954SOL    HW121761   0.692   4.133   1.909
 6954SOL    HW221762   0.811   4.125   2.021
 6955SOL     OW21763   5.525   0.898   1.885
 6955SOL    HW121764   5.567   0.835   1.950
 6955SOL    HW221765   5.451   0.852   1.836
 6956SOL     OW21766   5.310   5.706   3.761
 6956SOL    HW121767   5.345   5.797   3.741
 6956SOL    HW221768   5.211   5.705   3.751
 6957SOL     OW21769   5.813   5.932   1.128
 6957SOL    HW121770   5.880   6.006   1.142
 6957SOL    HW221771   5.840   5.879   1.048
 6958SOL     OW21772   3.944   3.320   4.552
 6958SOL    HW121773   3.850   3.293   4.572
 6958SOL    HW221774   3.993   3.335   4.638
 6959SOL     OW21775   2.258   2.991   3.200
 6959SOL    HW121776   2.357   2.983   3.212
 6959SOL    HW221777   2.220   3.041   3.278
 6960SOL     OW21778   1.695   3.605   1.748
 6960SOL    HW121779   1.611   3.558   1.723
 6960SOL    HW221780   1.773   3.559   1.707
 6961SOL     OW21781   5.981   0.443   4.348
 6961SOL    HW121782   6.045   0.518   4.333
 6961SOL    HW221783   5.888   0.480   4.360
 6962SOL     OW21784   4.199   6.048   1.858
 6962SOL    HW121785   4.192   6.115   1.784
 6962SOL    HW221786   4.285   6.063   1.908
 6963SOL     OW21787   5.400   5.581   1.660
 6963SOL    HW121788   5.457   5.589   1.742
 6963SOL    HW221789   5.378   5.672   1.626
 6964SOL     OW21790   3.662   1.299   5.555
 6964SOL    HW121791   3.755   1.308   5.519
 6964SOL    HW221792   3.606   1.376   5.523
 6965SOL     OW21793   1.635   1.090   0.005
 6965SOL    HW121794   1.614   1.106   6.926
 6965SOL    HW221795   1.565   1.131   0.062
 6966SOL     OW21796   0.663   1.743   2.284
 6966SOL    HW121797   0.722   1.700   2.353
 6966SOL    HW221798   0.651   1.681   2.207
 6967SOL     OW21799   3.246   0.545   6.296
 6967SOL    HW121800   3.149   0.565   6.286
 6967SOL    HW221801   3.268   0.533   6.393
 6968SOL     OW21802   4.295   0.706   3.376
 6968SOL    HW121803   4.249   0.720   3.289
 6968SOL    HW221804   4.242   0.748   3.450
 6969SOL     OW21805   2.793   2.274   1.430
 6969SOL    HW121806   2.781   2.333   1.350
 6969SOL    HW221807   2.745   2.314   1.508
 6970SOL     OW21808   3.928   3.654   5.657
 6970SOL    HW121809   3.983   3.676   5.738
 6970SOL    HW221810   3.985   3.609   5.589
 6971SOL     OW21811   6.325   4.728   0.813
 6971SOL    HW121812   6.242   4.700   0.765
 6971SOL    HW221813   6.381   4.647   0.832
 6972SOL     OW21814   5.348   4.581   3.124
 6972SOL    HW121815   5.427   4.631   3.158
 6972SOL    HW221816   5.375   4.488   3.100
 6973SOL     OW21817   0.689   3.211   3.471
 6973SOL    HW121818   0.718   3.171   3.384
 6973SOL    HW221819   0.715   3.150   3.546
 6974SOL     OW21820   2.895   3.740   2.554
 6974SOL    HW121821   2.855   3.731   2.646
 6974SOL    HW221822   2.991   3.711   2.557
 6975SOL     OW21823   1.246   6.588   5.345
 6975SOL    HW121824   1.197   6.581   5.431
 6975SOL    HW221825   1.333   6.539   5.352
 6976SOL     OW21826   6.645   5.440   6.115
 6976SOL    HW121827   6.658   5.434   6.017
 6976SOL    HW221828   6.618   5.350   6.151
 6977SOL     OW21829   3.548   2.806   0.804
 6977SOL    HW121830   3.559   2.807   0.903
 6977SOL    HW221831   3.522   2.715   0.773
 6978SOL     OW21832   5.419   2.551   2.163
 6978SOL    HW121833   5.380   2.542   2.255
 6978SOL    HW221834   5.409   2.464   2.114
 6979SOL     OW21835   1.373   4.058   1.595
 6979SOL    HW121836   1.280   4.046   1.632
 6979SOL    HW221837   1.439   4.051   1.670
 6980SOL     OW21838   1.728   0.555   3.558
 6980SOL    HW121839   1.668   0.477   3.542
 6980SOL    HW221840   1.676   0.640   3.546
 6981SOL     OW21841   3.394   3.876   5.465
 6981SOL    HW121842   3.422   3.854   5.372
 6981SOL    HW221843   3.411   3.798   5.525
 6982SOL     OW21844   0.794   0.903   4.527
 6982SOL    HW121845   0.858   0.854   4.587
 6982SOL    HW221846   0.711   0.924   4.579
 6983SOL     OW21847   4.451   2.074   4.232
 6983SOL    HW121848   4.384   2.030   4.292
 6983SOL    HW221849   4.542   2.067   4.274
 6984SOL     OW21850   1.833   1.738   3.249
 6984SOL    HW121851   1.871   1.740   3.157
 6984SOL    HW221852   1.744   1.784   3.250
 6985SOL     OW21853   5.715   5.255   1.057
 6985SOL    HW121854   5.695   5.164   1.093
 6985SOL    HW221855   5.788   5.297   1.111
 6986SOL     OW21856   3.204   6.848   6.389
 6986SOL    HW121857   3.197   6.816   6.483
 6986SOL    HW221858   3.239   6.942   6.388
 6987SOL     OW21859   6.192   1.347   6.134
 6987SOL    HW121860   6.274   1.289   6.138
 6987SOL    HW221861   6.219   1.443   6.137
 6988SOL     OW21862   0.855   6.808   6.788
 6988SOL    HW121863   0.804   6.892   6.776
 6988SOL    HW221864   0.877   6.796   6.885
 6989SOL     OW21865   0.612   4.322   3.028
 6989SOL    HW121866   0.549   4.248   3.053
 6989SOL    HW221867   0.670   4.344   3.106
 6990SOL     OW21868   4.374   2.742   1.129
 6990SOL    HW121869   4.394   2.650   1.163
 6990SOL    HW221870   4.278   2.747   1.100
 6991SOL     OW21871   4.660   4.293   3.709
 6991SOL    HW121872   4.652   4.324   3.803
 6991SOL    HW221873   4.718   4.211   3.705
 6992SOL     OW21874   5.826   0.333   6.469
 6992SOL    HW121875   5.733   0.361   6.448
 6992SOL    HW221876   5.826   0.238   6.501
 6993SOL     OW21877   5.676   6.640   2.683
 6993SOL    HW121878   5.595   6.582   2.668
 6993SOL    HW221879   5.692   6.696   2.602
 6994SOL     OW21880   0.333   1.914   3.799
 6994SOL    HW121881   0.419   1.931   3.750
 6994SOL    HW221882   0.258   1.906   3.733
 6995SOL     OW21883   0.956   4.299   6.436
 6995SOL    HW121884   0.857   4.303   6.454
 6995SOL    HW221885   0.974   4.235   6.362
 6996SOL     OW21886   1.954   0.297   0.009
 6996SOL    HW121887   1.861   0.326   7.006
 6996SOL    HW221888   1.962   0.279   0.107
 6997SOL     OW21889   0.318   5.154   5.648
 6997SOL    HW121890   0.270   5.239   5.624
 6997SOL    HW221891   0.416   5.173   5.658
 6998SOL     OW21892   1.253   1.260   1.343
 6998SOL    HW121893   1.313   1.308   1.407
 6998SOL    HW221894   1.158   1.271   1.371
 6999SOL     OW21895   1.973   2.806   6.655
 6999SOL    HW121896   1.923   2.892   6.656
 6999SOL    HW221897   2.016   2.794   6.566
 7000SOL     OW21898   5.575   6.186   2.073
 7000SOL    HW121899   5.549   6.090   2.068
 7000SOL    HW221900   5.500   6.239   2.115
 7001SOL     OW21901   1.582   3.634   5.508
 7001SOL    HW121902   1.650   3.581   5.457
 7001SOL    HW221903   1.576   3.726   5.469
 7002SOL     OW21904   1.652   5.546   4.446
 7002SOL    HW121905   1.687   5.596   4.525
 7002SOL    HW221906   1.720   5.481   4.414
 7003SOL     OW21907   4.485   5.671   1.092
 7003SOL    HW121908   4.562   5.704   1.038
 7003SOL    HW221909   4.412   5.739   1.092
 7004SOL     OW21910   0.666   5.534   1.299
 7004SOL    HW121911   0.729   5.563   1.227
 7004SOL    HW221912   0.583   5.590   1.295
 7005SOL     OW21913   1.114   0.295   0.939
 7005SOL    HW121914   1.130   0.359   0.864
 7005SOL    HW221915   1.020   0.262   0.935
 7006SOL     OW21916   5.463   5.387   4.004
 7006SOL    HW121917   5.490   5.353   4.094
 7006SOL    HW221918   5.421   5.312   3.952
 7007SOL     OW21919   4.203   0.752   4.286
 7007SOL    HW121920   4.221   0.850   4.291
 7007SOL    HW221921   4.169   0.729   4.195
 7008SOL     OW21922   0.429   4.330   4.431
 7008SOL    HW121923   0.399   4.421   4.459
 7008SOL    HW221924   0.353   4.280   4.390
 7009SOL     OW21925   4.026   6.643   2.589
 7009SOL    HW121926   4.010   6.688   2.676
 7009SOL    HW221927   3.945   6.592   2.562
 7010SOL     OW21928   5.478   4.255   3.707
 7010SOL    HW121929   5.528   4.330   3.750
 7010SOL    HW221930   5.500   4.170   3.755
 7011SOL     OW21931   3.239   6.364   6.297
 7011SOL    HW121932   3.252   6.289   6.232
 7011SOL    HW221933   3.234   6.451   6.247
 7012SOL     OW21934   1.250   1.979   1.109
 7012SOL    HW121935   1.321   2.048   1.123
 7012SOL    HW221936   1.244   1.956   1.012
 7013SOL     OW21937   0.963   6.493   7.007
 7013SOL    HW121938   0.993   6.455   0.076
 7013SOL    HW221939   0.893   6.434   6.967
 7014SOL     OW21940   4.737   3.390   0.799
 7014SOL    HW121941   4.717   3.315   0.862
 7014SOL    HW221942   4.785   3.354   0.719
 7015SOL     OW21943   5.603   4.171   1.360
 7015SOL    HW121944   5.654   4.085   1.351
 7015SOL    HW221945   5.660   4.240   1.403
 7016SOL     OW21946   3.669   4.981   1.100
 7016SOL    HW121947   3.766   5.002   1.088
 7016SOL    HW221948   3.653   4.955   1.195
 7017SOL     OW21949   3.024   5.314   3.453
 7017SOL    HW121950   2.960   5.237   3.444
 7017SOL    HW221951   3.049   5.347   3.362
 7018SOL     OW21952   5.203   3.604   3.998
 7018SOL    HW121953   5.111   3.577   4.027
 7018SOL    HW221954   5.241   3.533   3.938
 7019SOL     OW21955   3.818   5.044   0.460
 7019SOL    HW121956   3.778   5.124   0.415
 7019SOL    HW221957   3.858   4.983   0.391
 7020SOL     OW21958   6.405   4.235   5.488
 7020SOL    HW121959   6.340   4.185   5.546
 7020SOL    HW221960   6.437   4.316   5.537
 7021SOL     OW21961   1.759   2.441   5.126
 7021SOL    HW121962   1.806   2.369   5.074
 7021SOL    HW221963   1.825   2.487   5.185
 7022SOL     OW21964   4.508   0.349   6.419
 7022SOL    HW121965   4.480   0.444   6.409
 7022SOL    HW221966   4.592   0.344   6.475
 7023SOL     OW21967   1.443   2.919   2.864
 7023SOL    HW121968   1.489   3.007   2.853
 7023SOL    HW221969   1.505   2.846   2.836
 7024SOL     OW21970   3.287   3.604   4.281
 7024SOL    HW121971   3.249   3.529   4.227
 7024SOL    HW221972   3.380   3.624   4.250
 7025SOL     OW21973   3.902   0.984   0.967
 7025SOL    HW121974   3.888   0.889   0.940
 7025SOL    HW221975   3.862   1.045   0.899
 7026SOL     OW21976   3.639   1.981   2.030
 7026SOL    HW121977   3.669   2.070   1.995
 7026SOL    HW221978   3.703   1.910   2.001
 7027SOL     OW21979   2.604   5.809   4.349
 7027SOL    HW121980   2.557   5.895   4.368
 7027SOL    HW221981   2.624   5.762   4.435
 7028SOL     OW21982   4.074   1.090   2.948
 7028SOL    HW121983   4.071   1.118   3.043
 7028SOL    HW221984   4.169   1.079   2.919
 7029SOL     OW21985   4.128   4.456   5.323
 7029SOL    HW121986   4.196   4.464   5.250
 7029SOL    HW221987   4.172   4.469   5.411
 7030SOL     OW21988   0.315   1.044   5.272
 7030SOL    HW121989   0.250   1.120   5.279
 7030SOL    HW221990   0.379   1.062   5.197
 7031SOL     OW21991   3.582   6.186   6.935
 7031SOL    HW121992   3.591   6.152   0.011
 7031SOL    HW221993   3.672   6.183   6.890
 7032SOL     OW21994   4.505   1.165   3.897
 7032SOL    HW121995   4.534   1.257   3.870
 7032SOL    HW221996   4.442   1.171   3.974
 7033SOL     OW21997   1.487   2.220   3.515
 7033SOL    HW121998   1.478   2.316   3.489
 7033SOL    HW221999   1.457   2.209   3.610
 7034SOL     OW22000   6.941   1.634   2.748
 7034SOL    HW122001   6.877   1.634   2.825
 7034SOL    HW222002   0.017   1.628   2.783
 7035SOL     OW22003   1.381   0.377   0.539
 7035SOL    HW122004   1.443   0.408   0.611
 7035SOL    HW222005   1.377   0.277   0.540
 7036SOL     OW22006   6.861   1.279   2.024
 7036SOL    HW122007   6.942   1.299   2.079
 7036SOL    HW222008   6.833   1.362   1.976
 7037SOL     OW22009   0.780   1.205   6.649
 7037SOL    HW122010   0.806   1.118   6.692
 7037SOL    HW222011   0.861   1.251   6.614
 7038SOL     OW22012   2.266   4.264   4.845
 7038SOL    HW122013   2.321   4.346   4.853
 7038SOL    HW222014   2.300   4.194   4.908
 7039SOL     OW22015   0.615   6.175   2.806
 7039SOL    HW122016   0.519   6.158   2.786
 7039SOL    HW222017   0.629   6.272   2.822
 7040SOL     OW22018   5.627   2.766   5.761
 7040SOL    HW122019   5.570   2.823   5.821
 7040SOL    HW222020   5.721   2.798   5.764
 7041SOL     OW22021   6.635   1.796   1.972
 7041SOL    HW122022   6.649   1.826   2.066
 7041SOL    HW222023   6.537   1.797   1.950
 7042SOL     OW22024   4.213   5.906   4.406
 7042SOL    HW122025   4.275   5.909   4.327
 7042SOL    HW222026   4.230   5.823   4.459
 7043SOL     OW22027   2.337   4.300   3.527
 7043SOL    HW122028   2.414   4.284   3.588
 7043SOL    HW222029   2.370   4.338   3.440
 7044SOL     OW22030   5.594   5.367   5.588
 7044SOL    HW122031   5.621   5.461   5.605
 7044SOL    HW222032   5.507   5.348   5.635
 7045SOL     OW22033   5.505   5.274   2.579
 7045SOL    HW122034   5.437   5.227   2.636
 7045SOL    HW222035   5.579   5.210   2.557
 7046SOL     OW22036   3.297   1.642   3.168
 7046SOL    HW122037   3.329   1.734   3.142
 7046SOL    HW222038   3.371   1.593   3.213
 7047SOL     OW22039   6.777   0.814   1.877
 7047SOL    HW122040   6.854   0.767   1.834
 7047SOL    HW222041   6.782   0.801   1.976
 7048SOL     OW22042   5.926   6.501   4.470
 7048SOL    HW122043   5.853   6.562   4.499
 7048SOL    HW222044   5.930   6.498   4.370
 7049SOL     OW22045   4.169   1.885   1.301
 7049SOL    HW122046   4.073   1.913   1.294
 7049SOL    HW222047   4.193   1.828   1.222
 7050SOL     OW22048   4.126   3.409   1.476
 7050SOL    HW122049   4.182   3.487   1.447
 7050SOL    HW222050   4.120   3.407   1.576
 7051SOL     OW22051   0.022   6.216   1.533
 7051SOL    HW122052   6.989   6.150   1.588
 7051SOL    HW222053   0.098   6.170   1.488
 7052SOL     OW22054   6.605   0.842   3.972
 7052SOL    HW122055   6.577   0.759   3.923
 7052SOL    HW222056   6.697   0.868   3.944
 7053SOL     OW22057   1.822   3.551   4.533
 7053SOL    HW122058   1.812   3.540   4.434
 7053SOL    HW222059   1.916   3.527   4.559
 7054SOL     OW22060   6.951   6.685   1.116
 7054SOL    HW122061   6.877   6.619   1.133
 7054SOL    HW222062   6.942   6.722   1.024
 7055SOL     OW22063   3.232   0.167   0.129
 7055SOL    HW122064   3.251   0.247   0.187
 7055SOL    HW222065   3.133   0.151   0.128
 7056SOL     OW22066   6.402   4.782   1.505
 7056SOL    HW122067   6.426   4.879   1.508
 7056SOL    HW222068   6.462   4.731   1.567
 7057SOL     OW22069   2.978   5.080   3.805
 7057SOL    HW122070   2.914   5.013   3.841
 7057SOL    HW222071   3.023   5.044   3.724
 7058SOL     OW22072   5.448   2.666   6.010
 7058SOL    HW122073   5.440   2.566   6.016
 7058SOL    HW222074   5.489   2.701   6.094
 7059SOL     OW22075   0.882   0.821   3.997
 7059SOL    HW122076   0.862   0.882   4.073
 7059SOL    HW222077   0.980   0.798   3.998
 7060SOL     OW22078   3.345   0.490   0.566
 7060SOL    HW122079   3.430   0.541   0.554
 7060SOL    HW222080   3.292   0.530   0.641
 7061SOL     OW22081   0.322   2.746   3.583
 7061SOL    HW122082   0.247   2.811   3.594
 7061SOL    HW222083   0.397   2.771   3.644
 7062SOL     OW22084   3.487   2.060   5.031
 7062SOL    HW122085   3.479   2.139   5.091
 7062SOL    HW222086   3.396   2.031   5.001
 7063SOL     OW22087   1.532   6.611   1.949
 7063SOL    HW122088   1.448   6.649   1.988
 7063SOL    HW222089   1.608   6.675   1.963
 7064SOL     OW22090   4.248   2.291   6.722
 7064SOL    HW122091   4.176   2.234   6.760
 7064SOL    HW222092   4.283   2.248   6.638
 7065SOL     OW22093   3.310   3.891   5.194
 7065SOL    HW122094   3.327   3.807   5.142
 7065SOL    HW222095   3.364   3.966   5.156
 7066SOL     OW22096   3.883   0.130   6.004
 7066SOL    HW122097   3.819   0.112   6.079
 7066SOL    HW222098   3.937   0.048   5.986
 7067SOL     OW22099   0.812   3.219   5.629
 7067SOL    HW122100   0.903   3.194   5.598
 7067SOL    HW222101   0.789   3.311   5.597
 7068SOL     OW22102   5.868   4.199   5.301
 7068SOL    HW122103   5.929   4.206   5.222
 7068SOL    HW222104   5.875   4.107   5.341
 7069SOL     OW22105   5.952   1.375   5.382
 7069SOL    HW122106   5.921   1.291   5.336
 7069SOL    HW222107   6.040   1.358   5.426
 7070SOL     OW22108   0.998   6.544   4.129
 7070SOL    HW122109   0.911   6.569   4.173
 7070SOL    HW222110   1.026   6.616   4.066
 7071SOL     OW22111   3.672   6.017   0.217
 7071SOL    HW122112   3.626   6.065   0.292
 7071SOL    HW222113   3.630   5.926   0.205
 7072SOL     OW22114   1.770   5.189   0.110
 7072SOL    HW122115   1.811   5.200   0.020
 7072SOL    HW222116   1.699   5.259   0.123
 7073SOL     OW22117   4.457   0.069   3.516
 7073SOL    HW122118   4.433   6.991   3.499
 7073SOL    HW222119   4.494   0.110   3.433
 7074SOL     OW22120   6.047   3.183   2.368
 7074SOL    HW122121   6.087   3.255   2.425
 7074SOL    HW222122   6.047   3.211   2.273
 7075SOL     OW22123   1.986   4.490   4.592
 7075SOL    HW122124   2.074   4.489   4.546
 7075SOL    HW222125   1.943   4.580   4.582
 7076SOL     OW22126   5.509   3.560   0.129
 7076SOL    HW122127   5.599   3.563   0.173
 7076SOL    HW222128   5.473   3.652   0.120
 7077SOL     OW22129   2.165   3.846   3.384
 7077SOL    HW122130   2.258   3.847   3.347
 7077SOL    HW222131   2.100   3.830   3.309
 7078SOL     OW22132   6.480   6.094   1.164
 7078SOL    HW122133   6.495   5.997   1.146
 7078SOL    HW222134   6.567   6.143   1.157
 7079SOL     OW22135   0.767   6.364   3.892
 7079SOL    HW122136   0.701   6.360   3.817
 7079SOL    HW222137   0.737   6.433   3.959
 7080SOL     OW22138   3.446   1.355   4.041
 7080SOL    HW122139   3.470   1.451   4.050
 7080SOL    HW222140   3.529   1.300   4.033
 7081SOL     OW22141   1.146   5.615   0.347
 7081SOL    HW122142   1.230   5.642   0.299
 7081SOL    HW222143   1.158   5.524   0.387
 7082SOL     OW22144   6.941   4.200   0.550
 7082SOL    HW122145   0.022   4.208   0.539
 7082SOL    HW222146   6.898   4.289   0.532
 7083SOL     OW22147   0.293   1.409   1.901
 7083SOL    HW122148   0.312   1.503   1.873
 7083SOL    HW222149   0.207   1.379   1.859
 7084SOL     OW22150   1.259   5.353   5.601
 7084SOL    HW122151   1.167   5.393   5.603
 7084SOL    HW222152   1.290   5.347   5.506
 7085SOL     OW22153   0.083   2.043   2.324
 7085SOL    HW122154   0.133   2.115   2.371
 7085SOL    HW222155   0.006   2.014   2.381
 7086SOL     OW22156   5.371   0.833   5.974
 7086SOL    HW122157   5.443   0.832   5.905
 7086SOL    HW222158   5.284   0.808   5.932
 7087SOL     OW22159   5.842   4.391   2.595
 7087SOL    HW122160   5.920   4.400   2.655
 7087SOL    HW222161   5.788   4.311   2.621
 7088SOL     OW22162   5.077   2.671   5.103
 7088SOL    HW122163   5.116   2.762   5.091
 7088SOL    HW222164   5.128   2.622   5.174
 7089SOL     OW22165   2.172   3.128   3.446
 7089SOL    HW122166   2.163   3.044   3.500
 7089SOL    HW222167   2.216   3.199   3.501
 7090SOL     OW22168   2.389   1.636   0.317
 7090SOL    HW122169   2.445   1.564   0.357
 7090SOL    HW222170   2.448   1.701   0.269
 7091SOL     OW22171   0.700   1.312   1.047
 7091SOL    HW122172   0.690   1.264   0.960
 7091SOL    HW222173   0.676   1.251   1.122
 7092SOL     OW22174   3.981   3.072   5.509
 7092SOL    HW122175   4.028   2.989   5.480
 7092SOL    HW222176   3.990   3.142   5.438
 7093SOL     OW22177   3.426   4.083   1.789
 7093SOL    HW122178   3.368   4.037   1.856
 7093SOL    HW222179   3.494   4.018   1.753
 7094SOL     OW22180   0.322   6.662   5.817
 7094SOL    HW122181   0.326   6.645   5.915
 7094SOL    HW222182   0.407   6.706   5.787
 7095SOL     OW22183   2.624   4.995   5.964
 7095SOL    HW122184   2.531   4.980   5.932
 7095SOL    HW222185   2.688   4.946   5.904
 7096SOL     OW22186   6.383   6.791   1.651
 7096SOL    HW122187   6.415   6.836   1.568
 7096SOL    HW222188   6.283   6.791   1.652
 7097SOL     OW22189   5.246   1.061   1.992
 7097SOL    HW122190   5.312   1.058   2.066
 7097SOL    HW222191   5.175   0.993   2.008
 7098SOL     OW22192   1.517   5.373   5.685
 7098SOL    HW122193   1.432   5.355   5.636
 7098SOL    HW222194   1.500   5.372   5.784
 7099SOL     OW22195   3.704   2.115   4.396
 7099SOL    HW122196   3.793   2.080   4.367
 7099SOL    HW222197   3.714   2.167   4.481
 7100SOL     OW22198   5.753   2.895   0.331
 7100SOL    HW122199   5.725   2.905   0.426
 7100SOL    HW222200   5.751   2.799   0.304
 7101SOL     OW22201   2.587   0.880   4.962
 7101SOL    HW122202   2.612   0.881   5.059
 7101SOL    HW222203   2.536   0.797   4.942
 7102SOL     OW22204   5.701   6.980   0.589
 7102SOL    HW122205   5.684   7.015   0.681
 7102SOL    HW222206   5.628   6.916   0.564
 7103SOL     OW22207   5.710   4.922   1.738
 7103SOL    HW122208   5.696   5.009   1.787
 7103SOL    HW222209   5.783   4.933   1.671
 7104SOL     OW22210   6.614   3.717   2.647
 7104SOL    HW122211   6.632   3.645   2.714
 7104SOL    HW222212   6.535   3.771   2.677
 7105SOL     OW22213   3.251   3.394   4.560
 7105SOL    HW122214   3.255   3.486   4.523
 7105SOL    HW222215   3.324   3.339   4.521
 7106SOL     OW22216   3.489   3.232   1.545
 7106SOL    HW122217   3.472   3.211   1.641
 7106SOL    HW222218   3.405   3.220   1.492
 7107SOL     OW22219   4.702   0.153   0.587
 7107SOL    HW122220   4.767   0.092   0.542
 7107SOL    HW222221   4.749   0.203   0.660
 7108SOL     OW22222   2.457   5.725   2.990
 7108SOL    HW122223   2.532   5.742   2.927
 7108SOL    HW222224   2.494   5.707   3.081
 7109SOL     OW22225   1.898   0.402   6.505
 7109SOL    HW122226   1.976   0.405   6.443
 7109SOL    HW222227   1.882   0.307   6.534
 7110SOL     OW22228   3.253   5.899   4.170
 7110SOL    HW122229   3.176   5.866   4.115
 7110SOL    HW222230   3.236   5.878   4.266
 7111SOL     OW22231   1.925   2.082   4.472
 7111SOL    HW122232   1.933   2.056   4.376
 7111SOL    HW222233   1.988   2.027   4.527
 7112SOL     OW22234   2.242   5.082   4.548
 7112SOL    HW122235   2.206   5.020   4.617
 7112SOL    HW222236   2.324   5.127   4.582
 7113SOL     OW22237   3.432   3.995   4.641
 7113SOL    HW122238   3.454   3.899   4.660
 7113SOL    HW222239   3.334   4.009   4.652
 7114SOL     OW22240   4.682   5.372   1.235
 7114SOL    HW122241   4.632   5.448   1.278
 7114SOL    HW222242   4.630   5.287   1.247
 7115SOL     OW22243   5.042   3.268   6.809
 7115SOL    HW122244   5.028   3.224   6.720
 7115SOL    HW222245   5.018   3.203   6.882
 7116SOL     OW22246   5.102   4.625   3.263
 7116SOL    HW122247   5.098   4.579   3.352
 7116SOL    HW222248   5.178   4.589   3.210
 7117SOL     OW22249   0.234   0.049   4.747
 7117SOL    HW122250   0.328   0.042   4.713
 7117SOL    HW222251   0.235   0.071   4.845
 7118SOL     OW22252   3.741   4.336   6.071
 7118SOL    HW122253   3.781   4.422   6.040
 7118SOL    HW222254   3.719   4.279   5.992
 7119SOL     OW22255   5.152   0.914   4.936
 7119SOL    HW122256   5.116   0.984   4.998
 7119SOL    HW222257   5.101   0.917   4.850
 7120SOL     OW22258   3.703   1.683   1.153
 7120SOL    HW122259   3.778   1.643   1.205
 7120SOL    HW222260   3.715   1.782   1.148
 7121SOL     OW22261   0.689   6.816   3.024
 7121SOL    HW122262   0.699   6.845   2.929
 7121SOL    HW222263   0.691   6.896   3.083
 7122SOL     OW22264   1.745   0.475   5.671
 7122SOL    HW122265   1.758   0.549   5.604
 7122SOL    HW222266   1.790   0.499   5.757
 7123SOL     OW22267   0.802   4.972   3.898
 7123SOL    HW122268   0.711   4.936   3.919
 7123SOL    HW222269   0.794   5.062   3.855
 7124SOL     OW22270   0.920   2.524   1.276
 7124SOL    HW122271   0.883   2.615   1.257
 7124SOL    HW222272   0.879   2.488   1.359
 7125SOL     OW22273   0.700   1.185   0.793
 7125SOL    HW122274   0.686   1.090   0.766
 7125SOL    HW222275   0.787   1.217   0.755
 7126SOL     OW22276   4.197   5.773   0.390
 7126SOL    HW122277   4.242   5.725   0.314
 7126SOL    HW222278   4.259   5.776   0.468
 7127SOL     OW22279   2.682   5.858   6.467
 7127SOL    HW122280   2.635   5.942   6.437
 7127SOL    HW222281   2.770   5.851   6.421
 7128SOL     OW22282   3.655   4.205   6.720
 7128SOL    HW122283   3.611   4.242   6.639
 7128SOL    HW222284   3.748   4.241   6.728
 7129SOL     OW22285   1.821   1.483   1.112
 7129SOL    HW122286   1.790   1.572   1.078
 7129SOL    HW222287   1.857   1.493   1.205
 7130SOL     OW22288   3.466   6.577   4.460
 7130SOL    HW122289   3.403   6.543   4.391
 7130SOL    HW222290   3.443   6.537   4.549
 7131SOL     OW22291   3.334   0.908   1.674
 7131SOL    HW122292   3.336   1.001   1.638
 7131SOL    HW222293   3.330   0.912   1.774
 7132SOL     OW22294   4.206   4.127   0.498
 7132SOL    HW122295   4.120   4.080   0.476
 7132SOL    HW222296   4.283   4.068   0.476
 7133SOL     OW22297   4.043   4.825   5.205
 7133SOL    HW122298   4.009   4.766   5.278
 7133SOL    HW222299   4.125   4.872   5.236
 7134SOL     OW22300   5.640   6.832   2.199
 7134SOL    HW122301   5.692   6.914   2.173
 7134SOL    HW222302   5.640   6.768   2.122
 7135SOL     OW22303   2.491   2.567   3.238
 7135SOL    HW122304   2.563   2.530   3.180
 7135SOL    HW222305   2.524   2.576   3.331
 7136SOL     OW22306   3.236   1.741   0.786
 7136SOL    HW122307   3.226   1.673   0.713
 7136SOL    HW222308   3.187   1.709   0.868
 7137SOL     OW22309   2.903   2.020   0.344
 7137SOL    HW122310   2.843   2.037   0.266
 7137SOL    HW222311   2.892   2.093   0.411
 7138SOL     OW22312   1.799   1.344   0.772
 7138SOL    HW122313   1.701   1.331   0.789
 7138SOL    HW222314   1.851   1.298   0.844
 7139SOL     OW22315   5.006   4.905   2.714
 7139SOL    HW122316   4.995   4.888   2.812
 7139SOL    HW222317   4.956   4.836   2.662
 7140SOL     OW22318   6.254   4.032   0.825
 7140SOL    HW122319   6.351   4.009   0.834
 7140SOL    HW222320   6.199   3.950   0.843
 7141SOL     OW22321   4.127   0.275   1.054
 7141SOL    HW122322   4.142   0.181   1.024
 7141SOL    HW222323   4.056   0.277   1.124
 7142SOL     OW22324   4.028   0.073   4.099
 7142SOL    HW122325   4.075   7.013   4.141
 7142SOL    HW222326   3.936   0.046   4.072
 7143SOL     OW22327   1.758   3.627   6.619
 7143SOL    HW122328   1.667   3.609   6.658
 7143SOL    HW222329   1.823   3.559   6.651
 7144SOL     OW22330   0.893   0.992   2.904
 7144SOL    HW122331   0.880   1.011   2.807
 7144SOL    HW222332   0.985   0.955   2.919
 7145SOL     OW22333   4.458   0.618   6.483
 7145SOL    HW122334   4.519   0.658   6.415
 7145SOL    HW222335   4.404   0.691   6.526
 7146SOL     OW22336   1.717   0.929   6.223
 7146SOL    HW122337   1.706   0.949   6.125
 7146SOL    HW222338   1.641   0.969   6.274
 7147SOL     OW22339   6.710   6.160   3.364
 7147SOL    HW122340   6.783   6.189   3.425
 7147SOL    HW222341   6.628   6.216   3.380
 7148SOL     OW22342   5.951   6.089   2.059
 7148SOL    HW122343   5.899   6.049   2.135
 7148SOL    HW222344   5.983   6.016   1.999
 7149SOL     OW22345   0.526   4.876   3.904
 7149SOL    HW122346   0.489   4.791   3.864
 7149SOL    HW222347   0.484   4.955   3.859
 7150SOL     OW22348   3.408   3.229   0.061
 7150SOL    HW122349   3.494   3.268   0.030
 7150SOL    HW222350   3.390   3.144   0.012
 7151SOL     OW22351   2.962   6.751   0.957
 7151SOL    HW122352   2.931   6.657   0.947
 7151SOL    HW222353   2.884   6.810   0.979
 7152SOL     OW22354   6.668   0.427   6.359
 7152SOL    HW122355   6.592   0.471   6.310
 7152SOL    HW222356   6.709   0.356   6.302
 7153SOL     OW22357   3.709   5.225   1.926
 7153SOL    HW122358   3.729   5.139   1.880
 7153SOL    HW222359   3.648   5.280   1.868
 7154SOL     OW22360   4.276   6.629   2.986
 7154SOL    HW122361   4.204   6.676   2.935
 7154SOL    HW222362   4.302   6.684   3.065
 7155SOL     OW22363   3.583   3.505   1.647
 7155SOL    HW122364   3.599   3.541   1.555
 7155SOL    HW222365   3.535   3.418   1.641
 7156SOL     OW22366   5.156   3.701   2.679
 7156SOL    HW122367   5.084   3.767   2.657
 7156SOL    HW222368   5.126   3.609   2.652
 7157SOL     OW22369   6.724   4.751   2.040
 7157SOL    HW122370   6.700   4.771   2.135
 7157SOL    HW222371   6.823   4.751   2.029
 7158SOL     OW22372   0.894   6.943   2.797
 7158SOL    HW122373   0.830   7.016   2.773
 7158SOL    HW222374   0.909   6.942   2.896
 7159SOL     OW22375   1.322   4.807   4.245
 7159SOL    HW122376   1.383   4.783   4.320
 7159SOL    HW222377   1.277   4.724   4.210
 7160SOL     OW22378   6.211   6.095   2.414
 7160SOL    HW122379   6.292   6.138   2.374
 7160SOL    HW222380   6.239   6.038   2.491
 7161SOL     OW22381   3.183   4.018   2.562
 7161SOL    HW122382   3.250   3.951   2.594
 7161SOL    HW222383   3.108   3.971   2.515
 7162SOL     OW22384   0.783   5.153   6.409
 7162SOL    HW122385   0.696   5.135   6.455
 7162SOL    HW222386   0.793   5.092   6.331
 7163SOL     OW22387   3.236   0.677   2.591
 7163SOL    HW122388   3.286   0.598   2.557
 7163SOL    HW222389   3.290   0.724   2.661
 7164SOL     OW22390   2.414   0.319   4.987
 7164SOL    HW122391   2.461   0.356   4.907
 7164SOL    HW222392   2.473   0.254   5.034
 7165SOL     OW22393   5.548   5.912   2.047
 7165SOL    HW122394   5.632   5.880   2.003
 7165SOL    HW222395   5.469   5.872   2.002
 7166SOL     OW22396   5.537   1.676   0.194
 7166SOL    HW122397   5.635   1.690   0.185
 7166SOL    HW222398   5.501   1.733   0.268
 7167SOL     OW22399   4.965   3.000   4.852
 7167SOL    HW122400   4.988   3.037   4.942
 7167SOL    HW222401   4.949   3.076   4.788
 7168SOL     OW22402   2.872   2.269   3.111
 7168SOL    HW122403   2.942   2.232   3.050
 7168SOL    HW222404   2.814   2.194   3.144
 7169SOL     OW22405   6.910   4.201   4.866
 7169SOL    HW122406   6.871   4.140   4.798
 7169SOL    HW222407   6.937   4.287   4.822
 7170SOL     OW22408   4.457   0.091   2.486
 7170SOL    HW122409   4.455   0.186   2.518
 7170SOL    HW222410   4.453   0.089   2.386
 7171SOL     OW22411   5.848   3.501   0.738
 7171SOL    HW122412   5.887   3.418   0.699
 7171SOL    HW222413   5.766   3.478   0.791
 7172SOL     OW22414   2.151   1.242   5.439
 7172SOL    HW122415   2.190   1.273   5.526
 7172SOL    HW222416   2.223   1.239   5.369
 7173SOL     OW22417   6.041   4.987   6.186
 7173SOL    HW122418   6.087   4.915   6.133
 7173SOL    HW222419   6.110   5.051   6.221
 7174SOL     OW22420   0.097   4.896   0.907
 7174SOL    HW122421   0.167   4.964   0.929
 7174SOL    HW222422   0.139   4.822   0.853
 7175SOL     OW22423   0.012   3.328   5.069
 7175SOL    HW122424   6.941   3.370   5.085
 7175SOL    HW222425   0.067   3.334   5.152
 7176SOL     OW22426   0.064   1.729   4.179
 7176SOL    HW122427   0.007   1.784   4.117
 7176SOL    HW222428   0.010   1.651   4.212
 7177SOL     OW22429   1.433   4.514   5.775
 7177SOL    HW122430   1.529   4.494   5.796
 7177SOL    HW222431   1.425   4.609   5.746
 7178SOL     OW22432   0.261   1.574   6.209
 7178SOL    HW122433   0.286   1.627   6.291
 7178SOL    HW222434   0.339   1.518   6.181
 7179SOL     OW22435   1.445   3.844   4.663
 7179SOL    HW122436   1.456   3.896   4.748
 7179SOL    HW222437   1.444   3.746   4.684
 7180SOL     OW22438   2.407   4.127   0.413
 7180SOL    HW122439   2.478   4.132   0.342
 7180SOL    HW222440   2.321   4.100   0.372
 7181SOL     OW22441   2.355   0.457   0.101
 7181SOL    HW122442   2.308   0.539   0.133
 7181SOL    HW222443   2.359   0.390   0.175
 7182SOL     OW22444   0.675   3.632   3.517
 7182SOL    HW122445   0.739   3.566   3.479
 7182SOL    HW222446   0.653   3.607   3.611
 7183SOL     OW22447   1.796   5.981   1.931
 7183SOL    HW122448   1.811   5.898   1.983
 7183SOL    HW222449   1.698   6.002   1.930
 7184SOL     OW22450   6.835   0.951   3.768
 7184SOL    HW122451   6.845   0.983   3.862
 7184SOL    HW222452   6.769   1.009   3.720
 7185SOL     OW22453   5.576   0.913   5.432
 7185SOL    HW122454   5.517   0.987   5.400
 7185SOL    HW222455   5.542   0.826   5.396
 7186SOL     OW22456   6.917   1.564   1.395
 7186SOL    HW122457   6.925   1.554   1.494
 7186SOL    HW222458   6.823   1.588   1.371
 7187SOL     OW22459   2.944   4.105   5.424
 7187SOL    HW122460   3.016   4.082   5.489
 7187SOL    HW222461   2.866   4.145   5.472
 7188SOL     OW22462   4.893   5.514   0.050
 7188SOL    HW122463   4.989   5.499   0.027
 7188SOL    HW222464   4.886   5.551   0.142
 7189SOL     OW22465   6.592   2.977   5.465
 7189SOL    HW122466   6.630   3.055   5.515
 7189SOL    HW222467   6.510   3.006   5.416
 7190SOL     OW22468   6.138   6.058   1.453
 7190SOL    HW122469   6.188   6.143   1.469
 7190SOL    HW222470   6.063   6.050   1.519
 7191SOL     OW22471   0.651   4.288   2.641
 7191SOL    HW122472   0.735   4.300   2.588
 7191SOL    HW222473   0.666   4.221   2.713
 7192SOL     OW22474   1.659   4.022   6.887
 7192SOL    HW122475   1.720   3.983   6.819
 7192SOL    HW222476   1.606   3.949   6.930
 7193SOL     OW22477   1.931   2.266   2.305
 7193SOL    HW122478   1.862   2.223   2.363
 7193SOL    HW222479   2.018   2.217   2.314
 7194SOL     OW22480   1.740   2.740   0.008
 7194SOL    HW122481   1.781   2.731   6.935
 7194SOL    HW222482   1.772   2.665   0.066
 7195SOL     OW22483   6.412   4.179   6.997
 7195SOL    HW122484   6.506   4.191   0.010
 7195SOL    HW222485   6.369   4.269   6.986
 7196SOL     OW22486   2.610   3.769   1.343
 7196SOL    HW122487   2.543   3.739   1.411
 7196SOL    HW222488   2.568   3.767   1.252
 7197SOL     OW22489   1.091   3.236   5.603
 7197SOL    HW122490   1.187   3.228   5.579
 7197SOL    HW222491   1.056   3.326   5.576
 7198SOL     OW22492   0.702   1.110   0.080
 7198SOL    HW122493   0.703   1.142   0.174
 7198SOL    HW222494   0.610   1.081   0.055
 7199SOL     OW22495   1.066   0.147   2.956
 7199SOL    HW122496   1.061   0.245   2.933
 7199SOL    HW222497   1.107   0.136   3.046
 7200SOL     OW22498   2.240   2.628   6.854
 7200SOL    HW122499   2.169   2.646   6.923
 7200SOL    HW222500   2.212   2.668   6.767
 7201SOL     OW22501   0.785   5.531   4.246
 7201SOL    HW122502   0.804   5.566   4.339
 7201SOL    HW222503   0.689   5.547   4.224
 7202SOL     OW22504   4.435   6.490   6.849
 7202SOL    HW122505   4.352   6.465   6.899
 7202SOL    HW222506   4.452   6.424   6.776
 7203SOL     OW22507   6.869   1.291   1.641
 7203SOL    HW122508   6.790   1.325   1.692
 7203SOL    HW222509   6.917   1.367   1.599
 7204SOL     OW22510   6.990   1.409   6.453
 7204SOL    HW122511   7.009   1.497   6.498
 7204SOL    HW222512   0.015   1.407   6.363
 7205SOL     OW22513   1.779   4.398   5.233
 7205SOL    HW122514   1.828   4.444   5.160
 7205SOL    HW222515   1.841   4.338   5.283
 7206SOL     OW22516   1.651   1.265   1.824
 7206SOL    HW122517   1.695   1.349   1.792
 7206SOL    HW222518   1.636   1.204   1.746
 7207SOL     OW22519   3.276   0.643   4.624
 7207SOL    HW122520   3.300   0.635   4.721
 7207SOL    HW222521   3.211   0.570   4.600
 7208SOL     OW22522   4.859   0.309   3.182
 7208SOL    HW122523   4.851   0.367   3.101
 7208SOL    HW222524   4.956   0.297   3.204
 7209SOL     OW22525   2.107   2.799   1.952
 7209SOL    HW122526   2.064   2.710   1.936
 7209SOL    HW222527   2.201   2.786   1.982
 7210SOL     OW22528   3.819   2.194   3.814
 7210SOL    HW122529   3.831   2.119   3.880
 7210SOL    HW222530   3.724   2.197   3.784
 7211SOL     OW22531   2.753   6.137   5.133
 7211SOL    HW122532   2.743   6.061   5.198
 7211SOL    HW222533   2.788   6.102   5.046
 7212SOL     OW22534   0.399   6.052   5.494
 7212SOL    HW122535   0.397   6.082   5.399
 7212SOL    HW222536   0.344   6.114   5.550
 7213SOL     OW22537   3.587   6.064   6.554
 7213SOL    HW122538   3.519   6.137   6.549
 7213SOL    HW222539   3.556   5.985   6.501
 7214SOL     OW22540   6.310   0.551   5.749
 7214SOL    HW122541   6.369   0.557   5.829
 7214SOL    HW222542   6.270   0.641   5.730
 7215SOL     OW22543   5.765   2.766   4.135
 7215SOL    HW122544   5.699   2.692   4.126
 7215SOL    HW222545   5.780   2.809   4.046
 7216SOL     OW22546   2.707   6.998   2.205
 7216SOL    HW122547   2.650   0.049   2.248
 7216SOL    HW222548   2.684   6.907   2.240
 7217SOL     OW22549   1.835   3.296   3.560
 7217SOL    HW122550   1.848   3.294   3.461
 7217SOL    HW222551   1.819   3.204   3.595
 7218SOL     OW22552   6.808   2.530   4.240
 7218SOL    HW122553   6.803   2.569   4.149
 7218SOL    HW222554   6.726   2.555   4.292
 7219SOL     OW22555   3.254   0.557   2.217
 7219SOL    HW122556   3.241   0.504   2.133
 7219SOL    HW222557   3.197   0.519   2.290
 7220SOL     OW22558   6.528   4.569   3.952
 7220SOL    HW122559   6.557   4.589   4.046
 7220SOL    HW222560   6.608   4.548   3.897
 7221SOL     OW22561   3.748   6.288   4.441
 7221SOL    HW122562   3.672   6.353   4.447
 7221SOL    HW222563   3.798   6.287   4.527
 7222SOL     OW22564   6.240   6.438   3.464
 7222SOL    HW122565   6.210   6.483   3.380
 7222SOL    HW222566   6.326   6.391   3.447
 7223SOL     OW22567   3.134   1.268   0.736
 7223SOL    HW122568   3.222   1.309   0.762
 7223SOL    HW222569   3.065   1.290   0.805
 7224SOL     OW22570   4.959   2.922   4.238
 7224SOL    HW122571   4.956   2.826   4.266
 7224SOL    HW222572   4.943   2.980   4.318
 7225SOL     OW22573   1.490   6.328   0.817
 7225SOL    HW122574   1.472   6.353   0.912
 7225SOL    HW222575   1.566   6.381   0.782
 7226SOL     OW22576   5.572   6.853   1.147
 7226SOL    HW122577   5.504   6.861   1.074
 7226SOL    HW222578   5.633   6.777   1.127
 7227SOL     OW22579   2.632   1.835   1.620
 7227SOL    HW122580   2.722   1.878   1.609
 7227SOL    HW222581   2.579   1.887   1.687
 7228SOL     OW22582   1.357   1.405   2.791
 7228SOL    HW122583   1.361   1.317   2.743
 7228SOL    HW222584   1.403   1.475   2.737
 7229SOL     OW22585   0.779   6.869   4.984
 7229SOL    HW122586   0.772   6.948   5.044
 7229SOL    HW222587   0.754   6.895   4.891
 7230SOL     OW22588   3.087   5.845   3.671
 7230SOL    HW122589   3.183   5.862   3.695
 7230SOL    HW222590   3.069   5.747   3.672
 7231SOL     OW22591   4.129   0.782   6.392
 7231SOL    HW122592   4.067   0.857   6.370
 7231SOL    HW222593   4.202   0.815   6.451
 7232SOL     OW22594   4.642   5.765   2.831
 7232SOL    HW122595   4.634   5.844   2.891
 7232SOL    HW222596   4.572   5.771   2.759
 7233SOL     OW22597   1.315   1.225   4.654
 7233SOL    HW122598   1.388   1.291   4.673
 7233SOL    HW222599   1.280   1.241   4.561
 7234SOL     OW22600   5.808   3.086   3.163
 7234SOL    HW122601   5.839   2.996   3.193
 7234SOL    HW222602   5.838   3.101   3.068
 7235SOL     OW22603   6.711   4.180   1.610
 7235SOL    HW122604   6.704   4.213   1.704
 7235SOL    HW222605   6.649   4.232   1.552
 7236SOL     OW22606   2.669   2.368   2.524
 7236SOL    HW122607   2.608   2.421   2.583
 7236SOL    HW222608   2.646   2.388   2.428
 7237SOL     OW22609   4.021   0.348   5.568
 7237SOL    HW122610   4.024   0.403   5.651
 7237SOL    HW222611   3.926   0.326   5.546
 7238SOL     OW22612   4.421   2.292   5.874
 7238SOL    HW122613   4.463   2.203   5.892
 7238SOL    HW222614   4.354   2.282   5.800
 7239SOL     OW22615   0.829   2.387   1.473
 7239SOL    HW122616   0.798   2.296   1.447
 7239SOL    HW222617   0.753   2.438   1.513
 7240SOL     OW22618   0.047   1.417   5.770
 7240SOL    HW122619   0.007   1.436   5.860
 7240SOL    HW222620   0.046   1.501   5.715
 7241SOL     OW22621   2.568   0.483   1.146
 7241SOL    HW122622   2.469   0.476   1.138
 7241SOL    HW222623   2.602   0.413   1.208
 7242SOL     OW22624   6.120   5.733   6.840
 7242SOL    HW122625   6.198   5.719   6.780
 7242SOL    HW222626   6.053   5.661   6.825
 7243SOL     OW22627   6.926   4.407   6.154
 7243SOL    HW122628   6.940   4.479   6.222
 7243SOL    HW222629   7.000   4.410   6.086
 7244SOL     OW22630   0.303   0.687   1.210
 7244SOL    HW122631   0.397   0.707   1.238
 7244SOL    HW222632   0.268   0.763   1.156
 7245SOL     OW22633   1.458   3.331   5.148
 7245SOL    HW122634   1.411   3.336   5.236
 7245SOL    HW222635   1.554   3.311   5.163
 7246SOL     OW22636   1.069   0.149   3.846
 7246SOL    HW122637   0.988   0.147   3.906
 7246SOL    HW222638   1.134   0.080   3.875
 7247SOL     OW22639   2.537   1.333   5.082
 7247SOL    HW122640   2.514   1.240   5.111
 7247SOL    HW222641   2.618   1.364   5.131
 7248SOL     OW22642   3.394   1.070   2.598
 7248SOL    HW122643   3.295   1.068   2.589
 7248SOL    HW222644   3.434   1.110   2.515
 7249SOL     OW22645   5.157   4.889   2.185
 7249SOL    HW122646   5.210   4.966   2.219
 7249SOL    HW222647   5.191   4.804   2.226
 7250SOL     OW22648   5.404   6.144   5.754
 7250SOL    HW122649   5.447   6.187   5.675
 7250SOL    HW222650   5.386   6.213   5.825
 7251SOL     OW22651   0.556   6.798   5.794
 7251SOL    HW122652   0.583   6.848   5.876
 7251SOL    HW222653   0.598   6.839   5.714
 7252SOL     OW22654   3.384   3.656   2.099
 7252SOL    HW122655   3.311   3.599   2.136
 7252SOL    HW222656   3.392   3.640   2.000
 7253SOL     OW22657   1.710   5.787   6.727
 7253SOL    HW122658   1.755   5.852   6.666
 7253SOL    HW222659   1.771   5.709   6.743
 7254SOL     OW22660   5.324   5.252   4.749
 7254SOL    HW122661   5.393   5.322   4.764
 7254SOL    HW222662   5.309   5.201   4.834
 7255SOL     OW22663   4.176   3.521   0.373
 7255SOL    HW122664   4.093   3.467   0.388
 7255SOL    HW222665   4.151   3.613   0.343
 7256SOL     OW22666   3.252   5.853   5.150
 7256SOL    HW122667   3.247   5.767   5.099
 7256SOL    HW222668   3.216   5.927   5.093
 7257SOL     OW22669   6.939   1.898   3.567
 7257SOL    HW122670   0.020   1.889   3.580
 7257SOL    HW222671   6.901   1.809   3.543
 7258SOL     OW22672   5.000   2.377   3.096
 7258SOL    HW122673   4.959   2.384   3.187
 7258SOL    HW222674   4.933   2.341   3.031
 7259SOL     OW22675   1.869   3.592   1.999
 7259SOL    HW122676   1.921   3.673   1.971
 7259SOL    HW222677   1.920   3.510   1.974
 7260SOL     OW22678   5.347   1.735   1.554
 7260SOL    HW122679   5.406   1.793   1.610
 7260SOL    HW222680   5.314   1.787   1.476
 7261SOL     OW22681   1.736   4.624   1.674
 7261SOL    HW122682   1.760   4.527   1.671
 7261SOL    HW222683   1.813   4.678   1.640
 7262SOL     OW22684   5.437   2.257   6.296
 7262SOL    HW122685   5.433   2.157   6.289
 7262SOL    HW222686   5.497   2.282   6.372
 7263SOL     OW22687   0.671   6.715   0.206
 7263SOL    HW122688   0.635   6.775   0.135
 7263SOL    HW222689   0.601   6.696   0.274
 7264SOL     OW22690   5.694   1.523   6.845
 7264SOL    HW122691   5.659   1.516   6.752
 7264SOL    HW222692   5.687   1.434   6.890
 7265SOL     OW22693   5.401   5.116   6.448
 7265SOL    HW122694   5.478   5.179   6.451
 7265SOL    HW222695   5.327   5.150   6.507
 7266SOL     OW22696   5.664   0.564   2.697
 7266SOL    HW122697   5.700   0.477   2.730
 7266SOL    HW222698   5.736   0.615   2.651
 7267SOL     OW22699   6.116   6.430   4.852
 7267SOL    HW122700   6.130   6.485   4.769
 7267SOL    HW222701   6.189   6.450   4.917
 7268SOL     OW22702   6.839   5.562   4.306
 7268SOL    HW122703   6.775   5.633   4.337
 7268SOL    HW222704   6.916   5.606   4.258
 7269SOL     OW22705   1.434   5.965   5.899
 7269SOL    HW122706   1.368   5.891   5.889
 7269SOL    HW222707   1.524   5.934   5.867
 7270SOL     OW22708   0.979   3.180   5.194
 7270SOL    HW122709   1.046   3.128   5.247
 7270SOL    HW222710   0.909   3.118   5.159
 7271SOL     OW22711   1.126   4.972   4.333
 7271SOL    HW122712   1.197   4.908   4.304
 7271SOL    HW222713   1.078   5.007   4.252
 7272SOL     OW22714   6.092   5.194   2.579
 7272SOL    HW122715   6.133   5.249   2.652
 7272SOL    HW222716   6.140   5.107   2.573
 7273SOL     OW22717   6.480   4.058   1.103
 7273SOL    HW122718   6.440   4.149   1.097
 7273SOL    HW222719   6.417   3.996   1.148
 7274SOL     OW22720   0.675   5.348   6.023
 7274SOL    HW122721   0.621   5.427   5.995
 7274SOL    HW222722   0.770   5.376   6.038
 7275SOL     OW22723   0.717   5.757   2.806
 7275SOL    HW122724   0.713   5.731   2.903
 7275SOL    HW222725   0.798   5.717   2.764
 7276SOL     OW22726   5.190   0.547   2.856
 7276SOL    HW122727   5.287   0.533   2.873
 7276SOL    HW222728   5.149   0.462   2.823
 7277SOL     OW22729   5.615   0.853   4.097
 7277SOL    HW122730   5.639   0.948   4.117
 7277SOL    HW222731   5.540   0.851   4.031
 7278SOL     OW22732   3.962   2.322   1.290
 7278SOL    HW122733   3.921   2.411   1.309
 7278SOL    HW222734   4.058   2.322   1.321
 7279SOL     OW22735   3.815   4.661   6.161
 7279SOL    HW122736   3.891   4.680   6.223
 7279SOL    HW222737   3.744   4.610   6.211
 7280SOL     OW22738   0.314   1.634   4.112
 7280SOL    HW122739   0.230   1.688   4.123
 7280SOL    HW222740   0.323   1.605   4.017
 7281SOL     OW22741   2.913   1.635   6.904
 7281SOL    HW122742   2.935   1.676   6.992
 7281SOL    HW222743   2.815   1.614   6.901
 7282SOL     OW22744   5.898   4.793   3.192
 7282SOL    HW122745   5.981   4.753   3.231
 7282SOL    HW222746   5.889   4.888   3.223
 7283SOL     OW22747   4.395   1.209   2.685
 7283SOL    HW122748   4.403   1.110   2.675
 7283SOL    HW222749   4.395   1.232   2.783
 7284SOL     OW22750   0.428   2.474   6.105
 7284SOL    HW122751   0.453   2.378   6.119
 7284SOL    HW222752   0.335   2.489   6.138
 7285SOL     OW22753   5.253   2.813   2.411
 7285SOL    HW122754   5.196   2.735   2.386
 7285SOL    HW222755   5.347   2.781   2.429
 7286SOL     OW22756   2.216   1.334   0.495
 7286SOL    HW122757   2.307   1.344   0.453
 7286SOL    HW222758   2.213   1.249   0.547
 7287SOL     OW22759   0.558   2.527   5.566
 7287SOL    HW122760   0.621   2.536   5.643
 7287SOL    HW222761   0.466   2.511   5.600
 7288SOL     OW22762   2.185   1.110   0.661
 7288SOL    HW122763   2.244   1.112   0.741
 7288SOL    HW222764   2.104   1.055   0.680
 7289SOL     OW22765   4.882   2.553   4.263
 7289SOL    HW122766   4.972   2.541   4.305
 7289SOL    HW222767   4.851   2.467   4.224
 7290SOL     OW22768   3.609   0.420   5.307
 7290SOL    HW122769   3.689   0.427   5.247
 7290SOL    HW222770   3.633   0.369   5.389
 7291SOL     OW22771   2.041   6.501   0.754
 7291SOL    HW122772   2.017   6.559   0.831
 7291SOL    HW222773   2.046   6.556   0.671
 7292SOL     OW22774   3.441   1.144   3.518
 7292SOL    HW122775   3.371   1.110   3.455
 7292SOL    HW222776   3.505   1.203   3.469
 7293SOL     OW22777   1.386   1.901   4.771
 7293SOL    HW122778   1.420   1.868   4.859
 7293SOL    HW222779   1.321   1.975   4.786
 7294SOL     OW22780   2.642   5.167   6.653
 7294SOL    HW122781   2.730   5.196   6.692
 7294SOL    HW222782   2.644   5.176   6.554
 7295SOL     OW22783   6.588   2.885   1.086
 7295SOL    HW122784   6.559   2.974   1.051
 7295SOL    HW222785   6.687   2.885   1.098
 7296SOL     OW22786   3.167   5.829   2.258
 7296SOL    HW122787   3.198   5.866   2.346
 7296SOL    HW222788   3.157   5.904   2.192
 7297SOL     OW22789   3.967   0.019   1.474
 7297SOL    HW122790   3.910   6.963   1.439
 7297SOL    HW222791   3.948   0.033   1.571
 7298SOL     OW22792   5.177   5.150   5.920
 7298SOL    HW122793   5.118   5.070   5.929
 7298SOL    HW222794   5.264   5.132   5.964
 7299SOL     OW22795   1.215   2.306   0.450
 7299SOL    HW122796   1.149   2.280   0.521
 7299SOL    HW222797   1.178   2.282   0.360
 7300SOL     OW22798   0.744   6.318   3.353
 7300SOL    HW122799   0.758   6.413   3.326
 7300SOL    HW222800   0.718   6.314   3.450
 7301SOL     OW22801   5.221   1.628   4.783
 7301SOL    HW122802   5.283   1.707   4.778
 7301SOL    HW222803   5.150   1.637   4.714
 7302SOL     OW22804   0.881   2.351   4.961
 7302SOL    HW122805   0.823   2.418   4.916
 7302SOL    HW222806   0.844   2.330   5.052
 7303SOL     OW22807   3.649   0.370   0.186
 7303SOL    HW122808   3.715   0.433   0.226
 7303SOL    HW222809   3.666   0.361   0.088
 7304SOL     OW22810   3.609   5.413   1.387
 7304SOL    HW122811   3.656   5.501   1.382
 7304SOL    HW222812   3.672   5.340   1.361
 7305SOL     OW22813   4.456   0.838   0.331
 7305SOL    HW122814   4.369   0.790   0.324
 7305SOL    HW222815   4.526   0.789   0.279
 7306SOL     OW22816   5.043   1.542   0.800
 7306SOL    HW122817   5.135   1.521   0.833
 7306SOL    HW222818   5.041   1.637   0.768
 7307SOL     OW22819   2.706   6.638   2.561
 7307SOL    HW122820   2.695   6.649   2.660
 7307SOL    HW222821   2.636   6.576   2.526
 7308SOL     OW22822   6.877   2.804   5.597
 7308SOL    HW122823   6.926   2.723   5.631
 7308SOL    HW222824   6.837   2.783   5.508
 7309SOL     OW22825   4.579   5.598   1.352
 7309SOL    HW122826   4.635   5.658   1.409
 7309SOL    HW222827   4.563   5.641   1.264
 7310SOL     OW22828   2.497   3.813   1.097
 7310SOL    HW122829   2.457   3.900   1.070
 7310SOL    HW222830   2.425   3.747   1.115
 7311SOL     OW22831   2.129   1.534   1.504
 7311SOL    HW122832   2.170   1.624   1.517
 7311SOL    HW222833   2.030   1.543   1.491
 7312SOL     OW22834   1.035   3.525   4.683
 7312SOL    HW122835   0.978   3.558   4.608
 7312SOL    HW222836   1.085   3.443   4.654
 7313SOL     OW22837   2.259   0.720   0.192
 7313SOL    HW122838   2.349   0.736   0.232
 7313SOL    HW222839   2.211   0.808   0.182
 7314SOL     OW22840   6.941   5.488   5.820
 7314SOL    HW122841   6.858   5.432   5.818
 7314SOL    HW222842   7.000   5.457   5.894
 7315SOL     OW22843   6.084   0.136   2.009
 7315SOL    HW122844   6.103   0.084   2.092
 7315SOL    HW222845   6.071   0.073   1.933
 7316SOL     OW22846   2.870   4.334   6.897
 7316SOL    HW122847   2.918   4.271   6.957
 7316SOL    HW222848   2.799   4.286   6.846
 7317SOL     OW22849   5.021   1.291   3.083
 7317SOL    HW122850   4.953   1.280   3.156
 7317SOL    HW222851   5.095   1.225   3.097
 7318SOL     OW22852   1.824   0.590   1.828
 7318SOL    HW122853   1.769   0.673   1.839
 7318SOL    HW222854   1.882   0.600   1.747
 7319SOL     OW22855   0.197   3.617   6.232
 7319SOL    HW122856   0.187   3.642   6.328
 7319SOL    HW222857   0.221   3.521   6.224
 7320SOL     OW22858   0.307   3.600   2.695
 7320SOL    HW122859   0.333   3.561   2.606
 7320SOL    HW222860   0.291   3.698   2.685
 7321SOL     OW22861   1.861   0.562   5.891
 7321SOL    HW122862   1.814   0.649   5.904
 7321SOL    HW222863   1.960   0.578   5.892
 7322SOL     OW22864   7.001   2.814   3.302
 7322SOL    HW122865   6.981   2.721   3.332
 7322SOL    HW222866   0.082   2.830   3.305
 7323SOL     OW22867   1.176   2.352   1.799
 7323SOL    HW122868   1.259   2.390   1.840
 7323SOL    HW222869   1.146   2.410   1.724
 7324SOL     OW22870   4.528   5.580   2.330
 7324SOL    HW122871   4.585   5.619   2.402
 7324SOL    HW222872   4.457   5.647   2.304
 7325SOL     OW22873   3.405   6.970   0.211
 7325SOL    HW122874   3.339   6.900   0.241
 7325SOL    HW222875   3.355   0.025   0.165
 7326SOL     OW22876   2.680   6.119   6.307
 7326SOL    HW122877   2.712   6.209   6.336
 7326SOL    HW222878   2.685   6.113   6.207
 7327SOL     OW22879   6.111   1.377   6.430
 7327SOL    HW122880   6.096   1.475   6.444
 7327SOL    HW222881   6.183   1.363   6.363
 7328SOL     OW22882   2.958   0.797   6.045
 7328SOL    HW122883   3.026   0.736   6.006
 7328SOL    HW222884   2.994   0.837   6.130
 7329SOL     OW22885   6.505   4.010   1.413
 7329SOL    HW122886   6.448   3.941   1.458
 7329SOL    HW222887   6.599   3.976   1.405
 7330SOL     OW22888   2.582   2.441   7.017
 7330SOL    HW122889   2.539   2.423   6.929
 7330SOL    HW222890   2.669   2.392   0.004
 7331SOL     OW22891   5.345   6.478   1.633
 7331SOL    HW122892   5.411   6.423   1.580
 7331SOL    HW222893   5.388   6.508   1.718
 7332SOL     OW22894   2.704   6.158   0.138
 7332SOL    HW122895   2.670   6.113   0.055
 7332SOL    HW222896   2.700   6.093   0.215
 7333SOL     OW22897   0.413   2.787   2.243
 7333SOL    HW122898   0.341   2.726   2.210
 7333SOL    HW222899   0.452   2.838   2.167
 7334SOL     OW22900   2.463   5.703   6.429
 7334SOL    HW122901   2.391   5.771   6.440
 7334SOL    HW222902   2.551   5.749   6.417
 7335SOL     OW22903   2.059   2.569   3.071
 7335SOL    HW122904   2.104   2.524   3.148
 7335SOL    HW222905   2.119   2.640   3.034
 7336SOL     OW22906   1.587   6.154   2.983
 7336SOL    HW122907   1.522   6.176   3.055
 7336SOL    HW222908   1.538   6.147   2.896
 7337SOL     OW22909   0.427   3.123   1.555
 7337SOL    HW122910   0.481   3.146   1.474
 7337SOL    HW222911   0.376   3.204   1.585
 7338SOL     OW22912   5.882   1.907   1.828
 7338SOL    HW122913   5.825   1.989   1.825
 7338SOL    HW222914   5.835   1.832   1.783
 7339SOL     OW22915   5.924   6.534   4.186
 7339SOL    HW122916   5.845   6.512   4.129
 7339SOL    HW222917   5.911   6.626   4.225
 7340SOL     OW22918   3.256   1.537   0.589
 7340SOL    HW122919   3.260   1.563   0.492
 7340SOL    HW222920   3.200   1.455   0.599
 7341SOL     OW22921   0.852   3.854   6.192
 7341SOL    HW122922   0.829   3.951   6.186
 7341SOL    HW222923   0.951   3.843   6.187
 7342SOL     OW22924   0.460   2.107   0.890
 7342SOL    HW122925   0.513   2.023   0.899
 7342SOL    HW222926   0.397   2.100   0.812
 7343SOL     OW22927   6.504   3.618   0.879
 7343SOL    HW122928   6.419   3.567   0.893
 7343SOL    HW222929   6.494   3.677   0.799
 7344SOL     OW22930   1.190   0.920   6.276
 7344SOL    HW122931   1.150   0.844   6.225
 7344SOL    HW222932   1.181   1.004   6.223
 7345SOL     OW22933   3.955   4.872   5.937
 7345SOL    HW122934   3.996   4.860   6.027
 7345SOL    HW222935   3.963   4.786   5.885
 7346SOL     OW22936   3.807   4.858   2.066
 7346SOL    HW122937   3.758   4.773   2.086
 7346SOL    HW222938   3.742   4.929   2.041
 7347SOL     OW22939   0.977   1.983   0.211
 7347SOL    HW122940   1.012   1.899   0.252
 7347SOL    HW222941   1.052   2.048   0.199
 7348SOL     OW22942   1.638   3.792   4.254
 7348SOL    HW122943   1.553   3.759   4.212
 7348SOL    HW222944   1.709   3.722   4.245
 7349SOL     OW22945   4.990   1.673   1.460
 7349SOL    HW122946   5.067   1.625   1.501
 7349SOL    HW222947   4.905   1.625   1.483
 7350SOL     OW22948   2.774   2.463   5.717
 7350SOL    HW122949   2.862   2.485   5.676
 7350SOL    HW222950   2.738   2.543   5.765
 7351SOL     OW22951   5.342   5.676   4.728
 7351SOL    HW122952   5.339   5.717   4.637
 7351SOL    HW222953   5.434   5.642   4.747
 7352SOL     OW22954   1.501   1.556   3.010
 7352SOL    HW122955   1.436   1.528   2.939
 7352SOL    HW222956   1.511   1.655   3.009
 7353SOL     OW22957   0.346   0.162   6.325
 7353SOL    HW122958   0.323   0.197   6.416
 7353SOL    HW222959   0.268   0.109   6.289
 7354SOL     OW22960   0.774   2.108   4.579
 7354SOL    HW122961   0.681   2.143   4.594
 7354SOL    HW222962   0.772   2.009   4.575
 7355SOL     OW22963   1.547   0.456   0.752
 7355SOL    HW122964   1.625   0.394   0.745
 7355SOL    HW222965   1.524   0.470   0.849
 7356SOL     OW22966   3.953   3.620   6.000
 7356SOL    HW122967   4.047   3.589   5.984
 7356SOL    HW222968   3.953   3.702   6.056
 7357SOL     OW22969   3.398   6.956   1.955
 7357SOL    HW122970   3.320   6.943   2.016
 7357SOL    HW222971   3.366   6.976   1.863
 7358SOL     OW22972   6.194   3.384   2.508
 7358SOL    HW122973   6.279   3.369   2.558
 7358SOL    HW222974   6.195   3.474   2.466
 7359SOL     OW22975   3.880   1.885   5.624
 7359SOL    HW122976   3.948   1.954   5.600
 7359SOL    HW222977   3.795   1.930   5.652
 7360SOL     OW22978   2.925   3.355   5.813
 7360SOL    HW122979   2.877   3.269   5.796
 7360SOL    HW222980   2.906   3.419   5.739
 7361SOL     OW22981   5.000   0.626   1.937
 7361SOL    HW122982   5.055   0.629   1.854
 7361SOL    HW222983   4.903   0.620   1.913
 7362SOL     OW22984   1.332   5.285   6.070
 7362SOL    HW122985   1.410   5.340   6.039
 7362SOL    HW222986   1.366   5.201   6.113
 7363SOL     OW22987   4.749   1.934   1.068
 7363SOL    HW122988   4.665   1.956   1.117
 7363SOL    HW222989   4.760   1.998   0.992
 7364SOL     OW22990   4.629   0.712   1.586
 7364SOL    HW122991   4.579   0.794   1.613
 7364SOL    HW222992   4.724   0.719   1.617
 7365SOL     OW22993   0.502   5.898   1.904
 7365SOL    HW122994   0.502   5.798   1.900
 7365SOL    HW222995   0.438   5.929   1.974
 7366SOL     OW22996   2.116   6.241   6.823
 7366SOL    HW122997   2.023   6.228   6.859
 7366SOL    HW222998   2.112   6.260   6.725
 7367SOL     OW22999   5.529   2.492   1.183
 7367SOL    HW123000   5.583   2.431   1.126
 7367SOL    HW223001   5.570   2.584   1.183
 7368SOL     OW23002   3.863   2.966   2.713
 7368SOL    HW123003   3.846   2.931   2.805
 7368SOL    HW223004   3.907   3.056   2.719
 7369SOL     OW23005   3.405   2.366   0.350
 7369SOL    HW123006   3.376   2.378   0.255
 7369SOL    HW223007   3.352   2.426   0.409
 7370SOL     OW23008   2.906   0.781   4.751
 7370SOL    HW123009   2.948   0.860   4.707
 7370SOL    HW223010   2.977   0.719   4.784
 7371SOL     OW23011   2.546   7.011   3.590
 7371SOL    HW123012   2.477   0.066   3.592
 7371SOL    HW223013   2.627   0.022   3.640
 7372SOL     OW23014   4.806   0.553   3.997
 7372SOL    HW123015   4.895   0.506   4.003
 7372SOL    HW223016   4.737   0.498   4.043
 7373SOL     OW23017   6.241   1.661   3.698
 7373SOL    HW123018   6.144   1.648   3.719
 7373SOL    HW223019   6.289   1.689   3.781
 7374SOL     OW23020   2.987   1.902   5.216
 7374SOL    HW123021   3.005   1.998   5.235
 7374SOL    HW223022   3.074   1.853   5.206
 7375SOL     OW23023   2.017   2.522   2.460
 7375SOL    HW123024   2.103   2.472   2.450
 7375SOL    HW223025   1.953   2.494   2.389
 7376SOL     OW23026   1.825   2.069   0.653
 7376SOL    HW123027   1.793   2.007   0.724
 7376SOL    HW223028   1.798   2.163   0.676
 7377SOL     OW23029   5.315   4.544   0.654
 7377SOL    HW123030   5.328   4.615   0.723
 7377SOL    HW223031   5.402   4.526   0.608
 7378SOL     OW23032   0.208   0.808   5.678
 7378SOL    HW123033   0.227   0.710   5.683
 7378SOL    HW223034   0.221   0.841   5.585
 7379SOL     OW23035   3.288   1.752   2.463
 7379SOL    HW123036   3.211   1.743   2.400
 7379SOL    HW223037   3.370   1.713   2.421
 7380SOL     OW23038   0.066   4.468   3.619
 7380SOL    HW123039   0.012   4.507   3.694
 7380SOL    HW223040   0.005   4.442   3.544
 7381SOL     OW23041   4.029   3.008   0.479
 7381SOL    HW123042   4.030   3.014   0.579
 7381SOL    HW223043   3.984   2.923   0.451
 7382SOL     OW23044   0.558   0.677   5.442
 7382SOL    HW123045   0.565   0.635   5.532
 7382SOL    HW223046   0.503   0.761   5.449
 7383SOL     OW23047   2.822   6.478   0.984
 7383SOL    HW123048   2.789   6.468   1.078
 7383SOL    HW223049   2.760   6.429   0.922
 7384SOL     OW23050   6.746   6.139   2.702
 7384SOL    HW123051   6.723   6.083   2.623
 7384SOL    HW223052   6.732   6.086   2.786
 7385SOL     OW23053   3.417   5.653   2.590
 7385SOL    HW123054   3.498   5.647   2.532
 7385SOL    HW223055   3.352   5.581   2.565
 7386SOL     OW23056   7.014   2.431   0.093
 7386SOL    HW123057   0.035   2.510   0.140
 7386SOL    HW223058   6.938   2.394   0.146
 7387SOL     OW23059   6.120   5.723   6.060
 7387SOL    HW123060   6.141   5.801   6.002
 7387SOL    HW223061   6.076   5.755   6.144
 7388SOL     OW23062   1.370   5.272   1.893
 7388SOL    HW123063   1.271   5.286   1.892
 7388SOL    HW223064   1.412   5.336   1.956
 7389SOL     OW23065   5.864   3.929   6.045
 7389SOL    HW123066   5.953   3.966   6.071
 7389SOL    HW223067   5.877   3.846   5.990
 7390SOL     OW23068   1.985   2.761   1.683
 7390SOL    HW123069   2.081   2.752   1.657
 7390SOL    HW223070   1.974   2.736   1.779
 7391SOL     OW23071   4.033   3.323   3.578
 7391SOL    HW123072   4.088   3.371   3.647
 7391SOL    HW223073   4.024   3.227   3.603
 7392SOL     OW23074   3.128   5.663   6.342
 7392SOL    HW123075   3.200   5.661   6.412
 7392SOL    HW223076   3.048   5.711   6.377
 7393SOL     OW23077   6.221   4.457   2.379
 7393SOL    HW123078   6.296   4.409   2.424
 7393SOL    HW223079   6.134   4.418   2.409
 7394SOL     OW23080   1.921   2.888   5.556
 7394SOL    HW123081   2.017   2.873   5.535
 7394SOL    HW223082   1.870   2.802   5.546
 7395SOL     OW23083   2.016   3.431   1.215
 7395SOL    HW123084   2.012   3.512   1.156
 7395SOL    HW223085   2.002   3.349   1.160
 7396SOL     OW23086   1.889   6.600   1.271
 7396SOL    HW123087   1.882   6.503   1.296
 7396SOL    HW223088   1.971   6.640   1.312
 7397SOL     OW23089   5.028   5.776   4.626
 7397SOL    HW123090   5.056   5.680   4.619
 7397SOL    HW223091   5.020   5.801   4.723
 7398SOL     OW23092   1.217   4.355   3.648
 7398SOL    HW123093   1.237   4.395   3.737
 7398SOL    HW223094   1.123   4.320   3.647
 7399SOL     OW23095   0.700   2.854   4.623
 7399SOL    HW123096   0.684   2.931   4.561
 7399SOL    HW223097   0.646   2.775   4.592
 7400SOL     OW23098   4.523   2.989   5.874
 7400SOL    HW123099   4.469   2.961   5.794
 7400SOL    HW223100   4.501   2.930   5.952
 7401SOL     OW23101   1.316   2.610   3.913
 7401SOL    HW123102   1.356   2.624   3.822
 7401SOL    HW223103   1.218   2.630   3.909
 7402SOL     OW23104   2.943   4.710   6.216
 7402SOL    HW123105   3.007   4.634   6.214
 7402SOL    HW223106   2.872   4.696   6.147
 7403SOL     OW23107   1.745   4.039   2.189
 7403SOL    HW123108   1.742   3.944   2.159
 7403SOL    HW223109   1.832   4.080   2.163
 7404SOL     OW23110   2.696   4.410   1.717
 7404SOL    HW123111   2.601   4.432   1.739
 7404SOL    HW223112   2.757   4.470   1.769
 7405SOL     OW23113   3.565   4.959   4.372
 7405SOL    HW123114   3.632   4.892   4.405
 7405SOL    HW223115   3.491   4.967   4.439
 7406SOL     OW23116   0.214   2.265   3.516
 7406SOL    HW123117   0.126   2.217   3.516
 7406SOL    HW223118   0.254   2.262   3.424
 7407SOL     OW23119   0.711   0.025   5.195
 7407SOL    HW123120   0.788   0.060   5.248
 7407SOL    HW223121   0.633   0.011   5.255
 7408SOL     OW23122   3.367   4.116   6.785
 7408SOL    HW123123   3.381   4.059   6.866
 7408SOL    HW223124   3.453   4.160   6.760
 7409SOL     OW23125   5.246   3.101   0.110
 7409SOL    HW123126   5.161   3.138   0.147
 7409SOL    HW223127   5.238   3.001   0.103
 7410SOL     OW23128   0.352   0.447   0.561
 7410SOL    HW123129   0.253   0.437   0.573
 7410SOL    HW223130   0.370   0.501   0.478
 7411SOL     OW23131   2.054   0.832   6.701
 7411SOL    HW123132   2.078   0.809   6.796
 7411SOL    HW223133   1.993   0.763   6.664
 7412SOL     OW23134   5.001   0.818   1.413
 7412SOL    HW123135   4.947   0.787   1.491
 7412SOL    HW223136   4.958   0.898   1.372
 7413SOL     OW23137   4.345   5.122   3.707
 7413SOL    HW123138   4.253   5.087   3.688
 7413SOL    HW223139   4.346   5.221   3.693
 7414SOL     OW23140   1.040   0.725   3.226
 7414SOL    HW123141   1.053   0.758   3.133
 7414SOL    HW223142   1.013   0.802   3.285
 7415SOL     OW23143   1.622   4.380   4.430
 7415SOL    HW123144   1.599   4.296   4.380
 7415SOL    HW223145   1.631   4.456   4.366
 7416SOL     OW23146   1.802   0.970   2.216
 7416SOL    HW123147   1.710   0.944   2.245
 7416SOL    HW223148   1.863   0.891   2.225
 7417SOL     OW23149   2.101   2.191   1.360
 7417SOL    HW123150   2.164   2.113   1.359
 7417SOL    HW223151   2.006   2.158   1.362
 7418SOL     OW23152   1.725   5.732   0.409
 7418SOL    HW123153   1.630   5.724   0.440
 7418SOL    HW223154   1.784   5.676   0.467
 7419SOL     OW23155   6.699   3.499   4.235
 7419SOL    HW123156   6.751   3.508   4.320
 7419SOL    HW223157   6.752   3.448   4.168
 7420SOL     OW23158   0.631   6.084   1.728
 7420SOL    HW123159   0.592   6.170   1.762
 7420SOL    HW223160   0.592   6.008   1.780
 7421SOL     OW23161   4.232   3.855   1.163
 7421SOL    HW123162   4.275   3.937   1.201
 7421SOL    HW223163   4.302   3.786   1.144
 7422SOL     OW23164   0.420   4.439   1.743
 7422SOL    HW123165   0.351   4.492   1.791
 7422SOL    HW223166   0.454   4.366   1.803
 7423SOL     OW23167   5.964   2.903   5.408
 7423SOL    HW123168   5.898   2.943   5.471
 7423SOL    HW223169   5.916   2.845   5.342
 7424SOL     OW23170   6.585   0.786   5.180
 7424SOL    HW123171   6.662   0.739   5.224
 7424SOL    HW223172   6.548   0.854   5.243
 7425SOL     OW23173   4.719   6.755   0.379
 7425SOL    HW123174   4.817   6.771   0.373
 7425SOL    HW223175   4.692   6.683   0.315
 7426SOL     OW23176   3.211   1.749   5.315
 7426SOL    HW123177   3.295   1.696   5.304
 7426SOL    HW223178   3.150   1.703   5.378
 7427SOL     OW23179   5.246   0.576   3.512
 7427SOL    HW123180   5.292   0.644   3.455
 7427SOL    HW223181   5.315   0.517   3.555
 7428SOL     OW23182   4.266   1.617   5.127
 7428SOL    HW123183   4.334   1.653   5.191
 7428SOL    HW223184   4.179   1.664   5.139
 7429SOL     OW23185   0.279   6.453   4.277
 7429SOL    HW123186   0.372   6.435   4.244
 7429SOL    HW223187   0.261   6.395   4.357
 7430SOL     OW23188   1.345   3.652   0.937
 7430SOL    HW123189   1.289   3.728   0.901
 7430SOL    HW223190   1.296   3.566   0.926
 7431SOL     OW23191   0.745   2.645   3.203
 7431SOL    HW123192   0.675   2.688   3.146
 7431SOL    HW223193   0.757   2.550   3.174
 7432SOL     OW23194   1.404   0.575   3.431
 7432SOL    HW123195   1.439   0.555   3.339
 7432SOL    HW223196   1.305   0.569   3.431
 7433SOL     OW23197   4.185   5.761   5.875
 7433SOL    HW123198   4.235   5.821   5.813
 7433SOL    HW223199   4.091   5.749   5.842
 7434SOL     OW23200   5.026   5.084   5.462
 7434SOL    HW123201   5.001   5.071   5.366
 7434SOL    HW223202   4.966   5.030   5.521
 7435SOL     OW23203   3.954   5.837   1.343
 7435SOL    HW123204   4.038   5.831   1.289
 7435SOL    HW223205   3.920   5.931   1.341
 7436SOL     OW23206   4.039   4.138   6.644
 7436SOL    HW123207   4.051   4.219   6.586
 7436SOL    HW223208   4.036   4.167   6.740
 7437SOL     OW23209   2.018   5.978   6.666
 7437SOL    HW123210   2.037   5.891   6.622
 7437SOL    HW223211   1.966   6.036   6.604
 7438SOL     OW23212   0.868   6.447   0.432
 7438SOL    HW123213   0.856   6.417   0.526
 7438SOL    HW223214   0.876   6.546   0.429
 7439SOL     OW23215   1.795   6.177   5.944
 7439SOL    HW123216   1.710   6.223   5.970
 7439SOL    HW223217   1.812   6.101   6.007
 7440SOL     OW23218   0.164   2.956   3.716
 7440SOL    HW123219   0.131   3.046   3.687
 7440SOL    HW223220   0.195   2.961   3.811
 7441SOL     OW23221   5.527   0.025   4.597
 7441SOL    HW123222   5.525   0.125   4.602
 7441SOL    HW223223   5.547   7.005   4.687
 7442SOL     OW23224   6.228   1.133   6.566
 7442SOL    HW123225   6.179   1.219   6.552
 7442SOL    HW223226   6.326   1.149   6.556
 7443SOL     OW23227   6.258   6.332   1.511
 7443SOL    HW123228   6.294   6.411   1.560
 7443SOL    HW223229   6.332   6.289   1.459
 7444SOL     OW23230   5.194   2.503   6.917
 7444SOL    HW123231   5.211   2.523   7.013
 7444SOL    HW223232   5.096   2.499   6.900
 7445SOL     OW23233   3.499   0.670   0.959
 7445SOL    HW123234   3.472   0.716   0.875
 7445SOL    HW223235   3.497   0.735   1.035
 7446SOL     OW23236   5.080   2.690   0.522
 7446SOL    HW123237   5.014   2.742   0.576
 7446SOL    HW223238   5.141   2.752   0.473
 7447SOL     OW23239   6.629   3.936   6.866
 7447SOL    HW123240   6.588   4.016   6.824
 7447SOL    HW223241   6.679   3.884   6.797
 7448SOL     OW23242   6.280   6.819   4.773
 7448SOL    HW123243   6.306   6.778   4.686
 7448SOL    HW223244   6.202   6.770   4.811
 7449SOL     OW23245   0.928   4.788   1.598
 7449SOL    HW123246   0.848   4.828   1.553
 7449SOL    HW223247   0.920   4.800   1.697
 7450SOL     OW23248   5.685   2.489   4.752
 7450SOL    HW123249   5.596   2.444   4.760
 7450SOL    HW223250   5.740   2.470   4.833
 7451SOL     OW23251   7.017   5.986   2.631
 7451SOL    HW123252   0.037   6.073   2.597
 7451SOL    HW223253   0.014   5.980   2.730
 7452SOL     OW23254   5.924   5.919   4.172
 7452SOL    HW123255   5.941   6.016   4.186
 7452SOL    HW223256   5.869   5.906   4.090
 7453SOL     OW23257   5.550   4.888   4.855
 7453SOL    HW123258   5.478   4.910   4.920
 7453SOL    HW223259   5.639   4.915   4.892
 7454SOL     OW23260   1.673   2.348   0.726
 7454SOL    HW123261   1.741   2.420   0.743
 7454SOL    HW223262   1.597   2.385   0.672
 7455SOL     OW23263   0.163   2.948   1.570
 7455SOL    HW123264   0.149   2.861   1.521
 7455SOL    HW223265   0.170   3.022   1.504
 7456SOL     OW23266   1.400   0.903   4.697
 7456SOL    HW123267   1.353   0.974   4.748
 7456SOL    HW223268   1.493   0.933   4.675
 7457SOL     OW23269   3.275   1.089   5.095
 7457SOL    HW123270   3.371   1.105   5.119
 7457SOL    HW223271   3.251   1.142   5.014
 7458SOL     OW23272   1.940   0.070   6.125
 7458SOL    HW123273   1.873   0.143   6.109
 7458SOL    HW223274   2.032   0.109   6.121
 7459SOL     OW23275   5.459   0.464   1.987
 7459SOL    HW123276   5.557   0.475   1.969
 7459SOL    HW223277   5.423   0.548   2.028
 7460SOL     OW23278   0.717   5.298   0.636
 7460SOL    HW123279   0.765   5.211   0.639
 7460SOL    HW223280   0.779   5.369   0.601
 7461SOL     OW23281   6.315   0.294   6.798
 7461SOL    HW123282   6.385   0.358   6.764
 7461SOL    HW223283   6.292   0.316   6.892
 7462SOL     OW23284   1.645   4.703   1.906
 7462SOL    HW123285   1.673   4.648   1.827
 7462SOL    HW223286   1.546   4.716   1.903
 7463SOL     OW23287   2.983   4.500   0.584
 7463SOL    HW123288   2.956   4.593   0.605
 7463SOL    HW223289   3.032   4.460   0.662
 7464SOL     OW23290   5.356   6.774   6.475
 7464SOL    HW123291   5.274   6.830   6.462
 7464SOL    HW223292   5.434   6.820   6.433
 7465SOL     OW23293   2.840   5.421   6.472
 7465SOL    HW123294   2.781   5.461   6.402
 7465SOL    HW223295   2.793   5.424   6.560
 7466SOL     OW23296   6.696   0.458   5.250
 7466SOL    HW123297   6.621   0.487   5.309
 7466SOL    HW223298   6.659   0.410   5.170
 7467SOL     OW23299   6.857   1.741   6.276
 7467SOL    HW123300   6.917   1.729   6.197
 7467SOL    HW223301   6.862   1.836   6.308
 7468SOL     OW23302   5.795   3.325   3.781
 7468SOL    HW123303   5.732   3.308   3.857
 7468SOL    HW223304   5.743   3.356   3.701
 7469SOL     OW23305   6.987   0.301   0.250
 7469SOL    HW123306   6.985   0.275   0.346
 7469SOL    HW223307   0.042   0.368   0.235
 7470SOL     OW23308   6.078   3.441   3.209
 7470SOL    HW123309   6.027   3.435   3.123
 7470SOL    HW223310   6.050   3.523   3.260
 7471SOL     OW23311   4.803   6.517   5.906
 7471SOL    HW123312   4.730   6.557   5.852
 7471SOL    HW223313   4.876   6.485   5.845
 7472SOL     OW23314   6.150   0.781   5.783
 7472SOL    HW123315   6.212   0.838   5.729
 7472SOL    HW223316   6.056   0.806   5.762
 7473SOL     OW23317   5.134   5.289   3.687
 7473SOL    HW123318   5.062   5.341   3.733
 7473SOL    HW223319   5.093   5.227   3.621
 7474SOL     OW23320   0.008   1.894   5.819
 7474SOL    HW123321   6.950   1.829   5.808
 7474SOL    HW223322   0.078   1.874   5.750
 7475SOL     OW23323   5.154   2.364   2.063
 7475SOL    HW123324   5.145   2.286   2.001
 7475SOL    HW223325   5.086   2.434   2.039
 7476SOL     OW23326   3.299   1.346   3.181
 7476SOL    HW123327   3.330   1.383   3.269
 7476SOL    HW223328   3.367   1.366   3.111
 7477SOL     OW23329   6.839   1.941   4.941
 7477SOL    HW123330   6.912   1.903   4.884
 7477SOL    HW223331   6.751   1.928   4.895
 7478SOL     OW23332   6.343   3.811   5.648
 7478SOL    HW123333   6.355   3.905   5.681
 7478SOL    HW223334   6.248   3.798   5.620
 7479SOL     OW23335   4.406   2.270   2.125
 7479SOL    HW123336   4.424   2.354   2.177
 7479SOL    HW223337   4.472   2.200   2.151
 7480SOL     OW23338   1.647   4.935   2.354
 7480SOL    HW123339   1.680   4.847   2.388
 7480SOL    HW223340   1.564   4.922   2.300
 7481SOL     OW23341   5.903   5.335   1.214
 7481SOL    HW123342   5.989   5.296   1.181
 7481SOL    HW223343   5.914   5.433   1.230
 7482SOL     OW23344   4.525   2.278   2.722
 7482SOL    HW123345   4.429   2.305   2.725
 7482SOL    HW223346   4.533   2.181   2.744
 7483SOL     OW23347   4.909   3.357   4.325
 7483SOL    HW123348   4.846   3.281   4.335
 7483SOL    HW223349   4.983   3.348   4.391
 7484SOL     OW23350   1.375   6.023   4.175
 7484SOL    HW123351   1.474   6.032   4.173
 7484SOL    HW223352   1.334   6.103   4.129
 7485SOL     OW23353   2.492   0.221   4.680
 7485SOL    HW123354   2.508   0.201   4.583
 7485SOL    HW223355   2.408   0.275   4.689
 7486SOL     OW23356   1.338   6.341   0.306
 7486SOL    HW123357   1.434   6.351   0.276
 7486SOL    HW223358   1.335   6.292   0.393
 7487SOL     OW23359   2.100   0.657   2.839
 7487SOL    HW123360   2.101   0.562   2.870
 7487SOL    HW223361   2.007   0.694   2.848
 7488SOL     OW23362   2.681   5.520   5.330
 7488SOL    HW123363   2.757   5.542   5.391
 7488SOL    HW223364   2.595   5.546   5.373
 7489SOL     OW23365   6.646   2.749   6.238
 7489SOL    HW123366   6.562   2.779   6.192
 7489SOL    HW223367   6.712   2.824   6.239
 7490SOL     OW23368   1.024   0.054   3.547
 7490SOL    HW123369   1.028   0.097   3.637
 7490SOL    HW223370   0.935   0.010   3.535
 7491SOL     OW23371   4.521   3.325   6.438
 7491SOL    HW123372   4.437   3.372   6.467
 7491SOL    HW223373   4.586   3.323   6.514
 7492SOL     OW23374   1.856   0.449   3.786
 7492SOL    HW123375   1.803   0.490   3.860
 7492SOL    HW223376   1.806   0.459   3.700
 7493SOL     OW23377   0.586   2.705   6.279
 7493SOL    HW123378   0.654   2.735   6.346
 7493SOL    HW223379   0.617   2.728   6.187
 7494SOL     OW23380   5.790   1.403   3.179
 7494SOL    HW123381   5.731   1.482   3.164
 7494SOL    HW223382   5.877   1.433   3.216
 7495SOL     OW23383   1.395   2.317   6.814
 7495SOL    HW123384   1.444   2.244   6.769
 7495SOL    HW223385   1.419   2.318   6.911
 7496SOL     OW23386   6.276   3.777   4.055
 7496SOL    HW123387   6.354   3.717   4.038
 7496SOL    HW223388   6.309   3.864   4.093
 7497SOL     OW23389   1.999   4.327   1.221
 7497SOL    HW123390   1.943   4.271   1.160
 7497SOL    HW223391   1.976   4.307   1.316
 7498SOL     OW23392   3.195   1.202   4.874
 7498SOL    HW123393   3.097   1.213   4.890
 7498SOL    HW223394   3.223   1.260   4.798
 7499SOL     OW23395   4.404   2.044   3.009
 7499SOL    HW123396   4.315   2.012   2.979
 7499SOL    HW223397   4.428   2.000   3.096
 7500SOL     OW23398   3.493   5.969   3.502
 7500SOL    HW123399   3.588   5.990   3.484
 7500SOL    HW223400   3.458   6.027   3.576
 7501SOL     OW23401   5.141   4.009   4.455
 7501SOL    HW123402   5.240   3.999   4.458
 7501SOL    HW223403   5.102   3.976   4.541
 7502SOL     OW23404   3.313   0.977   4.589
 7502SOL    HW123405   3.352   1.020   4.508
 7502SOL    HW223406   3.268   0.892   4.564
 7503SOL     OW23407   2.292   6.678   1.317
 7503SOL    HW123408   2.203   6.705   1.354
 7503SOL    HW223409   2.357   6.667   1.392
 7504SOL     OW23410   0.750   6.245   3.619
 7504SOL    HW123411   0.794   6.158   3.644
 7504SOL    HW223412   0.679   6.267   3.686
 7505SOL     OW23413   1.250   2.950   5.892
 7505SOL    HW123414   1.184   2.890   5.937
 7505SOL    HW223415   1.339   2.904   5.888
 7506SOL     OW23416   5.222   1.955   3.666
 7506SOL    HW123417   5.143   1.927   3.611
 7506SOL    HW223418   5.289   1.881   3.668
 7507SOL     OW23419   5.922   1.837   2.671
 7507SOL    HW123420   5.999   1.833   2.607
 7507SOL    HW223421   5.870   1.921   2.654
 7508SOL     OW23422   2.016   5.659   0.945
 7508SOL    HW123423   2.086   5.713   0.899
 7508SOL    HW223424   1.926   5.703   0.932
 7509SOL     OW23425   6.055   3.869   0.930
 7509SOL    HW123426   6.052   3.947   0.994
 7509SOL    HW223427   5.981   3.878   0.864
 7510SOL     OW23428   3.330   3.480   5.056
 7510SOL    HW123429   3.269   3.418   5.006
 7510SOL    HW223430   3.328   3.570   5.013
 7511SOL     OW23431   2.745   5.986   3.386
 7511SOL    HW123432   2.824   5.926   3.373
 7511SOL    HW223433   2.730   5.999   3.484
 7512SOL     OW23434   2.948   0.601   6.369
 7512SOL    HW123435   2.850   0.619   6.368
 7512SOL    HW223436   2.970   0.539   6.444
 7513SOL     OW23437   1.145   1.460   2.079
 7513SOL    HW123438   1.119   1.492   1.988
 7513SOL    HW223439   1.143   1.360   2.081
 7514SOL     OW23440   2.348   4.745   2.967
 7514SOL    HW123441   2.412   4.817   2.941
 7514SOL    HW223442   2.264   4.786   3.002
 7515SOL     OW23443   0.097   4.883   4.499
 7515SOL    HW123444   0.189   4.917   4.478
 7515SOL    HW223445   0.034   4.910   4.426
 7516SOL     OW23446   6.923   5.518   6.191
 7516SOL    HW123447   6.987   5.476   6.127
 7516SOL    HW223448   6.830   5.488   6.169
 7517SOL     OW23449   0.485   2.220   0.016
 7517SOL    HW123450   0.426   2.157   0.067
 7517SOL    HW223451   0.465   2.314   0.044
 7518SOL     OW23452   4.931   3.662   4.365
 7518SOL    HW123453   4.896   3.578   4.325
 7518SOL    HW223454   4.928   3.656   4.464
 7519SOL     OW23455   6.529   6.226   4.657
 7519SOL    HW123456   6.602   6.283   4.696
 7519SOL    HW223457   6.522   6.141   4.708
 7520SOL     OW23458   2.029   0.412   2.913
 7520SOL    HW123459   1.954   0.402   2.978
 7520SOL    HW223460   2.110   0.365   2.948
 7521SOL     OW23461   4.776   2.723   5.408
 7521SOL    HW123462   4.865   2.695   5.443
 7521SOL    HW223463   4.719   2.642   5.392
 7522SOL     OW23464   1.328   1.093   5.728
 7522SOL    HW123465   1.263   1.168   5.739
 7522SOL    HW223466   1.322   1.031   5.806
 7523SOL     OW23467   5.002   0.664   6.380
 7523SOL    HW123468   5.009   0.612   6.465
 7523SOL    HW223469   4.931   0.624   6.323
 7524SOL     OW23470   0.819   2.671   5.082
 7524SOL    HW123471   0.913   2.696   5.105
 7524SOL    HW223472   0.809   2.666   4.982
 7525SOL     OW23473   3.957   0.299   6.973
 7525SOL    HW123474   3.861   0.315   6.952
 7525SOL    HW223475   3.965   0.217   0.013
 7526SOL     OW23476   2.879   2.992   1.350
 7526SOL    HW123477   2.904   2.964   1.257
 7526SOL    HW223478   2.831   3.079   1.348
 7527SOL     OW23479   3.288   6.288   3.834
 7527SOL    HW123480   3.252   6.209   3.884
 7527SOL    HW223481   3.318   6.259   3.743
 7528SOL     OW23482   6.281   2.145   6.334
 7528SOL    HW123483   6.235   2.069   6.380
 7528SOL    HW223484   6.325   2.112   6.251
 7529SOL     OW23485   5.740   1.480   4.619
 7529SOL    HW123486   5.780   1.566   4.588
 7529SOL    HW223487   5.641   1.486   4.616
 7530SOL     OW23488   6.729   2.074   1.898
 7530SOL    HW123489   6.744   2.113   1.807
 7530SOL    HW223490   6.799   2.005   1.917
 7531SOL     OW23491   5.482   3.474   4.190
 7531SOL    HW123492   5.431   3.423   4.122
 7531SOL    HW223493   5.427   3.552   4.220
 7532SOL     OW23494   4.641   6.317   0.905
 7532SOL    HW123495   4.732   6.305   0.864
 7532SOL    HW223496   4.650   6.355   0.996
 7533SOL     OW23497   3.570   1.961   1.455
 7533SOL    HW123498   3.605   1.937   1.546
 7533SOL    HW223499   3.486   1.908   1.437
 7534SOL     OW23500   4.645   5.974   4.627
 7534SOL    HW123501   4.724   5.988   4.687
 7534SOL    HW223502   4.627   5.876   4.618
 7535SOL     OW23503   1.757   6.726   4.916
 7535SOL    HW123504   1.830   6.743   4.849
 7535SOL    HW223505   1.793   6.740   5.008
 7536SOL     OW23506   4.983   4.386   4.231
 7536SOL    HW123507   5.022   4.327   4.160
 7536SOL    HW223508   4.951   4.329   4.307
 7537SOL     OW23509   1.839   5.034   2.525
 7537SOL    HW123510   1.758   5.005   2.474
 7537SOL    HW223511   1.890   5.102   2.472
 7538SOL     OW23512   1.844   2.113   1.421
 7538SOL    HW123513   1.815   2.167   1.500
 7538SOL    HW223514   1.779   2.125   1.346
 7539SOL     OW23515   1.346   3.472   4.390
 7539SOL    HW123516   1.363   3.375   4.367
 7539SOL    HW223517   1.329   3.481   4.488
 7540SOL     OW23518   4.649   0.790   4.679
 7540SOL    HW123519   4.655   0.799   4.580
 7540SOL    HW223520   4.559   0.753   4.704
 7541SOL     OW23521   0.742   3.929   4.860
 7541SOL    HW123522   0.679   3.986   4.913
 7541SOL    HW223523   0.713   3.928   4.764
 7542SOL     OW23524   0.238   5.695   0.268
 7542SOL    HW123525   0.288   5.650   0.194
 7542SOL    HW223526   0.281   5.783   0.290
 7543SOL     OW23527   3.865   1.155   5.064
 7543SOL    HW123528   3.811   1.073   5.041
 7543SOL    HW223529   3.918   1.183   4.984
 7544SOL     OW23530   6.597   2.597   4.390
 7544SOL    HW123531   6.581   2.498   4.389
 7544SOL    HW223532   6.509   2.645   4.395
 7545SOL     OW23533   0.741   6.270   6.377
 7545SOL    HW123534   0.713   6.281   6.473
 7545SOL    HW223535   0.805   6.343   6.352
 7546SOL     OW23536   4.768   2.071   1.380
 7546SOL    HW123537   4.692   2.014   1.411
 7546SOL    HW223538   4.855   2.030   1.410
 7547SOL     OW23539   5.081   1.815   0.772
 7547SOL    HW123540   5.108   1.846   0.864
 7547SOL    HW223541   5.150   1.845   0.706
 7548SOL     OW23542   4.638   2.381   6.419
 7548SOL    HW123543   4.653   2.378   6.518
 7548SOL    HW223544   4.710   2.328   6.373
 7549SOL     OW23545   3.426   3.171   6.535
 7549SOL    HW123546   3.334   3.149   6.565
 7549SOL    HW223547   3.452   3.261   6.569
 7550SOL     OW23548   1.857   4.377   3.859
 7550SOL    HW123549   1.881   4.350   3.952
 7550SOL    HW223550   1.766   4.418   3.858
 7551SOL     OW23551   6.161   2.864   5.196
 7551SOL    HW123552   6.190   2.928   5.125
 7551SOL    HW223553   6.086   2.905   5.249
 7552SOL     OW23554   1.490   5.729   3.846
 7552SOL    HW123555   1.431   5.687   3.915
 7552SOL    HW223556   1.486   5.676   3.762
 7553SOL     OW23557   4.301   6.895   5.715
 7553SOL    HW123558   4.369   6.876   5.644
 7553SOL    HW223559   4.272   6.990   5.710
 7554SOL     OW23560   5.183   0.890   6.631
 7554SOL    HW123561   5.275   0.926   6.622
 7554SOL    HW223562   5.119   0.947   6.579
 7555SOL     OW23563   3.096   5.093   6.235
 7555SOL    HW123564   3.089   5.179   6.286
 7555SOL    HW223565   3.026   5.090   6.163
 7556SOL     OW23566   2.714   2.076   0.144
 7556SOL    HW123567   2.781   2.146   0.118
 7556SOL    HW223568   2.644   2.069   0.073
 7557SOL     OW23569   5.361   0.817   6.270
 7557SOL    HW123570   5.319   0.899   6.308
 7557SOL    HW223571   5.344   0.814   6.171
 7558SOL     OW23572   1.956   2.728   4.563
 7558SOL    HW123573   1.988   2.647   4.513
 7558SOL    HW223574   1.864   2.712   4.596
 7559SOL     OW23575   4.122   3.093   5.743
 7559SOL    HW123576   4.084   3.115   5.833
 7559SOL    HW223577   4.049   3.065   5.681
 7560SOL     OW23578   4.975   6.713   0.481
 7560SOL    HW123579   5.008   6.756   0.565
 7560SOL    HW223580   4.991   6.615   0.485
 7561SOL     OW23581   6.593   3.429   5.855
 7561SOL    HW123582   6.551   3.457   5.942
 7561SOL    HW223583   6.671   3.369   5.874
 7562SOL     OW23584   0.548   5.145   5.762
 7562SOL    HW123585   0.553   5.049   5.732
 7562SOL    HW223586   0.515   5.149   5.856
 7563SOL     OW23587   3.359   0.127   1.455
 7563SOL    HW123588   3.343   0.099   1.550
 7563SOL    HW223589   3.286   0.189   1.426
 7564SOL     OW23590   4.019   0.657   4.095
 7564SOL    HW123591   3.946   0.654   4.027
 7564SOL    HW223592   3.985   0.621   4.182
 7565SOL     OW23593   5.592   3.663   6.616
 7565SOL    HW123594   5.669   3.642   6.555
 7565SOL    HW223595   5.583   3.591   6.685
 7566SOL     OW23596   5.682   5.082   2.481
 7566SOL    HW123597   5.629   5.003   2.451
 7566SOL    HW223598   5.777   5.072   2.452
 7567SOL     OW23599   1.524   1.431   5.833
 7567SOL    HW123600   1.463   1.365   5.791
 7567SOL    HW223601   1.548   1.400   5.925
 7568SOL     OW23602   5.693   4.928   2.749
 7568SOL    HW123603   5.717   4.967   2.660
 7568SOL    HW223604   5.750   4.848   2.766
 7569SOL     OW23605   2.674   4.401   5.938
 7569SOL    HW123606   2.632   4.311   5.929
 7569SOL    HW223607   2.754   4.406   5.878
 7570SOL     OW23608   5.171   3.966   4.002
 7570SOL    HW123609   5.265   3.980   4.034
 7570SOL    HW223610   5.118   3.921   4.073
 7571SOL     OW23611   4.856   4.222   3.482
 7571SOL    HW123612   4.785   4.240   3.550
 7571SOL    HW223613   4.875   4.124   3.479
 7572SOL     OW23614   5.061   1.056   2.398
 7572SOL    HW123615   5.015   1.141   2.426
 7572SOL    HW223616   5.010   0.978   2.434
 7573SOL     OW23617   6.569   0.321   5.531
 7573SOL    HW123618   6.560   0.225   5.505
 7573SOL    HW223619   6.533   0.379   5.458
 7574SOL     OW23620   5.660   0.860   5.039
 7574SOL    HW123621   5.574   0.911   5.028
 7574SOL    HW223622   5.736   0.915   5.004
 7575SOL     OW23623   5.385   0.033   0.021
 7575SOL    HW123624   5.352   0.124   7.011
 7575SOL    HW223625   5.311   6.985   0.009
 7576SOL     OW23626   4.754   3.094   0.479
 7576SOL    HW123627   4.800   3.182   0.488
 7576SOL    HW223628   4.668   3.096   0.531
 7577SOL     OW23629   0.453   6.469   6.721
 7577SOL    HW123630   0.366   6.422   6.735
 7577SOL    HW223631   0.491   6.495   6.810
 7578SOL     OW23632   3.082   5.114   2.568
 7578SOL    HW123633   3.034   5.026   2.572
 7578SOL    HW223634   3.111   5.140   2.660
 7579SOL     OW23635   0.335   1.905   1.557
 7579SOL    HW123636   0.423   1.893   1.604
 7579SOL    HW223637   0.291   1.816   1.546
 7580SOL     OW23638   0.744   4.010   3.711
 7580SOL    HW123639   0.690   4.065   3.647
 7580SOL    HW223640   0.799   3.944   3.659
 7581SOL     OW23641   0.861   1.892   0.906
 7581SOL    HW123642   0.919   1.966   0.940
 7581SOL    HW223643   0.813   1.922   0.824
 7582SOL     OW23644   4.072   1.637   3.593
 7582SOL    HW123645   4.024   1.697   3.657
 7582SOL    HW223646   4.075   1.544   3.631
 7583SOL     OW23647   4.992   2.573   1.993
 7583SOL    HW123648   4.921   2.626   1.947
 7583SOL    HW223649   5.075   2.627   2.000
 7584SOL     OW23650   1.738   0.647   2.808
 7584SOL    HW123651   1.765   0.717   2.874
 7584SOL    HW223652   1.638   0.645   2.801
 7585SOL     OW23653   1.843   2.920   5.821
 7585SOL    HW123654   1.911   2.911   5.747
 7585SOL    HW223655   1.890   2.923   5.909
 7586SOL     OW23656   1.796   6.645   3.733
 7586SOL    HW123657   1.759   6.635   3.641
 7586SOL    HW223658   1.843   6.733   3.741
 7587SOL     OW23659   2.249   1.046   6.916
 7587SOL    HW123660   2.286   1.109   6.848
 7587SOL    HW223661   2.305   0.963   6.919
 7588SOL     OW23662   2.226   2.442   3.255
 7588SOL    HW123663   2.319   2.471   3.278
 7588SOL    HW223664   2.217   2.343   3.272
 7589SOL     OW23665   0.776   0.604   2.611
 7589SOL    HW123666   0.718   0.681   2.584
 7589SOL    HW223667   0.859   0.604   2.555
 7590SOL     OW23668   4.597   1.818   6.869
 7590SOL    HW123669   4.588   1.914   6.844
 7590SOL    HW223670   4.553   1.761   6.799
 7591SOL     OW23671   5.160   4.492   0.421
 7591SOL    HW123672   5.223   4.515   0.347
 7591SOL    HW223673   5.205   4.507   0.509
 7592SOL     OW23674   6.186   5.560   4.488
 7592SOL    HW123675   6.284   5.543   4.478
 7592SOL    HW223676   6.172   5.646   4.537
 7593SOL     OW23677   6.593   3.060   6.918
 7593SOL    HW123678   6.592   3.097   6.825
 7593SOL    HW223679   6.618   2.963   6.914
 7594SOL     OW23680   2.016   4.995   1.798
 7594SOL    HW123681   1.922   5.031   1.804
 7594SOL    HW223682   2.029   4.925   1.867
 7595SOL     OW23683   5.890   3.403   5.993
 7595SOL    HW123684   5.863   3.476   6.055
 7595SOL    HW223685   5.977   3.363   6.024
 7596SOL     OW23686   3.261   6.785   4.541
 7596SOL    HW123687   3.312   6.703   4.566
 7596SOL    HW223688   3.207   6.767   4.458
 7597SOL     OW23689   1.875   6.341   3.220
 7597SOL    HW123690   1.858   6.274   3.292
 7597SOL    HW223691   1.880   6.295   3.132
 7598SOL     OW23692   6.454   0.679   3.594
 7598SOL    HW123693   6.490   0.703   3.504
 7598SOL    HW223694   6.529   0.676   3.660
 7599SOL     OW23695   5.234   2.323   1.593
 7599SOL    HW123696   5.212   2.380   1.515
 7599SOL    HW223697   5.265   2.380   1.669
 7600SOL     OW23698   0.749   0.942   3.804
 7600SOL    HW123699   0.807   0.883   3.860
 7600SOL    HW223700   0.793   0.958   3.716
 7601SOL     OW23701   2.532   4.636   2.097
 7601SOL    HW123702   2.622   4.618   2.058
 7601SOL    HW223703   2.539   4.648   2.196
 7602SOL     OW23704   1.327   3.240   6.859
 7602SOL    HW123705   1.425   3.223   6.855
 7602SOL    HW223706   1.298   3.290   6.777
 7603SOL     OW23707   2.075   6.333   6.558
 7603SOL    HW123708   2.162   6.345   6.510
 7603SOL    HW223709   1.999   6.340   6.493
 7604SOL     OW23710   1.155   2.819   4.766
 7604SOL    HW123711   1.234   2.781   4.815
 7604SOL    HW223712   1.071   2.795   4.814
 7605SOL     OW23713   1.004   0.719   0.810
 7605SOL    HW123714   0.989   0.632   0.763
 7605SOL    HW223715   1.043   0.786   0.746
 7606SOL     OW23716   5.602   2.943   4.308
 7606SOL    HW123717   5.522   2.883   4.295
 7606SOL    HW223718   5.674   2.916   4.244
 7607SOL     OW23719   4.266   4.994   0.849
 7607SOL    HW123720   4.232   5.052   0.923
 7607SOL    HW223721   4.189   4.964   0.793
 7608SOL     OW23722   4.809   3.352   1.291
 7608SOL    HW123723   4.736   3.312   1.235
 7608SOL    HW223724   4.789   3.449   1.308
 7609SOL     OW23725   1.605   3.297   4.672
 7609SOL    HW123726   1.622   3.201   4.648
 7609SOL    HW223727   1.685   3.333   4.720
 7610SOL     OW23728   4.157   4.293   5.754
 7610SOL    HW123729   4.208   4.353   5.692
 7610SOL    HW223730   4.081   4.251   5.704
 7611SOL     OW23731   5.293   4.575   1.104
 7611SOL    HW123732   5.333   4.525   1.181
 7611SOL    HW223733   5.225   4.517   1.059
 7612SOL     OW23734   4.819   3.010   2.820
 7612SOL    HW123735   4.802   3.011   2.722
 7612SOL    HW223736   4.874   3.090   2.845
 7613SOL     OW23737   0.536   1.828   0.849
 7613SOL    HW123738   0.589   1.744   0.838
 7613SOL    HW223739   0.440   1.810   0.827
 7614SOL     OW23740   5.227   2.835   1.380
 7614SOL    HW123741   5.135   2.812   1.411
 7614SOL    HW223742   5.233   2.822   1.281
 7615SOL     OW23743   4.283   3.920   6.455
 7615SOL    HW123744   4.291   3.887   6.550
 7615SOL    HW223745   4.373   3.948   6.422
 7616SOL     OW23746   6.691   6.458   4.648
 7616SOL    HW123747   6.775   6.503   4.618
 7616SOL    HW223748   6.633   6.524   4.695
 7617SOL     OW23749   4.093   6.218   3.233
 7617SOL    HW123750   4.087   6.283   3.157
 7617SOL    HW223751   4.002   6.197   3.266
 7618SOL     OW23752   0.998   2.697   6.331
 7618SOL    HW123753   0.969   2.610   6.371
 7618SOL    HW223754   1.093   2.714   6.354
 7619SOL     OW23755   0.026   3.086   4.676
 7619SOL    HW123756   0.033   2.991   4.646
 7619SOL    HW223757   6.957   3.124   4.646
 7620SOL     OW23758   3.988   5.669   1.739
 7620SOL    HW123759   3.943   5.600   1.682
 7620SOL    HW223760   3.991   5.756   1.689
 7621SOL     OW23761   6.784   1.052   0.857
 7621SOL    HW123762   6.798   1.028   0.953
 7621SOL    HW223763   6.800   1.150   0.844
 7622SOL     OW23764   5.217   4.504   6.561
 7622SOL    HW123765   5.255   4.432   6.619
 7622SOL    HW223766   5.167   4.569   6.618
 7623SOL     OW23767   4.429   4.433   0.366
 7623SOL    HW123768   4.358   4.399   0.428
 7623SOL    HW223769   4.519   4.405   0.400
 7624SOL     OW23770   6.495   3.613   4.044
 7624SOL    HW123771   6.568   3.604   4.111
 7624SOL    HW223772   6.491   3.531   3.988
 7625SOL     OW23773   5.494   1.155   0.202
 7625SOL    HW123774   5.534   1.247   0.204
 7625SOL    HW223775   5.455   1.134   0.291
 7626SOL     OW23776   6.169   0.365   5.905
 7626SOL    HW123777   6.217   0.425   5.840
 7626SOL    HW223778   6.078   0.402   5.923
 7627SOL     OW23779   3.278   2.693   0.517
 7627SOL    HW123780   3.348   2.658   0.579
 7627SOL    HW223781   3.308   2.681   0.422
 7628SOL     OW23782   3.529   2.796   1.790
 7628SOL    HW123783   3.474   2.879   1.776
 7628SOL    HW223784   3.572   2.770   1.704
 7629SOL     OW23785   0.212   4.021   3.599
 7629SOL    HW123786   0.142   4.034   3.529
 7629SOL    HW223787   0.280   3.955   3.567
 7630SOL     OW23788   1.021   0.870   0.278
 7630SOL    HW123789   0.932   0.915   0.275
 7630SOL    HW223790   1.012   0.783   0.326
 7631SOL     OW23791   0.745   1.565   5.337
 7631SOL    HW123792   0.828   1.620   5.336
 7631SOL    HW223793   0.674   1.611   5.283
 7632SOL     OW23794   4.589   4.599   0.892
 7632SOL    HW123795   4.613   4.688   0.929
 7632SOL    HW223796   4.492   4.581   0.908
 7633SOL     OW23797   5.511   1.172   1.783
 7633SOL    HW123798   5.554   1.243   1.839
 7633SOL    HW223799   5.520   1.084   1.829
 7634SOL     OW23800   1.855   1.053   1.731
 7634SOL    HW123801   1.864   1.146   1.697
 7634SOL    HW223802   1.871   1.052   1.830
 7635SOL     OW23803   3.242   4.874   4.799
 7635SOL    HW123804   3.247   4.802   4.868
 7635SOL    HW223805   3.148   4.882   4.765
 7636SOL     OW23806   1.577   3.417   4.092
 7636SOL    HW123807   1.639   3.487   4.129
 7636SOL    HW223808   1.609   3.327   4.119
 7637SOL     OW23809   2.418   5.894   2.694
 7637SOL    HW123810   2.382   5.813   2.648
 7637SOL    HW223811   2.517   5.883   2.708
 7638SOL     OW23812   1.688   5.647   2.421
 7638SOL    HW123813   1.606   5.673   2.370
 7638SOL    HW223814   1.692   5.548   2.430
 7639SOL     OW23815   6.968   1.224   0.539
 7639SOL    HW123816   6.958   1.263   0.630
 7639SOL    HW223817   6.965   1.297   0.471
 7640SOL     OW23818   2.616   2.660   6.458
 7640SOL    HW123819   2.686   2.589   6.451
 7640SOL    HW223820   2.533   2.621   6.498
 7641SOL     OW23821   0.302   3.119   2.595
 7641SOL    HW123822   0.338   3.068   2.517
 7641SOL    HW223823   0.225   3.175   2.565
 7642SOL     OW23824   4.437   0.970   2.110
 7642SOL    HW123825   4.371   0.897   2.130
 7642SOL    HW223826   4.514   0.963   2.173
 7643SOL     OW23827   5.314   1.683   3.295
 7643SOL    HW123828   5.270   1.772   3.300
 7643SOL    HW223829   5.278   1.632   3.217
 7644SOL     OW23830   4.826   2.769   1.878
 7644SOL    HW123831   4.753   2.702   1.890
 7644SOL    HW223832   4.790   2.861   1.891
 7645SOL     OW23833   4.896   3.696   6.127
 7645SOL    HW123834   4.976   3.715   6.070
 7645SOL    HW223835   4.812   3.709   6.074
 7646SOL     OW23836   0.496   2.980   3.863
 7646SOL    HW123837   0.552   2.985   3.945
 7646SOL    HW223838   0.527   2.903   3.807
 7647SOL     OW23839   6.965   2.515   4.468
 7647SOL    HW123840   6.903   2.540   4.393
 7647SOL    HW223841   0.041   2.511   4.434
 7648SOL     OW23842   1.965   1.844   2.246
 7648SOL    HW123843   1.907   1.773   2.205
 7648SOL    HW223844   2.024   1.884   2.176
 7649SOL     OW23845   1.465   0.505   4.158
 7649SOL    HW123846   1.479   0.571   4.085
 7649SOL    HW223847   1.527   0.428   4.146
 7650SOL     OW23848   5.824   0.682   0.728
 7650SOL    HW123849   5.789   0.709   0.818
 7650SOL    HW223850   5.924   0.686   0.729
 7651SOL     OW23851   2.163   0.135   4.776
 7651SOL    HW123852   2.117   0.073   4.713
 7651SOL    HW223853   2.163   0.228   4.738
 7652SOL     OW23854   5.623   2.242   4.999
 7652SOL    HW123855   5.596   2.259   4.905
 7652SOL    HW223856   5.691   2.168   5.002
 7653SOL     OW23857   0.872   1.370   0.443
 7653SOL    HW123858   0.929   1.450   0.458
 7653SOL    HW223859   0.786   1.398   0.399
 7654SOL     OW23860   4.942   3.139   4.071
 7654SOL    HW123861   5.033   3.178   4.086
 7654SOL    HW223862   4.935   3.053   4.121
 7655SOL     OW23863   3.996   0.202   3.707
 7655SOL    HW123864   4.058   0.125   3.721
 7655SOL    HW223865   3.973   0.242   3.796
 7656SOL     OW23866   3.947   3.759   6.538
 7656SOL    HW123867   3.896   3.840   6.509
 7656SOL    HW223868   4.037   3.786   6.572
 7657SOL     OW23869   2.147   1.970   3.320
 7657SOL    HW123870   2.175   1.934   3.409
 7657SOL    HW223871   2.170   1.904   3.248
 7658SOL     OW23872   2.320   0.385   1.032
 7658SOL    HW123873   2.308   0.462   0.969
 7658SOL    HW223874   2.236   0.374   1.086
 7659SOL     OW23875   4.569   4.420   0.100
 7659SOL    HW123876   4.505   4.374   0.162
 7659SOL    HW223877   4.588   4.360   0.022
 7660SOL     OW23878   6.954   5.737   4.113
 7660SOL    HW123879   6.881   5.795   4.078
 7660SOL    HW223880   7.011   5.789   4.177
 7661SOL     OW23881   5.546   2.481   5.140
 7661SOL    HW123882   5.563   2.395   5.092
 7661SOL    HW223883   5.629   2.537   5.137
 7662SOL     OW23884   1.364   2.355   4.013
 7662SOL    HW123885   1.316   2.337   4.099
 7662SOL    HW223886   1.328   2.437   3.971
 7663SOL     OW23887   5.665   4.758   6.223
 7663SOL    HW123888   5.607   4.809   6.287
 7663SOL    HW223889   5.648   4.790   6.130
 7664SOL     OW23890   4.271   1.162   1.982
 7664SOL    HW123891   4.188   1.107   1.975
 7664SOL    HW223892   4.348   1.103   2.009
 7665SOL     OW23893   5.837   0.816   5.243
 7665SOL    HW123894   5.759   0.813   5.181
 7665SOL    HW223895   5.848   0.909   5.278
 7666SOL     OW23896   0.822   4.656   3.144
 7666SOL    HW123897   0.855   4.574   3.098
 7666SOL    HW223898   0.783   4.632   3.233
 7667SOL     OW23899   4.310   0.661   2.383
 7667SOL    HW123900   4.278   0.709   2.464
 7667SOL    HW223901   4.409   0.676   2.373
 7668SOL     OW23902   2.479   4.882   0.826
 7668SOL    HW123903   2.474   4.882   0.926
 7668SOL    HW223904   2.465   4.974   0.791
 7669SOL     OW23905   4.810   1.230   5.541
 7669SOL    HW123906   4.861   1.219   5.456
 7669SOL    HW223907   4.834   1.156   5.604
 7670SOL     OW23908   0.895   5.473   0.523
 7670SOL    HW123909   0.916   5.534   0.600
 7670SOL    HW223910   0.980   5.435   0.487
 7671SOL     OW23911   3.816   0.968   2.293
 7671SOL    HW123912   3.827   1.019   2.208
 7671SOL    HW223913   3.786   1.030   2.366
 7672SOL     OW23914   0.257   6.026   3.109
 7672SOL    HW123915   0.231   5.954   3.173
 7672SOL    HW223916   0.357   6.039   3.111
 7673SOL     OW23917   1.616   5.361   2.520
 7673SOL    HW123918   1.636   5.288   2.584
 7673SOL    HW223919   1.625   5.326   2.426
 7674SOL     OW23920   5.062   1.097   4.113
 7674SOL    HW123921   5.047   0.998   4.121
 7674SOL    HW223922   4.974   1.145   4.123
 7675SOL     OW23923   5.874   6.721   3.075
 7675SOL    HW123924   5.867   6.624   3.050
 7675SOL    HW223925   5.809   6.774   3.021
 7676SOL     OW23926   3.257   2.302   6.232
 7676SOL    HW123927   3.246   2.378   6.296
 7676SOL    HW223928   3.351   2.269   6.234
 7677SOL     OW23929   0.555   4.256   1.130
 7677SOL    HW123930   0.472   4.210   1.099
 7677SOL    HW223931   0.531   4.330   1.193
 7678SOL     OW23932   2.335   2.606   5.362
 7678SOL    HW123933   2.385   2.527   5.396
 7678SOL    HW223934   2.369   2.630   5.270
 7679SOL     OW23935   2.573   5.982   5.495
 7679SOL    HW123936   2.540   5.994   5.589
 7679SOL    HW223937   2.664   5.942   5.496
 7680SOL     OW23938   1.753   0.262   0.820
 7680SOL    HW123939   1.781   0.212   0.738
 7680SOL    HW223940   1.717   0.198   0.888
 7681SOL     OW23941   2.573   1.125   0.542
 7681SOL    HW123942   2.566   1.143   0.640
 7681SOL    HW223943   2.547   1.207   0.491
 7682SOL     OW23944   4.391   0.423   2.251
 7682SOL    HW123945   4.398   0.346   2.315
 7682SOL    HW223946   4.345   0.500   2.296
 7683SOL     OW23947   0.117   1.389   4.569
 7683SOL    HW123948   0.138   1.432   4.480
 7683SOL    HW223949   0.192   1.327   4.593
 7684SOL     OW23950   4.274   1.541   1.146
 7684SOL    HW123951   4.317   1.535   1.236
 7684SOL    HW223952   4.209   1.465   1.135
 7685SOL     OW23953   2.903   1.478   6.041
 7685SOL    HW123954   2.807   1.462   6.021
 7685SOL    HW223955   2.929   1.570   6.012
 7686SOL     OW23956   6.288   6.736   3.471
 7686SOL    HW123957   6.270   6.692   3.559
 7686SOL    HW223958   6.203   6.773   3.434
 7687SOL     OW23959   5.544   4.947   4.589
 7687SOL    HW123960   5.582   4.874   4.533
 7687SOL    HW223961   5.556   4.925   4.686
 7688SOL     OW23962   0.223   6.187   5.621
 7688SOL    HW123963   0.183   6.275   5.644
 7688SOL    HW223964   0.166   6.114   5.659
 7689SOL     OW23965   5.213   6.188   2.776
 7689SOL    HW123966   5.152   6.225   2.846
 7689SOL    HW223967   5.304   6.229   2.786
 7690SOL     OW23968   5.073   5.382   0.888
 7690SOL    HW123969   5.105   5.473   0.860
 7690SOL    HW223970   5.029   5.388   0.978
 7691SOL     OW23971   6.049   4.276   2.937
 7691SOL    HW123972   6.086   4.292   2.845
 7691SOL    HW223973   5.963   4.326   2.947
 7692SOL     OW23974   0.924   5.684   1.934
 7692SOL    HW123975   0.986   5.734   1.874
 7692SOL    HW223976   0.868   5.748   1.986
 7693SOL     OW23977   2.633   0.738   1.041
 7693SOL    HW123978   2.697   0.713   0.968
 7693SOL    HW223979   2.614   0.657   1.097
 7694SOL     OW23980   5.777   2.760   3.432
 7694SOL    HW123981   5.837   2.831   3.395
 7694SOL    HW223982   5.776   2.682   3.370
 7695SOL     OW23983   5.542   1.024   1.564
 7695SOL    HW123984   5.531   0.927   1.587
 7695SOL    HW223985   5.529   1.079   1.646
 7696SOL     OW23986   6.420   2.125   5.785
 7696SOL    HW123987   6.423   2.224   5.771
 7696SOL    HW223988   6.482   2.081   5.720
 7697SOL     OW23989   2.302   0.786   3.248
 7697SOL    HW123990   2.315   0.822   3.156
 7697SOL    HW223991   2.344   0.848   3.314
 7698SOL     OW23992   5.651   0.768   4.527
 7698SOL    HW123993   5.720   0.731   4.589
 7698SOL    HW223994   5.689   0.846   4.477
 7699SOL     OW23995   2.450   5.389   6.112
 7699SOL    HW123996   2.512   5.445   6.168
 7699SOL    HW223997   2.412   5.316   6.167
 7700SOL     OW23998   4.589   6.058   3.888
 7700SOL    HW123999   4.607   6.050   3.790
 7700SOL    HW224000   4.672   6.035   3.940
 7701SOL     OW24001   0.143   2.752   6.875
 7701SOL    HW124002   0.238   2.724   6.860
 7701SOL    HW224003   0.099   2.769   6.787
 7702SOL     OW24004   4.426   5.512   5.091
 7702SOL    HW124005   4.453   5.605   5.067
 7702SOL    HW224006   4.330   5.497   5.067
 7703SOL     OW24007   5.805   6.346   6.689
 7703SOL    HW124008   5.904   6.342   6.698
 7703SOL    HW224009   5.764   6.269   6.739
 7704SOL     OW24010   6.150   0.738   3.031
 7704SOL    HW124011   6.054   0.760   3.013
 7704SOL    HW224012   6.209   0.800   2.979
 7705SOL     OW24013   2.248   5.969   1.040
 7705SOL    HW124014   2.156   5.994   1.073
 7705SOL    HW224015   2.240   5.899   0.969
 7706SOL     OW24016   3.594   3.170   3.940
 7706SOL    HW124017   3.586   3.181   3.841
 7706SOL    HW224018   3.611   3.074   3.962
 7707SOL     OW24019   0.331   4.768   6.337
 7707SOL    HW124020   0.320   4.840   6.268
 7707SOL    HW224021   0.378   4.690   6.296
 7708SOL     OW24022   1.265   6.066   4.607
 7708SOL    HW124023   1.270   6.045   4.705
 7708SOL    HW224024   1.356   6.091   4.573
 7709SOL     OW24025   6.763   4.722   1.528
 7709SOL    HW124026   6.809   4.669   1.458
 7709SOL    HW224027   6.764   4.672   1.614
 7710SOL     OW24028   2.135   2.190   0.646
 7710SOL    HW124029   2.210   2.170   0.710
 7710SOL    HW224030   2.050   2.151   0.681
 7711SOL     OW24031   5.206   6.064   5.303
 7711SOL    HW124032   5.233   6.156   5.274
 7711SOL    HW224033   5.221   6.053   5.401
 7712SOL     OW24034   6.464   5.137   0.931
 7712SOL    HW124035   6.480   5.039   0.925
 7712SOL    HW224036   6.514   5.174   1.010
 7713SOL     OW24037   1.789   3.323   0.227
 7713SOL    HW124038   1.852   3.400   0.214
 7713SOL    HW224039   1.751   3.327   0.320
 7714SOL     OW24040   0.022   5.507   5.598
 7714SOL    HW124041   0.009   5.604   5.577
 7714SOL    HW224042   7.011   5.489   5.692
 7715SOL     OW24043   3.174   2.548   6.417
 7715SOL    HW124044   3.095   2.558   6.357
 7715SOL    HW224045   3.249   2.605   6.384
 7716SOL     OW24046   6.588   4.494   0.504
 7716SOL    HW124047   6.666   4.450   0.459
 7716SOL    HW224048   6.574   4.455   0.595
 7717SOL     OW24049   1.306   1.932   5.477
 7717SOL    HW124050   1.229   1.937   5.413
 7717SOL    HW224051   1.391   1.920   5.427
 7718SOL     OW24052   6.478   3.760   3.169
 7718SOL    HW124053   6.489   3.773   3.268
 7718SOL    HW224054   6.540   3.822   3.121
 7719SOL     OW24055   0.722   3.807   4.412
 7719SOL    HW124056   0.706   3.872   4.338
 7719SOL    HW224057   0.667   3.833   4.492
 7720SOL     OW24058   0.111   2.274   5.811
 7720SOL    HW124059   0.038   2.207   5.815
 7720SOL    HW224060   0.080   2.361   5.849
 7721SOL     OW24061   0.939   6.041   2.124
 7721SOL    HW124062   0.877   5.963   2.108
 7721SOL    HW224063   0.964   6.082   2.037
 7722SOL     OW24064   1.726   4.444   3.441
 7722SOL    HW124065   1.807   4.406   3.485
 7722SOL    HW224066   1.659   4.371   3.426
 7723SOL     OW24067   3.941   3.475   6.398
 7723SOL    HW124068   4.017   3.502   6.339
 7723SOL    HW224069   3.880   3.553   6.413
 7724SOL     OW24070   3.365   4.647   0.712
 7724SOL    HW124071   3.309   4.605   0.639
 7724SOL    HW224072   3.319   4.730   0.745
 7725SOL     OW24073   6.357   1.805   2.913
 7725SOL    HW124074   6.286   1.869   2.885
 7725SOL    HW224075   6.330   1.760   2.997
 7726SOL     OW24076   1.721   4.356   6.679
 7726SOL    HW124077   1.710   4.357   6.580
 7726SOL    HW224078   1.799   4.298   6.704
 7727SOL     OW24079   6.491   2.672   2.041
 7727SOL    HW124080   6.554   2.646   2.115
 7727SOL    HW224081   6.402   2.629   2.056
 7728SOL     OW24082   2.163   3.037   4.987
 7728SOL    HW124083   2.257   3.006   5.005
 7728SOL    HW224084   2.117   2.970   4.928
 7729SOL     OW24085   5.848   1.247   2.103
 7729SOL    HW124086   5.941   1.276   2.078
 7729SOL    HW224087   5.829   1.273   2.198
 7730SOL     OW24088   0.046   4.929   6.323
 7730SOL    HW124089   0.107   4.989   6.271
 7730SOL    HW224090   0.100   4.866   6.379
 7731SOL     OW24091   6.125   6.949   0.231
 7731SOL    HW124092   6.134   6.855   0.199
 7731SOL    HW224093   6.050   6.955   0.297
 7732SOL     OW24094   4.132   0.110   0.126
 7732SOL    HW124095   4.047   0.099   0.178
 7732SOL    HW224096   4.178   0.193   0.154
 7733SOL     OW24097   5.805   5.812   2.100
 7733SOL    HW124098   5.748   5.731   2.114
 7733SOL    HW224099   5.876   5.792   2.033
 7734SOL     OW24100   1.341   4.743   4.967
 7734SOL    HW124101   1.362   4.649   4.996
 7734SOL    HW224102   1.256   4.743   4.914
 7735SOL     OW24103   5.680   5.608   6.362
 7735SOL    HW124104   5.666   5.510   6.343
 7735SOL    HW224105   5.679   5.659   6.276
 7736SOL     OW24106   2.358   3.008   6.939
 7736SOL    HW124107   2.447   3.043   6.968
 7736SOL    HW224108   2.351   3.010   6.840
 7737SOL     OW24109   3.602   0.047   1.783
 7737SOL    HW124110   3.582   7.007   1.862
 7737SOL    HW224111   3.555   0.135   1.794
 7738SOL     OW24112   2.692   5.599   0.855
 7738SOL    HW124113   2.771   5.549   0.819
 7738SOL    HW224114   2.670   5.564   0.946
 7739SOL     OW24115   1.233   1.892   1.944
 7739SOL    HW124116   1.225   1.925   1.850
 7739SOL    HW224117   1.178   1.950   2.005
 7740SOL     OW24118   2.070   1.328   3.021
 7740SOL    HW124119   2.038   1.321   2.927
 7740SOL    HW224120   2.124   1.247   3.045
 7741SOL     OW24121   0.569   4.093   4.966
 7741SOL    HW124122   0.477   4.114   4.934
 7741SOL    HW224123   0.571   4.097   5.066
 7742SOL     OW24124   4.411   2.273   4.053
 7742SOL    HW124125   4.403   2.199   4.119
 7742SOL    HW224126   4.322   2.290   4.011
 7743SOL     OW24127   4.508   1.664   6.670
 7743SOL    HW124128   4.434   1.619   6.722
 7743SOL    HW224129   4.583   1.599   6.657
 7744SOL     OW24130   1.100   6.406   3.816
 7744SOL    HW124131   1.053   6.393   3.903
 7744SOL    HW224132   1.033   6.422   3.744
 7745SOL     OW24133   2.956   6.885   0.237
 7745SOL    HW124134   3.046   6.876   0.279
 7745SOL    HW224135   2.949   6.822   0.160
 7746SOL     OW24136   0.753   0.183   0.465
 7746SOL    HW124137   0.805   0.126   0.528
 7746SOL    HW224138   0.661   0.146   0.454
 7747SOL     OW24139   6.854   6.288   1.344
 7747SOL    HW124140   6.921   6.257   1.411
 7747SOL    HW224141   6.801   6.364   1.383
 7748SOL     OW24142   3.632   3.962   3.991
 7748SOL    HW124143   3.589   3.903   3.923
 7748SOL    HW224144   3.564   3.988   4.060
 7749SOL     OW24145   3.364   3.504   3.650
 7749SOL    HW124146   3.327   3.495   3.558
 7749SOL    HW224147   3.463   3.492   3.648
 7750SOL     OW24148   6.161   5.553   0.172
 7750SOL    HW124149   6.159   5.634   0.113
 7750SOL    HW224150   6.128   5.578   0.263
 7751SOL     OW24151   0.862   2.388   3.160
 7751SOL    HW124152   0.927   2.324   3.120
 7751SOL    HW224153   0.778   2.339   3.185
 7752SOL     OW24154   5.291   5.869   5.125
 7752SOL    HW124155   5.246   5.927   5.192
 7752SOL    HW224156   5.379   5.837   5.162
 7753SOL     OW24157   2.270   0.341   3.857
 7753SOL    HW124158   2.365   0.371   3.866
 7753SOL    HW224159   2.209   0.416   3.880
 7754SOL     OW24160   5.471   6.490   1.886
 7754SOL    HW124161   5.565   6.482   1.920
 7754SOL    HW224162   5.413   6.531   1.956
 7755SOL     OW24163   1.209   1.547   5.770
 7755SOL    HW124164   1.303   1.579   5.783
 7755SOL    HW224165   1.159   1.611   5.712
 7756SOL     OW24166   3.256   4.939   2.931
 7756SOL    HW124167   3.345   4.958   2.974
 7756SOL    HW224168   3.269   4.873   2.856
 7757SOL     OW24169   5.082   5.456   4.316
 7757SOL    HW124170   5.078   5.408   4.404
 7757SOL    HW224171   5.159   5.421   4.263
 7758SOL     OW24172   1.348   2.055   0.032
 7758SOL    HW124173   1.425   2.116   0.014
 7758SOL    HW224174   1.356   2.016   0.123
 7759SOL     OW24175   1.204   2.083   4.832
 7759SOL    HW124176   1.249   2.152   4.776
 7759SOL    HW224177   1.165   2.127   4.914
 7760SOL     OW24178   6.014   3.437   2.715
 7760SOL    HW124179   6.074   3.383   2.657
 7760SOL    HW224180   5.922   3.440   2.677
 7761SOL     OW24181   1.454   0.195   6.659
 7761SOL    HW124182   1.383   0.253   6.698
 7761SOL    HW224183   1.465   0.216   6.562
 7762SOL     OW24184   4.228   0.798   3.950
 7762SOL    HW124185   4.162   0.867   3.980
 7762SOL    HW224186   4.185   0.708   3.949
 7763SOL     OW24187   0.938   1.228   0.670
 7763SOL    HW124188   0.990   1.145   0.651
 7763SOL    HW224189   0.890   1.257   0.587
 7764SOL     OW24190   3.419   2.873   3.198
 7764SOL    HW124191   3.326   2.909   3.206
 7764SOL    HW224192   3.446   2.872   3.102
 7765SOL     OW24193   5.612   2.549   4.032
 7765SOL    HW124194   5.626   2.456   4.066
 7765SOL    HW224195   5.583   2.546   3.936
 7766SOL     OW24196   5.659   2.182   0.225
 7766SOL    HW124197   5.676   2.113   0.154
 7766SOL    HW224198   5.561   2.184   0.245
 7767SOL     OW24199   4.405   6.724   3.775
 7767SOL    HW124200   4.368   6.645   3.823
 7767SOL    HW224201   4.381   6.808   3.823
 7768SOL     OW24202   4.180   5.234   2.563
 7768SOL    HW124203   4.161   5.143   2.524
 7768SOL    HW224204   4.101   5.293   2.548
 7769SOL     OW24205   4.971   2.406   2.710
 7769SOL    HW124206   4.873   2.422   2.709
 7769SOL    HW224207   5.019   2.495   2.706
 7770SOL     OW24208   0.741   3.767   2.336
 7770SOL    HW124209   0.675   3.718   2.394
 7770SOL    HW224210   0.772   3.707   2.262
 7771SOL     OW24211   2.582   2.242   5.213
 7771SOL    HW124212   2.674   2.267   5.184
 7771SOL    HW224213   2.536   2.192   5.140
 7772SOL     OW24214   5.487   1.062   3.046
 7772SOL    HW124215   5.550   1.091   3.119
 7772SOL    HW224216   5.530   1.078   2.957
 7773SOL     OW24217   3.444   5.382   5.149
 7773SOL    HW124218   3.455   5.481   5.146
 7773SOL    HW224219   3.516   5.341   5.205
 7774SOL     OW24220   6.279   2.891   6.441
 7774SOL    HW124221   6.208   2.954   6.471
 7774SOL    HW224222   6.258   2.858   6.349
 7775SOL     OW24223   4.057   6.783   2.872
 7775SOL    HW124224   4.122   6.841   2.822
 7775SOL    HW224225   3.992   6.841   2.921
 7776SOL     OW24226   3.476   4.483   6.770
 7776SOL    HW124227   3.433   4.395   6.792
 7776SOL    HW224228   3.466   4.500   6.672
 7777SOL     OW24229   1.117   0.615   5.207
 7777SOL    HW124230   1.043   0.658   5.258
 7777SOL    HW224231   1.180   0.685   5.174
 7778SOL     OW24232   4.941   5.552   0.323
 7778SOL    HW124233   4.868   5.609   0.362
 7778SOL    HW224234   5.029   5.580   0.362
 7779SOL     OW24235   2.966   2.961   1.088
 7779SOL    HW124236   2.988   3.011   1.004
 7779SOL    HW224237   3.049   2.916   1.122
 7780SOL     OW24238   0.997   5.442   5.634
 7780SOL    HW124239   0.912   5.392   5.651
 7780SOL    HW224240   0.981   5.510   5.562
 7781SOL     OW24241   1.297   5.175   7.002
 7781SOL    HW124242   1.345   5.122   0.054
 7781SOL    HW224243   1.329   5.146   6.911
 7782SOL     OW24244   0.870   4.639   5.707
 7782SOL    HW124245   0.923   4.709   5.661
 7782SOL    HW224246   0.823   4.679   5.786
 7783SOL     OW24247   1.654   5.879   4.978
 7783SOL    HW124248   1.584   5.929   4.927
 7783SOL    HW224249   1.715   5.832   4.914
 7784SOL     OW24250   3.041   2.926   0.424
 7784SOL    HW124251   3.015   3.007   0.371
 7784SOL    HW224252   3.066   2.954   0.517
 7785SOL     OW24253   1.432   6.765   4.033
 7785SOL    HW124254   1.531   6.754   4.025
 7785SOL    HW224255   1.386   6.702   3.970
 7786SOL     OW24256   3.074   5.753   6.912
 7786SOL    HW124257   3.055   5.768   6.815
 7786SOL    HW224258   3.054   5.837   6.963
 7787SOL     OW24259   2.839   3.001   5.929
 7787SOL    HW124260   2.807   2.954   5.847
 7787SOL    HW224261   2.931   2.970   5.951
 7788SOL     OW24262   1.983   6.152   2.074
 7788SOL    HW124263   1.914   6.118   2.011
 7788SOL    HW224264   2.009   6.246   2.048
 7789SOL     OW24265   3.065   6.815   6.942
 7789SOL    HW124266   3.163   6.797   6.953
 7789SOL    HW224267   3.052   6.906   6.902
 7790SOL     OW24268   5.575   5.513   2.867
 7790SOL    HW124269   5.502   5.581   2.875
 7790SOL    HW224270   5.557   5.437   2.929
 7791SOL     OW24271   2.583   6.460   3.720
 7791SOL    HW124272   2.620   6.430   3.632
 7791SOL    HW224273   2.634   6.417   3.794
 7792SOL     OW24274   1.982   5.445   5.355
 7792SOL    HW124275   1.963   5.531   5.307
 7792SOL    HW224276   1.898   5.392   5.363
 7793SOL     OW24277   3.178   0.566   6.750
 7793SOL    HW124278   3.138   0.656   6.766
 7793SOL    HW224279   3.129   0.497   6.804
 7794SOL     OW24280   5.699   5.208   3.690
 7794SOL    HW124281   5.769   5.185   3.622
 7794SOL    HW224282   5.741   5.264   3.762
 7795SOL     OW24283   2.177   3.898   5.606
 7795SOL    HW124284   2.209   3.850   5.688
 7795SOL    HW224285   2.116   3.837   5.554
 7796SOL     OW24286   3.223   3.760   3.046
 7796SOL    HW124287   3.278   3.695   2.994
 7796SOL    HW224288   3.143   3.714   3.083
 7797SOL     OW24289   1.173   6.716   3.380
 7797SOL    HW124290   1.190   6.732   3.477
 7797SOL    HW224291   1.259   6.693   3.334
 7798SOL     OW24292   1.766   4.755   6.237
 7798SOL    HW124293   1.755   4.760   6.138
 7798SOL    HW224294   1.713   4.678   6.272
 7799SOL     OW24295   0.689   6.137   2.210
 7799SOL    HW124296   0.704   6.163   2.305
 7799SOL    HW224297   0.775   6.109   2.168
 7800SOL     OW24298   1.138   5.374   0.478
 7800SOL    HW124299   1.148   5.372   0.578
 7800SOL    HW224300   1.162   5.285   0.441
 7801SOL     OW24301   1.956   2.265   1.749
 7801SOL    HW124302   1.982   2.308   1.836
 7801SOL    HW224303   1.901   2.184   1.767
 7802SOL     OW24304   5.847   2.015   1.050
 7802SOL    HW124305   5.753   2.027   1.082
 7802SOL    HW224306   5.852   2.032   0.952
 7803SOL     OW24307   4.242   2.299   6.148
 7803SOL    HW124308   4.280   2.322   6.058
 7803SOL    HW224309   4.280   2.212   6.179
 7804SOL     OW24310   5.034   1.393   4.418
 7804SOL    HW124311   4.960   1.366   4.357
 7804SOL    HW224312   5.093   1.460   4.373
 7805SOL     OW24313   5.433   1.663   0.574
 7805SOL    HW124314   5.419   1.565   0.560
 7805SOL    HW224315   5.344   1.708   0.579
 7806SOL     OW24316   5.866   2.124   6.363
 7806SOL    HW124317   5.848   2.221   6.346
 7806SOL    HW224318   5.936   2.115   6.434
 7807SOL     OW24319   0.569   4.370   5.350
 7807SOL    HW124320   0.564   4.394   5.447
 7807SOL    HW224321   0.650   4.413   5.309
 7808SOL     OW24322   6.683   2.887   4.346
 7808SOL    HW124323   6.638   2.799   4.333
 7808SOL    HW224324   6.624   2.948   4.400
 7809SOL     OW24325   2.499   6.028   4.534
 7809SOL    HW124326   2.531   6.100   4.596
 7809SOL    HW224327   2.401   6.038   4.518
 7810SOL     OW24328   3.759   0.610   4.810
 7810SOL    HW124329   3.845   0.608   4.861
 7810SOL    HW224330   3.724   0.517   4.801
 7811SOL     OW24331   0.844   5.020   3.116
 7811SOL    HW124332   0.831   4.949   3.046
 7811SOL    HW224333   0.909   4.987   3.184
 7812SOL     OW24334   1.431   2.054   3.294
 7812SOL    HW124335   1.468   2.125   3.354
 7812SOL    HW224336   1.339   2.080   3.265
 7813SOL     OW24337   3.642   2.577   6.598
 7813SOL    HW124338   3.725   2.576   6.543
 7813SOL    HW224339   3.653   2.642   6.673
 7814SOL     OW24340   6.687   3.028   3.627
 7814SOL    HW124341   6.769   2.973   3.644
 7814SOL    HW224342   6.707   3.095   3.555
 7815SOL     OW24343   4.804   0.197   6.137
 7815SOL    HW124344   4.743   0.119   6.143
 7815SOL    HW224345   4.752   0.281   6.152
 7816SOL     OW24346   1.514   2.121   6.659
 7816SOL    HW124347   1.493   2.163   6.570
 7816SOL    HW224348   1.559   2.034   6.645
 7817SOL     OW24349   5.330   4.331   3.468
 7817SOL    HW124350   5.382   4.416   3.474
 7817SOL    HW224351   5.362   4.267   3.538
 7818SOL     OW24352   4.883   0.648   2.814
 7818SOL    HW124353   4.978   0.635   2.788
 7818SOL    HW224354   4.853   0.741   2.790
 7819SOL     OW24355   6.447   3.335   2.036
 7819SOL    HW124356   6.489   3.362   1.950
 7819SOL    HW224357   6.359   3.290   2.017
 7820SOL     OW24358   1.152   2.346   4.569
 7820SOL    HW124359   1.072   2.305   4.524
 7820SOL    HW224360   1.134   2.442   4.587
 7821SOL     OW24361   5.139   6.041   1.306
 7821SOL    HW124362   5.047   6.043   1.266
 7821SOL    HW224363   5.187   5.959   1.274
 7822SOL     OW24364   0.691   1.203   5.863
 7822SOL    HW124365   0.780   1.165   5.889
 7822SOL    HW224366   0.619   1.154   5.911
 7823SOL     OW24367   2.545   4.011   5.439
 7823SOL    HW124368   2.616   3.941   5.448
 7823SOL    HW224369   2.501   4.002   5.349
 7824SOL     OW24370   5.935   1.203   4.015
 7824SOL    HW124371   5.906   1.136   3.946
 7824SOL    HW224372   6.007   1.164   4.072
 7825SOL     OW24373   0.976   3.053   1.133
 7825SOL    HW124374   0.983   3.129   1.069
 7825SOL    HW224375   1.065   3.007   1.140
 7826SOL     OW24376   6.298   1.364   1.243
 7826SOL    HW124377   6.219   1.425   1.243
 7826SOL    HW224378   6.370   1.403   1.300
 7827SOL     OW24379   1.934   5.568   1.405
 7827SOL    HW124380   1.838   5.596   1.405
 7827SOL    HW224381   1.992   5.648   1.391
 7828SOL     OW24382   0.368   4.669   0.007
 7828SOL    HW124383   0.323   4.735   0.068
 7828SOL    HW224384   0.390   4.713   6.939
 7829SOL     OW24385   2.209   3.552   1.401
 7829SOL    HW124386   2.151   3.478   1.366
 7829SOL    HW224387   2.208   3.550   1.501
 7830SOL     OW24388   2.516   4.598   5.031
 7830SOL    HW124389   2.615   4.613   5.027
 7830SOL    HW224390   2.479   4.640   5.114
 7831SOL     OW24391   1.863   6.731   1.853
 7831SOL    HW124392   1.935   6.700   1.791
 7831SOL    HW224393   1.873   6.685   1.941
 7832SOL     OW24394   5.707   1.109   3.505
 7832SOL    HW124395   5.779   1.040   3.497
 7832SOL    HW224396   5.654   1.092   3.588
 7833SOL     OW24397   0.648   0.925   5.739
 7833SOL    HW124398   0.584   0.979   5.793
 7833SOL    HW224399   0.729   0.979   5.719
 7834SOL     OW24400   6.717   1.545   3.787
 7834SOL    HW124401   6.742   1.542   3.884
 7834SOL    HW224402   6.784   1.493   3.734
 7835SOL     OW24403   3.416   2.218   5.234
 7835SOL    HW124404   3.364   2.161   5.297
 7835SOL    HW224405   3.360   2.296   5.206
 7836SOL     OW24406   3.363   2.862   4.828
 7836SOL    HW124407   3.462   2.854   4.818
 7836SOL    HW224408   3.338   2.851   4.924
 7837SOL     OW24409   4.757   4.806   6.923
 7837SOL    HW124410   4.658   4.812   6.924
 7837SOL    HW224411   4.792   4.806   7.017
 7838SOL     OW24412   4.153   6.988   1.065
 7838SOL    HW124413   4.054   6.982   1.067
 7838SOL    HW224414   4.192   6.905   1.026
 7839SOL     OW24415   5.701   4.641   5.248
 7839SOL    HW124416   5.729   4.565   5.306
 7839SOL    HW224417   5.640   4.608   5.176
 7840SOL     OW24418   6.474   2.928   4.071
 7840SOL    HW124419   6.388   2.973   4.045
 7840SOL    HW224420   6.544   2.997   4.089
 7841SOL     OW24421   3.595   1.833   5.950
 7841SOL    HW124422   3.607   1.806   6.046
 7841SOL    HW224423   3.667   1.790   5.895
 7842SOL     OW24424   2.824   2.294   2.767
 7842SOL    HW124425   2.785   2.355   2.698
 7842SOL    HW224426   2.750   2.244   2.813
 7843SOL     OW24427   0.926   6.127   3.414
 7843SOL    HW124428   0.849   6.184   3.384
 7843SOL    HW224429   0.920   6.113   3.513
 7844SOL     OW24430   3.329   0.760   3.213
 7844SOL    HW124431   3.327   0.742   3.311
 7844SOL    HW224432   3.339   0.859   3.197
 7845SOL     OW24433   5.430   1.732   2.867
 7845SOL    HW124434   5.332   1.751   2.860
 7845SOL    HW224435   5.478   1.813   2.900
 7846SOL     OW24436   0.673   2.227   0.757
 7846SOL    HW124437   0.576   2.248   0.771
 7846SOL    HW224438   0.684   2.129   0.741
 7847SOL     OW24439   6.668   1.279   3.211
 7847SOL    HW124440   6.765   1.278   3.189
 7847SOL    HW224441   6.621   1.345   3.153
 7848SOL     OW24442   3.273   4.858   0.499
 7848SOL    HW124443   3.251   4.925   0.570
 7848SOL    HW224444   3.306   4.774   0.541
 7849SOL     OW24445   6.103   4.532   4.760
 7849SOL    HW124446   6.133   4.443   4.793
 7849SOL    HW224447   6.150   4.553   4.674
 7850SOL     OW24448   0.135   1.205   4.174
 7850SOL    HW124449   0.214   1.266   4.181
 7850SOL    HW224450   0.052   1.259   4.163
 7851SOL     OW24451   6.444   1.536   1.436
 7851SOL    HW124452   6.363   1.573   1.483
 7851SOL    HW224453   6.503   1.612   1.408
 7852SOL     OW24454   3.675   1.796   6.589
 7852SOL    HW124455   3.716   1.875   6.544
 7852SOL    HW224456   3.746   1.728   6.607
 7853SOL     OW24457   4.940   2.436   1.619
 7853SOL    HW124458   4.981   2.431   1.528
 7853SOL    HW224459   4.996   2.495   1.677
 7854SOL     OW24460   3.676   3.487   6.245
 7854SOL    HW124461   3.646   3.464   6.337
 7854SOL    HW224462   3.750   3.425   6.218
 7855SOL     OW24463   4.540   6.592   4.367
 7855SOL    HW124464   4.530   6.509   4.313
 7855SOL    HW224465   4.634   6.625   4.362
 7856SOL     OW24466   6.370   6.047   5.148
 7856SOL    HW124467   6.329   5.974   5.201
 7856SOL    HW224468   6.298   6.100   5.102
 7857SOL     OW24469   4.714   2.719   0.291
 7857SOL    HW124470   4.631   2.775   0.290
 7857SOL    HW224471   4.706   2.649   0.363
 7858SOL     OW24472   6.299   6.227   3.998
 7858SOL    HW124473   6.228   6.216   3.928
 7858SOL    HW224474   6.385   6.256   3.954
 7859SOL     OW24475   4.192   2.917   6.085
 7859SOL    HW124476   4.282   2.874   6.092
 7859SOL    HW224477   4.197   3.012   6.116
 7860SOL     OW24478   4.266   1.027   3.770
 7860SOL    HW124479   4.333   1.094   3.738
 7860SOL    HW224480   4.300   0.984   3.854
 7861SOL     OW24481   3.408   4.702   1.577
 7861SOL    HW124482   3.451   4.684   1.666
 7861SOL    HW224483   3.452   4.646   1.507
 7862SOL     OW24484   2.286   4.779   1.820
 7862SOL    HW124485   2.272   4.856   1.758
 7862SOL    HW224486   2.307   4.812   1.911
 7863SOL     OW24487   6.850   3.874   4.575
 7863SOL    HW124488   6.937   3.826   4.563
 7863SOL    HW224489   6.839   3.942   4.503
 7864SOL     OW24490   0.628   5.653   5.751
 7864SOL    HW124491   0.704   5.682   5.809
 7864SOL    HW224492   0.579   5.578   5.795
 7865SOL     OW24493   6.741   5.910   4.077
 7865SOL    HW124494   6.719   6.007   4.084
 7865SOL    HW224495   6.686   5.858   4.143
 7866SOL     OW24496   0.541   1.233   5.579
 7866SOL    HW124497   0.449   1.266   5.604
 7866SOL    HW224498   0.597   1.227   5.662
 7867SOL     OW24499   6.020   6.182   3.424
 7867SOL    HW124500   6.012   6.274   3.462
 7867SOL    HW224501   5.985   6.181   3.330
 7868SOL     OW24502   4.736   6.437   1.940
 7868SOL    HW124503   4.641   6.408   1.952
 7868SOL    HW224504   4.740   6.507   1.869
 7869SOL     OW24505   5.146   4.244   6.725
 7869SOL    HW124506   5.063   4.217   6.774
 7869SOL    HW224507   5.212   4.168   6.727
 7870SOL     OW24508   5.169   6.247   4.156
 7870SOL    HW124509   5.256   6.289   4.131
 7870SOL    HW224510   5.173   6.148   4.141
 7871SOL     OW24511   4.579   2.126   1.629
 7871SOL    HW124512   4.482   2.148   1.623
 7871SOL    HW224513   4.623   2.186   1.695
 7872SOL     OW24514   1.951   3.210   3.314
 7872SOL    HW124515   2.004   3.227   3.231
 7872SOL    HW224516   2.008   3.161   3.381
 7873SOL     OW24517   5.755   6.701   6.419
 7873SOL    HW124518   5.684   6.772   6.414
 7873SOL    HW224519   5.817   6.722   6.494
 7874SOL     OW24520   4.914   2.452   0.699
 7874SOL    HW124521   4.915   2.449   0.599
 7874SOL    HW224522   5.007   2.472   0.732
 7875SOL     OW24523   4.761   2.780   0.001
 7875SOL    HW124524   4.744   2.778   0.100
 7875SOL    HW224525   4.733   2.693   6.978
 7876SOL     OW24526   1.292   6.689   3.616
 7876SOL    HW124527   1.325   6.596   3.599
 7876SOL    HW224528   1.244   6.691   3.703
 7877SOL     OW24529   0.645   1.540   2.744
 7877SOL    HW124530   0.706   1.584   2.810
 7877SOL    HW224531   0.604   1.459   2.786
 7878SOL     OW24532   4.912   4.401   4.773
 7878SOL    HW124533   4.899   4.306   4.800
 7878SOL    HW224534   4.903   4.460   4.854
 7879SOL     OW24535   3.854   5.340   3.376
 7879SOL    HW124536   3.786   5.341   3.303
 7879SOL    HW224537   3.818   5.388   3.456
 7880SOL     OW24538   2.000   3.845   1.904
 7880SOL    HW124539   2.084   3.826   1.854
 7880SOL    HW224540   1.926   3.862   1.840
 7881SOL     OW24541   5.821   5.155   5.258
 7881SOL    HW124542   5.859   5.066   5.232
 7881SOL    HW224543   5.856   5.225   5.197
 7882SOL     OW24544   1.623   3.450   2.009
 7882SOL    HW124545   1.600   3.455   2.106
 7882SOL    HW224546   1.697   3.514   1.988
 7883SOL     OW24547   0.979   0.637   0.427
 7883SOL    HW124548   1.062   0.672   0.470
 7883SOL    HW224549   0.978   0.537   0.430
 7884SOL     OW24550   1.805   4.046   4.221
 7884SOL    HW124551   1.727   3.985   4.210
 7884SOL    HW224552   1.849   4.028   4.309
 7885SOL     OW24553   6.657   5.537   1.178
 7885SOL    HW124554   6.606   5.618   1.206
 7885SOL    HW224555   6.695   5.492   1.259
 7886SOL     OW24556   3.768   5.384   0.077
 7886SOL    HW124557   3.705   5.457   0.104
 7886SOL    HW224558   3.848   5.385   0.137
 7887SOL     OW24559   3.494   2.684   5.610
 7887SOL    HW124560   3.503   2.684   5.511
 7887SOL    HW224561   3.534   2.768   5.648
 7888SOL     OW24562   6.215   0.343   5.541
 7888SOL    HW124563   6.299   0.389   5.569
 7888SOL    HW224564   6.165   0.402   5.477
 7889SOL     OW24565   1.635   3.802   1.987
 7889SOL    HW124566   1.603   3.791   2.082
 7889SOL    HW224567   1.671   3.715   1.954
 7890SOL     OW24568   1.797   2.960   3.062
 7890SOL    HW124569   1.797   2.986   2.966
 7890SOL    HW224570   1.771   3.039   3.119
 7891SOL     OW24571   1.866   3.051   3.719
 7891SOL    HW124572   1.889   2.962   3.759
 7891SOL    HW224573   1.878   3.122   3.789
 7892SOL     OW24574   2.427   1.426   4.067
 7892SOL    HW124575   2.527   1.418   4.063
 7892SOL    HW224576   2.391   1.444   3.975
 7893SOL     OW24577   6.981   6.538   2.690
 7893SOL    HW124578   6.966   6.440   2.681
 7893SOL    HW224579   6.894   6.584   2.706
 7894SOL     OW24580   2.980   0.647   1.020
 7894SOL    HW124581   2.990   0.630   1.118
 7894SOL    HW224582   3.032   0.728   0.995
 7895SOL     OW24583   6.036   0.678   5.393
 7895SOL    HW124584   6.089   0.749   5.438
 7895SOL    HW224585   5.965   0.720   5.337
 7896SOL     OW24586   4.710   3.528   6.919
 7896SOL    HW124587   4.654   3.599   6.876
 7896SOL    HW224588   4.766   3.483   6.849
 7897SOL     OW24589   2.571   4.235   0.098
 7897SOL    HW124590   2.548   4.313   0.040
 7897SOL    HW224591   2.511   4.158   0.076
 7898SOL     OW24592   4.764   1.796   3.519
 7898SOL    HW124593   4.736   1.769   3.427
 7898SOL    HW224594   4.824   1.725   3.557
 7899SOL     OW24595   5.979   1.179   0.917
 7899SOL    HW124596   5.910   1.141   0.979
 7899SOL    HW224597   5.947   1.173   0.823
 7900SOL     OW24598   1.406   5.596   1.354
 7900SOL    HW124599   1.350   5.644   1.287
 7900SOL    HW224600   1.366   5.607   1.445
 7901SOL     OW24601   5.123   1.400   6.736
 7901SOL    HW124602   5.048   1.339   6.759
 7901SOL    HW224603   5.210   1.350   6.744
 7902SOL     OW24604   5.441   5.841   1.556
 7902SOL    HW124605   5.414   5.929   1.595
 7902SOL    HW224606   5.533   5.848   1.518
 7903SOL     OW24607   5.923   1.621   0.503
 7903SOL    HW124608   6.006   1.592   0.457
 7903SOL    HW224609   5.915   1.575   0.591
 7904SOL     OW24610   5.841   6.603   3.317
 7904SOL    HW124611   5.772   6.531   3.317
 7904SOL    HW224612   5.846   6.646   3.227
 7905SOL     OW24613   4.469   2.465   0.694
 7905SOL    HW124614   4.397   2.395   0.700
 7905SOL    HW224615   4.544   2.440   0.755
 7906SOL     OW24616   6.963   5.266   0.194
 7906SOL    HW124617   6.880   5.243   0.244
 7906SOL    HW224618   6.951   5.245   0.097
 7907SOL     OW24619   5.690   2.282   3.436
 7907SOL    HW124620   5.724   2.192   3.409
 7907SOL    HW224621   5.699   2.292   3.535
 7908SOL     OW24622   0.485   1.683   4.927
 7908SOL    HW124623   0.386   1.669   4.930
 7908SOL    HW224624   0.512   1.712   4.835
 7909SOL     OW24625   5.546   3.328   5.190
 7909SOL    HW124626   5.580   3.418   5.219
 7909SOL    HW224627   5.457   3.311   5.232
 7910SOL     OW24628   3.043   3.467   6.062
 7910SOL    HW124629   3.000   3.455   5.973
 7910SOL    HW224630   3.143   3.469   6.051
 7911SOL     OW24631   1.588   2.922   6.530
 7911SOL    HW124632   1.513   2.986   6.518
 7911SOL    HW224633   1.659   2.963   6.588
 7912SOL     OW24634   6.896   4.975   0.295
 7912SOL    HW124635   6.819   5.002   0.353
 7912SOL    HW224636   6.863   4.923   0.216
 7913SOL     OW24637   1.136   5.236   1.251
 7913SOL    HW124638   1.179   5.326   1.240
 7913SOL    HW224639   1.203   5.172   1.290
 7914SOL     OW24640   7.000   4.497   5.842
 7914SOL    HW124641   7.015   4.593   5.863
 7914SOL    HW224642   0.069   4.452   5.823
 7915SOL     OW24643   4.856   2.808   2.293
 7915SOL    HW124644   4.810   2.767   2.214
 7915SOL    HW224645   4.876   2.904   2.274
 7916SOL     OW24646   6.983   3.868   5.411
 7916SOL    HW124647   6.913   3.933   5.381
 7916SOL    HW224648   6.951   3.819   5.492
 7917SOL     OW24649   3.233   3.812   3.464
 7917SOL    HW124650   3.216   3.760   3.548
 7917SOL    HW224651   3.325   3.794   3.431
 7918SOL     OW24652   0.268   1.934   0.221
 7918SOL    HW124653   0.357   1.935   0.267
 7918SOL    HW224654   0.195   1.924   0.288
 7919SOL     OW24655   1.642   4.805   3.059
 7919SOL    HW124656   1.588   4.767   3.134
 7919SOL    HW224657   1.589   4.801   2.974
 7920SOL     OW24658   0.471   5.326   1.137
 7920SOL    HW124659   0.457   5.228   1.154
 7920SOL    HW224660   0.461   5.344   1.039
 7921SOL     OW24661   4.374   6.455   0.812
 7921SOL    HW124662   4.399   6.426   0.720
 7921SOL    HW224663   4.447   6.432   0.876
 7922SOL     OW24664   6.631   5.854   0.460
 7922SOL    HW124665   6.727   5.850   0.490
 7922SOL    HW224666   6.624   5.914   0.380
 7923SOL     OW24667   3.202   0.484   1.933
 7923SOL    HW124668   3.122   0.450   1.883
 7923SOL    HW224669   3.219   0.579   1.908
 7924SOL     OW24670   4.488   6.379   2.847
 7924SOL    HW124671   4.515   6.419   2.759
 7924SOL    HW224672   4.492   6.450   2.918
 7925SOL     OW24673   0.698   1.837   6.289
 7925SOL    HW124674   0.600   1.833   6.305
 7925SOL    HW224675   0.746   1.804   6.371
 7926SOL     OW24676   5.148   1.385   5.339
 7926SOL    HW124677   5.220   1.397   5.408
 7926SOL    HW224678   5.126   1.473   5.298
 7927SOL     OW24679   4.093   5.438   4.572
 7927SOL    HW124680   4.117   5.379   4.495
 7927SOL    HW224681   3.994   5.441   4.581
 7928SOL     OW24682   1.719   2.633   4.645
 7928SOL    HW124683   1.655   2.700   4.683
 7928SOL    HW224684   1.728   2.555   4.707
 7929SOL     OW24685   3.844   3.927   5.555
 7929SOL    HW124686   3.888   3.837   5.561
 7929SOL    HW224687   3.760   3.926   5.609
 7930SOL     OW24688   4.708   5.804   4.187
 7930SOL    HW124689   4.791   5.759   4.219
 7930SOL    HW224690   4.713   5.817   4.088
 7931SOL     OW24691   1.590   1.564   6.300
 7931SOL    HW124692   1.598   1.664   6.304
 7931SOL    HW224693   1.500   1.536   6.333
 7932SOL     OW24694   3.059   6.376   6.508
 7932SOL    HW124695   3.106   6.372   6.420
 7932SOL    HW224696   3.113   6.328   6.577
 7933SOL     OW24697   0.212   6.305   6.983
 7933SOL    HW124698   0.162   6.221   7.001
 7933SOL    HW224699   0.178   6.347   6.899
 7934SOL     OW24700   2.306   4.948   0.135
 7934SOL    HW124701   2.267   4.858   0.113
 7934SOL    HW224702   2.271   4.979   0.223
 7935SOL     OW24703   5.744   6.343   0.393
 7935SOL    HW124704   5.686   6.316   0.470
 7935SOL    HW224705   5.832   6.376   0.427
 7936SOL     OW24706   3.701   4.890   3.028
 7936SOL    HW124707   3.662   4.887   2.936
 7936SOL    HW224708   3.791   4.847   3.028
 7937SOL     OW24709   6.189   7.014   3.906
 7937SOL    HW124710   6.098   7.010   3.866
 7937SOL    HW224711   6.221   6.921   3.925
 7938SOL     OW24712   6.147   5.376   5.313
 7938SOL    HW124713   6.214   5.314   5.271
 7938SOL    HW224714   6.060   5.370   5.263
 7939SOL     OW24715   0.828   2.623   5.773
 7939SOL    HW124716   0.857   2.715   5.747
 7939SOL    HW224717   0.759   2.629   5.844
 7940SOL     OW24718   1.581   3.646   2.716
 7940SOL    HW124719   1.629   3.688   2.639
 7940SOL    HW224720   1.483   3.641   2.697
 7941SOL     OW24721   6.912   6.582   0.545
 7941SOL    HW124722   6.983   6.643   0.579
 7941SOL    HW224723   6.927   6.566   0.447
 7942SOL     OW24724   6.655   5.923   2.932
 7942SOL    HW124725   6.707   5.989   2.985
 7942SOL    HW224726   6.710   5.841   2.917
 7943SOL     OW24727   5.920   2.425   0.030
 7943SOL    HW124728   5.992   2.490   0.053
 7943SOL    HW224729   5.961   2.337   0.007
 7944SOL     OW24730   0.659   3.491   1.383
 7944SOL    HW124731   0.560   3.490   1.370
 7944SOL    HW224732   0.704   3.456   1.301
 7945SOL     OW24733   5.114   6.304   2.287
 7945SOL    HW124734   5.030   6.291   2.338
 7945SOL    HW224735   5.094   6.308   2.189
 7946SOL     OW24736   2.509   2.157   5.867
 7946SOL    HW124737   2.563   2.113   5.939
 7946SOL    HW224738   2.465   2.239   5.904
 7947SOL     OW24739   3.862   2.510   6.164
 7947SOL    HW124740   3.882   2.535   6.259
 7947SOL    HW224741   3.823   2.590   6.117
 7948SOL     OW24742   0.751   6.147   1.071
 7948SOL    HW124743   0.653   6.134   1.083
 7948SOL    HW224744   0.800   6.108   1.149
 7949SOL     OW24745   4.525   4.496   4.193
 7949SOL    HW124746   4.560   4.446   4.272
 7949SOL    HW224747   4.442   4.546   4.219
 7950SOL     OW24748   5.306   5.143   4.478
 7950SOL    HW124749   5.240   5.203   4.522
 7950SOL    HW224750   5.388   5.136   4.536
 7951SOL     OW24751   1.661   3.762   1.277
 7951SOL    HW124752   1.714   3.700   1.334
 7951SOL    HW224753   1.567   3.728   1.268
 7952SOL     OW24754   0.961   3.395   6.740
 7952SOL    HW124755   0.916   3.350   6.663
 7952SOL    HW224756   0.995   3.485   6.712
 7953SOL     OW24757   1.951   2.657   3.452
 7953SOL    HW124758   1.876   2.618   3.506
 7953SOL    HW224759   1.913   2.705   3.373
 7954SOL     OW24760   4.519   4.550   5.375
 7954SOL    HW124761   4.557   4.629   5.423
 7954SOL    HW224762   4.567   4.467   5.404
 7955SOL     OW24763   1.442   6.855   6.405
 7955SOL    HW124764   1.343   6.862   6.414
 7955SOL    HW224765   1.466   6.769   6.361
 7956SOL     OW24766   2.724   6.001   2.992
 7956SOL    HW124767   2.799   6.066   2.981
 7956SOL    HW224768   2.760   5.912   3.021
 7957SOL     OW24769   2.040   1.171   0.299
 7957SOL    HW124770   2.012   1.209   0.387
 7957SOL    HW224771   2.090   1.241   0.247
 7958SOL     OW24772   3.064   5.601   4.249
 7958SOL    HW124773   3.051   5.667   4.175
 7958SOL    HW224774   3.126   5.529   4.218
 7959SOL     OW24775   4.205   5.788   1.534
 7959SOL    HW124776   4.202   5.738   1.447
 7959SOL    HW224777   4.113   5.814   1.562
 7960SOL     OW24778   3.763   1.705   0.757
 7960SOL    HW124779   3.758   1.685   0.659
 7960SOL    HW224780   3.671   1.701   0.796
 7961SOL     OW24781   0.956   6.342   0.682
 7961SOL    HW124782   0.950   6.341   0.782
 7961SOL    HW224783   0.979   6.251   0.649
 7962SOL     OW24784   2.047   6.971   0.211
 7962SOL    HW124785   1.959   6.925   0.197
 7962SOL    HW224786   2.032   0.046   0.245
 7963SOL     OW24787   6.887   0.785   3.531
 7963SOL    HW124788   6.854   0.831   3.612
 7963SOL    HW224789   6.819   0.719   3.499
 7964SOL     OW24790   6.874   5.343   3.312
 7964SOL    HW124791   6.909   5.259   3.270
 7964SOL    HW224792   6.914   5.422   3.265
 7965SOL     OW24793   3.432   2.992   6.917
 7965SOL    HW124794   3.526   2.969   6.892
 7965SOL    HW224795   3.369   2.947   6.853
 7966SOL     OW24796   0.209   3.112   5.556
 7966SOL    HW124797   0.308   3.125   5.550
 7966SOL    HW224798   0.173   3.085   5.467
 7967SOL     OW24799   2.861   6.219   4.175
 7967SOL    HW124800   2.903   6.204   4.085
 7967SOL    HW224801   2.852   6.318   4.191
 7968SOL     OW24802   2.164   2.190   3.928
 7968SOL    HW124803   2.222   2.248   3.871
 7968SOL    HW224804   2.085   2.242   3.959
 7969SOL     OW24805   4.483   0.101   2.223
 7969SOL    HW124806   4.521   0.143   2.141
 7969SOL    HW224807   4.476   0.003   2.210
 7970SOL     OW24808   0.435   3.503   3.170
 7970SOL    HW124809   0.350   3.511   3.222
 7970SOL    HW224810   0.467   3.408   3.174
 7971SOL     OW24811   4.111   1.157   0.594
 7971SOL    HW124812   4.098   1.218   0.673
 7971SOL    HW224813   4.180   1.196   0.534
 7972SOL     OW24814   1.130   3.970   1.696
 7972SOL    HW124815   1.068   3.892   1.708
 7972SOL    HW224816   1.084   4.054   1.724
 7973SOL     OW24817   4.812   3.996   3.279
 7973SOL    HW124818   4.824   3.897   3.269
 7973SOL    HW224819   4.772   4.033   3.195
 7974SOL     OW24820   5.607   0.608   4.909
 7974SOL    HW124821   5.600   0.706   4.927
 7974SOL    HW224822   5.528   0.578   4.855
 7975SOL     OW24823   6.146   0.428   2.577
 7975SOL    HW124824   6.162   0.526   2.567
 7975SOL    HW224825   6.192   0.394   2.659
 7976SOL     OW24826   0.561   0.790   6.078
 7976SOL    HW124827   0.578   0.741   6.164
 7976SOL    HW224828   0.646   0.795   6.025
 7977SOL     OW24829   4.439   5.188   1.990
 7977SOL    HW124830   4.413   5.267   2.046
 7977SOL    HW224831   4.483   5.221   1.906
 7978SOL     OW24832   5.807   3.524   6.208
 7978SOL    HW124833   5.765   3.614   6.224
 7978SOL    HW224834   5.794   3.467   6.289
 7979SOL     OW24835   3.973   0.639   5.473
 7979SOL    HW124836   3.884   0.621   5.430
 7979SOL    HW224837   4.029   0.556   5.469
 7980SOL     OW24838   2.506   5.775   0.280
 7980SOL    HW124839   2.423   5.719   0.267
 7980SOL    HW224840   2.587   5.717   0.268
 7981SOL     OW24841   0.597   5.879   2.559
 7981SOL    HW124842   0.517   5.822   2.539
 7981SOL    HW224843   0.646   5.842   2.637
 7982SOL     OW24844   0.065   1.821   6.803
 7982SOL    HW124845   0.144   1.840   6.861
 7982SOL    HW224846   0.059   1.890   6.731
 7983SOL     OW24847   5.808   2.050   2.564
 7983SOL    HW124848   5.750   2.109   2.509
 7983SOL    HW224849   5.860   2.105   2.630
 7984SOL     OW24850   1.541   1.906   1.692
 7984SOL    HW124851   1.456   1.898   1.640
 7984SOL    HW224852   1.535   1.986   1.752
 7985SOL     OW24853   2.322   6.538   3.755
 7985SOL    HW124854   2.305   6.604   3.682
 7985SOL    HW224855   2.413   6.499   3.743
 7986SOL     OW24856   2.924   0.475   6.610
 7986SOL    HW124857   2.867   0.494   6.690
 7986SOL    HW224858   3.020   0.492   6.633
 7987SOL     OW24859   1.197   3.334   6.602
 7987SOL    HW124860   1.121   3.313   6.663
 7987SOL    HW224861   1.162   3.364   6.513
 7988SOL     OW24862   1.721   1.769   3.789
 7988SOL    HW124863   1.760   1.700   3.850
 7988SOL    HW224864   1.631   1.739   3.758
 7989SOL     OW24865   3.296   2.617   5.282
 7989SOL    HW124866   3.392   2.606   5.310
 7989SOL    HW224867   3.261   2.529   5.248
 7990SOL     OW24868   6.113   4.131   3.707
 7990SOL    HW124869   6.020   4.159   3.732
 7990SOL    HW224870   6.150   4.071   3.778
 7991SOL     OW24871   6.490   0.872   4.656
 7991SOL    HW124872   6.481   0.793   4.717
 7991SOL    HW224873   6.512   0.953   4.710
 7992SOL     OW24874   1.450   6.455   1.060
 7992SOL    HW124875   1.530   6.470   1.118
 7992SOL    HW224876   1.414   6.543   1.029
 7993SOL     OW24877   1.611   6.104   6.855
 7993SOL    HW124878   1.563   6.059   6.779
 7993SOL    HW224879   1.552   6.105   6.936
 7994SOL     OW24880   5.051   0.078   2.982
 7994SOL    HW124881   5.031   7.015   2.926
 7994SOL    HW224882   5.038   0.055   3.079
 7995SOL     OW24883   4.367   5.379   3.827
 7995SOL    HW124884   4.419   5.345   3.905
 7995SOL    HW224885   4.422   5.446   3.777
 7996SOL     OW24886   3.061   0.158   5.109
 7996SOL    HW124887   3.102   0.071   5.136
 7996SOL    HW224888   3.074   0.171   5.011
 7997SOL     OW24889   6.817   1.339   0.899
 7997SOL    HW124890   6.884   1.402   0.860
 7997SOL    HW224891   6.841   1.319   0.994
 7998SOL     OW24892   3.815   5.191   1.369
 7998SOL    HW124893   3.862   5.164   1.453
 7998SOL    HW224894   3.868   5.160   1.290
 7999SOL     OW24895   1.371   0.258   6.178
 7999SOL    HW124896   1.433   0.181   6.192
 7999SOL    HW224897   1.339   0.292   6.267
 8000SOL     OW24898   5.307   0.707   0.342
 8000SOL    HW124899   5.327   0.698   0.440
 8000SOL    HW224900   5.391   0.721   0.291
 8001SOL     OW24901   3.476   5.756   1.096
 8001SOL    HW124902   3.525   5.677   1.058
 8001SOL    HW224903   3.440   5.733   1.186
 8002SOL     OW24904   1.060   2.484   5.335
 8002SOL    HW124905   1.022   2.528   5.416
 8002SOL    HW224906   1.075   2.387   5.353
 8003SOL     OW24907   2.520   4.746   2.366
 8003SOL    HW124908   2.579   4.826   2.358
 8003SOL    HW224909   2.556   4.684   2.435
 8004SOL     OW24910   1.412   3.545   3.735
 8004SOL    HW124911   1.461   3.620   3.779
 8004SOL    HW224912   1.361   3.493   3.804
 8005SOL     OW24913   3.048   1.429   2.236
 8005SOL    HW124914   3.040   1.528   2.231
 8005SOL    HW224915   2.995   1.395   2.314
 8006SOL     OW24916   2.689   6.925   0.119
 8006SOL    HW124917   2.765   6.872   0.159
 8006SOL    HW224918   2.627   6.863   0.071
 8007SOL     OW24919   0.808   0.158   4.349
 8007SOL    HW124920   0.756   0.244   4.350
 8007SOL    HW224921   0.886   0.167   4.287
 8008SOL     OW24922   4.460   6.336   6.022
 8008SOL    HW124923   4.378   6.341   5.964
 8008SOL    HW224924   4.451   6.398   6.099
 8009SOL     OW24925   6.236   0.341   2.807
 8009SOL    HW124926   6.218   0.298   2.896
 8009SOL    HW224927   6.286   0.426   2.821
 8010SOL     OW24928   1.251   1.498   0.396
 8010SOL    HW124929   1.348   1.517   0.383
 8010SOL    HW224930   1.239   1.439   0.476
 8011SOL     OW24931   2.994   2.678   0.936
 8011SOL    HW124932   2.895   2.679   0.920
 8011SOL    HW224933   3.040   2.724   0.860
 8012SOL     OW24934   2.849   6.253   1.752
 8012SOL    HW124935   2.947   6.261   1.730
 8012SOL    HW224936   2.822   6.157   1.746
 8013SOL     OW24937   0.763   5.180   4.289
 8013SOL    HW124938   0.726   5.104   4.342
 8013SOL    HW224939   0.696   5.255   4.286
 8014SOL     OW24940   0.393   6.165   5.229
 8014SOL    HW124941   0.338   6.221   5.167
 8014SOL    HW224942   0.462   6.115   5.177
 8015SOL     OW24943   2.987   1.384   0.040
 8015SOL    HW124944   3.010   1.409   6.963
 8015SOL    HW224945   3.053   1.318   0.074
 8016SOL     OW24946   4.625   0.479   6.781
 8016SOL    HW124947   4.674   0.443   6.701
 8016SOL    HW224948   4.540   0.522   6.750
 8017SOL     OW24949   6.751   5.419   6.936
 8017SOL    HW124950   6.733   5.510   6.973
 8017SOL    HW224951   6.685   5.398   6.864
 8018SOL     OW24952   3.377   2.506   6.026
 8018SOL    HW124953   3.385   2.485   5.928
 8018SOL    HW224954   3.428   2.437   6.079
 8019SOL     OW24955   2.330   3.677   6.745
 8019SOL    HW124956   2.252   3.642   6.796
 8019SOL    HW224957   2.306   3.683   6.648
 8020SOL     OW24958   6.184   5.836   0.822
 8020SOL    HW124959   6.245   5.769   0.864
 8020SOL    HW224960   6.222   5.866   0.735
 8021SOL     OW24961   1.066   2.113   1.262
 8021SOL    HW124962   1.126   2.160   1.327
 8021SOL    HW224963   1.115   2.036   1.220
 8022SOL     OW24964   4.400   0.339   2.569
 8022SOL    HW124965   4.365   0.313   2.660
 8022SOL    HW224966   4.473   0.405   2.579
 8023SOL     OW24967   5.643   5.378   3.249
 8023SOL    HW124968   5.578   5.357   3.322
 8023SOL    HW224969   5.643   5.476   3.231
 8024SOL     OW24970   3.804   5.071   6.912
 8024SOL    HW124971   3.877   5.130   6.947
 8024SOL    HW224972   3.723   5.081   6.970
 8025SOL     OW24973   2.356   5.933   6.593
 8025SOL    HW124974   2.415   5.959   6.669
 8025SOL    HW224975   2.260   5.933   6.624
 8026SOL     OW24976   0.656   4.955   6.633
 8026SOL    HW124977   0.698   4.996   6.714
 8026SOL    HW224978   0.605   4.872   6.660
 8027SOL     OW24979   4.179   1.923   5.339
 8027SOL    HW124980   4.111   1.915   5.265
 8027SOL    HW224981   4.266   1.953   5.302
 8028SOL     OW24982   3.125   5.464   5.392
 8028SOL    HW124983   3.088   5.506   5.309
 8028SOL    HW224984   3.213   5.506   5.414
 8029SOL     OW24985   5.327   3.755   0.126
 8029SOL    HW124986   5.292   3.785   0.215
 8029SOL    HW224987   5.252   3.716   0.072
 8030SOL     OW24988   4.816   4.162   0.295
 8030SOL    HW124989   4.916   4.168   0.303
 8030SOL    HW224990   4.788   4.189   0.203
 8031SOL     OW24991   4.384   5.841   2.768
 8031SOL    HW124992   4.331   5.925   2.758
 8031SOL    HW224993   4.386   5.815   2.865
 8032SOL     OW24994   5.725   4.558   5.989
 8032SOL    HW124995   5.652   4.493   6.010
 8032SOL    HW224996   5.726   4.630   6.058
 8033SOL     OW24997   5.241   3.977   6.681
 8033SOL    HW124998   5.197   3.980   6.770
 8033SOL    HW224999   5.208   3.898   6.630
 8034SOL     OW25000   6.453   1.207   5.059
 8034SOL    HW125001   6.389   1.274   5.022
 8034SOL    HW225002   6.533   1.254   5.098
 8035SOL     OW25003   4.704   0.830   5.413
 8035SOL    HW125004   4.769   0.903   5.393
 8035SOL    HW225005   4.633   0.827   5.342
 8036SOL     OW25006   0.456   3.848   2.210
 8036SOL    HW125007   0.519   3.871   2.284
 8036SOL    HW225008   0.362   3.858   2.242
 8037SOL     OW25009   1.743   3.286   1.825
 8037SOL    HW125010   1.707   3.344   1.898
 8037SOL    HW225011   1.842   3.278   1.835
 8038SOL     OW25012   4.743   0.898   2.729
 8038SOL    HW125013   4.654   0.891   2.683
 8038SOL    HW225014   4.737   0.965   2.803
 8039SOL     OW25015   0.891   0.090   4.084
 8039SOL    HW125016   0.900   0.184   4.051
 8039SOL    HW225017   0.822   0.043   4.029
 8040SOL     OW25018   1.047   6.080   0.954
 8040SOL    HW125019   1.040   6.054   1.050
 8040SOL    HW225020   1.112   6.156   0.945
 8041SOL     OW25021   2.979   2.135   2.239
 8041SOL    HW125022   2.934   2.145   2.328
 8041SOL    HW225023   2.964   2.218   2.185
 8042SOL     OW25024   3.850   2.990   3.585
 8042SOL    HW125025   3.791   3.028   3.656
 8042SOL    HW225026   3.894   2.907   3.620
 8043SOL     OW25027   3.596   6.598   1.508
 8043SOL    HW125028   3.558   6.656   1.436
 8043SOL    HW225029   3.553   6.620   1.595
 8044SOL     OW25030   3.698   3.371   0.289
 8044SOL    HW125031   3.709   3.300   0.219
 8044SOL    HW225032   3.760   3.447   0.271
 8045SOL     OW25033   5.568   0.444   1.358
 8045SOL    HW125034   5.595   0.449   1.262
 8045SOL    HW225035   5.550   0.349   1.383
 8046SOL     OW25036   6.545   5.027   6.977
 8046SOL    HW125037   6.451   4.993   6.983
 8046SOL    HW225038   6.547   5.124   7.002
 8047SOL     OW25039   3.657   4.899   4.773
 8047SOL    HW125040   3.713   4.980   4.762
 8047SOL    HW225041   3.605   4.883   4.689
 8048SOL     OW25042   5.356   0.463   5.722
 8048SOL    HW125043   5.326   0.461   5.817
 8048SOL    HW225044   5.281   0.497   5.664
 8049SOL     OW25045   1.966   0.160   1.063
 8049SOL    HW125046   1.980   0.101   0.983
 8049SOL    HW225047   1.881   0.133   1.109
 8050SOL     OW25048   1.247   4.346   2.192
 8050SOL    HW125049   1.310   4.339   2.114
 8050SOL    HW225050   1.290   4.306   2.273
 8051SOL     OW25051   4.904   5.918   3.487
 8051SOL    HW125052   4.916   5.820   3.468
 8051SOL    HW225053   4.935   5.971   3.408
 8052SOL     OW25054   4.310   1.739   1.904
 8052SOL    HW125055   4.305   1.777   1.996
 8052SOL    HW225056   4.274   1.806   1.838
 8053SOL     OW25057   3.816   4.074   3.213
 8053SOL    HW125058   3.913   4.070   3.239
 8053SOL    HW225059   3.806   4.049   3.117
 8054SOL     OW25060   5.098   6.882   4.615
 8054SOL    HW125061   5.167   6.824   4.571
 8054SOL    HW225062   5.120   6.891   4.713
 8055SOL     OW25063   0.293   0.870   6.159
 8055SOL    HW125064   0.388   0.859   6.129
 8055SOL    HW225065   0.232   0.823   6.096
 8056SOL     OW25066   4.468   1.480   4.262
 8056SOL    HW125067   4.440   1.384   4.251
 8056SOL    HW225068   4.388   1.535   4.289
 8057SOL     OW25069   2.664   2.462   3.064
 8057SOL    HW125070   2.608   2.380   3.063
 8057SOL    HW225071   2.761   2.437   3.054
 8058SOL     OW25072   4.529   0.287   3.034
 8058SOL    HW125073   4.617   0.321   3.002
 8058SOL    HW225074   4.509   0.325   3.124
 8059SOL     OW25075   4.381   2.257   4.591
 8059SOL    HW125076   4.377   2.286   4.496
 8059SOL    HW225077   4.443   2.179   4.599
 8060SOL     OW25078   0.505   1.766   4.252
 8060SOL    HW125079   0.437   1.705   4.212
 8060SOL    HW225080   0.575   1.787   4.185
 8061SOL     OW25081   6.500   6.658   1.359
 8061SOL    HW125082   6.440   6.664   1.279
 8061SOL    HW225083   6.465   6.589   1.422
 8062SOL     OW25084   2.683   4.977   4.189
 8062SOL    HW125085   2.584   4.967   4.188
 8062SOL    HW225086   2.714   4.992   4.283
 8063SOL     OW25087   1.422   2.642   0.719
 8063SOL    HW125088   1.460   2.609   0.805
 8063SOL    HW225089   1.349   2.708   0.738
 8064SOL     OW25090   6.810   4.988   1.495
 8064SOL    HW125091   6.795   4.891   1.515
 8064SOL    HW225092   6.853   5.033   1.573
 8065SOL     OW25093   4.617   6.538   3.740
 8065SOL    HW125094   4.571   6.626   3.746
 8065SOL    HW225095   4.638   6.504   3.832
 8066SOL     OW25096   0.781   1.663   6.030
 8066SOL    HW125097   0.830   1.647   5.944
 8066SOL    HW225098   0.704   1.599   6.035
 8067SOL     OW25099   4.887   3.233   1.936
 8067SOL    HW125100   4.833   3.151   1.956
 8067SOL    HW225101   4.950   3.214   1.861
 8068SOL     OW25102   5.856   4.105   6.901
 8068SOL    HW125103   5.759   4.086   6.883
 8068SOL    HW225104   5.875   4.095   6.998
 8069SOL     OW25105   1.969   6.013   1.062
 8069SOL    HW125106   1.901   6.031   1.132
 8069SOL    HW225107   1.979   6.093   1.003
 8070SOL     OW25108   2.685   3.395   0.179
 8070SOL    HW125109   2.717   3.324   0.241
 8070SOL    HW225110   2.648   3.471   0.233
 8071SOL     OW25111   3.149   6.306   4.972
 8071SOL    HW125112   3.179   6.323   5.066
 8071SOL    HW225113   3.105   6.389   4.937
 8072SOL     OW25114   3.440   0.450   6.830
 8072SOL    HW125115   3.491   0.526   6.789
 8072SOL    HW225116   3.381   0.485   6.902
 8073SOL     OW25117   4.091   6.291   6.110
 8073SOL    HW125118   4.096   6.349   6.028
 8073SOL    HW225119   4.141   6.206   6.093
 8074SOL     OW25120   2.893   2.661   6.643
 8074SOL    HW125121   2.972   2.709   6.605
 8074SOL    HW225122   2.816   2.725   6.650
 8075SOL     OW25123   6.421   1.255   1.009
 8075SOL    HW125124   6.339   1.224   0.961
 8075SOL    HW225125   6.395   1.294   1.097
 8076SOL     OW25126   4.989   2.595   5.731
 8076SOL    HW125127   5.017   2.499   5.732
 8076SOL    HW225128   4.889   2.601   5.734
 8077SOL     OW25129   1.649   5.592   1.797
 8077SOL    HW125130   1.709   5.610   1.875
 8077SOL    HW225131   1.623   5.679   1.755
 8078SOL     OW25132   6.102   1.301   6.851
 8078SOL    HW125133   6.036   1.226   6.855
 8078SOL    HW225134   6.156   1.293   6.767
 8079SOL     OW25135   5.569   1.509   3.444
 8079SOL    HW125136   5.509   1.430   3.434
 8079SOL    HW225137   5.660   1.478   3.472
 8080SOL     OW25138   0.583   4.044   6.920
 8080SOL    HW125139   0.648   4.115   6.946
 8080SOL    HW225140   0.592   4.025   6.822
 8081SOL     OW25141   4.685   0.140   4.964
 8081SOL    HW125142   4.684   0.196   4.881
 8081SOL    HW225143   4.591   0.129   4.998
 8082SOL     OW25144   5.945   1.143   1.864
 8082SOL    HW125145   5.888   1.076   1.815
 8082SOL    HW225146   5.900   1.168   1.950
 8083SOL     OW25147   5.187   3.041   2.267
 8083SOL    HW125148   5.166   3.099   2.345
 8083SOL    HW225149   5.201   2.947   2.298
 8084SOL     OW25150   5.413   6.891   0.937
 8084SOL    HW125151   5.344   6.822   0.914
 8084SOL    HW225152   5.377   6.982   0.915
 8085SOL     OW25153   6.466   0.329   2.366
 8085SOL    HW125154   6.451   0.299   2.272
 8085SOL    HW225155   6.492   0.251   2.423
 8086SOL     OW25156   4.786   1.015   4.085
 8086SOL    HW125157   4.777   0.992   4.182
 8086SOL    HW225158   4.747   0.942   4.030
 8087SOL     OW25159   2.931   1.840   1.308
 8087SOL    HW125160   2.857   1.814   1.246
 8087SOL    HW225161   2.895   1.901   1.378
 8088SOL     OW25162   5.518   1.946   1.638
 8088SOL    HW125163   5.572   2.003   1.700
 8088SOL    HW225164   5.478   2.003   1.566
 8089SOL     OW25165   5.407   2.908   0.748
 8089SOL    HW125166   5.413   2.999   0.708
 8089SOL    HW225167   5.311   2.883   0.760
 8090SOL     OW25168   4.178   2.543   6.558
 8090SOL    HW125169   4.232   2.624   6.537
 8090SOL    HW225170   4.230   2.481   6.616
 8091SOL     OW25171   2.585   3.798   6.723
 8091SOL    HW125172   2.542   3.886   6.700
 8091SOL    HW225173   2.516   3.726   6.723
 8092SOL     OW25174   0.872   2.106   4.842
 8092SOL    HW125175   0.863   2.112   4.743
 8092SOL    HW225176   0.868   2.197   4.882
 8093SOL     OW25177   4.799   5.919   1.806
 8093SOL    HW125178   4.817   6.017   1.795
 8093SOL    HW225179   4.713   5.895   1.761
 8094SOL     OW25180   2.135   3.949   4.243
 8094SOL    HW125181   2.172   3.862   4.277
 8094SOL    HW225182   2.049   3.969   4.289
 8095SOL     OW25183   5.321   4.292   4.565
 8095SOL    HW125184   5.335   4.306   4.663
 8095SOL    HW225185   5.271   4.207   4.551
 8096SOL     OW25186   2.999   5.599   3.798
 8096SOL    HW125187   3.093   5.607   3.830
 8096SOL    HW225188   2.979   5.503   3.778
 8097SOL     OW25189   4.804   0.014   3.365
 8097SOL    HW125190   4.750   0.098   3.362
 8097SOL    HW225191   4.898   0.034   3.337
 8098SOL     OW25192   1.931   6.676   4.173
 8098SOL    HW125193   2.004   6.624   4.216
 8098SOL    HW225194   1.849   6.674   4.232
 8099SOL     OW25195   5.743   0.657   3.739
 8099SOL    HW125196   5.647   0.683   3.747
 8099SOL    HW225197   5.755   0.564   3.772
 8100SOL     OW25198   0.580   6.849   6.993
 8100SOL    HW125199   0.482   6.837   7.005
 8100SOL    HW225200   0.597   6.924   6.929
 8101SOL     OW25201   2.169   0.178   4.225
 8101SOL    HW125202   2.175   0.175   4.125
 8101SOL    HW225203   2.251   0.135   4.264
 8102SOL     OW25204   1.088   4.718   5.425
 8102SOL    HW125205   1.022   4.778   5.379
 8102SOL    HW225206   1.167   4.772   5.453
 8103SOL     OW25207   4.423   0.553   0.500
 8103SOL    HW125208   4.422   0.589   0.407
 8103SOL    HW225209   4.458   0.459   0.500
 8104SOL     OW25210   2.903   6.329   5.974
 8104SOL    HW125211   2.838   6.333   5.899
 8104SOL    HW225212   2.862   6.369   6.056
 8105SOL     OW25213   1.595   2.141   2.777
 8105SOL    HW125214   1.518   2.103   2.726
 8105SOL    HW225215   1.597   2.102   2.868
 8106SOL     OW25216   2.486   5.867   3.804
 8106SOL    HW125217   2.523   5.791   3.857
 8106SOL    HW225218   2.411   5.835   3.746
 8107SOL     OW25219   1.205   5.928   5.141
 8107SOL    HW125220   1.299   5.949   5.168
 8107SOL    HW225221   1.204   5.847   5.083
 8108SOL     OW25222   5.615   2.948   5.255
 8108SOL    HW125223   5.667   2.869   5.289
 8108SOL    HW225224   5.672   3.029   5.258
 8109SOL     OW25225   1.013   3.859   4.040
 8109SOL    HW125226   0.961   3.943   4.050
 8109SOL    HW225227   1.073   3.847   4.119
 8110SOL     OW25228   3.615   6.891   0.872
 8110SOL    HW125229   3.576   6.974   0.911
 8110SOL    HW225230   3.560   6.862   0.794
 8111SOL     OW25231   4.109   0.493   5.821
 8111SOL    HW125232   4.116   0.418   5.887
 8111SOL    HW225233   4.122   0.580   5.867
 8112SOL     OW25234   1.892   1.441   4.719
 8112SOL    HW125235   1.856   1.533   4.737
 8112SOL    HW225236   1.838   1.398   4.647
 8113SOL     OW25237   2.864   3.411   6.984
 8113SOL    HW125238   2.802   3.401   0.043
 8113SOL    HW225239   2.845   3.497   6.937
 8114SOL     OW25240   1.880   3.045   1.774
 8114SOL    HW125241   1.910   2.962   1.727
 8114SOL    HW225242   1.780   3.047   1.777
 8115SOL     OW25243   4.279   1.493   1.764
 8115SOL    HW125244   4.208   1.467   1.699
 8115SOL    HW225245   4.263   1.586   1.796
 8116SOL     OW25246   5.011   0.349   4.358
 8116SOL    HW125247   5.010   0.275   4.425
 8116SOL    HW225248   4.923   0.352   4.311
 8117SOL     OW25249   2.333   1.069   4.887
 8117SOL    HW125250   2.391   1.130   4.834
 8117SOL    HW225251   2.390   1.003   4.936
 8118SOL     OW25252   6.277   3.427   5.704
 8118SOL    HW125253   6.279   3.337   5.748
 8118SOL    HW225254   6.192   3.437   5.652
 8119SOL     OW25255   6.343   5.562   5.212
 8119SOL    HW125256   6.288   5.499   5.266
 8119SOL    HW225257   6.439   5.532   5.212
 8120SOL     OW25258   3.726   4.800   6.482
 8120SOL    HW125259   3.629   4.777   6.476
 8120SOL    HW225260   3.744   4.841   6.572
 8121SOL     OW25261   0.187   5.400   2.696
 8121SOL    HW125262   0.169   5.305   2.674
 8121SOL    HW225263   0.286   5.413   2.711
 8122SOL     OW25264   0.934   5.668   2.671
 8122SOL    HW125265   0.928   5.728   2.592
 8122SOL    HW225266   1.026   5.630   2.677
 8123SOL     OW25267   6.931   6.860   0.086
 8123SOL    HW125268   6.969   6.952   0.090
 8123SOL    HW225269   6.970   6.805   0.160
 8124SOL     OW25270   0.448   6.125   1.103
 8124SOL    HW125271   0.394   6.200   1.064
 8124SOL    HW225272   0.395   6.080   1.175
 8125SOL     OW25273   0.876   6.356   2.682
 8125SOL    HW125274   0.898   6.260   2.700
 8125SOL    HW225275   0.801   6.385   2.742
 8126SOL     OW25276   6.389   3.771   2.269
 8126SOL    HW125277   6.450   3.720   2.208
 8126SOL    HW225278   6.395   3.869   2.246
 8127SOL     OW25279   2.353   6.193   0.903
 8127SOL    HW125280   2.404   6.158   0.825
 8127SOL    HW225281   2.304   6.118   0.947
 8128SOL     OW25282   2.716   2.986   0.831
 8128SOL    HW125283   2.803   3.019   0.796
 8128SOL    HW225284   2.718   2.887   0.839
 8129SOL     OW25285   4.501   1.604   6.076
 8129SOL    HW125286   4.554   1.562   6.003
 8129SOL    HW225287   4.536   1.574   6.165
 8130SOL     OW25288   0.441   4.642   6.549
 8130SOL    HW125289   0.385   4.704   6.494
 8130SOL    HW225290   0.482   4.573   6.490
 8131SOL     OW25291   2.501   0.849   0.668
 8131SOL    HW125292   2.536   0.942   0.652
 8131SOL    HW225293   2.438   0.851   0.745
 8132SOL     OW25294   5.374   6.214   6.246
 8132SOL    HW125295   5.286   6.166   6.244
 8132SOL    HW225296   5.365   6.299   6.298
 8133SOL     OW25297   3.270   4.857   1.943
 8133SOL    HW125298   3.359   4.812   1.932
 8133SOL    HW225299   3.199   4.804   1.898
 8134SOL     OW25300   1.317   1.363   4.404
 8134SOL    HW125301   1.393   1.420   4.373
 8134SOL    HW225302   1.246   1.360   4.333
 8135SOL     OW25303   2.427   5.610   1.821
 8135SOL    HW125304   2.371   5.608   1.904
 8135SOL    HW225305   2.369   5.595   1.741
 8136SOL     OW25306   4.835   4.729   2.606
 8136SOL    HW125307   4.843   4.633   2.581
 8136SOL    HW225308   4.759   4.740   2.670
 8137SOL     OW25309   1.990   1.413   4.227
 8137SOL    HW125310   2.056   1.345   4.259
 8137SOL    HW225311   1.911   1.415   4.288
 8138SOL     OW25312   5.667   2.417   0.802
 8138SOL    HW125313   5.620   2.352   0.742
 8138SOL    HW225314   5.751   2.449   0.757
 8139SOL     OW25315   1.744   2.649   3.622
 8139SOL    HW125316   1.753   2.581   3.695
 8139SOL    HW225317   1.672   2.715   3.647
 8140SOL     OW25318   3.500   6.921   0.616
 8140SOL    HW125319   3.424   6.980   0.590
 8140SOL    HW225320   3.586   6.966   0.591
 8141SOL     OW25321   4.735   6.809   5.469
 8141SOL    HW125322   4.764   6.890   5.519
 8141SOL    HW225323   4.793   6.731   5.494
 8142SOL     OW25324   1.887   5.113   0.661
 8142SOL    HW125325   1.943   5.081   0.737
 8142SOL    HW225326   1.797   5.141   0.694
 8143SOL     OW25327   4.992   5.267   0.651
 8143SOL    HW125328   4.989   5.335   0.579
 8143SOL    HW225329   5.023   5.310   0.736
 8144SOL     OW25330   0.912   6.127   5.672
 8144SOL    HW125331   0.825   6.174   5.687
 8144SOL    HW225332   0.961   6.170   5.596
 8145SOL     OW25333   4.987   4.839   0.725
 8145SOL    HW125334   5.018   4.854   0.818
 8145SOL    HW225335   5.035   4.901   0.663
 8146SOL     OW25336   5.437   6.935   5.850
 8146SOL    HW125337   5.487   6.880   5.783
 8146SOL    HW225338   5.408   0.004   5.808
 8147SOL     OW25339   6.838   0.735   0.765
 8147SOL    HW125340   6.752   0.686   0.779
 8147SOL    HW225341   6.818   0.827   0.730
 8148SOL     OW25342   4.473   4.469   6.791
 8148SOL    HW125343   4.403   4.471   6.720
 8148SOL    HW225344   4.489   4.562   6.824
 8149SOL     OW25345   1.871   6.606   2.937
 8149SOL    HW125346   1.815   6.526   2.959
 8149SOL    HW225347   1.962   6.576   2.908
 8150SOL     OW25348   0.984   4.170   1.147
 8150SOL    HW125349   0.966   4.245   1.085
 8150SOL    HW225350   1.083   4.161   1.160
 8151SOL     OW25351   5.816   5.376   3.895
 8151SOL    HW125352   5.723   5.370   3.932
 8151SOL    HW225353   5.833   5.470   3.865
 8152SOL     OW25354   5.596   3.100   3.319
 8152SOL    HW125355   5.678   3.091   3.262
 8152SOL    HW225356   5.553   3.189   3.302
 8153SOL     OW25357   0.948   1.271   3.069
 8153SOL    HW125358   0.928   1.219   2.987
 8153SOL    HW225359   1.034   1.322   3.057
 8154SOL     OW25360   3.706   6.899   2.667
 8154SOL    HW125361   3.765   6.979   2.661
 8154SOL    HW225362   3.615   6.921   2.633
 8155SOL     OW25363   1.447   3.921   2.446
 8155SOL    HW125364   1.375   3.968   2.395
 8155SOL    HW225365   1.466   3.971   2.531
 8156SOL     OW25366   4.886   6.075   1.225
 8156SOL    HW125367   4.855   6.139   1.295
 8156SOL    HW225368   4.862   5.982   1.252
 8157SOL     OW25369   6.660   4.327   6.152
 8157SOL    HW125370   6.754   4.360   6.149
 8157SOL    HW225371   6.597   4.402   6.133
 8158SOL     OW25372   5.235   4.839   6.963
 8158SOL    HW125373   5.139   4.819   6.981
 8158SOL    HW225374   5.249   4.851   6.865
 8159SOL     OW25375   3.539   5.658   5.051
 8159SOL    HW125376   3.440   5.654   5.032
 8159SOL    HW225377   3.589   5.667   4.965
 8160SOL     OW25378   4.827   0.195   3.824
 8160SOL    HW125379   4.865   0.233   3.909
 8160SOL    HW225380   4.868   0.242   3.746
 8161SOL     OW25381   5.911   3.840   6.446
 8161SOL    HW125382   5.994   3.879   6.487
 8161SOL    HW225383   5.909   3.742   6.464
 8162SOL     OW25384   6.320   5.063   6.552
 8162SOL    HW125385   6.256   5.037   6.624
 8162SOL    HW225386   6.413   5.037   6.580
 8163SOL     OW25387   2.431   4.750   5.297
 8163SOL    HW125388   2.457   4.810   5.373
 8163SOL    HW225389   2.370   4.678   5.331
 8164SOL     OW25390   4.451   1.328   0.213
 8164SOL    HW125391   4.507   1.257   0.170
 8164SOL    HW225392   4.450   1.409   0.154
 8165SOL     OW25393   6.695   3.853   6.425
 8165SOL    HW125394   6.753   3.857   6.506
 8165SOL    HW225395   6.717   3.929   6.363
 8166SOL     OW25396   1.942   0.564   3.386
 8166SOL    HW125397   1.870   0.566   3.455
 8166SOL    HW225398   1.947   0.472   3.346
 8167SOL     OW25399   0.182   0.823   3.034
 8167SOL    HW125400   0.149   0.767   2.958
 8167SOL    HW225401   0.121   0.901   3.046
 8168SOL     OW25402   2.797   6.961   1.527
 8168SOL    HW125403   2.769   6.939   1.620
 8168SOL    HW225404   2.762   6.891   1.464
 8169SOL     OW25405   3.865   2.007   0.139
 8169SOL    HW125406   3.829   1.920   0.174
 8169SOL    HW225407   3.917   2.053   0.211
 8170SOL     OW25408   6.622   4.641   1.106
 8170SOL    HW125409   6.560   4.563   1.111
 8170SOL    HW225410   6.578   4.720   1.149
 8171SOL     OW25411   2.238   1.524   6.904
 8171SOL    HW125412   2.278   1.453   6.961
 8171SOL    HW225413   2.264   1.507   6.808
 8172SOL     OW25414   0.089   2.023   1.482
 8172SOL    HW125415   0.114   2.120   1.494
 8172SOL    HW225416   0.168   1.966   1.503
 8173SOL     OW25417   5.427   1.657   2.206
 8173SOL    HW125418   5.359   1.661   2.279
 8173SOL    HW225419   5.415   1.573   2.153
 8174SOL     OW25420   0.634   0.059   2.541
 8174SOL    HW125421   0.661   0.023   2.630
 8174SOL    HW225422   0.589   0.147   2.553
 8175SOL     OW25423   0.364   2.823   4.700
 8175SOL    HW125424   0.332   2.830   4.605
 8175SOL    HW225425   0.392   2.914   4.732
 8176SOL     OW25426   2.405   4.519   1.758
 8176SOL    HW125427   2.366   4.610   1.740
 8176SOL    HW225428   2.363   4.453   1.696
 8177SOL     OW25429   4.698   0.799   3.945
 8177SOL    HW125430   4.617   0.804   4.002
 8177SOL    HW225431   4.743   0.711   3.959
 8178SOL     OW25432   3.252   6.692   0.967
 8178SOL    HW125433   3.247   6.789   0.990
 8178SOL    HW225434   3.263   6.639   1.051
 8179SOL     OW25435   5.440   0.938   4.609
 8179SOL    HW125436   5.473   1.026   4.644
 8179SOL    HW225437   5.518   0.879   4.590
 8180SOL     OW25438   6.000   0.723   6.997
 8180SOL    HW125439   6.053   0.746   6.916
 8180SOL    HW225440   6.033   0.636   0.017
 8181SOL     OW25441   1.792   1.061   0.580
 8181SOL    HW125442   1.878   1.019   0.608
 8181SOL    HW225443   1.795   1.083   0.483
 8182SOL     OW25444   3.188   3.146   5.055
 8182SOL    HW125445   3.153   3.054   5.041
 8182SOL    HW225446   3.152   3.207   4.984
 8183SOL     OW25447   6.357   2.107   4.523
 8183SOL    HW125448   6.342   2.178   4.454
 8183SOL    HW225449   6.374   2.019   4.478
 8184SOL     OW25450   0.493   6.606   0.454
 8184SOL    HW125451   0.443   6.550   0.520
 8184SOL    HW225452   0.428   6.667   0.407
 8185SOL     OW25453   2.317   0.084   0.518
 8185SOL    HW125454   2.322   7.014   0.471
 8185SOL    HW225455   2.342   0.072   0.614
 8186SOL     OW25456   2.596   4.782   5.737
 8186SOL    HW125457   2.605   4.710   5.668
 8186SOL    HW225458   2.688   4.814   5.762
 8187SOL     OW25459   2.087   1.043   4.791
 8187SOL    HW125460   2.046   0.952   4.783
 8187SOL    HW225461   2.176   1.035   4.837
 8188SOL     OW25462   4.799   2.804   3.742
 8188SOL    HW125463   4.737   2.732   3.771
 8188SOL    HW225464   4.844   2.778   3.657
 8189SOL     OW25465   5.344   5.108   2.731
 8189SOL    HW125466   5.354   5.009   2.740
 8189SOL    HW225467   5.319   5.147   2.820
 8190SOL     OW25468   4.755   4.090   4.028
 8190SOL    HW125469   4.735   4.188   4.027
 8190SOL    HW225470   4.785   4.063   4.120
 8191SOL     OW25471   3.924   5.395   2.642
 8191SOL    HW125472   3.900   5.466   2.708
 8191SOL    HW225473   3.855   5.392   2.570
 8192SOL     OW25474   1.918   5.721   2.254
 8192SOL    HW125475   1.870   5.685   2.335
 8192SOL    HW225476   2.008   5.755   2.282
 8193SOL     OW25477   6.140   5.626   5.779
 8193SOL    HW125478   6.215   5.687   5.755
 8193SOL    HW225479   6.104   5.650   5.869
 8194SOL     OW25480   4.565   0.827   1.235
 8194SOL    HW125481   4.566   0.901   1.301
 8194SOL    HW225482   4.499   0.847   1.163
 8195SOL     OW25483   6.616   0.411   3.187
 8195SOL    HW125484   6.599   0.425   3.089
 8195SOL    HW225485   6.714   0.398   3.203
 8196SOL     OW25486   4.446   5.943   0.211
 8196SOL    HW125487   4.358   5.973   0.247
 8196SOL    HW225488   4.460   5.981   0.119
 8197SOL     OW25489   3.859   1.276   0.503
 8197SOL    HW125490   3.814   1.188   0.489
 8197SOL    HW225491   3.952   1.261   0.538
 8198SOL     OW25492   3.581   6.594   2.452
 8198SOL    HW125493   3.491   6.609   2.494
 8198SOL    HW225494   3.595   6.662   2.380
 8199SOL     OW25495   5.875   3.416   5.423
 8199SOL    HW125496   5.884   3.319   5.402
 8199SOL    HW225497   5.783   3.435   5.458
 8200SOL     OW25498   5.742   4.342   1.536
 8200SOL    HW125499   5.660   4.312   1.585
 8200SOL    HW225500   5.820   4.341   1.598
 8201SOL     OW25501   6.211   0.931   5.438
 8201SOL    HW125502   6.221   0.960   5.343
 8201SOL    HW225503   6.232   1.007   5.499
 8202SOL     OW25504   0.499   5.319   3.928
 8202SOL    HW125505   0.469   5.234   3.885
 8202SOL    HW225506   0.427   5.388   3.919
 8203SOL     OW25507   2.969   2.092   6.924
 8203SOL    HW125508   3.032   2.041   6.983
 8203SOL    HW225509   2.944   2.035   6.845
 8204SOL     OW25510   3.839   4.559   0.009
 8204SOL    HW125511   3.924   4.604   0.033
 8204SOL    HW225512   3.762   4.620   0.029
 8205SOL     OW25513   0.446   4.318   0.300
 8205SOL    HW125514   0.460   4.321   0.201
 8205SOL    HW225515   0.356   4.357   0.322
 8206SOL     OW25516   4.610   2.157   0.080
 8206SOL    HW125517   4.699   2.119   0.104
 8206SOL    HW225518   4.586   2.230   0.143
 8207SOL     OW25519   3.040   3.461   4.369
 8207SOL    HW125520   3.036   3.404   4.286
 8207SOL    HW225521   3.120   3.521   4.364
 8208SOL     OW25522   0.894   0.707   1.309
 8208SOL    HW125523   0.953   0.722   1.388
 8208SOL    HW225524   0.804   0.676   1.340
 8209SOL     OW25525   6.921   1.365   4.720
 8209SOL    HW125526   6.983   1.377   4.642
 8209SOL    HW225527   6.972   1.324   4.796
 8210SOL     OW25528   2.407   1.813   0.658
 8210SOL    HW125529   2.332   1.849   0.601
 8210SOL    HW225530   2.494   1.842   0.620
 8211SOL     OW25531   3.837   4.350   1.467
 8211SOL    HW125532   3.774   4.278   1.496
 8211SOL    HW225533   3.794   4.405   1.395
 8212SOL     OW25534   1.411   2.511   2.767
 8212SOL    HW125535   1.473   2.535   2.842
 8212SOL    HW225536   1.461   2.463   2.696
 8213SOL     OW25537   6.776   4.428   1.447
 8213SOL    HW125538   6.820   4.399   1.532
 8213SOL    HW225539   6.678   4.443   1.464
 8214SOL     OW25540   6.032   5.099   3.900
 8214SOL    HW125541   6.116   5.081   3.951
 8214SOL    HW225542   6.002   5.193   3.917
 8215SOL     OW25543   3.509   6.010   5.665
 8215SOL    HW125544   3.544   6.069   5.738
 8215SOL    HW225545   3.455   5.936   5.705
 8216SOL     OW25546   5.966   5.335   4.123
 8216SOL    HW125547   5.907   5.376   4.054
 8216SOL    HW225548   6.061   5.363   4.107
 8217SOL     OW25549   1.358   4.910   0.216
 8217SOL    HW125550   1.391   4.889   0.308
 8217SOL    HW225551   1.434   4.905   0.151
 8218SOL     OW25552   0.107   6.879   6.395
 8218SOL    HW125553   0.068   6.924   6.315
 8218SOL    HW225554   0.033   6.840   6.450
 8219SOL     OW25555   4.282   2.222   0.652
 8219SOL    HW125556   4.208   2.264   0.705
 8219SOL    HW225557   4.249   2.201   0.560
 8220SOL     OW25558   3.661   2.981   3.282
 8220SOL    HW125559   3.672   3.061   3.342
 8220SOL    HW225560   3.565   2.957   3.276
 8221SOL     OW25561   5.482   6.282   4.249
 8221SOL    HW125562   5.464   6.380   4.241
 8221SOL    HW225563   5.571   6.268   4.291
 8222SOL     OW25564   5.653   1.344   1.936
 8222SOL    HW125565   5.722   1.341   2.008
 8222SOL    HW225566   5.562   1.353   1.978
 8223SOL     OW25567   1.142   4.832   5.931
 8223SOL    HW125568   1.081   4.845   5.852
 8223SOL    HW225569   1.225   4.885   5.918
 8224SOL     OW25570   6.352   0.890   2.912
 8224SOL    HW125571   6.433   0.846   2.949
 8224SOL    HW225572   6.322   0.963   2.974
 8225SOL     OW25573   3.477   1.015   0.155
 8225SOL    HW125574   3.568   1.002   0.196
 8225SOL    HW225575   3.449   0.931   0.108
 8226SOL     OW25576   4.390   0.159   1.496
 8226SOL    HW125577   4.431   0.103   1.567
 8226SOL    HW225578   4.318   0.107   1.450
 8227SOL     OW25579   6.338   2.092   3.180
 8227SOL    HW125580   6.289   2.175   3.203
 8227SOL    HW225581   6.328   2.025   3.254
 8228SOL     OW25582   6.352   2.255   5.440
 8228SOL    HW125583   6.417   2.320   5.401
 8228SOL    HW225584   6.389   2.162   5.433
 8229SOL     OW25585   3.991   3.338   0.753
 8229SOL    HW125586   3.933   3.384   0.686
 8229SOL    HW225587   3.959   3.358   0.845
 8230SOL     OW25588   4.412   0.348   5.191
 8230SOL    HW125589   4.348   0.348   5.267
 8230SOL    HW225590   4.468   0.431   5.194
 8231SOL     OW25591   3.797   5.144   0.728
 8231SOL    HW125592   3.827   5.090   0.649
 8231SOL    HW225593   3.707   5.112   0.758
 8232SOL     OW25594   4.885   1.567   1.868
 8232SOL    HW125595   4.975   1.606   1.847
 8232SOL    HW225596   4.895   1.469   1.886
 8233SOL     OW25597   1.366   6.401   6.664
 8233SOL    HW125598   1.456   6.442   6.680
 8233SOL    HW225599   1.314   6.401   6.750
 8234SOL     OW25600   2.949   4.678   6.992
 8234SOL    HW125601   2.967   4.630   6.906
 8234SOL    HW225602   2.881   4.628   0.027
 8235SOL     OW25603   0.714   3.752   6.912
 8235SOL    HW125604   0.628   3.785   6.951
 8235SOL    HW225605   0.775   3.830   6.896
 8236SOL     OW25606   0.297   4.733   0.430
 8236SOL    HW125607   0.245   4.818   0.442
 8236SOL    HW225608   0.380   4.736   0.485
 8237SOL     OW25609   4.197   6.697   4.469
 8237SOL    HW125610   4.215   6.605   4.502
 8237SOL    HW225611   4.280   6.752   4.475
 8238SOL     OW25612   1.039   5.296   6.430
 8238SOL    HW125613   0.946   5.260   6.425
 8238SOL    HW225614   1.045   5.379   6.374
 8239SOL     OW25615   6.030   1.044   5.886
 8239SOL    HW125616   5.989   0.986   5.816
 8239SOL    HW225617   5.979   1.033   5.972
 8240SOL     OW25618   3.628   4.100   2.510
 8240SOL    HW125619   3.663   4.006   2.504
 8240SOL    HW225620   3.692   4.156   2.562
 8241SOL     OW25621   4.142   0.290   6.465
 8241SOL    HW125622   4.054   0.308   6.421
 8241SOL    HW225623   4.136   0.316   6.561
 8242SOL     OW25624   0.107   4.762   5.844
 8242SOL    HW125625   0.151   4.847   5.814
 8242SOL    HW225626   0.150   4.685   5.798
 8243SOL     OW25627   0.890   2.770   0.426
 8243SOL    HW125628   0.798   2.794   0.457
 8243SOL    HW225629   0.890   2.676   0.391
 8244SOL     OW25630   0.373   0.377   4.836
 8244SOL    HW125631   0.424   0.304   4.791
 8244SOL    HW225632   0.292   0.399   4.782
 8245SOL     OW25633   4.150   1.960   2.684
 8245SOL    HW125634   4.203   1.943   2.767
 8245SOL    HW225635   4.093   1.881   2.663
 8246SOL     OW25636   1.066   2.533   5.887
 8246SOL    HW125637   0.978   2.550   5.842
 8246SOL    HW225638   1.127   2.487   5.824
 8247SOL     OW25639   1.274   6.615   2.679
 8247SOL    HW125640   1.208   6.663   2.737
 8247SOL    HW225641   1.366   6.626   2.717
 8248SOL     OW25642   6.075   4.954   4.864
 8248SOL    HW125643   6.078   5.052   4.846
 8248SOL    HW225644   6.156   4.928   4.917
 8249SOL     OW25645   1.853   2.845   5.128
 8249SOL    HW125646   1.892   2.792   5.052
 8249SOL    HW225647   1.919   2.848   5.204
 8250SOL     OW25648   3.186   3.885   1.754
 8250SOL    HW125649   3.229   3.903   1.666
 8250SOL    HW225650   3.256   3.862   1.822
 8251SOL     OW25651   5.602   3.777   3.849
 8251SOL    HW125652   5.628   3.700   3.907
 8251SOL    HW225653   5.506   3.800   3.865
 8252SOL     OW25654   2.701   1.625   5.528
 8252SOL    HW125655   2.607   1.656   5.509
 8252SOL    HW225656   2.701   1.527   5.545
 8253SOL     OW25657   4.012   4.814   5.617
 8253SOL    HW125658   3.966   4.767   5.542
 8253SOL    HW225659   4.019   4.912   5.596
 8254SOL     OW25660   4.734   4.672   5.105
 8254SOL    HW125661   4.749   4.766   5.134
 8254SOL    HW225662   4.750   4.664   5.006
 8255SOL     OW25663   2.194   6.989   5.025
 8255SOL    HW125664   2.236   0.056   4.994
 8255SOL    HW225665   2.123   7.010   5.093
 8256SOL     OW25666   6.679   6.629   2.153
 8256SOL    HW125667   6.724   6.700   2.207
 8256SOL    HW225668   6.620   6.672   2.084
 8257SOL     OW25669   6.029   3.702   3.330
 8257SOL    HW125670   6.093   3.764   3.283
 8257SOL    HW225671   6.059   3.690   3.425
 8258SOL     OW25672   5.776   2.170   0.470
 8258SOL    HW125673   5.735   2.204   0.385
 8258SOL    HW225674   5.853   2.228   0.495
 8259SOL     OW25675   3.777   2.097   3.460
 8259SOL    HW125676   3.823   2.143   3.384
 8259SOL    HW225677   3.839   2.031   3.502
 8260SOL     OW25678   2.531   6.424   1.404
 8260SOL    HW125679   2.610   6.431   1.344
 8260SOL    HW225680   2.557   6.377   1.489
 8261SOL     OW25681   5.705   0.728   2.133
 8261SOL    HW125682   5.621   0.689   2.170
 8261SOL    HW225683   5.761   0.764   2.208
 8262SOL     OW25684   0.283   3.081   0.101
 8262SOL    HW125685   0.315   3.167   0.139
 8262SOL    HW225686   0.360   3.028   0.067
 8263SOL     OW25687   1.009   2.314   6.662
 8263SOL    HW125688   1.090   2.373   6.658
 8263SOL    HW225689   1.030   2.226   6.619
 8264SOL     OW25690   3.071   6.485   2.761
 8264SOL    HW125691   3.142   6.416   2.776
 8264SOL    HW225692   3.089   6.564   2.819
 8265SOL     OW25693   0.138   0.010   0.738
 8265SOL    HW125694   0.155   6.984   0.826
 8265SOL    HW225695   0.196   0.090   0.728
 8266SOL     OW25696   2.361   1.033   3.308
 8266SOL    HW125697   2.460   1.045   3.311
 8266SOL    HW225698   2.316   1.122   3.303
 8267SOL     OW25699   1.376   2.883   1.763
 8267SOL    HW125700   1.418   2.793   1.760
 8267SOL    HW225701   1.390   2.924   1.854
 8268SOL     OW25702   2.227   6.275   5.938
 8268SOL    HW125703   2.155   6.307   5.875
 8268SOL    HW225704   2.224   6.176   5.944
 8269SOL     OW25705   4.071   1.976   2.183
 8269SOL    HW125706   4.006   2.051   2.194
 8269SOL    HW225707   4.114   1.957   2.272
 8270SOL     OW25708   2.826   6.952   5.545
 8270SOL    HW125709   2.748   6.891   5.551
 8270SOL    HW225710   2.901   6.906   5.497
 8271SOL     OW25711   0.317   0.618   3.151
 8271SOL    HW125712   0.362   0.563   3.080
 8271SOL    HW225713   0.273   0.697   3.108
 8272SOL     OW25714   5.336   2.140   2.242
 8272SOL    HW125715   5.387   2.069   2.195
 8272SOL    HW225716   5.354   2.134   2.340
 8273SOL     OW25717   3.283   0.904   6.932
 8273SOL    HW125718   3.218   0.861   6.869
 8273SOL    HW225719   3.326   0.834   6.989
 8274SOL     OW25720   5.479   4.996   4.297
 8274SOL    HW125721   5.424   4.913   4.308
 8274SOL    HW225722   5.471   5.052   4.379
 8275SOL     OW25723   5.338   1.390   5.535
 8275SOL    HW125724   5.318   1.488   5.542
 8275SOL    HW225725   5.364   1.355   5.625
 8276SOL     OW25726   0.495   2.184   3.476
 8276SOL    HW125727   0.408   2.194   3.523
 8276SOL    HW225728   0.566   2.160   3.542
 8277SOL     OW25729   0.024   6.534   7.003
 8277SOL    HW125730   0.103   6.474   7.018
 8277SOL    HW225731   6.960   6.492   0.022
 8278SOL     OW25732   3.079   2.134   5.601
 8278SOL    HW125733   3.014   2.194   5.553
 8278SOL    HW225734   3.155   2.112   5.540
 8279SOL     OW25735   1.591   6.479   4.622
 8279SOL    HW125736   1.603   6.462   4.524
 8279SOL    HW225737   1.609   6.394   4.672
 8280SOL     OW25738   2.262   3.804   0.886
 8280SOL    HW125739   2.305   3.887   0.921
 8280SOL    HW225740   2.328   3.754   0.830
 8281SOL     OW25741   3.096   4.446   1.647
 8281SOL    HW125742   3.157   4.372   1.674
 8281SOL    HW225743   3.023   4.455   1.715
 8282SOL     OW25744   4.283   3.577   6.941
 8282SOL    HW125745   4.334   3.659   6.914
 8282SOL    HW225746   4.334   3.496   6.911
 8283SOL     OW25747   1.579   5.422   5.974
 8283SOL    HW125748   1.582   5.519   5.999
 8283SOL    HW225749   1.660   5.376   6.010
 8284SOL     OW25750   0.946   3.877   1.307
 8284SOL    HW125751   1.032   3.855   1.353
 8284SOL    HW225752   0.958   3.957   1.248
 8285SOL     OW25753   3.211   4.080   4.424
 8285SOL    HW125754   3.291   4.135   4.448
 8285SOL    HW225755   3.182   4.027   4.504
 8286SOL     OW25756   5.914   2.399   6.294
 8286SOL    HW125757   5.873   2.490   6.295
 8286SOL    HW225758   6.009   2.405   6.324
 8287SOL     OW25759   2.048   5.049   4.368
 8287SOL    HW125760   2.120   5.090   4.424
 8287SOL    HW225761   1.960   5.057   4.416
 8288SOL     OW25762   3.222   2.054   1.464
 8288SOL    HW125763   3.182   2.145   1.450
 8288SOL    HW225764   3.177   2.009   1.541
 8289SOL     OW25765   0.427   5.312   0.856
 8289SOL    HW125766   0.456   5.397   0.813
 8289SOL    HW225767   0.462   5.235   0.804
 8290SOL     OW25768   6.008   1.338   1.472
 8290SOL    HW125769   5.926   1.376   1.515
 8290SOL    HW225770   6.016   1.373   1.379
 8291SOL     OW25771   5.098   6.418   5.374
 8291SOL    HW125772   5.004   6.449   5.363
 8291SOL    HW225773   5.155   6.459   5.303
 8292SOL     OW25774   2.730   6.580   6.857
 8292SOL    HW125775   2.666   6.654   6.838
 8292SOL    HW225776   2.791   6.567   6.779
 8293SOL     OW25777   3.275   6.025   0.367
 8293SOL    HW125778   3.333   6.098   0.332
 8293SOL    HW225779   3.180   6.042   0.341
 8294SOL     OW25780   5.391   3.797   5.255
 8294SOL    HW125781   5.325   3.823   5.185
 8294SOL    HW225782   5.479   3.840   5.237
 8295SOL     OW25783   5.461   5.287   1.837
 8295SOL    HW125784   5.370   5.275   1.796
 8295SOL    HW225785   5.518   5.209   1.813
 8296SOL     OW25786   1.262   4.820   6.596
 8296SOL    HW125787   1.206   4.878   6.537
 8296SOL    HW225788   1.204   4.748   6.635
 8297SOL     OW25789   6.562   2.855   2.399
 8297SOL    HW125790   6.565   2.776   2.338
 8297SOL    HW225791   6.468   2.886   2.410
 8298SOL     OW25792   6.669   1.326   1.352
 8298SOL    HW125793   6.718   1.391   1.294
 8298SOL    HW225794   6.586   1.369   1.387
 8299SOL     OW25795   6.499   2.968   1.402
 8299SOL    HW125796   6.463   2.972   1.495
 8299SOL    HW225797   6.568   2.896   1.396
 8300SOL     OW25798   0.335   5.821   4.811
 8300SOL    HW125799   0.398   5.751   4.778
 8300SOL    HW225800   0.346   5.832   4.910
 8301SOL     OW25801   3.901   1.594   1.298
 8301SOL    HW125802   3.865   1.598   1.392
 8301SOL    HW225803   3.997   1.564   1.301
 8302SOL     OW25804   5.884   6.705   6.870
 8302SOL    HW125805   5.852   6.793   6.905
 8302SOL    HW225806   5.921   6.650   6.945
 8303SOL     OW25807   6.660   0.613   3.817
 8303SOL    HW125808   6.758   0.596   3.820
 8303SOL    HW225809   6.610   0.527   3.823
 8304SOL     OW25810   0.289   3.438   0.578
 8304SOL    HW125811   0.335   3.490   0.505
 8304SOL    HW225812   0.211   3.490   0.612
 8305SOL     OW25813   4.978   4.949   4.465
 8305SOL    HW125814   4.983   4.857   4.504
 8305SOL    HW225815   4.940   5.012   4.533
 8306SOL     OW25816   6.773   2.579   6.000
 8306SOL    HW125817   6.756   2.630   6.084
 8306SOL    HW225818   6.709   2.611   5.929
 8307SOL     OW25819   3.635   5.369   1.640
 8307SOL    HW125820   3.576   5.297   1.677
 8307SOL    HW225821   3.604   5.393   1.548
 8308SOL     OW25822   3.738   5.655   1.372
 8308SOL    HW125823   3.832   5.675   1.343
 8308SOL    HW225824   3.695   5.739   1.404
 8309SOL     OW25825   6.912   5.075   4.034
 8309SOL    HW125826   6.984   5.061   3.966
 8309SOL    HW225827   6.862   5.159   4.013
 8310SOL     OW25828   6.922   4.819   0.572
 8310SOL    HW125829   7.004   4.868   0.542
 8310SOL    HW225830   6.841   4.871   0.547
 8311SOL     OW25831   0.780   1.492   4.280
 8311SOL    HW125832   0.819   1.496   4.372
 8311SOL    HW225833   0.717   1.414   4.274
 8312SOL     OW25834   5.102   0.479   6.956
 8312SOL    HW125835   5.010   0.441   6.959
 8312SOL    HW225836   5.108   0.545   6.881
 8313SOL     OW25837   5.180   0.329   0.933
 8313SOL    HW125838   5.273   0.297   0.951
 8313SOL    HW225839   5.117   0.288   0.999
 8314SOL     OW25840   4.793   0.529   0.428
 8314SOL    HW125841   4.822   0.623   0.406
 8314SOL    HW225842   4.726   0.532   0.503
 8315SOL     OW25843   4.240   2.844   1.362
 8315SOL    HW125844   4.222   2.929   1.410
 8315SOL    HW225845   4.327   2.849   1.314
 8316SOL     OW25846   0.720   2.350   1.934
 8316SOL    HW125847   0.661   2.431   1.929
 8316SOL    HW225848   0.801   2.372   1.988
 8317SOL     OW25849   1.944   2.825   2.521
 8317SOL    HW125850   1.862   2.779   2.554
 8317SOL    HW225851   1.957   2.806   2.424
 8318SOL     OW25852   4.651   1.445   4.935
 8318SOL    HW125853   4.592   1.374   4.896
 8318SOL    HW225854   4.685   1.414   5.024
 8319SOL     OW25855   2.049   2.039   0.058
 8319SOL    HW125856   2.081   1.948   0.086
 8319SOL    HW225857   1.950   2.036   0.043
 8320SOL     OW25858   3.185   3.571   1.637
 8320SOL    HW125859   3.198   3.509   1.560
 8320SOL    HW225860   3.100   3.621   1.625
 8321SOL     OW25861   6.746   0.595   6.560
 8321SOL    HW125862   6.715   0.548   6.478
 8321SOL    HW225863   6.842   0.575   6.576
 8322SOL     OW25864   6.678   6.968   0.669
 8322SOL    HW125865   6.713   6.987   0.577
 8322SOL    HW225866   6.700   6.873   0.694
 8323SOL     OW25867   5.253   5.626   2.533
 8323SOL    HW125868   5.209   5.536   2.533
 8323SOL    HW225869   5.330   5.625   2.597
 8324SOL     OW25870   5.425   6.792   1.348
 8324SOL    HW125871   5.333   6.827   1.333
 8324SOL    HW225872   5.486   6.824   1.275
 8325SOL     OW25873   2.938   3.907   5.739
 8325SOL    HW125874   2.883   3.991   5.740
 8325SOL    HW225875   2.905   3.846   5.667
 8326SOL     OW25876   5.067   3.836   5.433
 8326SOL    HW125877   5.161   3.806   5.414
 8326SOL    HW225878   5.003   3.772   5.392
 8327SOL     OW25879   6.623   1.031   6.332
 8327SOL    HW125880   6.582   1.062   6.417
 8327SOL    HW225881   6.680   0.950   6.350
 8328SOL     OW25882   2.813   6.127   5.690
 8328SOL    HW125883   2.729   6.081   5.718
 8328SOL    HW225884   2.794   6.224   5.674
 8329SOL     OW25885   0.682   2.868   6.077
 8329SOL    HW125886   0.615   2.941   6.063
 8329SOL    HW225887   0.773   2.903   6.059
 8330SOL     OW25888   3.006   1.105   0.282
 8330SOL    HW125889   3.052   1.100   0.193
 8330SOL    HW225890   2.971   1.015   0.307
 8331SOL     OW25891   3.500   1.340   1.465
 8331SOL    HW125892   3.537   1.345   1.557
 8331SOL    HW225893   3.465   1.430   1.438
 8332SOL     OW25894   5.199   5.351   2.542
 8332SOL    HW125895   5.172   5.298   2.622
 8332SOL    HW225896   5.277   5.308   2.497
 8333SOL     OW25897   0.146   6.418   6.241
 8333SOL    HW125898   0.206   6.494   6.264
 8333SOL    HW225899   0.052   6.451   6.231
 8334SOL     OW25900   3.665   1.293   3.635
 8334SOL    HW125901   3.591   1.237   3.674
 8334SOL    HW225902   3.724   1.325   3.709
 8335SOL     OW25903   6.115   6.300   6.842
 8335SOL    HW125904   6.186   6.325   6.776
 8335SOL    HW225905   6.141   6.215   6.887
 8336SOL     OW25906   6.951   5.825   3.087
 8336SOL    HW125907   6.983   5.813   2.993
 8336SOL    HW225908   6.901   5.911   3.095
 8337SOL     OW25909   1.811   6.355   2.363
 8337SOL    HW125910   1.755   6.387   2.440
 8337SOL    HW225911   1.847   6.264   2.384
 8338SOL     OW25912   2.859   5.237   1.773
 8338SOL    HW125913   2.889   5.162   1.714
 8338SOL    HW225914   2.912   5.319   1.750
 8339SOL     OW25915   5.710   0.457   1.119
 8339SOL    HW125916   5.761   0.374   1.096
 8339SOL    HW225917   5.773   0.534   1.127
 8340SOL     OW25918   5.027   2.694   1.703
 8340SOL    HW125919   5.012   2.718   1.607
 8340SOL    HW225920   4.959   2.741   1.760
 8341SOL     OW25921   2.410   6.263   0.267
 8341SOL    HW125922   2.325   6.217   0.240
 8341SOL    HW225923   2.458   6.294   0.185
 8342SOL     OW25924   4.708   6.658   1.792
 8342SOL    HW125925   4.613   6.627   1.786
 8342SOL    HW225926   4.715   6.732   1.858
 8343SOL     OW25927   1.647   5.627   5.596
 8343SOL    HW125928   1.601   5.679   5.524
 8343SOL    HW225929   1.607   5.535   5.602
 8344SOL     OW25930   4.742   6.493   5.054
 8344SOL    HW125931   4.650   6.454   5.049
 8344SOL    HW225932   4.776   6.509   4.961
 8345SOL     OW25933   4.394   1.551   3.325
 8345SOL    HW125934   4.468   1.490   3.298
 8345SOL    HW225935   4.338   1.573   3.245
 8346SOL     OW25936   3.173   4.844   0.800
 8346SOL    HW125937   3.200   4.816   0.892
 8346SOL    HW225938   3.223   4.927   0.774
 8347SOL     OW25939   3.455   5.358   4.556
 8347SOL    HW125940   3.494   5.305   4.632
 8347SOL    HW225941   3.396   5.299   4.502
 8348SOL     OW25942   2.268   0.448   2.309
 8348SOL    HW125943   2.188   0.394   2.282
 8348SOL    HW225944   2.322   0.469   2.227
 8349SOL     OW25945   5.788   6.187   1.883
 8349SOL    HW125946   5.868   6.149   1.928
 8349SOL    HW225947   5.718   6.208   1.951
 8350SOL     OW25948   4.679   0.307   5.358
 8350SOL    HW125949   4.619   0.291   5.436
 8350SOL    HW225950   4.624   0.319   5.275
 8351SOL     OW25951   5.082   4.499   4.618
 8351SOL    HW125952   5.170   4.509   4.664
 8351SOL    HW225953   5.016   4.456   4.680
 8352SOL     OW25954   0.643   0.051   2.851
 8352SOL    HW125955   0.656   0.149   2.860
 8352SOL    HW225956   0.552   0.032   2.812
 8353SOL     OW25957   6.995   3.394   1.577
 8353SOL    HW125958   6.931   3.365   1.648
 8353SOL    HW225959   6.945   3.441   1.504
 8354SOL     OW25960   3.814   6.729   6.378
 8354SOL    HW125961   3.844   6.752   6.470
 8354SOL    HW225962   3.723   6.689   6.381
 8355SOL     OW25963   3.086   0.838   6.744
 8355SOL    HW125964   3.126   0.921   6.705
 8355SOL    HW225965   2.988   0.852   6.756
 8356SOL     OW25966   1.150   6.092   1.224
 8356SOL    HW125967   1.094   6.116   1.304
 8356SOL    HW225968   1.239   6.136   1.232
 8357SOL     OW25969   4.034   0.358   4.800
 8357SOL    HW125970   4.043   0.271   4.849
 8357SOL    HW225971   4.105   0.364   4.729
 8358SOL     OW25972   1.082   4.272   5.902
 8358SOL    HW125973   1.112   4.368   5.910
 8358SOL    HW225974   1.162   4.214   5.888
 8359SOL     OW25975   3.159   0.966   5.287
 8359SOL    HW125976   3.208   0.879   5.285
 8359SOL    HW225977   3.198   1.028   5.220
 8360SOL     OW25978   3.164   5.656   1.656
 8360SOL    HW125979   3.233   5.603   1.606
 8360SOL    HW225980   3.143   5.739   1.605
 8361SOL     OW25981   3.365   0.134   2.604
 8361SOL    HW125982   3.414   0.196   2.543
 8361SOL    HW225983   3.395   0.150   2.698
 8362SOL     OW25984   3.482   2.149   0.687
 8362SOL    HW125985   3.456   2.176   0.780
 8362SOL    HW225986   3.502   2.051   0.685
 8363SOL     OW25987   0.395   2.903   6.426
 8363SOL    HW125988   0.346   2.839   6.367
 8363SOL    HW225989   0.329   2.955   6.480
 8364SOL     OW25990   0.775   3.304   2.671
 8364SOL    HW125991   0.869   3.335   2.688
 8364SOL    HW225992   0.717   3.331   2.747
 8365SOL     OW25993   2.155   4.121   1.746
 8365SOL    HW125994   2.082   4.094   1.808
 8365SOL    HW225995   2.206   4.198   1.785
 8366SOL     OW25996   2.515   5.962   2.010
 8366SOL    HW125997   2.500   6.051   1.967
 8366SOL    HW225998   2.432   5.935   2.059
 8367SOL     OW25999   4.004   6.522   3.761
 8367SOL    HW126000   3.917   6.526   3.810
 8367SOL    HW226001   4.079   6.514   3.828
 8368SOL     OW26002   2.319   6.555   6.834
 8368SOL    HW126003   2.287   6.557   6.929
 8368SOL    HW226004   2.240   6.542   6.773
 8369SOL     OW26005   2.250   6.928   6.714
 8369SOL    HW126006   2.298   6.996   6.769
 8369SOL    HW226007   2.288   6.837   6.733
 8370SOL     OW26008   2.548   1.784   5.265
 8370SOL    HW126009   2.571   1.874   5.302
 8370SOL    HW226010   2.505   1.729   5.336
 8371SOL     OW26011   2.040   4.122   0.893
 8371SOL    HW126012   2.089   4.204   0.922
 8371SOL    HW226013   1.942   4.134   0.909
 8372SOL     OW26014   0.781   5.356   2.450
 8372SOL    HW126015   0.739   5.443   2.425
 8372SOL    HW226016   0.777   5.343   2.549
 8373SOL     OW26017   1.377   0.127   3.699
 8373SOL    HW126018   1.330   0.077   3.772
 8373SOL    HW226019   1.310   0.157   3.631
 8374SOL     OW26020   6.735   1.183   5.395
 8374SOL    HW126021   6.825   1.172   5.437
 8374SOL    HW226022   6.682   1.099   5.410
 8375SOL     OW26023   4.054   6.601   5.014
 8375SOL    HW126024   4.077   6.695   5.041
 8375SOL    HW226025   4.108   6.574   4.935
 8376SOL     OW26026   1.674   0.325   4.106
 8376SOL    HW126027   1.714   0.410   4.072
 8376SOL    HW226028   1.668   0.259   4.031
 8377SOL     OW26029   5.186   6.081   1.558
 8377SOL    HW126030   5.166   6.080   1.460
 8377SOL    HW226031   5.154   5.997   1.600
 8378SOL     OW26032   4.385   4.584   2.699
 8378SOL    HW126033   4.456   4.654   2.699
 8378SOL    HW226034   4.321   4.602   2.774
 8379SOL     OW26035   5.983   2.399   1.255
 8379SOL    HW126036   5.888   2.392   1.285
 8379SOL    HW226037   6.041   2.344   1.316
 8380SOL     OW26038   6.795   0.760   2.153
 8380SOL    HW126039   6.828   0.689   2.217
 8380SOL    HW226040   6.851   0.842   2.164
 8381SOL     OW26041   0.104   2.829   5.026
 8381SOL    HW126042   0.104   2.797   5.121
 8381SOL    HW226043   0.014   2.867   5.003
 8382SOL     OW26044   2.816   0.838   2.636
 8382SOL    HW126045   2.806   0.902   2.560
 8382SOL    HW226046   2.729   0.791   2.652
 8383SOL     OW26047   2.156   7.005   5.766
 8383SOL    HW126048   2.080   6.977   5.824
 8383SOL    HW226049   2.235   6.946   5.784
 8384SOL     OW26050   0.140   0.806   0.736
 8384SOL    HW126051   0.135   0.870   0.660
 8384SOL    HW226052   0.063   0.820   0.798
 8385SOL     OW26053   6.615   1.731   1.352
 8385SOL    HW126054   6.704   1.753   1.312
 8385SOL    HW226055   6.543   1.778   1.301
 8386SOL     OW26056   1.362   4.729   1.949
 8386SOL    HW126057   1.307   4.694   2.025
 8386SOL    HW226058   1.301   4.763   1.877
 8387SOL     OW26059   1.714   1.199   2.359
 8387SOL    HW126060   1.748   1.163   2.446
 8387SOL    HW226061   1.745   1.141   2.285
 8388SOL     OW26062   2.578   6.208   0.458
 8388SOL    HW126063   2.512   6.205   0.384
 8388SOL    HW226064   2.615   6.300   0.467
 8389SOL     OW26065   6.730   2.843   2.934
 8389SOL    HW126066   6.676   2.900   2.995
 8389SOL    HW226067   6.707   2.863   2.839
 8390SOL     OW26068   3.767   1.419   6.081
 8390SOL    HW126069   3.862   1.389   6.068
 8390SOL    HW226070   3.723   1.362   6.150
 8391SOL     OW26071   6.621   4.914   0.917
 8391SOL    HW126072   6.713   4.876   0.915
 8391SOL    HW226073   6.565   4.861   0.981
 8392SOL     OW26074   6.380   3.482   4.446
 8392SOL    HW126075   6.309   3.432   4.494
 8392SOL    HW226076   6.387   3.448   4.352
 8393SOL     OW26077   0.166   0.301   2.947
 8393SOL    HW126078   0.205   0.220   2.991
 8393SOL    HW226079   0.074   0.318   2.983
 8394SOL     OW26080   6.343   2.675   0.881
 8394SOL    HW126081   6.382   2.743   0.820
 8394SOL    HW226082   6.265   2.631   0.838
 8395SOL     OW26083   3.039   0.117   5.713
 8395SOL    HW126084   3.000   0.150   5.800
 8395SOL    HW226085   2.986   0.154   5.637
 8396SOL     OW26086   4.774   5.432   3.575
 8396SOL    HW126087   4.746   5.342   3.542
 8396SOL    HW226088   4.813   5.423   3.667
 8397SOL     OW26089   1.317   0.743   2.497
 8397SOL    HW126090   1.375   0.824   2.508
 8397SOL    HW226091   1.313   0.718   2.400
 8398SOL     OW26092   3.930   2.250   6.138
 8398SOL    HW126093   4.029   2.243   6.138
 8398SOL    HW226094   3.903   2.347   6.142
 8399SOL     OW26095   5.542   0.053   6.745
 8399SOL    HW126096   5.449   0.026   6.718
 8399SOL    HW226097   5.550   0.152   6.741
 8400SOL     OW26098   1.698   0.915   4.013
 8400SOL    HW126099   1.745   0.981   4.073
 8400SOL    HW226100   1.604   0.902   4.045
 8401SOL     OW26101   2.513   1.111   5.457
 8401SOL    HW126102   2.493   1.118   5.360
 8401SOL    HW226103   2.441   1.059   5.503
 8402SOL     OW26104   5.070   1.820   6.429
 8402SOL    HW126105   5.153   1.866   6.461
 8402SOL    HW226106   5.062   1.731   6.473
 8403SOL     OW26107   6.840   3.452   4.000
 8403SOL    HW126108   6.929   3.408   3.990
 8403SOL    HW226109   6.834   3.529   3.937
 8404SOL     OW26110   3.843   6.701   5.740
 8404SOL    HW126111   3.863   6.799   5.744
 8404SOL    HW226112   3.748   6.685   5.765
 8405SOL     OW26113   1.896   1.309   5.532
 8405SOL    HW126114   1.973   1.291   5.472
 8405SOL    HW226115   1.923   1.294   5.627
 8406SOL     OW26116   4.242   0.344   0.209
 8406SOL    HW126117   4.329   0.393   0.217
 8406SOL    HW226118   4.169   0.408   0.187
 8407SOL     OW26119   3.649   6.390   3.118
 8407SOL    HW126120   3.631   6.293   3.130
 8407SOL    HW226121   3.599   6.442   3.188
 8408SOL     OW26122   5.522   4.315   1.135
 8408SOL    HW126123   5.439   4.362   1.166
 8408SOL    HW226124   5.570   4.278   1.214
 8409SOL     OW26125   4.706   1.271   3.546
 8409SOL    HW126126   4.788   1.280   3.603
 8409SOL    HW226127   4.643   1.345   3.568
 8410SOL     OW26128   5.804   0.962   1.678
 8410SOL    HW126129   5.800   0.896   1.753
 8410SOL    HW226130   5.713   1.000   1.663
 8411SOL     OW26131   0.738   5.342   0.173
 8411SOL    HW126132   0.684   5.407   0.227
 8411SOL    HW226133   0.683   5.308   0.097
 8412SOL     OW26134   3.376   2.529   1.089
 8412SOL    HW126135   3.311   2.492   1.155
 8412SOL    HW226136   3.366   2.628   1.084
 8413SOL     OW26137   4.715   5.715   6.723
 8413SOL    HW126138   4.640   5.679   6.667
 8413SOL    HW226139   4.751   5.642   6.781
 8414SOL     OW26140   3.301   0.037   3.728
 8414SOL    HW126141   3.309   6.983   3.797
 8414SOL    HW226142   3.251   0.001   3.649
 8415SOL     OW26143   0.573   5.658   4.088
 8415SOL    HW126144   0.549   5.609   4.004
 8415SOL    HW226145   0.641   5.728   4.067
 8416SOL     OW26146   6.311   2.389   3.259
 8416SOL    HW126147   6.224   2.414   3.302
 8416SOL    HW226148   6.373   2.467   3.263
 8417SOL     OW26149   0.627   3.068   5.754
 8417SOL    HW126150   0.598   3.117   5.837
 8417SOL    HW226151   0.712   3.108   5.720
 8418SOL     OW26152   6.167   5.722   1.500
 8418SOL    HW126153   6.221   5.779   1.438
 8418SOL    HW226154   6.070   5.731   1.476
 8419SOL     OW26155   5.845   0.460   1.731
 8419SOL    HW126156   5.824   0.379   1.785
 8419SOL    HW226157   5.900   0.435   1.651
 8420SOL     OW26158   4.137   0.361   0.787
 8420SOL    HW126159   4.201   0.291   0.757
 8420SOL    HW226160   4.134   0.363   0.887
 8421SOL     OW26161   3.118   5.478   6.949
 8421SOL    HW126162   3.096   5.576   6.950
 8421SOL    HW226163   3.216   5.466   6.930
 8422SOL     OW26164   4.258   1.430   2.039
 8422SOL    HW126165   4.231   1.336   2.018
 8422SOL    HW226166   4.285   1.477   1.955
 8423SOL     OW26167   3.261   5.082   5.842
 8423SOL    HW126168   3.238   5.054   5.749
 8423SOL    HW226169   3.190   5.050   5.905
 8424SOL     OW26170   1.647   2.406   2.660
 8424SOL    HW126171   1.625   2.343   2.734
 8424SOL    HW226172   1.737   2.447   2.677
 8425SOL     OW26173   4.315   4.409   6.195
 8425SOL    HW126174   4.393   4.357   6.162
 8425SOL    HW226175   4.254   4.350   6.248
 8426SOL     OW26176   3.835   3.332   3.018
 8426SOL    HW126177   3.792   3.245   2.995
 8426SOL    HW226178   3.887   3.322   3.103
 8427SOL     OW26179   3.831   3.891   3.788
 8427SOL    HW126180   3.755   3.826   3.793
 8427SOL    HW226181   3.796   3.982   3.770
 8428SOL     OW26182   0.589   5.902   1.398
 8428SOL    HW126183   0.535   5.819   1.381
 8428SOL    HW226184   0.652   5.917   1.322
 8429SOL     OW26185   1.747   5.817   5.315
 8429SOL    HW126186   1.659   5.768   5.317
 8429SOL    HW226187   1.767   5.853   5.406
 8430SOL     OW26188   3.769   5.205   4.043
 8430SOL    HW126189   3.789   5.283   4.101
 8430SOL    HW226190   3.677   5.171   4.063
 8431SOL     OW26191   3.653   3.330   0.701
 8431SOL    HW126192   3.666   3.246   0.648
 8431SOL    HW226193   3.690   3.318   0.793
 8432SOL     OW26194   5.917   6.064   5.206
 8432SOL    HW126195   5.961   6.002   5.271
 8432SOL    HW226196   5.864   6.011   5.140
 8433SOL     OW26197   4.300   2.969   0.467
 8433SOL    HW126198   4.282   2.874   0.492
 8433SOL    HW226199   4.213   3.017   0.455
 8434SOL     OW26200   2.726   0.612   4.661
 8434SOL    HW126201   2.708   0.532   4.719
 8434SOL    HW226202   2.799   0.667   4.702
 8435SOL     OW26203   6.087   0.621   1.963
 8435SOL    HW126204   6.133   0.542   1.923
 8435SOL    HW226205   6.051   0.680   1.890
 8436SOL     OW26206   3.133   6.503   3.143
 8436SOL    HW126207   3.062   6.434   3.127
 8436SOL    HW226208   3.124   6.575   3.074
 8437SOL     OW26209   2.079   1.145   3.835
 8437SOL    HW126210   2.175   1.152   3.862
 8437SOL    HW226211   2.044   1.056   3.861
 8438SOL     OW26212   2.197   4.080   2.703
 8438SOL    HW126213   2.220   4.055   2.798
 8438SOL    HW226214   2.152   4.002   2.659
 8439SOL     OW26215   6.348   4.968   2.958
 8439SOL    HW126216   6.366   4.949   2.861
 8439SOL    HW226217   6.258   5.009   2.968
 8440SOL     OW26218   2.469   1.617   3.570
 8440SOL    HW126219   2.426   1.666   3.646
 8440SOL    HW226220   2.567   1.608   3.588
 8441SOL     OW26221   5.465   6.993   0.275
 8441SOL    HW126222   5.401   6.923   0.306
 8441SOL    HW226223   5.444   0.001   0.181
 8442SOL     OW26224   3.504   2.283   5.605
 8442SOL    HW126225   3.532   2.188   5.598
 8442SOL    HW226226   3.567   2.341   5.554
 8443SOL     OW26227   2.527   4.478   3.706
 8443SOL    HW126228   2.575   4.446   3.788
 8443SOL    HW226229   2.468   4.555   3.730
 8444SOL     OW26230   3.124   6.692   4.320
 8444SOL    HW126231   3.084   6.722   4.233
 8444SOL    HW226232   3.051   6.666   4.383
 8445SOL     OW26233   2.769   0.530   1.626
 8445SOL    HW126234   2.850   0.479   1.600
 8445SOL    HW226235   2.688   0.488   1.586
 8446SOL     OW26236   5.337   5.591   5.921
 8446SOL    HW126237   5.307   5.521   5.985
 8446SOL    HW226238   5.384   5.664   5.971
 8447SOL     OW26239   4.320   1.674   2.189
 8447SOL    HW126240   4.301   1.587   2.143
 8447SOL    HW226241   4.418   1.685   2.201
 8448SOL     OW26242   3.725   6.132   4.025
 8448SOL    HW126243   3.690   6.108   4.115
 8448SOL    HW226244   3.689   6.221   3.998
 8449SOL     OW26245   0.122   3.420   3.539
 8449SOL    HW126246   0.038   3.474   3.542
 8449SOL    HW226247   0.200   3.479   3.554
 8450SOL     OW26248   0.852   0.355   1.333
 8450SOL    HW126249   0.915   0.406   1.275
 8450SOL    HW226250   0.797   0.418   1.387
 8451SOL     OW26251   3.295   1.719   0.080
 8451SOL    HW126252   3.294   1.622   0.055
 8451SOL    HW226253   3.290   1.775   7.015
 8452SOL     OW26254   6.325   2.872   3.672
 8452SOL    HW126255   6.262   2.939   3.631
 8452SOL    HW226256   6.273   2.803   3.722
 8453SOL     OW26257   0.229   4.856   0.136
 8453SOL    HW126258   0.224   4.906   0.223
 8453SOL    HW226259   0.221   4.919   0.060
 8454SOL     OW26260   0.024   5.733   1.252
 8454SOL    HW126261   7.002   5.663   1.312
 8454SOL    HW226262   0.087   5.790   1.306
 8455SOL     OW26263   0.143   1.693   1.816
 8455SOL    HW126264   0.201   1.690   1.735
 8455SOL    HW226265   0.197   1.721   1.895
 8456SOL     OW26266   4.401   6.043   3.353
 8456SOL    HW126267   4.478   6.097   3.318
 8456SOL    HW226268   4.351   6.003   3.276
 8457SOL     OW26269   0.233   6.738   4.415
 8457SOL    HW126270   0.188   6.691   4.340
 8457SOL    HW226271   0.179   6.727   4.499
 8458SOL     OW26272   2.883   0.828   0.283
 8458SOL    HW126273   2.804   0.880   0.316
 8458SOL    HW226274   2.858   0.778   0.200
 8459SOL     OW26275   2.907   5.722   2.246
 8459SOL    HW126276   2.917   5.667   2.328
 8459SOL    HW226277   2.997   5.755   2.216
 8460SOL     OW26278   4.612   4.334   5.038
 8460SOL    HW126279   4.631   4.372   4.948
 8460SOL    HW226280   4.517   4.306   5.043
 8461SOL     OW26281   0.789   3.454   4.826
 8461SOL    HW126282   0.875   3.472   4.779
 8461SOL    HW226283   0.744   3.541   4.848
 8462SOL     OW26284   2.162   2.378   6.799
 8462SOL    HW126285   2.115   2.350   6.883
 8462SOL    HW226286   2.195   2.471   6.808
 8463SOL     OW26287   0.039   0.075   1.689
 8463SOL    HW126288   0.035   0.175   1.683
 8463SOL    HW226289   0.044   0.048   1.785
 8464SOL     OW26290   5.574   4.228   4.402
 8464SOL    HW126291   5.641   4.189   4.465
 8464SOL    HW226292   5.486   4.236   4.447
 8465SOL     OW26293   0.830   3.305   0.677
 8465SOL    HW126294   0.917   3.353   0.687
 8465SOL    HW226295   0.842   3.227   0.615
 8466SOL     OW26296   0.551   6.913   4.494
 8466SOL    HW126297   0.507   6.828   4.464
 8466SOL    HW226298   0.598   6.955   4.416
 8467SOL     OW26299   3.319   6.582   0.438
 8467SOL    HW126300   3.240   6.578   0.500
 8467SOL    HW226301   3.403   6.587   0.492
 8468SOL     OW26302   3.446   1.753   0.326
 8468SOL    HW126303   3.447   1.849   0.354
 8468SOL    HW226304   3.387   1.742   0.246
 8469SOL     OW26305   4.020   2.147   6.776
 8469SOL    HW126306   3.950   2.192   6.831
 8469SOL    HW226307   3.988   2.139   6.682
 8470SOL     OW26308   1.341   3.440   0.527
 8470SOL    HW126309   1.322   3.520   0.470
 8470SOL    HW226310   1.434   3.446   0.563
 8471SOL     OW26311   2.938   1.478   2.546
 8471SOL    HW126312   2.934   1.571   2.582
 8471SOL    HW226313   2.924   1.413   2.620
 8472SOL     OW26314   0.487   0.553   4.507
 8472SOL    HW126315   0.551   0.516   4.574
 8472SOL    HW226316   0.537   0.608   4.439
 8473SOL     OW26317   5.944   4.805   6.392
 8473SOL    HW126318   5.854   4.779   6.358
 8473SOL    HW226319   5.982   4.878   6.334
 8474SOL     OW26320   3.222   3.184   2.141
 8474SOL    HW126321   3.146   3.137   2.097
 8474SOL    HW226322   3.200   3.281   2.151
 8475SOL     OW26323   0.612   1.704   3.182
 8475SOL    HW126324   0.601   1.801   3.202
 8475SOL    HW226325   0.642   1.692   3.087
 8476SOL     OW26326   6.328   1.096   1.341
 8476SOL    HW126327   6.306   1.189   1.309
 8476SOL    HW226328   6.377   1.102   1.428
 8477SOL     OW26329   4.296   6.627   2.628
 8477SOL    HW126330   4.306   6.695   2.701
 8477SOL    HW226331   4.200   6.620   2.601
 8478SOL     OW26332   1.276   0.623   5.994
 8478SOL    HW126333   1.247   0.529   5.972
 8478SOL    HW226334   1.374   0.623   6.014
 8479SOL     OW26335   6.353   2.459   1.124
 8479SOL    HW126336   6.316   2.547   1.153
 8479SOL    HW226337   6.319   2.437   1.032
 8480SOL     OW26338   3.796   0.976   0.088
 8480SOL    HW126339   3.784   1.000   7.009
 8480SOL    HW226340   3.859   1.040   0.131
 8481SOL     OW26341   4.650   1.916   4.011
 8481SOL    HW126342   4.601   1.834   4.043
 8481SOL    HW226343   4.648   1.986   4.082
 8482SOL     OW26344   3.256   6.790   3.345
 8482SOL    HW126345   3.345   6.830   3.323
 8482SOL    HW226346   3.203   6.855   3.400
 8483SOL     OW26347   4.231   5.446   2.241
 8483SOL    HW126348   4.259   5.540   2.258
 8483SOL    HW226349   4.284   5.384   2.300
 8484SOL     OW26350   0.822   5.465   3.168
 8484SOL    HW126351   0.860   5.439   3.079
 8484SOL    HW226352   0.847   5.397   3.236
 8485SOL     OW26353   3.029   3.940   6.670
 8485SOL    HW126354   2.975   3.857   6.660
 8485SOL    HW226355   3.125   3.919   6.651
 8486SOL     OW26356   4.882   1.351   2.847
 8486SOL    HW126357   4.930   1.339   2.934
 8486SOL    HW226358   4.948   1.377   2.776
 8487SOL     OW26359   5.710   0.791   6.996
 8487SOL    HW126360   5.806   0.817   6.985
 8487SOL    HW226361   5.703   0.692   7.008
 8488SOL     OW26362   5.883   4.858   5.206
 8488SOL    HW126363   5.977   4.825   5.204
 8488SOL    HW226364   5.824   4.786   5.243
 8489SOL     OW26365   6.040   0.781   1.357
 8489SOL    HW126366   5.978   0.711   1.394
 8489SOL    HW226367   6.046   0.858   1.421
 8490SOL     OW26368   4.160   6.890   4.246
 8490SOL    HW126369   4.228   6.835   4.196
 8490SOL    HW226370   4.129   6.839   4.326
 8491SOL     OW26371   2.045   0.262   1.630
 8491SOL    HW126372   1.984   0.304   1.563
 8491SOL    HW226373   2.021   0.166   1.642
 8492SOL     OW26374   4.118   4.194   0.160
 8492SOL    HW126375   4.114   4.232   0.068
 8492SOL    HW226376   4.025   4.182   0.195
 8493SOL     OW26377   2.849   2.011   6.330
 8493SOL    HW126378   2.896   1.926   6.307
 8493SOL    HW226379   2.756   2.008   6.293
 8494SOL     OW26380   2.831   5.023   0.652
 8494SOL    HW126381   2.817   4.924   0.652
 8494SOL    HW226382   2.884   5.050   0.732
 8495SOL     OW26383   6.643   4.211   0.598
 8495SOL    HW126384   6.625   4.145   0.525
 8495SOL    HW226385   6.740   4.211   0.620
 8496SOL     OW26386   0.474   2.336   1.750
 8496SOL    HW126387   0.435   2.333   1.658
 8496SOL    HW226388   0.556   2.279   1.753
 8497SOL     OW26389   6.257   0.678   4.118
 8497SOL    HW126390   6.249   0.636   4.028
 8497SOL    HW226391   6.310   0.763   4.111
 8498SOL     OW26392   0.322   6.130   2.754
 8498SOL    HW126393   0.252   6.069   2.791
 8498SOL    HW226394   0.370   6.084   2.680
 8499SOL     OW26395   2.542   5.656   6.678
 8499SOL    HW126396   2.522   5.691   6.586
 8499SOL    HW226397   2.459   5.657   6.733
 8500SOL     OW26398   2.024   0.111   5.542
 8500SOL    HW126399   2.076   0.062   5.612
 8500SOL    HW226400   2.045   0.208   5.546
 8501SOL     OW26401   0.661   2.918   0.550
 8501SOL    HW126402   0.634   3.013   0.538
 8501SOL    HW226403   0.601   2.859   0.495
 8502SOL     OW26404   1.606   5.172   1.229
 8502SOL    HW126405   1.673   5.245   1.238
 8502SOL    HW226406   1.521   5.199   1.276
 8503SOL     OW26407   1.195   6.315   3.383
 8503SOL    HW126408   1.176   6.219   3.402
 8503SOL    HW226409   1.113   6.370   3.400
 8504SOL     OW26410   2.260   5.763   3.652
 8504SOL    HW126411   2.207   5.808   3.724
 8504SOL    HW226412   2.197   5.733   3.580
 8505SOL     OW26413   4.886   3.781   3.939
 8505SOL    HW126414   4.867   3.866   3.989
 8505SOL    HW226415   4.862   3.703   3.996
 8506SOL     OW26416   6.534   1.271   0.342
 8506SOL    HW126417   6.569   1.213   0.416
 8506SOL    HW226418   6.569   1.364   0.353
 8507SOL     OW26419   3.122   1.231   5.806
 8507SOL    HW126420   3.206   1.277   5.774
 8507SOL    HW226421   3.080   1.182   5.729
 8508SOL     OW26422   0.033   2.386   4.911
 8508SOL    HW126423   0.096   2.356   4.840
 8508SOL    HW226424   0.081   2.449   4.973
 8509SOL     OW26425   4.931   1.287   3.703
 8509SOL    HW126426   5.003   1.217   3.701
 8509SOL    HW226427   4.921   1.322   3.797
 8510SOL     OW26428   5.037   4.316   3.021
 8510SOL    HW126429   5.109   4.380   3.046
 8510SOL    HW226430   5.031   4.243   3.089
 8511SOL     OW26431   5.734   3.636   1.860
 8511SOL    HW126432   5.670   3.571   1.819
 8511SOL    HW226433   5.823   3.593   1.871
 8512SOL     OW26434   3.111   2.278   0.861
 8512SOL    HW126435   3.073   2.186   0.871
 8512SOL    HW226436   3.079   2.336   0.936
 8513SOL     OW26437   4.924   4.114   1.249
 8513SOL    HW126438   4.891   4.196   1.203
 8513SOL    HW226439   4.938   4.133   1.346
 8514SOL     OW26440   2.913   1.725   3.905
 8514SOL    HW126441   2.926   1.795   3.834
 8514SOL    HW226442   2.916   1.768   3.995
 8515SOL     OW26443   5.972   1.533   6.841
 8515SOL    HW126444   5.874   1.550   6.832
 8515SOL    HW226445   5.987   1.438   6.871
 8516SOL     OW26446   6.744   1.643   1.122
 8516SOL    HW126447   6.645   1.635   1.111
 8516SOL    HW226448   6.788   1.557   1.094
 8517SOL     OW26449   1.474   3.300   6.252
 8517SOL    HW126450   1.422   3.224   6.213
 8517SOL    HW226451   1.514   3.354   6.178
 8518SOL     OW26452   4.840   4.466   6.195
 8518SOL    HW126453   4.884   4.403   6.259
 8518SOL    HW226454   4.787   4.534   6.247
 8519SOL     OW26455   1.703   4.910   1.222
 8519SOL    HW126456   1.722   4.902   1.124
 8519SOL    HW226457   1.645   4.990   1.238
 8520SOL     OW26458   3.538   3.487   6.502
 8520SOL    HW126459   3.595   3.492   6.584
 8520SOL    HW226460   3.530   3.579   6.463
 8521SOL     OW26461   2.306   4.827   5.625
 8521SOL    HW126462   2.332   4.870   5.712
 8521SOL    HW226463   2.385   4.827   5.564
 8522SOL     OW26464   1.627   6.572   1.234
 8522SOL    HW126465   1.723   6.597   1.217
 8522SOL    HW226466   1.582   6.647   1.284
 8523SOL     OW26467   1.965   6.552   6.917
 8523SOL    HW126468   1.893   6.593   6.972
 8523SOL    HW226469   1.931   6.466   6.877
 8524SOL     OW26470   0.678   2.697   5.373
 8524SOL    HW126471   0.661   2.654   5.284
 8524SOL    HW226472   0.647   2.637   5.446
 8525SOL     OW26473   6.286   4.207   1.644
 8525SOL    HW126474   6.355   4.135   1.655
 8525SOL    HW226475   6.290   4.242   1.550
 8526SOL     OW26476   4.162   6.101   0.145
 8526SOL    HW126477   4.160   6.037   0.069
 8526SOL    HW226478   4.070   6.111   0.184
 8527SOL     OW26479   3.264   1.018   6.644
 8527SOL    HW126480   3.201   1.084   6.602
 8527SOL    HW226481   3.342   1.067   6.683
 8528SOL     OW26482   4.302   0.828   6.618
 8528SOL    HW126483   4.392   0.864   6.644
 8528SOL    HW226484   4.272   0.761   6.686
 8529SOL     OW26485   1.282   6.999   0.678
 8529SOL    HW126486   1.381   7.007   0.692
 8529SOL    HW226487   1.235   0.015   0.759
 8530SOL     OW26488   4.191   4.089   5.532
 8530SOL    HW126489   4.212   4.139   5.448
 8530SOL    HW226490   4.103   4.121   5.568
 8531SOL     OW26491   6.441   4.848   2.495
 8531SOL    HW126492   6.483   4.869   2.583
 8531SOL    HW226493   6.377   4.772   2.506
 8532SOL     OW26494   4.454   5.193   4.660
 8532SOL    HW126495   4.532   5.250   4.635
 8532SOL    HW226496   4.437   5.125   4.589
 8533SOL     OW26497   1.878   6.155   0.146
 8533SOL    HW126498   1.846   6.066   0.115
 8533SOL    HW226499   1.907   6.150   0.241
 8534SOL     OW26500   6.089   2.357   4.332
 8534SOL    HW126501   6.179   2.333   4.295
 8534SOL    HW226502   6.019   2.297   4.292
 8535SOL     OW26503   6.487   1.040   3.204
 8535SOL    HW126504   6.429   1.076   3.130
 8535SOL    HW226505   6.579   1.077   3.194
 8536SOL     OW26506   0.163   1.899   4.858
 8536SOL    HW126507   0.219   1.980   4.873
 8536SOL    HW226508   0.188   1.828   4.923
 8537SOL     OW26509   5.635   0.805   2.928
 8537SOL    HW126510   5.643   0.709   2.955
 8537SOL    HW226511   5.635   0.863   3.009
 8538SOL     OW26512   1.315   0.957   0.316
 8538SOL    HW126513   1.230   0.914   0.347
 8538SOL    HW226514   1.390   0.933   0.379
 8539SOL     OW26515   6.310   0.630   2.711
 8539SOL    HW126516   6.254   0.642   2.629
 8539SOL    HW226517   6.277   0.692   2.783
 8540SOL     OW26518   5.366   0.566   6.225
 8540SOL    HW126519   5.355   0.658   6.263
 8540SOL    HW226520   5.316   0.560   6.138
 8541SOL     OW26521   2.713   1.564   3.739
 8541SOL    HW126522   2.766   1.625   3.796
 8541SOL    HW226523   2.680   1.487   3.793
 8542SOL     OW26524   4.304   4.482   6.546
 8542SOL    HW126525   4.234   4.415   6.523
 8542SOL    HW226526   4.282   4.569   6.503
 8543SOL     OW26527   2.783   1.484   1.446
 8543SOL    HW126528   2.827   1.394   1.440
 8543SOL    HW226529   2.772   1.510   1.542
 8544SOL     OW26530   5.389   3.333   3.735
 8544SOL    HW126531   5.395   3.408   3.668
 8544SOL    HW226532   5.316   3.271   3.707
 8545SOL     OW26533   4.474   0.081   5.151
 8545SOL    HW126534   4.431   0.026   5.223
 8545SOL    HW226535   4.440   0.175   5.155
 8546SOL     OW26536   5.586   1.983   4.179
 8546SOL    HW126537   5.639   2.055   4.225
 8546SOL    HW226538   5.490   2.010   4.173
 8547SOL     OW26539   1.345   6.647   5.987
 8547SOL    HW126540   1.323   6.625   5.891
 8547SOL    HW226541   1.328   6.566   6.043
 8548SOL     OW26542   6.189   2.466   6.097
 8548SOL    HW126543   6.118   2.482   6.029
 8548SOL    HW226544   6.266   2.527   6.080
 8549SOL     OW26545   1.362   3.024   4.090
 8549SOL    HW126546   1.275   3.043   4.134
 8549SOL    HW226547   1.364   3.067   4.000
 8550SOL     OW26548   1.826   4.690   0.468
 8550SOL    HW126549   1.790   4.626   0.536
 8550SOL    HW226550   1.918   4.719   0.495
 8551SOL     OW26551   3.653   4.169   5.882
 8551SOL    HW126552   3.624   4.180   5.787
 8551SOL    HW226553   3.705   4.083   5.891
 8552SOL     OW26554   2.116   6.789   3.507
 8552SOL    HW126555   2.196   6.729   3.500
 8552SOL    HW226556   2.045   6.758   3.444
 8553SOL     OW26557   4.987   4.607   6.409
 8553SOL    HW126558   4.913   4.638   6.469
 8553SOL    HW226559   5.061   4.568   6.464
 8554SOL     OW26560   0.577   4.828   0.492
 8554SOL    HW126561   0.568   4.815   0.393
 8554SOL    HW226562   0.596   4.924   0.511
 8555SOL     OW26563   1.477   0.617   1.864
 8555SOL    HW126564   1.539   0.541   1.844
 8555SOL    HW226565   1.515   0.673   1.938
 8556SOL     OW26566   0.735   6.512   5.111
 8556SOL    HW126567   0.661   6.571   5.145
 8556SOL    HW226568   0.822   6.543   5.148
 8557SOL     OW26569   5.909   0.387   2.667
 8557SOL    HW126570   5.865   0.324   2.603
 8557SOL    HW226571   6.000   0.411   2.633
 8558SOL     OW26572   2.659   5.706   3.474
 8558SOL    HW126573   2.659   5.732   3.571
 8558SOL    HW226574   2.750   5.722   3.436
 8559SOL     OW26575   6.842   0.285   1.925
 8559SOL    HW126576   6.796   0.324   2.006
 8559SOL    HW226577   6.922   0.234   1.954
 8560SOL     OW26578   0.064   5.979   2.068
 8560SOL    HW126579   6.993   5.933   2.071
 8560SOL    HW226580   0.051   6.077   2.082
 8561SOL     OW26581   3.698   0.456   2.352
 8561SOL    HW126582   3.760   0.385   2.383
 8561SOL    HW226583   3.605   0.420   2.348
 8562SOL     OW26584   4.135   6.231   4.907
 8562SOL    HW126585   4.094   6.210   4.996
 8562SOL    HW226586   4.228   6.194   4.904
 8563SOL     OW26587   2.819   4.884   0.209
 8563SOL    HW126588   2.784   4.866   0.301
 8563SOL    HW226589   2.897   4.824   0.190
 8564SOL     OW26590   3.083   1.191   3.925
 8564SOL    HW126591   3.113   1.250   3.850
 8564SOL    HW226592   3.042   1.107   3.888
 8565SOL     OW26593   4.186   5.668   1.283
 8565SOL    HW126594   4.146   5.578   1.263
 8565SOL    HW226595   4.208   5.714   1.198
 8566SOL     OW26596   1.385   0.420   1.256
 8566SOL    HW126597   1.329   0.499   1.281
 8566SOL    HW226598   1.434   0.386   1.337
 8567SOL     OW26599   6.658   1.469   2.617
 8567SOL    HW126600   6.744   1.499   2.577
 8567SOL    HW226601   6.607   1.415   2.549
 8568SOL     OW26602   5.624   1.141   5.957
 8568SOL    HW126603   5.530   1.138   5.991
 8568SOL    HW226604   5.636   1.074   5.884
 8569SOL     OW26605   5.019   1.628   5.603
 8569SOL    HW126606   5.008   1.710   5.546
 8569SOL    HW226607   5.063   1.556   5.550
 8570SOL     OW26608   1.161   2.256   5.038
 8570SOL    HW126609   1.063   2.269   5.056
 8570SOL    HW226610   1.189   2.316   4.963
 8571SOL     OW26611   1.210   5.085   5.696
 8571SOL    HW126612   1.245   5.179   5.697
 8571SOL    HW226613   1.275   5.025   5.742
 8572SOL     OW26614   3.393   5.130   6.250
 8572SOL    HW126615   3.324   5.189   6.209
 8572SOL    HW226616   3.423   5.169   6.337
 8573SOL     OW26617   3.342   6.594   5.827
 8573SOL    HW126618   3.263   6.653   5.838
 8573SOL    HW226619   3.387   6.580   5.916
 8574SOL     OW26620   0.085   6.063   5.934
 8574SOL    HW126621   0.155   6.124   5.971
 8574SOL    HW226622   7.017   6.113   5.926
 8575SOL     OW26623   3.176   2.789   5.580
 8575SOL    HW126624   3.204   2.863   5.641
 8575SOL    HW226625   3.240   2.783   5.503
 8576SOL     OW26626   1.519   5.806   0.073
 8576SOL    HW126627   1.535   5.888   0.128
 8576SOL    HW226628   1.594   5.795   0.007
 8577SOL     OW26629   0.237   6.083   4.398
 8577SOL    HW126630   0.333   6.057   4.393
 8577SOL    HW226631   0.180   6.007   4.365
 8578SOL     OW26632   5.459   0.769   4.318
 8578SOL    HW126633   5.517   0.761   4.399
 8578SOL    HW226634   5.512   0.805   4.242
 8579SOL     OW26635   1.167   0.057   3.309
 8579SOL    HW126636   1.124   0.052   3.400
 8579SOL    HW226637   1.204   0.149   3.295
 8580SOL     OW26638   2.142   6.897   2.361
 8580SOL    HW126639   2.055   6.871   2.320
 8580SOL    HW226640   2.163   6.835   2.438
 8581SOL     OW26641   3.148   3.354   1.818
 8581SOL    HW126642   3.124   3.439   1.770
 8581SOL    HW226643   3.070   3.293   1.819
 8582SOL     OW26644   4.222   4.671   2.455
 8582SOL    HW126645   4.133   4.711   2.479
 8582SOL    HW226646   4.237   4.590   2.511
 8583SOL     OW26647   5.712   0.448   5.100
 8583SOL    HW126648   5.669   0.502   5.027
 8583SOL    HW226649   5.784   0.391   5.062
 8584SOL     OW26650   0.005   3.622   5.852
 8584SOL    HW126651   6.945   3.639   5.791
 8584SOL    HW226652   0.087   3.606   5.796
 8585SOL     OW26653   0.642   6.081   5.768
 8585SOL    HW126654   0.691   6.114   5.849
 8585SOL    HW226655   0.558   6.134   5.757
 8586SOL     OW26656   3.032   0.443   3.693
 8586SOL    HW126657   2.976   0.426   3.611
 8586SOL    HW226658   3.025   0.365   3.755
 8587SOL     OW26659   1.732   6.842   2.900
 8587SOL    HW126660   1.793   6.767   2.876
 8587SOL    HW226661   1.768   6.928   2.863
 8588SOL     OW26662   2.973   0.432   0.147
 8588SOL    HW126663   2.880   0.439   0.110
 8588SOL    HW226664   2.986   0.503   0.217
 8589SOL     OW26665   5.175   2.756   4.515
 8589SOL    HW126666   5.112   2.831   4.535
 8589SOL    HW226667   5.261   2.772   4.563
 8590SOL     OW26668   6.879   6.666   3.892
 8590SOL    HW126669   6.890   6.721   3.809
 8590SOL    HW226670   6.847   6.575   3.867
 8591SOL     OW26671   0.836   4.577   6.393
 8591SOL    HW126672   0.820   4.638   6.471
 8591SOL    HW226673   0.844   4.483   6.425
 8592SOL     OW26674   0.226   3.664   6.766
 8592SOL    HW126675   0.174   3.744   6.795
 8592SOL    HW226676   0.319   3.669   6.803
 8593SOL     OW26677   1.632   0.749   2.059
 8593SOL    HW126678   1.616   0.821   2.126
 8593SOL    HW226679   1.714   0.697   2.085
 8594SOL     OW26680   3.903   3.245   4.850
 8594SOL    HW126681   3.848   3.316   4.893
 8594SOL    HW226682   3.998   3.254   4.880
 8595SOL     OW26683   1.825   2.067   3.280
 8595SOL    HW126684   1.795   2.143   3.337
 8595SOL    HW226685   1.905   2.023   3.322
 8596SOL     OW26686   6.337   5.219   3.358
 8596SOL    HW126687   6.312   5.153   3.429
 8596SOL    HW226688   6.410   5.278   3.392
 8597SOL     OW26689   4.704   1.313   1.262
 8597SOL    HW126690   4.788   1.312   1.208
 8597SOL    HW226691   4.628   1.282   1.205
 8598SOL     OW26692   6.826   5.900   1.120
 8598SOL    HW126693   6.758   5.855   1.061
 8598SOL    HW226694   6.893   5.832   1.150
 8599SOL     OW26695   1.053   2.652   3.855
 8599SOL    HW126696   1.011   2.687   3.938
 8599SOL    HW226697   0.990   2.589   3.809
 8600SOL     OW26698   5.406   5.051   6.057
 8600SOL    HW126699   5.341   5.052   6.133
 8600SOL    HW226700   5.450   5.141   6.050
 8601SOL     OW26701   1.083   1.085   5.246
 8601SOL    HW126702   1.003   1.043   5.290
 8601SOL    HW226703   1.123   1.021   5.181
 8602SOL     OW26704   3.170   5.682   3.415
 8602SOL    HW126705   3.267   5.705   3.413
 8602SOL    HW226706   3.153   5.615   3.488
 8603SOL     OW26707   3.796   5.446   0.405
 8603SOL    HW126708   3.721   5.385   0.380
 8603SOL    HW226709   3.823   5.429   0.500
 8604SOL     OW26710   0.357   3.197   3.720
 8604SOL    HW126711   0.411   3.123   3.759
 8604SOL    HW226712   0.260   3.182   3.740
 8605SOL     OW26713   3.099   5.091   4.504
 8605SOL    HW126714   3.069   5.084   4.409
 8605SOL    HW226715   3.036   5.040   4.562
 8606SOL     OW26716   1.981   4.544   6.396
 8606SOL    HW126717   1.916   4.618   6.414
 8606SOL    HW226718   2.022   4.557   6.306
 8607SOL     OW26719   3.818   5.768   0.507
 8607SOL    HW126720   3.719   5.771   0.521
 8607SOL    HW226721   3.837   5.743   0.412
 8608SOL     OW26722   4.381   5.218   3.218
 8608SOL    HW126723   4.387   5.248   3.313
 8608SOL    HW226724   4.426   5.285   3.159
 8609SOL     OW26725   5.385   1.030   3.316
 8609SOL    HW126726   5.424   1.029   3.224
 8609SOL    HW226727   5.391   0.939   3.356
 8610SOL     OW26728   1.274   1.567   2.468
 8610SOL    HW126729   1.263   1.647   2.410
 8610SOL    HW226730   1.363   1.571   2.513
 8611SOL     OW26731   2.066   1.740   4.070
 8611SOL    HW126732   2.140   1.687   4.111
 8611SOL    HW226733   1.992   1.678   4.043
 8612SOL     OW26734   3.357   2.991   0.390
 8612SOL    HW126735   3.406   3.016   0.473
 8612SOL    HW226736   3.286   2.924   0.412
 8613SOL     OW26737   2.349   2.021   1.361
 8613SOL    HW126738   2.431   1.973   1.331
 8613SOL    HW226739   2.359   2.049   1.456
 8614SOL     OW26740   0.627   3.336   2.889
 8614SOL    HW126741   0.582   3.417   2.926
 8614SOL    HW226742   0.559   3.266   2.870
 8615SOL     OW26743   4.971   1.872   5.496
 8615SOL    HW126744   4.915   1.944   5.537
 8615SOL    HW226745   5.063   1.906   5.481
 8616SOL     OW26746   2.488   5.147   1.269
 8616SOL    HW126747   2.544   5.098   1.336
 8616SOL    HW226748   2.401   5.174   1.312
 8617SOL     OW26749   6.983   0.976   6.573
 8617SOL    HW126750   6.915   0.940   6.509
 8617SOL    HW226751   6.963   1.072   6.593
 8618SOL     OW26752   6.040   6.534   1.225
 8618SOL    HW126753   6.003   6.504   1.137
 8618SOL    HW226754   5.998   6.481   1.299
 8619SOL     OW26755   3.544   4.983   2.119
 8619SOL    HW126756   3.468   5.033   2.160
 8619SOL    HW226757   3.513   4.893   2.089
 8620SOL     OW26758   0.750   6.959   3.552
 8620SOL    HW126759   0.707   6.871   3.572
 8620SOL    HW226760   0.690   7.013   3.492
 8621SOL     OW26761   6.259   1.446   3.097
 8621SOL    HW126762   6.211   1.373   3.048
 8621SOL    HW226763   6.219   1.534   3.073
 8622SOL     OW26764   4.974   3.854   0.511
 8622SOL    HW126765   5.043   3.867   0.440
 8622SOL    HW226766   4.883   3.877   0.475
 8623SOL     OW26767   1.044   3.946   3.338
 8623SOL    HW126768   0.992   3.919   3.257
 8623SOL    HW226769   1.007   4.033   3.374
 8624SOL     OW26770   1.229   3.778   3.902
 8624SOL    HW126771   1.141   3.818   3.929
 8624SOL    HW226772   1.236   3.778   3.802
 8625SOL     OW26773   4.717   6.877   4.822
 8625SOL    HW126774   4.628   6.903   4.784
 8625SOL    HW226775   4.741   6.939   4.897
 8626SOL     OW26776   3.676   3.083   4.902
 8626SOL    HW126777   3.746   3.144   4.865
 8626SOL    HW226778   3.690   2.991   4.865
 8627SOL     OW26779   0.094   0.927   3.771
 8627SOL    HW126780   0.134   1.005   3.722
 8627SOL    HW226781   7.012   0.933   3.766
 8628SOL     OW26782   5.842   6.998   1.259
 8628SOL    HW126783   5.878   6.930   1.196
 8628SOL    HW226784   5.859   6.968   1.353
 8629SOL     OW26785   1.292   4.900   5.470
 8629SOL    HW126786   1.242   4.957   5.536
 8629SOL    HW226787   1.293   4.946   5.382
 8630SOL     OW26788   5.600   4.399   4.147
 8630SOL    HW126789   5.644   4.487   4.166
 8630SOL    HW226790   5.618   4.336   4.223
 8631SOL     OW26791   3.160   5.653   6.050
 8631SOL    HW126792   3.158   5.672   6.149
 8631SOL    HW226793   3.208   5.728   6.004
 8632SOL     OW26794   3.102   0.109   4.264
 8632SOL    HW126795   3.135   0.163   4.187
 8632SOL    HW226796   3.172   0.044   4.293
 8633SOL     OW26797   5.254   1.858   4.406
 8633SOL    HW126798   5.270   1.791   4.334
 8633SOL    HW226799   5.295   1.825   4.491
 8634SOL     OW26800   5.339   3.114   0.439
 8634SOL    HW126801   5.398   3.120   0.358
 8634SOL    HW226802   5.270   3.186   0.435
 8635SOL     OW26803   6.240   4.668   6.341
 8635SOL    HW126804   6.143   4.644   6.342
 8635SOL    HW226805   6.271   4.682   6.435
 8636SOL     OW26806   5.043   6.086   0.611
 8636SOL    HW126807   5.079   6.162   0.558
 8636SOL    HW226808   4.996   6.022   0.551
 8637SOL     OW26809   2.104   1.308   0.025
 8637SOL    HW126810   2.175   1.238   0.021
 8637SOL    HW226811   2.015   1.266   0.009
 8638SOL     OW26812   2.710   3.108   6.548
 8638SOL    HW126813   2.740   3.170   6.475
 8638SOL    HW226814   2.704   3.159   6.634
 8639SOL     OW26815   5.756   2.133   1.699
 8639SOL    HW126816   5.769   2.123   1.600
 8639SOL    HW226817   5.768   2.229   1.725
 8640SOL     OW26818   4.504   3.980   0.853
 8640SOL    HW126819   4.454   3.895   0.867
 8640SOL    HW226820   4.446   4.045   0.804
 8641SOL     OW26821   6.464   5.033   4.244
 8641SOL    HW126822   6.425   5.125   4.247
 8641SOL    HW226823   6.390   4.965   4.251
 8642SOL     OW26824   3.504   1.315   2.776
 8642SOL    HW126825   3.489   1.325   2.875
 8642SOL    HW226826   3.512   1.218   2.754
 8643SOL     OW26827   3.749   0.266   6.609
 8643SOL    HW126828   3.783   0.321   6.685
 8643SOL    HW226829   3.760   0.169   6.630
 8644SOL     OW26830   4.601   2.450   5.525
 8644SOL    HW126831   4.506   2.462   5.496
 8644SOL    HW226832   4.643   2.375   5.474
 8645SOL     OW26833   4.516   4.436   1.296
 8645SOL    HW126834   4.465   4.485   1.366
 8645SOL    HW226835   4.584   4.498   1.255
 8646SOL     OW26836   6.611   1.413   1.722
 8646SOL    HW126837   6.602   1.377   1.629
 8646SOL    HW226838   6.530   1.467   1.744
 8647SOL     OW26839   2.603   5.492   5.630
 8647SOL    HW126840   2.552   5.418   5.674
 8647SOL    HW226841   2.540   5.548   5.576
 8648SOL     OW26842   6.080   0.763   3.874
 8648SOL    HW126843   6.000   0.706   3.891
 8648SOL    HW226844   6.107   0.755   3.778
 8649SOL     OW26845   5.658   4.354   6.984
 8649SOL    HW126846   5.636   4.266   6.941
 8649SOL    HW226847   5.756   4.373   6.971
 8650SOL     OW26848   2.073   4.130   6.146
 8650SOL    HW126849   2.162   4.142   6.192
 8650SOL    HW226850   2.086   4.132   6.047
 8651SOL     OW26851   3.584   1.098   0.797
 8651SOL    HW126852   3.514   1.156   0.754
 8651SOL    HW226853   3.671   1.146   0.798
 8652SOL     OW26854   1.197   3.739   3.615
 8652SOL    HW126855   1.227   3.780   3.528
 8652SOL    HW226856   1.228   3.644   3.620
 8653SOL     OW26857   5.706   1.044   6.870
 8653SOL    HW126858   5.690   0.954   6.912
 8653SOL    HW226859   5.688   1.038   6.772
 8654SOL     OW26860   1.071   5.648   1.095
 8654SOL    HW126861   1.129   5.567   1.087
 8654SOL    HW226862   1.061   5.672   1.192
 8655SOL     OW26863   5.966   1.420   3.737
 8655SOL    HW126864   5.919   1.396   3.652
 8655SOL    HW226865   5.917   1.382   3.814
 8656SOL     OW26866   6.364   0.938   0.300
 8656SOL    HW126867   6.390   0.950   0.204
 8656SOL    HW226868   6.277   0.985   0.317
 8657SOL     OW26869   4.850   4.810   0.176
 8657SOL    HW126870   4.803   4.820   0.264
 8657SOL    HW226871   4.949   4.813   0.191
 8658SOL     OW26872   4.214   6.400   0.152
 8658SOL    HW126873   4.204   6.434   0.058
 8658SOL    HW226874   4.197   6.301   0.153
 8659SOL     OW26875   4.305   1.756   3.476
 8659SOL    HW126876   4.334   1.684   3.413
 8659SOL    HW226877   4.234   1.721   3.536
 8660SOL     OW26878   5.824   3.761   0.797
 8660SOL    HW126879   5.836   3.826   0.722
 8660SOL    HW226880   5.847   3.669   0.766
 8661SOL     OW26881   5.861   4.018   1.292
 8661SOL    HW126882   5.917   4.084   1.342
 8661SOL    HW226883   5.842   4.054   1.200
 8662SOL     OW26884   4.777   5.775   1.524
 8662SOL    HW126885   4.785   5.797   1.427
 8662SOL    HW226886   4.698   5.823   1.563
 8663SOL     OW26887   2.707   5.848   1.285
 8663SOL    HW126888   2.608   5.851   1.271
 8663SOL    HW226889   2.744   5.764   1.244
 8664SOL     OW26890   3.078   5.956   1.052
 8664SOL    HW126891   3.076   6.049   1.016
 8664SOL    HW226892   2.991   5.910   1.031
 8665SOL     OW26893   5.409   5.942   4.885
 8665SOL    HW126894   5.385   5.863   4.829
 8665SOL    HW226895   5.375   5.929   4.978
 8666SOL     OW26896   4.478   1.800   4.388
 8666SOL    HW126897   4.387   1.839   4.405
 8666SOL    HW226898   4.505   1.745   4.466
 8667SOL     OW26899   4.984   2.698   3.142
 8667SOL    HW126900   5.038   2.614   3.143
 8667SOL    HW226901   4.981   2.735   3.049
 8668SOL     OW26902   5.937   3.462   2.978
 8668SOL    HW126903   5.847   3.504   2.982
 8668SOL    HW226904   5.981   3.486   2.891
 8669SOL     OW26905   2.196   6.165   0.153
 8669SOL    HW126906   2.106   6.207   0.159
 8669SOL    HW226907   2.241   6.193   0.068
 8670SOL     OW26908   3.583   4.698   5.580
 8670SOL    HW126909   3.488   4.718   5.603
 8670SOL    HW226910   3.642   4.773   5.612
 8671SOL     OW26911   5.543   1.900   3.305
 8671SOL    HW126912   5.587   1.899   3.395
 8671SOL    HW226913   5.444   1.907   3.317
 8672SOL     OW26914   1.837   5.060   3.684
 8672SOL    HW126915   1.794   5.146   3.658
 8672SOL    HW226916   1.926   5.079   3.725
 8673SOL     OW26917   6.798   1.856   6.646
 8673SOL    HW126918   6.897   1.855   6.648
 8673SOL    HW226919   6.766   1.946   6.616
 8674SOL     OW26920   5.756   5.672   2.394
 8674SOL    HW126921   5.753   5.640   2.299
 8674SOL    HW226922   5.687   5.623   2.447
 8675SOL     OW26923   3.232   2.120   4.695
 8675SOL    HW126924   3.176   2.039   4.676
 8675SOL    HW226925   3.173   2.195   4.724
 8676SOL     OW26926   4.095   0.342   2.687
 8676SOL    HW126927   4.142   0.384   2.764
 8676SOL    HW226928   4.148   0.263   2.655
 8677SOL     OW26929   2.683   6.364   5.760
 8677SOL    HW126930   2.626   6.312   5.695
 8677SOL    HW226931   2.653   6.459   5.761
 8678SOL     OW26932   0.261   0.122   1.433
 8678SOL    HW126933   0.336   0.144   1.495
 8678SOL    HW226934   0.177   0.108   1.485
 8679SOL     OW26935   6.315   2.426   4.074
 8679SOL    HW126936   6.413   2.408   4.067
 8679SOL    HW226937   6.270   2.349   4.119
 8680SOL     OW26938   1.040   4.232   2.062
 8680SOL    HW126939   1.125   4.266   2.102
 8680SOL    HW226940   0.984   4.309   2.032
 8681SOL     OW26941   4.940   5.448   6.735
 8681SOL    HW126942   4.963   5.467   6.640
 8681SOL    HW226943   4.848   5.409   6.740
 8682SOL     OW26944   4.968   6.771   1.683
 8682SOL    HW126945   4.921   6.856   1.660
 8682SOL    HW226946   4.902   6.703   1.714
 8683SOL     OW26947   1.575   2.471   2.423
 8683SOL    HW126948   1.645   2.461   2.352
 8683SOL    HW226949   1.611   2.441   2.511
 8684SOL     OW26950   0.881   2.730   4.808
 8684SOL    HW126951   0.832   2.647   4.782
 8684SOL    HW226952   0.833   2.810   4.772
 8685SOL     OW26953   0.761   2.210   5.207
 8685SOL    HW126954   0.819   2.236   5.284
 8685SOL    HW226955   0.741   2.112   5.212
 8686SOL     OW26956   0.130   1.108   1.165
 8686SOL    HW126957   0.227   1.129   1.159
 8686SOL    HW226958   0.103   1.105   1.261
 8687SOL     OW26959   3.850   5.566   2.873
 8687SOL    HW126960   3.753   5.562   2.897
 8687SOL    HW226961   3.900   5.616   2.944
 8688SOL     OW26962   2.903   6.098   6.752
 8688SOL    HW126963   2.842   6.161   6.801
 8688SOL    HW226964   2.989   6.145   6.732
 8689SOL     OW26965   3.191   4.209   1.711
 8689SOL    HW126966   3.285   4.175   1.716
 8689SOL    HW226967   3.128   4.133   1.728
 8690SOL     OW26968   1.585   2.824   3.265
 8690SOL    HW126969   1.658   2.866   3.210
 8690SOL    HW226970   1.573   2.876   3.349
 8691SOL     OW26971   3.549   1.816   6.815
 8691SOL    HW126972   3.590   1.810   6.724
 8691SOL    HW226973   3.587   1.894   6.863
 8692SOL     OW26974   2.229   1.262   3.360
 8692SOL    HW126975   2.262   1.353   3.334
 8692SOL    HW226976   2.176   1.270   3.445
 8693SOL     OW26977   6.563   1.327   6.915
 8693SOL    HW126978   6.550   1.232   6.941
 8693SOL    HW226979   6.499   1.385   6.967
 8694SOL     OW26980   4.016   1.243   4.855
 8694SOL    HW126981   4.023   1.343   4.857
 8694SOL    HW226982   4.009   1.212   4.760
 8695SOL     OW26983   3.966   2.588   5.799
 8695SOL    HW126984   3.992   2.683   5.816
 8695SOL    HW226985   3.903   2.558   5.871
 8696SOL     OW26986   2.109   5.876   0.484
 8696SOL    HW126987   2.131   5.784   0.516
 8696SOL    HW226988   2.173   5.902   0.412
 8697SOL     OW26989   6.609   2.932   0.309
 8697SOL    HW126990   6.539   2.980   0.256
 8697SOL    HW226991   6.673   2.887   0.247
 8698SOL     OW26992   5.836   5.573   4.493
 8698SOL    HW126993   5.808   5.656   4.541
 8698SOL    HW226994   5.858   5.502   4.560
 8699SOL     OW26995   2.181   2.247   5.263
 8699SOL    HW126996   2.246   2.312   5.223
 8699SOL    HW226997   2.089   2.266   5.229
 8700SOL     OW26998   0.988   0.424   4.557
 8700SOL    HW126999   1.074   0.374   4.562
 8700SOL    HW227000   0.924   0.375   4.498
 8701SOL     OW27001   1.792   0.777   0.427
 8701SOL    HW127002   1.885   0.746   0.445
 8701SOL    HW227003   1.792   0.876   0.413
 8702SOL     OW27004   5.646   4.204   0.463
 8702SOL    HW127005   5.684   4.227   0.373
 8702SOL    HW227006   5.626   4.288   0.513
 8703SOL     OW27007   3.298   5.826   0.836
 8703SOL    HW127008   3.359   5.808   0.913
 8703SOL    HW227009   3.239   5.904   0.857
 8704SOL     OW27010   0.095   3.415   2.681
 8704SOL    HW127011   0.184   3.454   2.705
 8704SOL    HW227012   0.088   3.408   2.582
 8705SOL     OW27013   5.061   0.834   0.503
 8705SOL    HW127014   5.146   0.881   0.479
 8705SOL    HW227015   5.076   0.778   0.584
 8706SOL     OW27016   4.551   2.052   5.919
 8706SOL    HW127017   4.580   2.069   6.013
 8706SOL    HW227018   4.556   1.954   5.899
 8707SOL     OW27019   6.414   2.352   6.692
 8707SOL    HW127020   6.439   2.278   6.754
 8707SOL    HW227021   6.459   2.437   6.720
 8708SOL     OW27022   4.191   1.816   2.372
 8708SOL    HW127023   4.237   1.813   2.461
 8708SOL    HW227024   4.239   1.755   2.308
 8709SOL     OW27025   6.898   5.860   0.531
 8709SOL    HW127026   6.958   5.786   0.562
 8709SOL    HW227027   6.953   5.943   0.517
 8710SOL     OW27028   1.955   2.783   3.765
 8710SOL    HW127029   2.035   2.769   3.823
 8710SOL    HW227030   1.919   2.693   3.737
 8711SOL     OW27031   1.504   5.882   3.037
 8711SOL    HW127032   1.497   5.964   3.095
 8711SOL    HW227033   1.583   5.827   3.066
 8712SOL     OW27034   4.035   2.202   5.013
 8712SOL    HW127035   4.020   2.204   4.914
 8712SOL    HW227036   4.085   2.284   5.041
 8713SOL     OW27037   0.685   4.000   4.005
 8713SOL    HW127038   0.617   4.070   4.027
 8713SOL    HW227039   0.666   3.961   3.915
 8714SOL     OW27040   1.470   0.997   6.046
 8714SOL    HW127041   1.388   1.045   6.079
 8714SOL    HW227042   1.448   0.942   5.967
 8715SOL     OW27043   4.872   0.927   0.851
 8715SOL    HW127044   4.853   0.945   0.947
 8715SOL    HW227045   4.813   0.854   0.818
 8716SOL     OW27046   0.471   0.286   1.237
 8716SOL    HW127047   0.454   0.188   1.235
 8716SOL    HW227048   0.567   0.304   1.218
 8717SOL     OW27049   3.529   3.187   3.659
 8717SOL    HW127050   3.457   3.221   3.598
 8717SOL    HW227051   3.617   3.225   3.632
 8718SOL     OW27052   0.573   4.176   4.609
 8718SOL    HW127053   0.519   4.228   4.543
 8718SOL    HW227054   0.607   4.237   4.681
 8719SOL     OW27055   2.627   0.032   6.356
 8719SOL    HW127056   2.665   6.991   6.428
 8719SOL    HW227057   2.662   0.125   6.366
 8720SOL     OW27058   6.425   5.396   5.716
 8720SOL    HW127059   6.366   5.408   5.795
 8720SOL    HW227060   6.382   5.438   5.636
 8721SOL     OW27061   6.860   2.324   2.859
 8721SOL    HW127062   6.762   2.319   2.842
 8721SOL    HW227063   6.879   2.392   2.929
 8722SOL     OW27064   3.702   1.275   6.301
 8722SOL    HW127065   3.788   1.314   6.332
 8722SOL    HW227066   3.681   1.192   6.353
 8723SOL     OW27067   4.951   5.581   1.478
 8723SOL    HW127068   5.005   5.616   1.401
 8723SOL    HW227069   4.883   5.649   1.505
 8724SOL     OW27070   5.616   0.335   6.114
 8724SOL    HW127071   5.697   0.285   6.081
 8724SOL    HW227072   5.631   0.433   6.103
 8725SOL     OW27073   2.202   0.252   7.011
 8725SOL    HW127074   2.102   0.258   7.009
 8725SOL    HW227075   2.238   0.331   0.043
 8726SOL     OW27076   6.380   0.236   2.135
 8726SOL    HW127077   6.353   0.303   2.066
 8726SOL    HW227078   6.331   0.150   2.120
 8727SOL     OW27079   0.346   5.970   2.110
 8727SOL    HW127080   0.397   6.052   2.086
 8727SOL    HW227081   0.248   5.989   2.103
 8728SOL     OW27082   4.160   0.383   4.294
 8728SOL    HW127083   4.069   0.426   4.296
 8728SOL    HW227084   4.212   0.411   4.375
 8729SOL     OW27085   4.915   6.362   4.076
 8729SOL    HW127086   4.857   6.304   4.133
 8729SOL    HW227087   5.009   6.330   4.081
 8730SOL     OW27088   6.542   4.068   2.530
 8730SOL    HW127089   6.558   3.977   2.492
 8730SOL    HW227090   6.517   4.060   2.626
 8731SOL     OW27091   2.148   2.787   2.740
 8731SOL    HW127092   2.104   2.798   2.651
 8731SOL    HW227093   2.233   2.734   2.730
 8732SOL     OW27094   5.600   4.324   1.818
 8732SOL    HW127095   5.608   4.423   1.809
 8732SOL    HW227096   5.508   4.295   1.793
 8733SOL     OW27097   2.272   5.450   1.664
 8733SOL    HW127098   2.179   5.438   1.629
 8733SOL    HW227099   2.337   5.406   1.602
 8734SOL     OW27100   1.555   4.478   2.367
 8734SOL    HW127101   1.593   4.444   2.281
 8734SOL    HW227102   1.527   4.401   2.424
 8735SOL     OW27103   1.385   1.918   0.259
 8735SOL    HW127104   1.443   1.836   0.265
 8735SOL    HW227105   1.403   1.977   0.338
 8736SOL     OW27106   0.709   6.224   6.010
 8736SOL    HW127107   0.638   6.290   5.988
 8736SOL    HW227108   0.694   6.187   6.102
 8737SOL     OW27109   2.590   6.200   6.023
 8737SOL    HW127110   2.678   6.230   5.986
 8737SOL    HW227111   2.537   6.280   6.053
 8738SOL     OW27112   2.109   5.263   4.164
 8738SOL    HW127113   2.142   5.169   4.153
 8738SOL    HW227114   2.044   5.267   4.240
 8739SOL     OW27115   5.623   5.352   6.226
 8739SOL    HW127116   5.652   5.325   6.134
 8739SOL    HW227117   5.653   5.283   6.292
 8740SOL     OW27118   5.198   0.874   5.277
 8740SOL    HW127119   5.234   0.802   5.218
 8740SOL    HW227120   5.247   0.960   5.259
 8741SOL     OW27121   2.856   1.198   1.416
 8741SOL    HW127122   2.945   1.209   1.373
 8741SOL    HW227123   2.802   1.132   1.362
 8742SOL     OW27124   5.698   6.246   1.653
 8742SOL    HW127125   5.614   6.192   1.654
 8742SOL    HW227126   5.749   6.229   1.738
 8743SOL     OW27127   1.813   0.538   2.247
 8743SOL    HW127128   1.785   0.561   2.340
 8743SOL    HW227129   1.848   0.444   2.245
 8744SOL     OW27130   3.711   2.706   6.008
 8744SOL    HW127131   3.786   2.757   6.051
 8744SOL    HW227132   3.625   2.728   6.054
 8745SOL     OW27133   6.140   3.105   5.951
 8745SOL    HW127134   6.136   3.028   5.888
 8745SOL    HW227135   6.235   3.124   5.976
 8746SOL     OW27136   5.094   3.639   5.024
 8746SOL    HW127137   5.123   3.712   5.086
 8746SOL    HW227138   4.995   3.635   5.021
 8747SOL     OW27139   0.135   2.284   2.505
 8747SOL    HW127140   0.230   2.290   2.476
 8747SOL    HW227141   0.110   2.365   2.558
 8748SOL     OW27142   6.890   1.690   5.240
 8748SOL    HW127143   6.960   1.754   5.209
 8748SOL    HW227144   6.800   1.732   5.232
 8749SOL     OW27145   2.608   0.408   6.494
 8749SOL    HW127146   2.535   0.399   6.426
 8749SOL    HW227147   2.687   0.454   6.452
 8750SOL     OW27148   2.822   3.675   5.781
 8750SOL    HW127149   2.856   3.756   5.828
 8750SOL    HW227150   2.898   3.625   5.740
 8751SOL     OW27151   6.515   0.220   2.867
 8751SOL    HW127152   6.421   0.221   2.832
 8751SOL    HW227153   6.575   0.178   2.799
 8752SOL     OW27154   2.510   4.742   0.227
 8752SOL    HW127155   2.462   4.830   0.223
 8752SOL    HW227156   2.579   4.746   0.299
 8753SOL     OW27157   4.920   1.503   5.143
 8753SOL    HW127158   4.951   1.588   5.101
 8753SOL    HW227159   4.823   1.511   5.168
 8754SOL     OW27160   1.191   2.490   4.892
 8754SOL    HW127161   1.094   2.481   4.873
 8754SOL    HW227162   1.204   2.547   4.973
 8755SOL     OW27163   2.496   0.742   0.369
 8755SOL    HW127164   2.498   0.776   0.463
 8755SOL    HW227165   2.552   0.800   0.310
 8756SOL     OW27166   2.115   2.892   3.548
 8756SOL    HW127167   2.116   2.817   3.482
 8756SOL    HW227168   2.051   2.871   3.622
 8757SOL     OW27169   4.462   6.410   5.633
 8757SOL    HW127170   4.516   6.461   5.699
 8757SOL    HW227171   4.452   6.315   5.664
 8758SOL     OW27172   4.406   6.858   2.172
 8758SOL    HW127173   4.364   6.788   2.113
 8758SOL    HW227174   4.371   6.848   2.265
 8759SOL     OW27175   3.713   2.321   0.352
 8759SOL    HW127176   3.739   2.388   0.283
 8759SOL    HW227177   3.614   2.317   0.359
 8760SOL     OW27178   1.618   1.233   5.035
 8760SOL    HW127179   1.668   1.267   5.115
 8760SOL    HW227180   1.682   1.201   4.966
 8761SOL     OW27181   5.077   1.948   2.511
 8761SOL    HW127182   5.129   1.976   2.430
 8761SOL    HW227183   5.002   1.888   2.483
 8762SOL     OW27184   0.741   4.480   1.744
 8762SOL    HW127185   0.652   4.463   1.785
 8762SOL    HW227186   0.756   4.417   1.668
 8763SOL     OW27187   6.057   6.169   6.163
 8763SOL    HW127188   6.049   6.265   6.137
 8763SOL    HW227189   5.996   6.149   6.239
 8764SOL     OW27190   4.987   0.980   4.555
 8764SOL    HW127191   4.921   0.986   4.480
 8764SOL    HW227192   5.078   1.002   4.521
 8765SOL     OW27193   6.226   6.339   5.286
 8765SOL    HW127194   6.235   6.397   5.204
 8765SOL    HW227195   6.309   6.346   5.340
 8766SOL     OW27196   4.524   4.499   3.589
 8766SOL    HW127197   4.537   4.402   3.613
 8766SOL    HW227198   4.444   4.534   3.636
 8767SOL     OW27199   4.047   7.008   3.072
 8767SOL    HW127200   4.147   7.005   3.067
 8767SOL    HW227201   4.017   6.964   3.157
 8768SOL     OW27202   1.030   3.021   0.743
 8768SOL    HW127203   0.980   2.956   0.800
 8768SOL    HW227204   0.971   3.051   0.668
 8769SOL     OW27205   1.233   6.722   4.215
 8769SOL    HW127206   1.168   6.787   4.174
 8769SOL    HW227207   1.323   6.736   4.175
 8770SOL     OW27208   5.438   3.744   2.113
 8770SOL    HW127209   5.398   3.763   2.202
 8770SOL    HW227210   5.525   3.697   2.124
 8771SOL     OW27211   1.001   0.426   6.461
 8771SOL    HW127212   0.919   0.467   6.422
 8771SOL    HW227213   1.026   0.475   6.545
 8772SOL     OW27214   4.973   6.086   6.825
 8772SOL    HW127215   5.003   6.006   6.772
 8772SOL    HW227216   4.873   6.087   6.830
 8773SOL     OW27217   4.356   2.333   3.698
 8773SOL    HW127218   4.258   2.326   3.720
 8773SOL    HW227219   4.395   2.242   3.692
 8774SOL     OW27220   1.960   1.629   6.983
 8774SOL    HW127221   2.042   1.610   6.930
 8774SOL    HW227222   1.984   1.648   0.060
 8775SOL     OW27223   6.647   0.349   4.953
 8775SOL    HW127224   6.616   0.444   4.945
 8775SOL    HW227225   6.730   0.337   4.898
 8776SOL     OW27226   3.885   3.622   5.105
 8776SOL    HW127227   3.816   3.694   5.110
 8776SOL    HW227228   3.915   3.598   5.197
 8777SOL     OW27229   0.057   3.766   1.202
 8777SOL    HW127230   0.025   3.859   1.183
 8777SOL    HW227231   0.105   3.730   1.122
 8778SOL     OW27232   6.133   1.923   4.557
 8778SOL    HW127233   6.196   2.000   4.562
 8778SOL    HW227234   6.064   1.940   4.486
 8779SOL     OW27235   3.300   5.187   2.315
 8779SOL    HW127236   3.278   5.237   2.231
 8779SOL    HW227237   3.240   5.108   2.323
 8780SOL     OW27238   1.081   5.577   3.325
 8780SOL    HW127239   1.007   5.566   3.259
 8780SOL    HW227240   1.168   5.579   3.277
 8781SOL     OW27241   6.354   1.939   3.398
 8781SOL    HW127242   6.380   1.842   3.388
 8781SOL    HW227243   6.350   1.963   3.494
 8782SOL     OW27244   5.275   6.840   2.051
 8782SOL    HW127245   5.265   6.907   2.125
 8782SOL    HW227246   5.214   6.762   2.067
 8783SOL     OW27247   6.479   3.873   3.463
 8783SOL    HW127248   6.380   3.882   3.471
 8783SOL    HW227249   6.510   3.793   3.515
 8784SOL     OW27250   5.821   4.360   6.482
 8784SOL    HW127251   5.776   4.416   6.412
 8784SOL    HW227252   5.780   4.269   6.484
 8785SOL     OW27253   6.714   3.588   6.472
 8785SOL    HW127254   6.720   3.681   6.436
 8785SOL    HW227255   6.806   3.550   6.482
 8786SOL     OW27256   2.007   6.719   0.419
 8786SOL    HW127257   1.987   6.639   0.362
 8786SOL    HW227258   2.091   6.762   0.388
 8787SOL     OW27259   2.460   2.746   1.767
 8787SOL    HW127260   2.393   2.671   1.771
 8787SOL    HW227261   2.412   2.833   1.767
 8788SOL     OW27262   0.177   2.311   5.515
 8788SOL    HW127263   0.173   2.280   5.610
 8788SOL    HW227264   0.135   2.402   5.508
 8789SOL     OW27265   6.214   0.021   5.830
 8789SOL    HW127266   6.122   0.039   5.865
 8789SOL    HW227267   6.278   0.012   5.906
 8790SOL     OW27268   0.031   0.784   6.746
 8790SOL    HW127269   0.028   0.867   6.689
 8790SOL    HW227270   0.004   0.705   6.691
 8791SOL     OW27271   5.926   6.961   4.811
 8791SOL    HW127272   5.832   6.939   4.837
 8791SOL    HW227273   5.978   6.987   4.893
 8792SOL     OW27274   3.247   6.383   3.374
 8792SOL    HW127275   3.212   6.434   3.295
 8792SOL    HW227276   3.311   6.313   3.344
 8793SOL     OW27277   1.103   5.134   3.721
 8793SOL    HW127278   1.058   5.125   3.810
 8793SOL    HW227279   1.035   5.126   3.649
 8794SOL     OW27280   4.147   6.755   1.720
 8794SOL    HW127281   4.187   6.826   1.779
 8794SOL    HW227282   4.199   6.749   1.635
 8795SOL     OW27283   0.967   6.677   5.104
 8795SOL    HW127284   1.049   6.686   5.048
 8795SOL    HW227285   0.892   6.729   5.064
 8796SOL     OW27286   4.180   1.697   4.580
 8796SOL    HW127287   4.187   1.667   4.485
 8796SOL    HW227288   4.216   1.626   4.640
 8797SOL     OW27289   0.753   0.398   5.274
 8797SOL    HW127290   0.818   0.323   5.283
 8797SOL    HW227291   0.661   0.365   5.291
 8798SOL     OW27292   4.817   5.219   5.701
 8798SOL    HW127293   4.813   5.132   5.750
 8798SOL    HW227294   4.753   5.217   5.625
 8799SOL     OW27295   1.971   4.370   3.554
 8799SOL    HW127296   2.054   4.326   3.519
 8799SOL    HW227297   1.995   4.458   3.596
 8800SOL     OW27298   6.096   4.381   5.429
 8800SOL    HW127299   6.033   4.443   5.475
 8800SOL    HW227300   6.088   4.391   5.330
 8801SOL     OW27301   0.719   1.492   4.815
 8801SOL    HW127302   0.777   1.462   4.891
 8801SOL    HW227303   0.649   1.555   4.850
 8802SOL     OW27304   1.596   0.140   0.983
 8802SOL    HW127305   1.649   0.106   1.061
 8802SOL    HW227306   1.501   0.152   1.012
 8803SOL     OW27307   0.268   5.280   6.213
 8803SOL    HW127308   0.181   5.254   6.172
 8803SOL    HW227309   0.277   5.380   6.213
 8804SOL     OW27310   3.358   0.827   2.212
 8804SOL    HW127311   3.317   0.894   2.275
 8804SOL    HW227312   3.325   0.735   2.235
 8805SOL     OW27313   2.764   0.266   4.307
 8805SOL    HW127314   2.740   0.363   4.310
 8805SOL    HW227315   2.826   0.245   4.382
 8806SOL     OW27316   2.482   5.237   2.000
 8806SOL    HW127317   2.537   5.230   1.917
 8806SOL    HW227318   2.387   5.215   1.979
 8807SOL     OW27319   5.348   0.176   6.499
 8807SOL    HW127320   5.262   0.132   6.474
 8807SOL    HW227321   5.401   0.195   6.416
 8808SOL     OW27322   5.454   2.398   0.378
 8808SOL    HW127323   5.476   2.473   0.316
 8808SOL    HW227324   5.358   2.403   0.405
 8809SOL     OW27325   4.609   5.136   3.658
 8809SOL    HW127326   4.648   5.080   3.585
 8809SOL    HW227327   4.515   5.106   3.677
 8810SOL     OW27328   5.706   0.864   6.292
 8810SOL    HW127329   5.608   0.864   6.273
 8810SOL    HW227330   5.721   0.844   6.389
 8811SOL     OW27331   2.559   1.334   3.827
 8811SOL    HW127332   2.581   1.293   3.738
 8811SOL    HW227333   2.628   1.306   3.894
 8812SOL     OW27334   2.055   6.764   1.417
 8812SOL    HW127335   2.121   6.825   1.460
 8812SOL    HW227336   1.963   6.803   1.426
 8813SOL     OW27337   1.340   4.476   1.439
 8813SOL    HW127338   1.400   4.518   1.508
 8813SOL    HW227339   1.245   4.500   1.458
 8814SOL     OW27340   5.512   0.424   0.451
 8814SOL    HW127341   5.441   0.491   0.472
 8814SOL    HW227342   5.500   0.393   0.356
 8815SOL     OW27343   6.675   6.329   0.876
 8815SOL    HW127344   6.688   6.293   0.969
 8815SOL    HW227345   6.663   6.428   0.881
 8816SOL     OW27346   1.528   0.865   0.493
 8816SOL    HW127347   1.601   0.807   0.456
 8816SOL    HW227348   1.557   0.903   0.581
 8817SOL     OW27349   0.896   6.191   5.024
 8817SOL    HW127350   0.972   6.230   5.076
 8817SOL    HW227351   0.837   6.139   5.086
 8818SOL     OW27352   0.579   3.579   4.514
 8818SOL    HW127353   0.677   3.587   4.496
 8818SOL    HW227354   0.565   3.515   4.591
 8819SOL     OW27355   5.078   4.837   4.856
 8819SOL    HW127356   5.155   4.797   4.807
 8819SOL    HW227357   5.104   4.853   4.951
 8820SOL     OW27358   2.127   1.104   5.179
 8820SOL    HW127359   2.073   1.077   5.259
 8820SOL    HW227360   2.122   1.033   5.109
 8821SOL     OW27361   2.946   6.339   0.253
 8821SOL    HW127362   2.870   6.288   0.212
 8821SOL    HW227363   2.951   6.319   0.351
 8822SOL     OW27364   0.669   0.264   4.953
 8822SOL    HW127365   0.687   0.342   5.012
 8822SOL    HW227366   0.749   0.204   4.953
 8823SOL     OW27367   2.248   1.121   1.280
 8823SOL    HW127368   2.230   1.205   1.228
 8823SOL    HW227369   2.344   1.094   1.266
 8824SOL     OW27370   1.062   3.611   1.184
 8824SOL    HW127371   1.000   3.690   1.177
 8824SOL    HW227372   1.084   3.595   1.280
 8825SOL     OW27373   1.484   0.491   3.186
 8825SOL    HW127374   1.501   0.578   3.138
 8825SOL    HW227375   1.530   0.417   3.138
 8826SOL     OW27376   6.421   3.104   0.676
 8826SOL    HW127377   6.505   3.086   0.625
 8826SOL    HW227378   6.443   3.112   0.774
 8827SOL     OW27379   3.671   1.172   3.210
 8827SOL    HW127380   3.679   1.085   3.258
 8827SOL    HW227381   3.707   1.245   3.267
 8828SOL     OW27382   4.359   5.295   5.249
 8828SOL    HW127383   4.290   5.267   5.182
 8828SOL    HW227384   4.379   5.392   5.238
 8829SOL     OW27385   6.433   2.260   0.546
 8829SOL    HW127386   6.419   2.358   0.529
 8829SOL    HW227387   6.440   2.244   0.644
 8830SOL     OW27388   0.547   1.543   2.088
 8830SOL    HW127389   0.449   1.552   2.071
 8830SOL    HW227390   0.595   1.520   2.003
 8831SOL     OW27391   5.326   1.198   4.162
 8831SOL    HW127392   5.236   1.162   4.138
 8831SOL    HW227393   5.316   1.273   4.226
 8832SOL     OW27394   0.056   6.066   2.876
 8832SOL    HW127395   0.001   6.149   2.883
 8832SOL    HW227396   0.093   6.043   2.965
 8833SOL     OW27397   2.554   6.057   5.768
 8833SOL    HW127398   2.556   6.105   5.856
 8833SOL    HW227399   2.560   5.959   5.783
 8834SOL     OW27400   5.461   3.385   4.618
 8834SOL    HW127401   5.396   3.381   4.694
 8834SOL    HW227402   5.488   3.293   4.592
 8835SOL     OW27403   5.887   0.996   6.129
 8835SOL    HW127404   5.822   0.948   6.188
 8835SOL    HW227405   5.923   1.076   6.176
 8836SOL     OW27406   4.410   2.360   6.908
 8836SOL    HW127407   4.499   2.330   6.875
 8836SOL    HW227408   4.338   2.323   6.848
 8837SOL     OW27409   0.109   6.293   3.363
 8837SOL    HW127410   0.181   6.230   3.391
 8837SOL    HW227411   0.115   6.309   3.265
 8838SOL     OW27412   2.564   4.548   2.987
 8838SOL    HW127413   2.568   4.452   2.958
 8838SOL    HW227414   2.469   4.579   2.989
 8839SOL     OW27415   5.198   5.233   2.975
 8839SOL    HW127416   5.297   5.246   2.971
 8839SOL    HW227417   5.166   5.257   3.067
 8840SOL     OW27418   6.858   2.054   1.656
 8840SOL    HW127419   6.850   1.956   1.675
 8840SOL    HW227420   6.949   2.074   1.620
 8841SOL     OW27421   0.381   0.345   5.576
 8841SOL    HW127422   0.407   0.372   5.483
 8841SOL    HW227423   0.336   0.421   5.621
 8842SOL     OW27424   3.129   2.974   1.991
 8842SOL    HW127425   3.164   2.918   2.067
 8842SOL    HW227426   3.195   2.974   1.917
 8843SOL     OW27427   1.970   3.399   5.433
 8843SOL    HW127428   1.897   3.448   5.386
 8843SOL    HW227429   2.058   3.429   5.398
 8844SOL     OW27430   5.904   2.483   6.657
 8844SOL    HW127431   5.854   2.529   6.584
 8844SOL    HW227432   5.868   2.511   6.746
 8845SOL     OW27433   3.899   3.574   0.218
 8845SOL    HW127434   3.858   3.576   0.127
 8845SOL    HW227435   3.992   3.612   0.214
 8846SOL     OW27436   3.331   5.841   3.778
 8846SOL    HW127437   3.421   5.885   3.780
 8846SOL    HW227438   3.342   5.742   3.787
 8847SOL     OW27439   2.794   1.708   3.032
 8847SOL    HW127440   2.867   1.686   3.097
 8847SOL    HW227441   2.741   1.786   3.067
 8848SOL     OW27442   2.504   0.805   1.951
 8848SOL    HW127443   2.456   0.886   1.917
 8848SOL    HW227444   2.565   0.770   1.880
 8849SOL     OW27445   3.622   6.104   3.096
 8849SOL    HW127446   3.632   6.021   3.150
 8849SOL    HW227447   3.690   6.105   3.023
 8850SOL     OW27448   1.526   2.572   0.221
 8850SOL    HW127449   1.569   2.627   0.150
 8850SOL    HW227450   1.467   2.630   0.277
 8851SOL     OW27451   1.301   4.101   3.073
 8851SOL    HW127452   1.251   4.103   3.160
 8851SOL    HW227453   1.377   4.037   3.079
 8852SOL     OW27454   0.634   1.989   4.909
 8852SOL    HW127455   0.715   2.046   4.920
 8852SOL    HW227456   0.623   1.964   4.813
 8853SOL     OW27457   3.025   0.733   1.829
 8853SOL    HW127458   2.975   0.651   1.856
 8853SOL    HW227459   2.982   0.813   1.870
 8854SOL     OW27460   2.150   2.549   5.545
 8854SOL    HW127461   2.221   2.591   5.489
 8854SOL    HW227462   2.113   2.469   5.498
 8855SOL     OW27463   6.455   5.021   1.242
 8855SOL    HW127464   6.454   4.961   1.162
 8855SOL    HW227465   6.549   5.029   1.276
 8856SOL     OW27466   0.914   6.514   6.716
 8856SOL    HW127467   0.910   6.610   6.686
 8856SOL    HW227468   1.003   6.494   6.755
 8857SOL     OW27469   6.290   1.622   4.148
 8857SOL    HW127470   6.229   1.684   4.197
 8857SOL    HW227471   6.382   1.661   4.144
 8858SOL     OW27472   0.066   3.741   4.505
 8858SOL    HW127473   0.112   3.806   4.443
 8858SOL    HW227474   0.020   3.671   4.451
 8859SOL     OW27475   1.208   1.250   4.025
 8859SOL    HW127476   1.180   1.318   4.093
 8859SOL    HW227477   1.201   1.159   4.064
 8860SOL     OW27478   6.820   2.458   1.477
 8860SOL    HW127479   6.879   2.459   1.397
 8860SOL    HW227480   6.773   2.370   1.483
 8861SOL     OW27481   3.765   1.231   5.838
 8861SOL    HW127482   3.767   1.266   5.932
 8861SOL    HW227483   3.803   1.299   5.776
 8862SOL     OW27484   5.678   6.790   3.724
 8862SOL    HW127485   5.583   6.794   3.693
 8862SOL    HW227486   5.713   6.698   3.711
 8863SOL     OW27487   2.892   4.745   3.732
 8863SOL    HW127488   2.868   4.704   3.820
 8863SOL    HW227489   2.839   4.701   3.659
 8864SOL     OW27490   3.561   4.620   6.261
 8864SOL    HW127491   3.491   4.600   6.330
 8864SOL    HW227492   3.568   4.719   6.248
 8865SOL     OW27493   2.976   0.999   4.589
 8865SOL    HW127494   2.913   1.043   4.653
 8865SOL    HW227495   3.046   1.065   4.561
 8866SOL     OW27496   5.651   6.764   2.930
 8866SOL    HW127497   5.560   6.730   2.956
 8866SOL    HW227498   5.679   6.722   2.844
 8867SOL     OW27499   5.765   4.707   3.748
 8867SOL    HW127500   5.828   4.779   3.719
 8867SOL    HW227501   5.681   4.749   3.785
 8868SOL     OW27502   0.004   2.997   2.213
 8868SOL    HW127503   0.049   2.968   2.129
 8868SOL    HW227504   7.016   2.920   2.276
 8869SOL     OW27505   3.925   5.871   5.086
 8869SOL    HW127506   4.020   5.900   5.099
 8869SOL    HW227507   3.864   5.930   5.139
 8870SOL     OW27508   2.225   6.698   2.082
 8870SOL    HW127509   2.248   6.725   1.988
 8870SOL    HW227510   2.303   6.716   2.142
 8871SOL     OW27511   2.080   0.209   3.478
 8871SOL    HW127512   2.009   0.253   3.423
 8871SOL    HW227513   2.046   0.196   3.572
 8872SOL     OW27514   1.386   4.938   5.835
 8872SOL    HW127515   1.424   4.889   5.757
 8872SOL    HW227516   1.459   4.983   5.886
 8873SOL     OW27517   2.277   0.101   2.282
 8873SOL    HW127518   2.217   0.180   2.297
 8873SOL    HW227519   2.225   0.017   2.297
 8874SOL     OW27520   2.325   5.895   2.255
 8874SOL    HW127521   2.258   5.888   2.328
 8874SOL    HW227522   2.372   5.808   2.244
 8875SOL     OW27523   6.586   3.452   4.628
 8875SOL    HW127524   6.512   3.455   4.561
 8875SOL    HW227525   6.600   3.543   4.667
 8876SOL     OW27526   2.607   0.837   5.842
 8876SOL    HW127527   2.640   0.827   5.936
 8876SOL    HW227528   2.603   0.934   5.819
 8877SOL     OW27529   2.211   2.726   3.965
 8877SOL    HW127530   2.121   2.756   3.996
 8877SOL    HW227531   2.270   2.712   4.045
 8878SOL     OW27532   3.684   4.902   1.369
 8878SOL    HW127533   3.763   4.963   1.371
 8878SOL    HW227534   3.623   4.925   1.445
 8879SOL     OW27535   4.625   4.880   2.476
 8879SOL    HW127536   4.656   4.963   2.522
 8879SOL    HW227537   4.702   4.817   2.465
 8880SOL     OW27538   3.881   6.677   4.725
 8880SOL    HW127539   3.959   6.645   4.779
 8880SOL    HW227540   3.898   6.656   4.628
 8881SOL     OW27541   5.360   5.787   4.495
 8881SOL    HW127542   5.358   5.874   4.446
 8881SOL    HW227543   5.342   5.712   4.432
 8882SOL     OW27544   4.921   1.068   1.323
 8882SOL    HW127545   4.834   1.095   1.364
 8882SOL    HW227546   4.996   1.104   1.379
 8883SOL     OW27547   2.007   6.505   6.283
 8883SOL    HW127548   1.923   6.472   6.240
 8883SOL    HW227549   1.996   6.600   6.311
 8884SOL     OW27550   5.894   3.423   5.716
 8884SOL    HW127551   5.936   3.341   5.676
 8884SOL    HW227552   5.876   3.408   5.813
 8885SOL     OW27553   4.802   4.641   0.681
 8885SOL    HW127554   4.737   4.616   0.753
 8885SOL    HW227555   4.873   4.700   0.719
 8886SOL     OW27556   3.129   5.765   5.590
 8886SOL    HW127557   3.176   5.805   5.512
 8886SOL    HW227558   3.063   5.697   5.557
 8887SOL     OW27559   4.183   0.804   0.648
 8887SOL    HW127560   4.177   0.708   0.624
 8887SOL    HW227561   4.196   0.859   0.566
 8888SOL     OW27562   2.177   1.882   5.001
 8888SOL    HW127563   2.272   1.856   4.983
 8888SOL    HW227564   2.173   1.975   5.035
 8889SOL     OW27565   6.474   6.837   6.991
 8889SOL    HW127566   6.570   6.814   6.976
 8889SOL    HW227567   6.439   6.784   0.050
 8890SOL     OW27568   0.356   5.765   5.636
 8890SOL    HW127569   0.385   5.777   5.731
 8890SOL    HW227570   0.409   5.826   5.577
 8891SOL     OW27571   3.834   3.819   0.352
 8891SOL    HW127572   3.858   3.745   0.289
 8891SOL    HW227573   3.790   3.780   0.434
 8892SOL     OW27574   3.304   4.999   3.467
 8892SOL    HW127575   3.343   5.081   3.426
 8892SOL    HW227576   3.366   4.963   3.537
 8893SOL     OW27577   1.058   5.028   4.789
 8893SOL    HW127578   0.980   4.965   4.790
 8893SOL    HW227579   1.085   5.047   4.695
 8894SOL     OW27580   3.275   2.069   6.852
 8894SOL    HW127581   3.190   2.121   6.861
 8894SOL    HW227582   3.256   1.972   6.867
 8895SOL     OW27583   6.710   2.203   1.507
 8895SOL    HW127584   6.614   2.185   1.524
 8895SOL    HW227585   6.766   2.131   1.549
 8896SOL     OW27586   2.222   2.988   4.629
 8896SOL    HW127587   2.162   2.932   4.686
 8896SOL    HW227588   2.282   2.928   4.576
 8897SOL     OW27589   2.495   2.215   3.582
 8897SOL    HW127590   2.484   2.118   3.562
 8897SOL    HW227591   2.577   2.230   3.637
 8898SOL     OW27592   5.290   2.986   2.022
 8898SOL    HW127593   5.274   3.027   2.112
 8898SOL    HW227594   5.205   2.947   1.987
 8899SOL     OW27595   1.614   4.459   0.141
 8899SOL    HW127596   1.624   4.533   0.074
 8899SOL    HW227597   1.658   4.377   0.105
 8900SOL     OW27598   5.168   3.211   3.081
 8900SOL    HW127599   5.228   3.131   3.090
 8900SOL    HW227600   5.077   3.188   3.116
 8901SOL     OW27601   0.605   1.286   4.253
 8901SOL    HW127602   0.617   1.187   4.268
 8901SOL    HW227603   0.527   1.301   4.192
 8902SOL     OW27604   1.234   5.660   6.970
 8902SOL    HW127605   1.304   5.659   0.023
 8902SOL    HW227606   1.170   5.734   6.988
 8903SOL     OW27607   0.717   2.126   4.236
 8903SOL    HW127608   0.630   2.135   4.287
 8903SOL    HW227609   0.738   2.213   4.191
 8904SOL     OW27610   0.555   1.002   4.618
 8904SOL    HW127611   0.496   0.921   4.617
 8904SOL    HW227612   0.509   1.078   4.571
 8905SOL     OW27613   2.159   3.106   2.804
 8905SOL    HW127614   2.109   3.023   2.825
 8905SOL    HW227615   2.191   3.103   2.709
 8906SOL     OW27616   0.919   6.232   1.311
 8906SOL    HW127617   0.974   6.313   1.290
 8906SOL    HW227618   0.827   6.261   1.338
 8907SOL     OW27619   3.284   2.955   5.794
 8907SOL    HW127620   3.241   3.045   5.781
 8907SOL    HW227621   3.356   2.943   5.726
 8908SOL     OW27622   1.937   6.085   0.396
 8908SOL    HW127623   1.967   5.998   0.436
 8908SOL    HW227624   1.892   6.140   0.466
 8909SOL     OW27625   2.862   1.070   6.023
 8909SOL    HW127626   2.937   1.132   6.049
 8909SOL    HW227627   2.899   0.977   6.011
 8910SOL     OW27628   0.743   2.948   5.442
 8910SOL    HW127629   0.733   2.976   5.347
 8910SOL    HW227630   0.707   2.856   5.454
 8911SOL     OW27631   5.006   3.396   4.906
 8911SOL    HW127632   4.950   3.476   4.925
 8911SOL    HW227633   5.012   3.382   4.807
 8912SOL     OW27634   2.570   3.340   6.297
 8912SOL    HW127635   2.665   3.322   6.321
 8912SOL    HW227636   2.541   3.277   6.225
 8913SOL     OW27637   4.407   5.207   6.625
 8913SOL    HW127638   4.347   5.192   6.547
 8913SOL    HW227639   4.360   5.180   6.709
 8914SOL     OW27640   4.835   0.465   4.577
 8914SOL    HW127641   4.909   0.531   4.585
 8914SOL    HW227642   4.765   0.500   4.516
 8915SOL     OW27643   1.793   2.130   4.135
 8915SOL    HW127644   1.714   2.190   4.142
 8915SOL    HW227645   1.765   2.036   4.149
 8916SOL     OW27646   6.703   2.807   6.949
 8916SOL    HW127647   6.801   2.810   6.968
 8916SOL    HW227648   6.658   2.747   7.015
 8917SOL     OW27649   5.401   2.509   0.854
 8917SOL    HW127650   5.386   2.523   0.952
 8917SOL    HW227651   5.489   2.465   0.840
 8918SOL     OW27652   1.094   4.992   0.632
 8918SOL    HW127653   1.069   5.070   0.690
 8918SOL    HW227654   1.042   4.912   0.661
 8919SOL     OW27655   5.196   4.447   6.925
 8919SOL    HW127656   5.107   4.492   6.928
 8919SOL    HW227657   5.201   4.389   6.844
 8920SOL     OW27658   0.145   2.218   6.984
 8920SOL    HW127659   0.110   2.214   6.890
 8920SOL    HW227660   0.104   2.297   0.013
 8921SOL     OW27661   1.757   3.060   2.507
 8921SOL    HW127662   1.822   2.989   2.482
 8921SOL    HW227663   1.794   3.150   2.484
 8922SOL     OW27664   3.970   5.687   2.011
 8922SOL    HW127665   3.964   5.704   1.912
 8922SOL    HW227666   4.061   5.652   2.033
 8923SOL     OW27667   1.509   1.446   6.692
 8923SOL    HW127668   1.438   1.499   6.737
 8923SOL    HW227669   1.586   1.506   6.668
 8924SOL     OW27670   3.960   5.306   5.256
 8924SOL    HW127671   3.940   5.209   5.243
 8924SOL    HW227672   3.955   5.329   5.353
 8925SOL     OW27673   0.667   0.886   2.555
 8925SOL    HW127674   0.588   0.942   2.579
 8925SOL    HW227675   0.751   0.929   2.589
 8926SOL     OW27676   6.971   3.030   5.727
 8926SOL    HW127677   0.033   3.074   5.686
 8926SOL    HW227678   6.945   2.951   5.671
 8927SOL     OW27679   6.088   1.158   4.261
 8927SOL    HW127680   6.133   1.245   4.240
 8927SOL    HW227681   6.134   1.114   4.338
 8928SOL     OW27682   1.523   0.433   5.989
 8928SOL    HW127683   1.577   0.516   5.998
 8928SOL    HW227684   1.511   0.391   6.080
 8929SOL     OW27685   5.818   2.055   5.004
 8929SOL    HW127686   5.822   2.053   5.104
 8929SOL    HW227687   5.911   2.045   4.967
 8930SOL     OW27688   1.075   2.786   3.608
 8930SOL    HW127689   0.995   2.750   3.560
 8930SOL    HW227690   1.069   2.760   3.705
 8931SOL     OW27691   3.136   3.798   1.196
 8931SOL    HW127692   3.175   3.822   1.107
 8931SOL    HW227693   3.098   3.705   1.192
 8932SOL     OW27694   6.148   2.098   2.388
 8932SOL    HW127695   6.113   2.007   2.406
 8932SOL    HW227696   6.115   2.162   2.457
 8933SOL     OW27697   2.568   2.654   6.028
 8933SOL    HW127698   2.660   2.660   5.990
 8933SOL    HW227699   2.559   2.721   6.102
 8934SOL     OW27700   2.788   5.432   4.586
 8934SOL    HW127701   2.843   5.409   4.666
 8934SOL    HW227702   2.840   5.412   4.503
 8935SOL     OW27703   0.706   4.334   0.246
 8935SOL    HW127704   0.610   4.332   0.273
 8935SOL    HW227705   0.763   4.331   0.328
 8936SOL     OW27706   1.545   4.349   1.741
 8936SOL    HW127707   1.461   4.376   1.695
 8936SOL    HW227708   1.586   4.271   1.693
 8937SOL     OW27709   0.402   0.193   5.805
 8937SOL    HW127710   0.462   0.227   5.877
 8937SOL    HW227711   0.425   0.238   5.718
 8938SOL     OW27712   0.291   5.894   0.811
 8938SOL    HW127713   0.206   5.948   0.812
 8938SOL    HW227714   0.328   5.892   0.719
 8939SOL     OW27715   5.061   2.791   3.995
 8939SOL    HW127716   5.081   2.830   4.085
 8939SOL    HW227717   4.991   2.846   3.950
 8940SOL     OW27718   0.363   1.267   2.596
 8940SOL    HW127719   0.306   1.233   2.671
 8940SOL    HW227720   0.377   1.365   2.606
 8941SOL     OW27721   6.612   2.651   5.209
 8941SOL    HW127722   6.535   2.689   5.259
 8941SOL    HW227723   6.580   2.616   5.121
 8942SOL     OW27724   6.692   4.375   4.927
 8942SOL    HW127725   6.709   4.451   4.990
 8942SOL    HW227726   6.767   4.308   4.934
 8943SOL     OW27727   3.670   4.141   6.254
 8943SOL    HW127728   3.690   4.217   6.192
 8943SOL    HW227729   3.668   4.056   6.202
 8944SOL     OW27730   5.337   4.682   5.263
 8944SOL    HW127731   5.354   4.747   5.337
 8944SOL    HW227732   5.373   4.592   5.289
 8945SOL     OW27733   0.617   0.596   3.262
 8945SOL    HW127734   0.646   0.663   3.194
 8945SOL    HW227735   0.522   0.615   3.289
 8946SOL     OW27736   3.288   1.292   5.343
 8946SOL    HW127737   3.207   1.321   5.292
 8946SOL    HW227738   3.302   1.194   5.329
 8947SOL     OW27739   2.005   3.459   5.061
 8947SOL    HW127740   1.973   3.551   5.083
 8947SOL    HW227741   2.092   3.442   5.108
 8948SOL     OW27742   6.504   6.642   4.292
 8948SOL    HW127743   6.509   6.550   4.330
 8948SOL    HW227744   6.590   6.665   4.247
 8949SOL     OW27745   2.664   6.856   1.010
 8949SOL    HW127746   2.680   6.943   1.057
 8949SOL    HW227747   2.634   6.788   1.076
 8950SOL     OW27748   4.496   4.018   6.310
 8950SOL    HW127749   4.466   4.015   6.215
 8950SOL    HW227750   4.529   4.110   6.332
 8951SOL     OW27751   0.727   1.962   5.283
 8951SOL    HW127752   0.653   1.951   5.349
 8951SOL    HW227753   0.745   1.874   5.239
 8952SOL     OW27754   1.363   6.880   2.295
 8952SOL    HW127755   1.286   6.875   2.358
 8952SOL    HW227756   1.437   6.821   2.328
 8953SOL     OW27757   1.318   4.295   6.640
 8953SOL    HW127758   1.381   4.268   6.714
 8953SOL    HW227759   1.329   4.232   6.563
 8954SOL     OW27760   0.810   0.193   6.090
 8954SOL    HW127761   0.740   0.158   6.152
 8954SOL    HW227762   0.899   0.152   6.113
 8955SOL     OW27763   0.452   5.217   2.339
 8955SOL    HW127764   0.361   5.179   2.325
 8955SOL    HW227765   0.520   5.145   2.332
 8956SOL     OW27766   0.759   1.788   6.580
 8956SOL    HW127767   0.820   1.849   6.631
 8956SOL    HW227768   0.729   1.713   6.639
 8957SOL     OW27769   2.834   4.141   1.710
 8957SOL    HW127770   2.897   4.116   1.783
 8957SOL    HW227771   2.796   4.232   1.728
 8958SOL     OW27772   0.126   0.673   4.745
 8958SOL    HW127773   0.122   0.576   4.722
 8958SOL    HW227774   0.033   0.709   4.755
 8959SOL     OW27775   1.725   5.007   1.754
 8959SOL    HW127776   1.712   4.914   1.787
 8959SOL    HW227777   1.664   5.024   1.677
 8960SOL     OW27778   4.354   5.050   3.000
 8960SOL    HW127779   4.355   5.108   3.082
 8960SOL    HW227780   4.273   4.992   3.002
 8961SOL     OW27781   2.859   1.432   4.571
 8961SOL    HW127782   2.789   1.450   4.501
 8961SOL    HW227783   2.852   1.338   4.602
 8962SOL     OW27784   6.872   6.253   1.911
 8962SOL    HW127785   6.918   6.252   2.000
 8962SOL    HW227786   6.882   6.343   1.869
 8963SOL     OW27787   5.114   6.544   4.110
 8963SOL    HW127788   5.029   6.493   4.114
 8963SOL    HW227789   5.095   6.642   4.116
 8964SOL     OW27790   4.907   3.508   3.287
 8964SOL    HW127791   4.927   3.461   3.202
 8964SOL    HW227792   4.884   3.441   3.358
 8965SOL     OW27793   2.637   4.586   0.564
 8965SOL    HW127794   2.539   4.570   0.569
 8965SOL    HW227795   2.674   4.597   0.656
 8966SOL     OW27796   6.891   4.011   6.069
 8966SOL    HW127797   6.979   3.969   6.044
 8966SOL    HW227798   6.826   3.999   5.993
 8967SOL     OW27799   3.758   0.027   2.119
 8967SOL    HW127800   3.701   0.030   2.201
 8967SOL    HW227801   3.796   0.118   2.102
 8968SOL     OW27802   5.100   5.232   3.242
 8968SOL    HW127803   5.044   5.172   3.184
 8968SOL    HW227804   5.111   5.191   3.332
 8969SOL     OW27805   6.855   1.233   4.302
 8969SOL    HW127806   6.909   1.155   4.334
 8969SOL    HW227807   6.758   1.213   4.314
 8970SOL     OW27808   2.949   3.151   0.045
 8970SOL    HW127809   2.942   3.237   7.013
 8970SOL    HW227810   2.920   3.076   7.004
 8971SOL     OW27811   4.874   5.407   2.264
 8971SOL    HW127812   4.838   5.320   2.229
 8971SOL    HW227813   4.970   5.415   2.239
 8972SOL     OW27814   4.727   4.303   6.693
 8972SOL    HW127815   4.731   4.398   6.723
 8972SOL    HW227816   4.656   4.294   6.623
 8973SOL     OW27817   1.256   3.394   2.100
 8973SOL    HW127818   1.282   3.440   2.015
 8973SOL    HW227819   1.243   3.461   2.172
 8974SOL     OW27820   1.916   4.555   5.835
 8974SOL    HW127821   1.881   4.627   5.776
 8974SOL    HW227822   1.866   4.470   5.818
 8975SOL     OW27823   2.124   0.012   6.510
 8975SOL    HW127824   2.141   7.009   6.607
 8975SOL    HW227825   2.184   0.087   6.482
 8976SOL     OW27826   0.418   4.802   5.067
 8976SOL    HW127827   0.460   4.881   5.021
 8976SOL    HW227828   0.371   4.833   5.149
 8977SOL     OW27829   6.011   2.191   6.942
 8977SOL    HW127830   5.949   2.126   6.897
 8977SOL    HW227831   6.058   2.245   6.873
 8978SOL     OW27832   5.672   0.143   5.664
 8978SOL    HW127833   5.650   0.131   5.567
 8978SOL    HW227834   5.766   0.175   5.674
 8979SOL     OW27835   1.090   3.251   4.590
 8979SOL    HW127836   1.062   3.172   4.644
 8979SOL    HW227837   1.178   3.284   4.622
 8980SOL     OW27838   2.586   2.728   5.650
 8980SOL    HW127839   2.628   2.816   5.631
 8980SOL    HW227840   2.550   2.689   5.565
 8981SOL     OW27841   4.290   1.880   5.616
 8981SOL    HW127842   4.240   1.873   5.530
 8981SOL    HW227843   4.280   1.795   5.668
 8982SOL     OW27844   1.511   2.510   0.941
 8982SOL    HW127845   1.582   2.522   1.011
 8982SOL    HW227846   1.441   2.448   0.976
 8983SOL     OW27847   1.748   6.635   0.024
 8983SOL    HW127848   1.697   6.718   0.002
 8983SOL    HW227849   1.684   6.558   0.030
 8984SOL     OW27850   0.132   0.395   4.714
 8984SOL    HW127851   0.111   0.320   4.777
 8984SOL    HW227852   0.114   0.365   4.620
 8985SOL     OW27853   2.216   3.774   0.360
 8985SOL    HW127854   2.276   3.739   0.431
 8985SOL    HW227855   2.126   3.730   0.367
 8986SOL     OW27856   5.331   5.153   2.374
 8986SOL    HW127857   5.426   5.127   2.395
 8986SOL    HW227858   5.269   5.090   2.421
 8987SOL     OW27859   4.513   6.974   1.645
 8987SOL    HW127860   4.454   6.929   1.712
 8987SOL    HW227861   4.527   6.914   1.566
 8988SOL     OW27862   1.544   3.953   4.928
 8988SOL    HW127863   1.467   3.942   4.990
 8988SOL    HW227864   1.562   4.050   4.914
 8989SOL     OW27865   5.007   3.753   0.762
 8989SOL    HW127866   4.973   3.793   0.677
 8989SOL    HW227867   5.102   3.724   0.749
 8990SOL     OW27868   1.537   6.010   3.782
 8990SOL    HW127869   1.496   5.918   3.787
 8990SOL    HW227870   1.582   6.031   3.868
 8991SOL     OW27871   1.818   2.350   5.960
 8991SOL    HW127872   1.755   2.354   6.038
 8991SOL    HW227873   1.819   2.439   5.914
 8992SOL     OW27874   5.412   1.590   6.957
 8992SOL    HW127875   5.492   1.602   6.898
 8992SOL    HW227876   5.441   1.593   0.035
 8993SOL     OW27877   5.720   2.715   2.185
 8993SOL    HW127878   5.759   2.626   2.208
 8993SOL    HW227879   5.632   2.703   2.138
 8994SOL     OW27880   1.232   4.371   4.585
 8994SOL    HW127881   1.149   4.333   4.544
 8994SOL    HW227882   1.258   4.315   4.664
 8995SOL     OW27883   1.375   3.072   0.354
 8995SOL    HW127884   1.331   2.993   0.312
 8995SOL    HW227885   1.328   3.096   0.439
 8996SOL     OW27886   6.008   5.331   0.442
 8996SOL    HW127887   6.063   5.292   0.516
 8996SOL    HW227888   6.024   5.429   0.437
 8997SOL     OW27889   5.129   1.371   6.327
 8997SOL    HW127890   5.109   1.303   6.256
 8997SOL    HW227891   5.195   1.437   6.292
 8998SOL     OW27892   5.918   3.758   3.842
 8998SOL    HW127893   5.823   3.768   3.815
 8998SOL    HW227894   5.926   3.689   3.914
 8999SOL     OW27895   4.711   6.046   6.435
 8999SOL    HW127896   4.644   5.989   6.388
 8999SOL    HW227897   4.684   6.142   6.428
 9000SOL     OW27898   1.652   4.072   1.269
 9000SOL    HW127899   1.566   4.093   1.315
 9000SOL    HW227900   1.663   3.973   1.261
 9001SOL     OW27901   1.314   5.584   2.113
 9001SOL    HW127902   1.325   5.499   2.164
 9001SOL    HW227903   1.321   5.566   2.015
 9002SOL     OW27904   0.529   5.064   5.243
 9002SOL    HW127905   0.440   5.027   5.216
 9002SOL    HW227906   0.588   5.070   5.163
 9003SOL     OW27907   5.524   3.176   1.643
 9003SOL    HW127908   5.571   3.158   1.557
 9003SOL    HW227909   5.591   3.185   1.717
 9004SOL     OW27910   3.969   6.296   1.371
 9004SOL    HW127911   3.966   6.395   1.360
 9004SOL    HW227912   4.061   6.268   1.395
 9005SOL     OW27913   5.621   2.618   4.378
 9005SOL    HW127914   5.617   2.526   4.418
 9005SOL    HW227915   5.712   2.634   4.340
 9006SOL     OW27916   2.600   5.452   1.366
 9006SOL    HW127917   2.600   5.533   1.425
 9006SOL    HW227918   2.590   5.370   1.423
 9007SOL     OW27919   3.061   1.242   3.538
 9007SOL    HW127920   3.105   1.196   3.461
 9007SOL    HW227921   3.074   1.341   3.530
 9008SOL     OW27922   1.457   5.602   3.603
 9008SOL    HW127923   1.420   5.686   3.563
 9008SOL    HW227924   1.396   5.525   3.582
 9009SOL     OW27925   3.009   6.380   0.753
 9009SOL    HW127926   3.040   6.460   0.702
 9009SOL    HW227927   2.929   6.404   0.807
 9010SOL     OW27928   1.471   6.309   4.128
 9010SOL    HW127929   1.517   6.276   4.045
 9010SOL    HW227930   1.389   6.360   4.103
 9011SOL     OW27931   5.045   1.860   2.209
 9011SOL    HW127932   4.958   1.835   2.166
 9011SOL    HW227933   5.056   1.959   2.206
 9012SOL     OW27934   2.155   4.057   0.309
 9012SOL    HW127935   2.089   4.080   0.237
 9012SOL    HW227936   2.151   3.959   0.328
 9013SOL     OW27937   0.397   6.771   5.094
 9013SOL    HW127938   0.428   6.845   5.035
 9013SOL    HW227939   0.474   6.733   5.145
 9014SOL     OW27940   6.469   1.967   0.090
 9014SOL    HW127941   6.392   2.015   0.132
 9014SOL    HW227942   6.555   2.013   0.114
 9015SOL     OW27943   4.572   1.637   1.942
 9015SOL    HW127944   4.476   1.652   1.967
 9015SOL    HW227945   4.579   1.628   1.842
 9016SOL     OW27946   0.271   6.723   6.821
 9016SOL    HW127947   0.283   6.659   6.745
 9016SOL    HW227948   0.317   6.687   6.902
 9017SOL     OW27949   4.133   1.943   3.728
 9017SOL    HW127950   4.123   2.042   3.714
 9017SOL    HW227951   4.220   1.925   3.774
 9018SOL     OW27952   3.774   2.681   6.835
 9018SOL    HW127953   3.731   2.707   6.921
 9018SOL    HW227954   3.854   2.625   6.853
 9019SOL     OW27955   1.355   5.568   1.855
 9019SOL    HW127956   1.296   5.546   1.777
 9019SOL    HW227957   1.451   5.565   1.826
 9020SOL     OW27958   0.142   3.693   0.375
 9020SOL    HW127959   0.090   3.637   0.310
 9020SOL    HW227960   0.101   3.684   0.466
 9021SOL     OW27961   6.728   6.790   3.278
 9021SOL    HW127962   6.662   6.756   3.344
 9021SOL    HW227963   6.680   6.834   3.202
 9022SOL     OW27964   3.353   1.327   6.854
 9022SOL    HW127965   3.383   1.232   6.847
 9022SOL    HW227966   3.426   1.388   6.825
 9023SOL     OW27967   3.471   2.854   2.446
 9023SOL    HW127968   3.402   2.789   2.476
 9023SOL    HW227969   3.432   2.915   2.377
 9024SOL     OW27970   0.692   4.315   4.809
 9024SOL    HW127971   0.792   4.318   4.819
 9024SOL    HW227972   0.652   4.278   4.893
 9025SOL     OW27973   0.769   5.408   0.892
 9025SOL    HW127974   0.776   5.407   0.792
 9025SOL    HW227975   0.736   5.320   0.924
 9026SOL     OW27976   3.919   2.745   0.455
 9026SOL    HW127977   3.821   2.764   0.447
 9026SOL    HW227978   3.935   2.684   0.532
 9027SOL     OW27979   1.659   2.534   2.966
 9027SOL    HW127980   1.691   2.619   2.923
 9027SOL    HW227981   1.737   2.481   2.997
 9028SOL     OW27982   3.018   3.672   5.330
 9028SOL    HW127983   3.028   3.772   5.325
 9028SOL    HW227984   2.972   3.639   5.248
 9029SOL     OW27985   4.170   6.756   4.742
 9029SOL    HW127986   4.136   6.692   4.673
 9029SOL    HW227987   4.232   6.709   4.805
 9030SOL     OW27988   2.829   1.600   3.470
 9030SOL    HW127989   2.836   1.700   3.462
 9030SOL    HW227990   2.817   1.575   3.566
 9031SOL     OW27991   3.933   6.407   4.283
 9031SOL    HW127992   4.016   6.356   4.260
 9031SOL    HW227993   3.856   6.343   4.291
 9032SOL     OW27994   3.888   3.722   0.648
 9032SOL    HW127995   3.892   3.628   0.614
 9032SOL    HW227996   3.980   3.759   0.658
 9033SOL     OW27997   0.187   3.828   2.851
 9033SOL    HW127998   0.189   3.808   2.949
 9033SOL    HW227999   0.121   3.768   2.806
 9034SOL     OW28000   3.141   6.891   5.141
 9034SOL    HW128001   3.203   6.842   5.201
 9034SOL    HW228002   3.151   6.857   5.047
 9035SOL     OW28003   1.951   5.053   6.612
 9035SOL    HW128004   1.947   4.964   6.658
 9035SOL    HW228005   2.038   5.098   6.633
 9036SOL     OW28006   1.717   1.711   5.475
 9036SOL    HW128007   1.638   1.758   5.513
 9036SOL    HW228008   1.790   1.708   5.544
 9037SOL     OW28009   0.974   4.032   4.689
 9037SOL    HW128010   0.879   4.039   4.720
 9037SOL    HW228011   1.019   3.956   4.735
 9038SOL     OW28012   4.092   1.158   5.858
 9038SOL    HW128013   4.108   1.068   5.819
 9038SOL    HW228014   4.061   1.221   5.786
 9039SOL     OW28015   2.137   5.736   5.276
 9039SOL    HW128016   2.219   5.694   5.239
 9039SOL    HW228017   2.057   5.706   5.223
 9040SOL     OW28018   3.590   2.077   2.912
 9040SOL    HW128019   3.606   1.984   2.879
 9040SOL    HW228020   3.591   2.141   2.835
 9041SOL     OW28021   1.164   2.010   1.703
 9041SOL    HW128022   1.152   2.094   1.755
 9041SOL    HW228023   1.224   2.027   1.625
 9042SOL     OW28024   3.642   6.916   5.292
 9042SOL    HW128025   3.736   6.942   5.314
 9042SOL    HW228026   3.643   6.833   5.235
 9043SOL     OW28027   1.198   0.638   0.066
 9043SOL    HW128028   1.262   0.600   0.134
 9043SOL    HW228029   1.249   0.694   0.001
 9044SOL     OW28030   6.406   0.547   0.404
 9044SOL    HW128031   6.342   0.615   0.367
 9044SOL    HW228032   6.436   0.486   0.330
 9045SOL     OW28033   2.541   2.015   2.506
 9045SOL    HW128034   2.515   1.977   2.595
 9045SOL    HW228035   2.608   2.088   2.519
 9046SOL     OW28036   3.350   3.551   2.892
 9046SOL    HW128037   3.314   3.485   2.958
 9046SOL    HW228038   3.450   3.550   2.894
 9047SOL     OW28039   2.061   4.102   4.982
 9047SOL    HW128040   2.028   4.185   4.936
 9047SOL    HW228041   2.161   4.100   4.978
 9048SOL     OW28042   5.402   3.375   5.885
 9048SOL    HW128043   5.385   3.451   5.947
 9048SOL    HW228044   5.418   3.410   5.792
 9049SOL     OW28045   3.631   6.683   5.906
 9049SOL    HW128046   3.660   6.745   5.979
 9049SOL    HW228047   3.548   6.718   5.864
 9050SOL     OW28048   0.464   3.139   0.775
 9050SOL    HW128049   0.545   3.178   0.819
 9050SOL    HW228050   0.467   3.157   0.677
 9051SOL     OW28051   3.789   0.379   0.992
 9051SOL    HW128052   3.742   0.465   0.971
 9051SOL    HW228053   3.788   0.319   0.912
 9052SOL     OW28054   2.790   2.357   4.426
 9052SOL    HW128055   2.743   2.314   4.348
 9052SOL    HW228056   2.805   2.454   4.406
 9053SOL     OW28057   2.311   0.622   2.565
 9053SOL    HW128058   2.264   0.589   2.483
 9053SOL    HW228059   2.277   0.571   2.644
 9054SOL     OW28060   2.969   6.101   3.632
 9054SOL    HW128061   2.870   6.093   3.644
 9054SOL    HW228062   3.010   6.010   3.633
 9055SOL     OW28063   6.400   2.689   4.174
 9055SOL    HW128064   6.428   2.779   4.139
 9055SOL    HW228065   6.358   2.637   4.100
 9056SOL     OW28066   0.385   2.579   1.845
 9056SOL    HW128067   0.286   2.575   1.863
 9056SOL    HW228068   0.414   2.495   1.800
 9057SOL     OW28069   5.026   3.570   6.309
 9057SOL    HW128070   4.985   3.617   6.231
 9057SOL    HW228071   5.117   3.538   6.286
 9058SOL     OW28072   2.369   1.066   1.954
 9058SOL    HW128073   2.322   1.148   1.988
 9058SOL    HW228074   2.467   1.084   1.949
 9059SOL     OW28075   1.096   1.543   3.354
 9059SOL    HW128076   1.071   1.446   3.347
 9059SOL    HW228077   1.194   1.551   3.373
 9060SOL     OW28078   6.066   2.826   3.839
 9060SOL    HW128079   6.068   2.732   3.873
 9060SOL    HW228080   5.976   2.866   3.856
 9061SOL     OW28081   2.229   5.270   1.897
 9061SOL    HW128082   2.162   5.245   1.827
 9061SOL    HW228083   2.300   5.327   1.856
 9062SOL     OW28084   1.945   6.593   2.067
 9062SOL    HW128085   1.911   6.550   2.150
 9062SOL    HW228086   2.038   6.627   2.082
 9063SOL     OW28087   3.583   0.611   3.756
 9063SOL    HW128088   3.515   0.630   3.826
 9063SOL    HW228089   3.643   0.537   3.786
 9064SOL     OW28090   6.175   2.487   5.483
 9064SOL    HW128091   6.234   2.412   5.454
 9064SOL    HW228092   6.144   2.538   5.403
 9065SOL     OW28093   4.013   0.541   6.185
 9065SOL    HW128094   3.960   0.518   6.267
 9065SOL    HW228095   3.975   0.623   6.143
 9066SOL     OW28096   4.746   6.571   0.778
 9066SOL    HW128097   4.776   6.538   0.689
 9066SOL    HW228098   4.681   6.506   0.817
 9067SOL     OW28099   0.916   0.349   4.829
 9067SOL    HW128100   0.856   0.411   4.880
 9067SOL    HW228101   0.931   0.385   4.737
 9068SOL     OW28102   2.460   6.567   4.690
 9068SOL    HW128103   2.367   6.600   4.707
 9068SOL    HW228104   2.460   6.503   4.614
 9069SOL     OW28105   1.438   3.482   1.622
 9069SOL    HW128106   1.340   3.467   1.614
 9069SOL    HW228107   1.482   3.466   1.534
 9070SOL     OW28108   1.156   3.217   4.934
 9070SOL    HW128109   1.154   3.239   5.032
 9070SOL    HW228110   1.247   3.236   4.898
 9071SOL     OW28111   6.068   6.510   1.846
 9071SOL    HW128112   6.026   6.531   1.758
 9071SOL    HW228113   6.167   6.514   1.838
 9072SOL     OW28114   6.790   1.893   1.075
 9072SOL    HW128115   6.777   1.795   1.063
 9072SOL    HW228116   6.846   1.910   1.156
 9073SOL     OW28117   2.890   0.059   2.791
 9073SOL    HW128118   2.956   0.070   2.716
 9073SOL    HW228119   2.847   0.147   2.810
 9074SOL     OW28120   1.082   1.453   1.803
 9074SOL    HW128121   1.170   1.498   1.785
 9074SOL    HW228122   1.014   1.485   1.736
 9075SOL     OW28123   0.129   1.250   2.103
 9075SOL    HW128124   0.209   1.266   2.045
 9075SOL    HW228125   0.159   1.227   2.195
 9076SOL     OW28126   0.338   2.738   5.502
 9076SOL    HW128127   0.419   2.743   5.445
 9076SOL    HW228128   0.360   2.772   5.594
 9077SOL     OW28129   4.817   0.265   0.291
 9077SOL    HW128130   4.782   0.356   0.310
 9077SOL    HW228131   4.742   0.198   0.294
 9078SOL     OW28132   4.108   3.749   5.275
 9078SOL    HW128133   4.094   3.837   5.229
 9078SOL    HW228134   4.112   3.764   5.374
 9079SOL     OW28135   2.769   0.553   4.393
 9079SOL    HW128136   2.749   0.575   4.489
 9079SOL    HW228137   2.862   0.582   4.371
 9080SOL     OW28138   4.595   2.496   5.949
 9080SOL    HW128139   4.589   2.518   6.046
 9080SOL    HW228140   4.541   2.414   5.930
 9081SOL     OW28141   4.085   0.471   2.380
 9081SOL    HW128142   4.162   0.535   2.378
 9081SOL    HW228143   4.115   0.384   2.421
 9082SOL     OW28144   2.054   0.454   5.216
 9082SOL    HW128145   1.972   0.399   5.201
 9082SOL    HW228146   2.115   0.447   5.137
 9083SOL     OW28147   3.618   5.225   6.081
 9083SOL    HW128148   3.645   5.151   6.019
 9083SOL    HW228149   3.522   5.247   6.066
 9084SOL     OW28150   3.471   3.890   3.118
 9084SOL    HW128151   3.452   3.983   3.088
 9084SOL    HW228152   3.391   3.832   3.102
 9085SOL     OW28153   2.630   0.730   1.741
 9085SOL    HW128154   2.663   0.821   1.714
 9085SOL    HW228155   2.696   0.661   1.713
 9086SOL     OW28156   0.712   4.741   6.907
 9086SOL    HW128157   0.613   4.751   6.915
 9086SOL    HW228158   0.750   4.713   6.995
 9087SOL     OW28159   4.798   2.571   1.356
 9087SOL    HW128160   4.753   2.506   1.417
 9087SOL    HW228161   4.876   2.527   1.312
 9088SOL     OW28162   6.996   6.883   1.531
 9088SOL    HW128163   6.902   6.855   1.548
 9088SOL    HW228164   0.005   6.955   1.595
 9089SOL     OW28165   5.304   5.683   5.512
 9089SOL    HW128166   5.225   5.623   5.512
 9089SOL    HW228167   5.383   5.636   5.551
 9090SOL     OW28168   6.339   1.488   4.876
 9090SOL    HW128169   6.406   1.549   4.918
 9090SOL    HW228170   6.251   1.499   4.922
 9091SOL     OW28171   2.897   4.083   0.371
 9091SOL    HW128172   2.817   4.106   0.426
 9091SOL    HW228173   2.872   4.079   0.274
 9092SOL     OW28174   6.835   0.785   6.961
 9092SOL    HW128175   6.814   0.846   6.885
 9092SOL    HW228176   6.763   0.717   6.971
 9093SOL     OW28177   1.253   5.856   5.558
 9093SOL    HW128178   1.190   5.819   5.490
 9093SOL    HW228179   1.299   5.937   5.521
 9094SOL     OW28180   6.361   4.841   3.216
 9094SOL    HW128181   6.363   4.888   3.128
 9094SOL    HW228182   6.271   4.854   3.259
 9095SOL     OW28183   4.978   4.782   6.196
 9095SOL    HW128184   4.941   4.715   6.131
 9095SOL    HW228185   5.008   4.735   6.279
 9096SOL     OW28186   6.550   4.953   2.720
 9096SOL    HW128187   6.650   4.951   2.714
 9096SOL    HW228188   6.516   5.040   2.684
 9097SOL     OW28189   2.035   1.721   0.593
 9097SOL    HW128190   2.001   1.716   0.499
 9097SOL    HW228191   1.965   1.688   0.656
 9098SOL     OW28192   3.065   1.782   4.882
 9098SOL    HW128193   3.031   1.854   4.942
 9098SOL    HW228194   2.988   1.725   4.852
 9099SOL     OW28195   2.809   3.189   5.609
 9099SOL    HW128196   2.842   3.095   5.611
 9099SOL    HW228197   2.799   3.218   5.513
 9100SOL     OW28198   0.442   3.803   3.251
 9100SOL    HW128199   0.462   3.824   3.347
 9100SOL    HW228200   0.457   3.706   3.235
 9101SOL     OW28201   2.410   2.093   2.009
 9101SOL    HW128202   2.453   2.101   2.099
 9101SOL    HW228203   2.392   1.997   1.988
 9102SOL     OW28204   2.921   6.876   2.081
 9102SOL    HW128205   2.847   6.927   2.125
 9102SOL    HW228206   2.943   6.917   1.993
 9103SOL     OW28207   5.902   1.724   6.626
 9103SOL    HW128208   5.877   1.805   6.679
 9103SOL    HW228209   5.946   1.657   6.686
 9104SOL     OW28210   6.719   6.488   1.441
 9104SOL    HW128211   6.712   6.515   1.537
 9104SOL    HW228212   6.650   6.536   1.387
 9105SOL     OW28213   0.890   0.180   5.604
 9105SOL    HW128214   0.817   0.243   5.629
 9105SOL    HW228215   0.934   0.146   5.687
 9106SOL     OW28216   6.320   2.735   1.170
 9106SOL    HW128217   6.326   2.833   1.190
 9106SOL    HW228218   6.266   2.721   1.087
 9107SOL     OW28219   1.836   0.656   6.566
 9107SOL    HW128220   1.746   0.653   6.610
 9107SOL    HW228221   1.858   0.565   6.530
 9108SOL     OW28222   4.848   4.302   5.172
 9108SOL    HW128223   4.853   4.206   5.200
 9108SOL    HW228224   4.767   4.345   5.212
 9109SOL     OW28225   4.884   3.398   2.807
 9109SOL    HW128226   4.949   3.357   2.743
 9109SOL    HW228227   4.828   3.466   2.759
 9110SOL     OW28228   1.679   5.245   4.277
 9110SOL    HW128229   1.706   5.158   4.236
 9110SOL    HW228230   1.762   5.295   4.304
 9111SOL     OW28231   4.567   2.775   6.782
 9111SOL    HW128232   4.498   2.842   6.754
 9111SOL    HW228233   4.632   2.819   6.844
 9112SOL     OW28234   1.528   4.810   2.590
 9112SOL    HW128235   1.449   4.791   2.532
 9112SOL    HW228236   1.499   4.864   2.669
 9113SOL     OW28237   5.092   2.074   2.926
 9113SOL    HW128238   5.124   2.125   3.006
 9113SOL    HW228239   4.995   2.093   2.912
 9114SOL     OW28240   0.417   5.655   3.660
 9114SOL    HW128241   0.503   5.690   3.622
 9114SOL    HW228242   0.340   5.692   3.607
 9115SOL     OW28243   5.760   5.700   5.387
 9115SOL    HW128244   5.821   5.682   5.310
 9115SOL    HW228245   5.814   5.725   5.467
 9116SOL     OW28246   0.384   0.454   2.910
 9116SOL    HW128247   0.405   0.488   2.818
 9116SOL    HW228248   0.295   0.408   2.908
 9117SOL     OW28249   4.087   2.296   6.382
 9117SOL    HW128250   4.135   2.328   6.301
 9117SOL    HW228251   4.098   2.363   6.456
 9118SOL     OW28252   6.501   3.415   0.166
 9118SOL    HW128253   6.456   3.328   0.147
 9118SOL    HW228254   6.589   3.418   0.119
 9119SOL     OW28255   4.074   1.357   1.401
 9119SOL    HW128256   3.979   1.326   1.405
 9119SOL    HW228257   4.082   1.444   1.449
 9120SOL     OW28258   6.481   2.946   5.132
 9120SOL    HW128259   6.517   2.925   5.041
 9120SOL    HW228260   6.463   2.860   5.181
 9121SOL     OW28261   3.656   6.351   5.608
 9121SOL    HW128262   3.680   6.352   5.511
 9121SOL    HW228263   3.729   6.309   5.661
 9122SOL     OW28264   2.258   4.013   2.030
 9122SOL    HW128265   2.256   4.113   2.036
 9122SOL    HW228266   2.291   3.975   2.116
 9123SOL     OW28267   1.695   0.226   4.363
 9123SOL    HW128268   1.677   0.257   4.270
 9123SOL    HW228269   1.774   0.166   4.364
 9124SOL     OW28270   3.742   5.519   2.080
 9124SOL    HW128271   3.774   5.443   2.138
 9124SOL    HW228272   3.798   5.600   2.098
 9125SOL     OW28273   4.092   4.521   1.276
 9125SOL    HW128274   4.168   4.548   1.335
 9125SOL    HW228275   4.124   4.514   1.182
 9126SOL     OW28276   4.965   4.045   0.923
 9126SOL    HW128277   5.027   3.977   0.883
 9126SOL    HW228278   4.954   4.121   0.859
 9127SOL     OW28279   6.789   2.798   5.321
 9127SOL    HW128280   6.724   2.749   5.263
 9127SOL    HW228281   6.742   2.873   5.368
 9128SOL     OW28282   6.304   2.503   4.597
 9128SOL    HW128283   6.210   2.492   4.629
 9128SOL    HW228284   6.307   2.566   4.520
 9129SOL     OW28285   0.309   1.875   0.585
 9129SOL    HW128286   0.256   1.837   0.662
 9129SOL    HW228287   0.326   1.972   0.601
 9130SOL     OW28288   0.533   4.365   5.850
 9130SOL    HW128289   0.493   4.354   5.941
 9130SOL    HW228290   0.630   4.386   5.860
 9131SOL     OW28291   5.354   3.545   6.915
 9131SOL    HW128292   5.285   3.617   6.926
 9131SOL    HW228293   5.401   3.530   7.002
 9132SOL     OW28294   0.668   4.330   4.290
 9132SOL    HW128295   0.652   4.369   4.199
 9132SOL    HW228296   0.582   4.325   4.340
 9133SOL     OW28297   3.137   0.871   0.942
 9133SOL    HW128298   3.115   0.886   0.846
 9133SOL    HW228299   3.229   0.905   0.961
 9134SOL     OW28300   4.001   5.938   1.678
 9134SOL    HW128301   4.039   5.978   1.595
 9134SOL    HW228302   4.065   5.953   1.754
 9135SOL     OW28303   1.562   6.078   1.661
 9135SOL    HW128304   1.552   6.085   1.760
 9135SOL    HW228305   1.558   6.170   1.621
 9136SOL     OW28306   4.113   5.808   5.534
 9136SOL    HW128307   4.112   5.735   5.466
 9136SOL    HW228308   4.060   5.780   5.614
 9137SOL     OW28309   4.332   0.277   5.921
 9137SOL    HW128310   4.401   0.214   5.956
 9137SOL    HW228311   4.265   0.296   5.993
 9138SOL     OW28312   2.098   3.162   0.380
 9138SOL    HW128313   2.144   3.101   0.315
 9138SOL    HW228314   2.139   3.151   0.471
 9139SOL     OW28315   0.788   1.237   1.617
 9139SOL    HW128316   0.759   1.329   1.588
 9139SOL    HW228317   0.858   1.203   1.554
 9140SOL     OW28318   0.545   4.956   2.428
 9140SOL    HW128319   0.544   4.989   2.522
 9140SOL    HW228320   0.463   4.902   2.411
 9141SOL     OW28321   6.809   5.855   6.558
 9141SOL    HW128322   6.741   5.820   6.622
 9141SOL    HW228323   6.765   5.919   6.495
 9142SOL     OW28324   0.284   2.891   2.799
 9142SOL    HW128325   0.239   2.965   2.748
 9142SOL    HW228326   0.352   2.848   2.740
 9143SOL     OW28327   0.715   4.091   1.244
 9143SOL    HW128328   0.806   4.107   1.204
 9143SOL    HW228329   0.658   4.172   1.230
 9144SOL     OW28330   2.697   4.801   4.803
 9144SOL    HW128331   2.727   4.721   4.855
 9144SOL    HW228332   2.609   4.782   4.760
 9145SOL     OW28333   1.419   6.919   6.693
 9145SOL    HW128334   1.406   0.000   6.691
 9145SOL    HW228335   1.422   6.884   6.599
 9146SOL     OW28336   5.360   2.764   3.135
 9146SOL    HW128337   5.290   2.702   3.100
 9146SOL    HW228338   5.444   2.753   3.082
 9147SOL     OW28339   6.541   0.949   4.967
 9147SOL    HW128340   6.549   0.875   5.034
 9147SOL    HW228341   6.484   1.022   5.004
 9148SOL     OW28342   5.893   0.289   2.152
 9148SOL    HW128343   5.980   0.240   2.138
 9148SOL    HW228344   5.845   0.294   2.064
 9149SOL     OW28345   5.414   3.353   2.089
 9149SOL    HW128346   5.439   3.438   2.136
 9149SOL    HW228347   5.316   3.337   2.100
 9150SOL     OW28348   3.339   4.116   0.693
 9150SOL    HW128349   3.243   4.089   0.694
 9150SOL    HW228350   3.347   4.212   0.718
 9151SOL     OW28351   2.115   3.961   3.690
 9151SOL    HW128352   2.156   3.945   3.600
 9151SOL    HW228353   2.079   3.875   3.726
 9152SOL     OW28354   1.945   4.284   4.134
 9152SOL    HW128355   1.888   4.206   4.159
 9152SOL    HW228356   2.035   4.252   4.105
 9153SOL     OW28357   0.719   3.582   6.515
 9153SOL    HW128358   0.712   3.532   6.429
 9153SOL    HW228359   0.652   3.546   6.580
 9154SOL     OW28360   4.704   5.207   3.315
 9154SOL    HW128361   4.650   5.188   3.233
 9154SOL    HW228362   4.775   5.137   3.324
 9155SOL     OW28363   1.647   4.495   2.921
 9155SOL    HW128364   1.717   4.487   2.992
 9155SOL    HW228365   1.557   4.476   2.960
 9156SOL     OW28366   6.596   2.579   0.745
 9156SOL    HW128367   6.517   2.582   0.805
 9156SOL    HW228368   6.632   2.485   0.741
 9157SOL     OW28369   3.347   4.127   6.340
 9157SOL    HW128370   3.254   4.092   6.330
 9157SOL    HW228371   3.351   4.221   6.306
 9158SOL     OW28372   6.330   4.773   4.398
 9158SOL    HW128373   6.429   4.775   4.388
 9158SOL    HW228374   6.304   4.689   4.446
 9159SOL     OW28375   2.058   6.783   3.049
 9159SOL    HW128376   1.980   6.730   3.017
 9159SOL    HW228377   2.027   6.852   3.114
 9160SOL     OW28378   0.371   5.116   6.587
 9160SOL    HW128379   0.302   5.054   6.623
 9160SOL    HW228380   0.462   5.086   6.616
 9161SOL     OW28381   5.836   5.049   3.211
 9161SOL    HW128382   5.736   5.044   3.221
 9161SOL    HW228383   5.859   5.084   3.120
 9162SOL     OW28384   3.822   1.104   2.966
 9162SOL    HW128385   3.821   1.175   3.037
 9162SOL    HW228386   3.917   1.082   2.943
 9163SOL     OW28387   6.820   2.842   1.819
 9163SOL    HW128388   6.727   2.867   1.847
 9163SOL    HW228389   6.816   2.783   1.738
 9164SOL     OW28390   1.967   0.635   6.953
 9164SOL    HW128391   1.895   0.573   6.985
 9164SOL    HW228392   1.944   0.729   6.979
 9165SOL     OW28393   5.164   2.397   5.684
 9165SOL    HW128394   5.262   2.379   5.692
 9165SOL    HW228395   5.128   2.351   5.603
 9166SOL     OW28396   4.068   5.515   0.854
 9166SOL    HW128397   4.019   5.601   0.868
 9166SOL    HW228398   4.163   5.526   0.884
 9167SOL     OW28399   1.086   2.077   6.532
 9167SOL    HW128400   1.096   2.053   6.435
 9167SOL    HW228401   1.177   2.084   6.574
 9168SOL     OW28402   6.456   5.611   6.157
 9168SOL    HW128403   6.532   5.546   6.160
 9168SOL    HW228404   6.418   5.621   6.249
 9169SOL     OW28405   6.671   6.228   6.349
 9169SOL    HW128406   6.663   6.216   6.448
 9169SOL    HW228407   6.766   6.216   6.321
 9170SOL     OW28408   1.845   1.558   6.409
 9170SOL    HW128409   1.782   1.509   6.349
 9170SOL    HW228410   1.916   1.601   6.354
 9171SOL     OW28411   2.415   5.151   0.798
 9171SOL    HW128412   2.452   5.193   0.881
 9171SOL    HW228413   2.446   5.201   0.718
 9172SOL     OW28414   4.542   1.694   4.947
 9172SOL    HW128415   4.448   1.686   4.982
 9172SOL    HW228416   4.597   1.620   4.986
 9173SOL     OW28417   6.778   3.209   4.310
 9173SOL    HW128418   6.866   3.254   4.321
 9173SOL    HW228419   6.749   3.170   4.398
 9174SOL     OW28420   0.663   6.042   6.996
 9174SOL    HW128421   0.565   6.051   7.013
 9174SOL    HW228422   0.702   5.978   0.044
 9175SOL     OW28423   1.402   6.238   0.558
 9175SOL    HW128424   1.441   6.146   0.563
 9175SOL    HW228425   1.439   6.294   0.632
 9176SOL     OW28426   2.147   0.369   2.547
 9176SOL    HW128427   2.197   0.388   2.462
 9176SOL    HW228428   2.203   0.312   2.607
 9177SOL     OW28429   1.983   2.828   4.060
 9177SOL    HW128430   1.965   2.825   4.158
 9177SOL    HW228431   1.905   2.871   4.014
 9178SOL     OW28432   2.228   5.506   6.481
 9178SOL    HW128433   2.224   5.452   6.565
 9178SOL    HW228434   2.319   5.500   6.441
 9179SOL     OW28435   3.099   6.139   4.484
 9179SOL    HW128436   2.999   6.130   4.483
 9179SOL    HW228437   3.132   6.152   4.391
 9180SOL     OW28438   6.468   2.019   4.118
 9180SOL    HW128439   6.561   2.025   4.154
 9180SOL    HW228440   6.470   1.977   4.027
 9181SOL     OW28441   5.060   2.518   3.659
 9181SOL    HW128442   5.088   2.604   3.701
 9181SOL    HW228443   4.969   2.492   3.693
 9182SOL     OW28444   2.469   1.189   2.807
 9182SOL    HW128445   2.482   1.090   2.817
 9182SOL    HW228446   2.501   1.217   2.716
 9183SOL     OW28447   4.570   3.602   6.669
 9183SOL    HW128448   4.590   3.668   6.597
 9183SOL    HW228449   4.618   3.516   6.650
 9184SOL     OW28450   3.367   1.942   0.950
 9184SOL    HW128451   3.308   1.976   1.022
 9184SOL    HW228452   3.312   1.917   0.870
 9185SOL     OW28453   0.125   0.079   6.178
 9185SOL    HW128454   0.059   0.113   6.111
 9185SOL    HW228455   0.207   0.048   6.130
 9186SOL     OW28456   4.893   0.644   5.941
 9186SOL    HW128457   4.975   0.696   5.915
 9186SOL    HW228458   4.848   0.611   5.858
 9187SOL     OW28459   4.491   2.097   6.847
 9187SOL    HW128460   4.526   2.127   6.936
 9187SOL    HW228461   4.395   2.070   6.855
 9188SOL     OW28462   1.548   0.731   1.378
 9188SOL    HW128463   1.458   0.695   1.354
 9188SOL    HW228464   1.611   0.719   1.301
 9189SOL     OW28465   3.225   1.105   3.343
 9189SOL    HW128466   3.238   1.177   3.275
 9189SOL    HW228467   3.156   1.040   3.311
 9190SOL     OW28468   5.820   3.959   5.453
 9190SOL    HW128469   5.734   3.908   5.447
 9190SOL    HW228470   5.832   3.993   5.546
 9191SOL     OW28471   5.283   6.981   6.755
 9191SOL    HW128472   5.219   0.004   6.820
 9191SOL    HW228473   5.235   6.963   6.668
 9192SOL     OW28474   5.913   3.732   5.849
 9192SOL    HW128475   5.862   3.673   5.785
 9192SOL    HW228476   5.977   3.676   5.902
 9193SOL     OW28477   3.194   3.700   3.759
 9193SOL    HW128478   3.259   3.650   3.702
 9193SOL    HW228479   3.232   3.710   3.851
 9194SOL     OW28480   3.519   6.060   2.231
 9194SOL    HW128481   3.425   6.095   2.231
 9194SOL    HW228482   3.550   6.049   2.325
 9195SOL     OW28483   1.642   2.772   4.141
 9195SOL    HW128484   1.590   2.766   4.226
 9195SOL    HW228485   1.635   2.686   4.092
 9196SOL     OW28486   4.486   0.178   4.087
 9196SOL    HW128487   4.440   0.265   4.101
 9196SOL    HW228488   4.496   0.161   3.989
 9197SOL     OW28489   2.823   3.426   0.444
 9197SOL    HW128490   2.772   3.430   0.530
 9197SOL    HW228491   2.873   3.512   0.431
 9198SOL     OW28492   5.903   4.355   6.093
 9198SOL    HW128493   5.838   4.306   6.034
 9198SOL    HW228494   5.882   4.452   6.091
 9199SOL     OW28495   0.925   3.240   6.521
 9199SOL    HW128496   0.868   3.290   6.456
 9199SOL    HW228497   0.876   3.158   6.552
 9200SOL     OW28498   1.134   6.021   0.265
 9200SOL    HW128499   1.060   6.086   0.277
 9200SOL    HW228500   1.222   6.068   0.270
 9201SOL     OW28501   0.758   3.983   1.495
 9201SOL    HW128502   0.814   3.912   1.451
 9201SOL    HW228503   0.703   4.029   1.426
 9202SOL     OW28504   2.491   5.605   4.925
 9202SOL    HW128505   2.575   5.585   4.975
 9202SOL    HW228506   2.461   5.523   4.877
 9203SOL     OW28507   5.257   1.838   6.111
 9203SOL    HW128508   5.269   1.744   6.141
 9203SOL    HW228509   5.232   1.839   6.014
 9204SOL     OW28510   5.697   4.078   3.423
 9204SOL    HW128511   5.658   4.033   3.503
 9204SOL    HW228512   5.756   4.154   3.452
 9205SOL     OW28513   5.157   3.398   2.631
 9205SOL    HW128514   5.195   3.375   2.721
 9205SOL    HW228515   5.147   3.314   2.577
 9206SOL     OW28516   3.095   0.410   4.668
 9206SOL    HW128517   3.113   0.327   4.721
 9206SOL    HW228518   3.058   0.385   4.579
 9207SOL     OW28519   3.489   6.161   5.923
 9207SOL    HW128520   3.458   6.229   5.857
 9207SOL    HW228521   3.562   6.199   5.979
 9208SOL     OW28522   4.964   3.369   2.364
 9208SOL    HW128523   4.914   3.289   2.332
 9208SOL    HW228524   4.975   3.434   2.288
 9209SOL     OW28525   3.978   1.307   1.939
 9209SOL    HW128526   3.972   1.376   2.012
 9209SOL    HW228527   3.920   1.229   1.963
 9210SOL     OW28528   2.422   0.206   1.795
 9210SOL    HW128529   2.411   0.164   1.885
 9210SOL    HW228530   2.397   0.303   1.800
 9211SOL     OW28531   5.583   1.536   6.126
 9211SOL    HW128532   5.628   1.612   6.173
 9211SOL    HW228533   5.631   1.451   6.146
 9212SOL     OW28534   4.596   4.413   4.787
 9212SOL    HW128535   4.644   4.473   4.723
 9212SOL    HW228536   4.529   4.466   4.839
 9213SOL     OW28537   5.956   6.943   4.384
 9213SOL    HW128538   6.005   6.889   4.452
 9213SOL    HW228539   6.017   6.965   4.308
 9214SOL     OW28540   1.409   2.355   4.779
 9214SOL    HW128541   1.352   2.389   4.854
 9214SOL    HW228542   1.383   2.401   4.694
 9215SOL     OW28543   6.978   4.522   2.247
 9215SOL    HW128544   6.957   4.473   2.162
 9215SOL    HW228545   0.058   4.515   2.265
 9216SOL     OW28546   2.578   6.383   4.493
 9216SOL    HW128547   2.647   6.425   4.552
 9216SOL    HW228548   2.544   6.300   4.535
 9217SOL     OW28549   5.301   1.114   6.351
 9217SOL    HW128550   5.373   1.143   6.414
 9217SOL    HW228551   5.219   1.091   6.403
 9218SOL     OW28552   4.372   0.134   6.318
 9218SOL    HW128553   4.286   0.140   6.268
 9218SOL    HW228554   4.419   0.222   6.314
 9219SOL     OW28555   4.071   2.898   5.282
 9219SOL    HW128556   4.150   2.945   5.322
 9219SOL    HW228557   4.026   2.958   5.217
 9220SOL     OW28558   2.372   5.989   3.153
 9220SOL    HW128559   2.419   6.055   3.095
 9220SOL    HW228560   2.280   5.973   3.119
 9221SOL     OW28561   2.326   0.815   5.857
 9221SOL    HW128562   2.421   0.787   5.871
 9221SOL    HW228563   2.314   0.846   5.763
 9222SOL     OW28564   2.534   4.520   4.053
 9222SOL    HW128565   2.567   4.534   4.147
 9222SOL    HW228566   2.455   4.459   4.055
 9223SOL     OW28567   1.007   3.246   3.899
 9223SOL    HW128568   0.994   3.324   3.838
 9223SOL    HW228569   1.074   3.270   3.970
 9224SOL     OW28570   1.097   3.529   3.802
 9224SOL    HW128571   1.011   3.581   3.799
 9224SOL    HW228572   1.158   3.570   3.871
 9225SOL     OW28573   3.408   6.555   6.098
 9225SOL    HW128574   3.477   6.529   6.165
 9225SOL    HW228575   3.327   6.591   6.145
 9226SOL     OW28576   1.421   6.981   1.675
 9226SOL    HW128577   1.360   6.915   1.718
 9226SOL    HW228578   1.440   0.038   1.739
 9227SOL     OW28579   1.288   5.452   1.080
 9227SOL    HW128580   1.282   5.384   1.007
 9227SOL    HW228581   1.374   5.503   1.073
 9228SOL     OW28582   2.144   2.561   6.238
 9228SOL    HW128583   2.086   2.568   6.157
 9228SOL    HW228584   2.199   2.478   6.232
 9229SOL     OW28585   1.167   5.251   6.677
 9229SOL    HW128586   1.110   5.243   6.594
 9229SOL    HW228587   1.108   5.262   6.757
 9230SOL     OW28588   4.666   2.367   4.069
 9230SOL    HW128589   4.712   2.339   3.985
 9230SOL    HW228590   4.575   2.326   4.073
 9231SOL     OW28591   0.472   5.178   6.064
 9231SOL    HW128592   0.400   5.231   6.110
 9231SOL    HW228593   0.545   5.240   6.036
 9232SOL     OW28594   1.831   5.305   1.322
 9232SOL    HW128595   1.819   5.273   1.416
 9232SOL    HW228596   1.908   5.369   1.318
 9233SOL     OW28597   0.896   6.871   0.795
 9233SOL    HW128598   0.978   6.844   0.745
 9233SOL    HW228599   0.826   6.801   0.784
 9234SOL     OW28600   2.506   5.278   1.029
 9234SOL    HW128601   2.486   5.213   1.103
 9234SOL    HW228602   2.486   5.371   1.060
 9235SOL     OW28603   2.460   2.494   3.540
 9235SOL    HW128604   2.475   2.400   3.570
 9235SOL    HW228605   2.371   2.525   3.574
 9236SOL     OW28606   2.110   3.565   6.882
 9236SOL    HW128607   2.040   3.596   6.947
 9236SOL    HW228608   2.068   3.550   6.793
 9237SOL     OW28609   6.950   6.318   2.920
 9237SOL    HW128610   0.023   6.352   2.900
 9237SOL    HW228611   6.905   6.378   2.986
 9238SOL     OW28612   2.388   2.773   5.848
 9238SOL    HW128613   2.440   2.773   5.762
 9238SOL    HW228614   2.446   2.736   5.921
 9239SOL     OW28615   6.781   4.522   6.859
 9239SOL    HW128616   6.743   4.522   6.952
 9239SOL    HW228617   6.725   4.582   6.801
 9240SOL     OW28618   5.256   3.389   2.881
 9240SOL    HW128619   5.234   3.481   2.915
 9240SOL    HW228620   5.239   3.322   2.952
 9241SOL     OW28621   0.024   5.702   6.888
 9241SOL    HW128622   0.085   5.662   6.820
 9241SOL    HW228623   0.018   5.640   6.967
 9242SOL     OW28624   1.701   2.409   1.860
 9242SOL    HW128625   1.735   2.487   1.806
 9242SOL    HW228626   1.767   2.334   1.854
 9243SOL     OW28627   1.201   0.545   1.851
 9243SOL    HW128628   1.301   0.545   1.848
 9243SOL    HW228629   1.170   0.590   1.936
 9244SOL     OW28630   2.755   6.415   6.167
 9244SOL    HW128631   2.658   6.441   6.175
 9244SOL    HW228632   2.788   6.385   6.256
 9245SOL     OW28633   0.953   3.844   3.586
 9245SOL    HW128634   1.050   3.818   3.585
 9245SOL    HW228635   0.919   3.850   3.493
 9246SOL     OW28636   5.943   0.499   3.975
 9246SOL    HW128637   5.887   0.556   4.035
 9246SOL    HW228638   5.946   0.406   4.012
 9247SOL     OW28639   3.975   5.275   2.908
 9247SOL    HW128640   4.032   5.327   2.972
 9247SOL    HW228641   3.971   5.324   2.821
 9248SOL     OW28642   2.890   1.250   5.035
 9248SOL    HW128643   2.844   1.300   5.109
 9248SOL    HW228644   2.884   1.151   5.053
 9249SOL     OW28645   3.784   4.623   1.660
 9249SOL    HW128646   3.784   4.546   1.596
 9249SOL    HW228647   3.707   4.615   1.722
 9250SOL     OW28648   6.547   4.102   3.630
 9250SOL    HW128649   6.538   4.057   3.541
 9250SOL    HW228650   6.630   4.158   3.632
 9251SOL     OW28651   3.644   2.649   1.301
 9251SOL    HW128652   3.604   2.589   1.371
 9251SOL    HW228653   3.709   2.596   1.246
 9252SOL     OW28654   4.843   0.761   5.010
 9252SOL    HW128655   4.760   0.708   5.026
 9252SOL    HW228656   4.820   0.858   5.010
 9253SOL     OW28657   5.696   4.939   5.680
 9253SOL    HW128658   5.734   5.028   5.654
 9253SOL    HW228659   5.667   4.891   5.597
 9254SOL     OW28660   5.339   4.343   2.305
 9254SOL    HW128661   5.316   4.313   2.212
 9254SOL    HW228662   5.439   4.347   2.315
 9255SOL     OW28663   5.862   3.572   6.524
 9255SOL    HW128664   5.926   3.555   6.599
 9255SOL    HW228665   5.831   3.485   6.487
 9256SOL     OW28666   2.124   6.977   1.936
 9256SOL    HW128667   2.050   6.975   1.869
 9256SOL    HW228668   2.093   6.933   2.020
 9257SOL     OW28669   6.215   5.891   3.222
 9257SOL    HW128670   6.229   5.981   3.263
 9257SOL    HW228671   6.292   5.870   3.161
 9258SOL     OW28672   3.462   3.323   0.397
 9258SOL    HW128673   3.463   3.346   0.494
 9258SOL    HW228674   3.555   3.325   0.361
 9259SOL     OW28675   1.928   1.657   0.354
 9259SOL    HW128676   2.003   1.623   0.297
 9259SOL    HW228677   1.879   1.579   0.393
 9260SOL     OW28678   6.876   2.924   6.239
 9260SOL    HW128679   6.934   2.934   6.158
 9260SOL    HW228680   6.815   3.004   6.246
 9261SOL     OW28681   4.746   1.182   0.154
 9261SOL    HW128682   4.778   1.181   0.248
 9261SOL    HW228683   4.766   1.270   0.112
 9262SOL     OW28684   0.679   6.999   4.721
 9262SOL    HW128685   0.615   6.979   4.646
 9262SOL    HW228686   0.768   0.007   4.683
 9263SOL     OW28687   2.900   5.660   2.925
 9263SOL    HW128688   2.991   5.701   2.924
 9263SOL    HW228689   2.888   5.606   3.008
 9264SOL     OW28690   5.042   3.689   6.565
 9264SOL    HW128691   5.139   3.713   6.557
 9264SOL    HW228692   5.010   3.649   6.479
 9265SOL     OW28693   4.034   2.046   6.422
 9265SOL    HW128694   4.088   2.003   6.494
 9265SOL    HW228695   4.054   2.144   6.419
 9266SOL     OW28696   0.414   5.743   1.006
 9266SOL    HW128697   0.368   5.808   0.946
 9266SOL    HW228698   0.491   5.701   0.957
 9267SOL     OW28699   1.061   1.805   4.100
 9267SOL    HW128700   0.991   1.738   4.078
 9267SOL    HW228701   1.101   1.842   4.016
 9268SOL     OW28702   1.135   6.396   2.591
 9268SOL    HW128703   1.186   6.477   2.619
 9268SOL    HW228704   1.038   6.409   2.610
 9269SOL     OW28705   4.365   0.520   6.203
 9269SOL    HW128706   4.277   0.483   6.174
 9269SOL    HW228707   4.350   0.605   6.255
 9270SOL     OW28708   3.417   1.035   5.598
 9270SOL    HW128709   3.444   1.016   5.504
 9270SOL    HW228710   3.318   1.049   5.602
 9271SOL     OW28711   0.530   0.135   0.642
 9271SOL    HW128712   0.443   0.161   0.684
 9271SOL    HW228713   0.587   0.088   0.709
 9272SOL     OW28714   0.593   6.586   6.940
 9272SOL    HW128715   0.640   6.550   0.003
 9272SOL    HW228716   0.574   6.684   6.954
 9273SOL     OW28717   5.231   6.336   3.721
 9273SOL    HW128718   5.145   6.284   3.712
 9273SOL    HW228719   5.211   6.434   3.716
 9274SOL     OW28720   0.032   3.319   0.283
 9274SOL    HW128721   6.970   3.292   0.336
 9274SOL    HW228722   0.109   3.259   0.306
 9275SOL     OW28723   0.247   6.635   0.803
 9275SOL    HW128724   0.310   6.566   0.766
 9275SOL    HW228725   0.177   6.590   0.858
 9276SOL     OW28726   2.996   4.659   0.301
 9276SOL    HW128727   3.001   4.650   0.400
 9276SOL    HW228728   2.929   4.595   0.264
 9277SOL     OW28729   3.970   4.819   3.204
 9277SOL    HW128730   3.978   4.728   3.245
 9277SOL    HW228731   3.904   4.873   3.256
 9278SOL     OW28732   0.015   0.481   5.767
 9278SOL    HW128733   0.029   0.386   5.740
 9278SOL    HW228734   6.968   0.525   5.704
 9279SOL     OW28735   3.368   6.324   1.663
 9279SOL    HW128736   3.412   6.311   1.574
 9279SOL    HW228737   3.433   6.363   1.728
 9280SOL     OW28738   2.027   2.359   2.052
 9280SOL    HW128739   2.127   2.365   2.050
 9280SOL    HW228740   1.998   2.311   2.135
 9281SOL     OW28741   3.661   3.884   5.761
 9281SOL    HW128742   3.656   3.799   5.813
 9281SOL    HW228743   3.588   3.946   5.790
 9282SOL     OW28744   4.430   0.965   4.287
 9282SOL    HW128745   4.479   0.999   4.368
 9282SOL    HW228746   4.357   1.029   4.263
 9283SOL     OW28747   5.522   0.519   6.459
 9283SOL    HW128748   5.457   0.541   6.386
 9283SOL    HW228749   5.542   0.602   6.511
 9284SOL     OW28750   3.020   3.942   4.971
 9284SOL    HW128751   3.019   3.933   5.070
 9284SOL    HW228752   2.962   3.871   4.930
 9285SOL     OW28753   5.485   3.483   1.240
 9285SOL    HW128754   5.433   3.418   1.296
 9285SOL    HW228755   5.422   3.543   1.192
 9286SOL     OW28756   5.221   5.662   0.464
 9286SOL    HW128757   5.263   5.679   0.375
 9286SOL    HW228758   5.244   5.570   0.495
 9287SOL     OW28759   2.189   4.286   5.627
 9287SOL    HW128760   2.126   4.360   5.603
 9287SOL    HW228761   2.217   4.238   5.544
 9288SOL     OW28762   4.577   2.542   3.182
 9288SOL    HW128763   4.525   2.467   3.140
 9288SOL    HW228764   4.608   2.514   3.273
 9289SOL     OW28765   4.624   0.799   6.342
 9289SOL    HW128766   4.674   0.817   6.426
 9289SOL    HW228767   4.682   0.749   6.278
 9290SOL     OW28768   6.233   0.464   3.925
 9290SOL    HW128769   6.240   0.377   3.877
 9290SOL    HW228770   6.165   0.522   3.880
 9291SOL     OW28771   1.145   6.314   5.789
 9291SOL    HW128772   1.200   6.260   5.853
 9291SOL    HW228773   1.049   6.306   5.814
 9292SOL     OW28774   1.788   1.166   6.653
 9292SOL    HW128775   1.814   1.221   6.732
 9292SOL    HW228776   1.870   1.129   6.609
 9293SOL     OW28777   5.075   2.491   6.622
 9293SOL    HW128778   5.002   2.546   6.579
 9293SOL    HW228779   5.046   2.465   6.714
 9294SOL     OW28780   5.021   1.301   0.287
 9294SOL    HW128781   5.113   1.316   0.324
 9294SOL    HW228782   4.960   1.272   0.361
 9295SOL     OW28783   0.132   0.864   5.398
 9295SOL    HW128784   0.205   0.908   5.346
 9295SOL    HW228785   0.074   0.810   5.336
 9296SOL     OW28786   2.370   3.684   0.547
 9296SOL    HW128787   2.456   3.718   0.585
 9296SOL    HW228788   2.339   3.605   0.599
 9297SOL     OW28789   0.937   5.942   3.209
 9297SOL    HW128790   0.946   6.019   3.272
 9297SOL    HW228791   0.900   5.975   3.121
 9298SOL     OW28792   1.151   6.904   6.043
 9298SOL    HW128793   1.209   6.823   6.041
 9298SOL    HW228794   1.057   6.877   6.065
 9299SOL     OW28795   1.893   1.310   3.981
 9299SOL    HW128796   1.940   1.344   4.062
 9299SOL    HW228797   1.959   1.268   3.919
 9300SOL     OW28798   0.251   5.909   5.128
 9300SOL    HW128799   0.341   5.951   5.120
 9300SOL    HW228800   0.261   5.810   5.129
 9301SOL     OW28801   0.125   4.271   4.598
 9301SOL    HW128802   0.028   4.289   4.611
 9301SOL    HW228803   0.141   4.245   4.502
 9302SOL     OW28804   2.270   2.590   4.702
 9302SOL    HW128805   2.180   2.546   4.699
 9302SOL    HW228806   2.286   2.626   4.794
 9303SOL     OW28807   3.280   4.490   0.515
 9303SOL    HW128808   3.346   4.454   0.448
 9303SOL    HW228809   3.191   4.447   0.502
 9304SOL     OW28810   4.900   5.147   0.871
 9304SOL    HW128811   4.946   5.214   0.929
 9304SOL    HW228812   4.904   5.178   0.776
 9305SOL     OW28813   3.688   1.716   0.469
 9305SOL    HW128814   3.716   1.640   0.411
 9305SOL    HW228815   3.589   1.718   0.476
 9306SOL     OW28816   6.612   3.687   4.763
 9306SOL    HW128817   6.540   3.710   4.698
 9306SOL    HW228818   6.695   3.738   4.741
 9307SOL     OW28819   1.853   4.091   0.596
 9307SOL    HW128820   1.950   4.113   0.605
 9307SOL    HW228821   1.842   4.010   0.539
 9308SOL     OW28822   1.268   4.962   1.290
 9308SOL    HW128823   1.338   4.954   1.362
 9308SOL    HW228824   1.191   4.902   1.312
 9309SOL     OW28825   4.481   6.518   6.205
 9309SOL    HW128826   4.573   6.557   6.208
 9309SOL    HW228827   4.416   6.583   6.243
 9310SOL     OW28828   4.885   5.680   5.640
 9310SOL    HW128829   4.865   5.642   5.730
 9310SOL    HW228830   4.808   5.736   5.609
 9311SOL     OW28831   4.586   4.186   1.391
 9311SOL    HW128832   4.602   4.283   1.371
 9311SOL    HW228833   4.575   4.174   1.490
 9312SOL     OW28834   1.613   2.433   1.213
 9312SOL    HW128835   1.684   2.490   1.255
 9312SOL    HW228836   1.649   2.340   1.202
 9313SOL     OW28837   0.865   0.793   1.659
 9313SOL    HW128838   0.814   0.711   1.685
 9313SOL    HW228839   0.958   0.767   1.632
 9314SOL     OW28840   5.566   3.538   0.561
 9314SOL    HW128841   5.587   3.519   0.657
 9314SOL    HW228842   5.623   3.481   0.502
 9315SOL     OW28843   6.133   0.857   6.748
 9315SOL    HW128844   6.171   0.922   6.682
 9315SOL    HW228845   6.155   0.764   6.719
 9316SOL     OW28846   6.117   0.239   4.935
 9316SOL    HW128847   6.141   0.200   4.846
 9316SOL    HW228848   6.177   0.199   5.005
 9317SOL     OW28849   3.250   5.380   3.584
 9317SOL    HW128850   3.174   5.350   3.527
 9317SOL    HW228851   3.333   5.330   3.558
 9318SOL     OW28852   4.695   5.707   0.192
 9318SOL    HW128853   4.603   5.712   0.155
 9318SOL    HW228854   4.697   5.643   0.269
 9319SOL     OW28855   2.445   3.336   0.816
 9319SOL    HW128856   2.425   3.238   0.825
 9319SOL    HW228857   2.461   3.375   0.906
 9320SOL     OW28858   4.689   6.927   5.842
 9320SOL    HW128859   4.605   6.911   5.791
 9320SOL    HW228860   4.738   7.004   5.802
 9321SOL     OW28861   1.008   1.983   5.066
 9321SOL    HW128862   0.969   2.043   4.995
 9321SOL    HW228863   0.970   1.891   5.056
 9322SOL     OW28864   6.377   4.891   5.829
 9322SOL    HW128865   6.399   4.902   5.732
 9322SOL    HW228866   6.455   4.850   5.876
 9323SOL     OW28867   2.519   2.547   4.566
 9323SOL    HW128868   2.591   2.502   4.620
 9323SOL    HW228869   2.438   2.559   4.623
 9324SOL     OW28870   1.886   3.653   0.623
 9324SOL    HW128871   1.905   3.748   0.646
 9324SOL    HW228872   1.796   3.628   0.658
 9325SOL     OW28873   2.052   6.334   1.465
 9325SOL    HW128874   2.097   6.315   1.553
 9325SOL    HW228875   1.974   6.395   1.480
 9326SOL     OW28876   3.551   5.522   0.202
 9326SOL    HW128877   3.490   5.443   0.209
 9326SOL    HW228878   3.517   5.596   0.260
 9327SOL     OW28879   4.685   0.052   3.073
 9327SOL    HW128880   4.639   0.138   3.096
 9327SOL    HW228881   4.770   0.045   3.125
 9328SOL     OW28882   2.140   6.762   5.168
 9328SOL    HW128883   2.160   6.835   5.102
 9328SOL    HW228884   2.217   6.699   5.173
 9329SOL     OW28885   0.242   5.584   6.688
 9329SOL    HW128886   0.321   5.641   6.668
 9329SOL    HW228887   0.169   5.603   6.623
 9330SOL     OW28888   0.620   0.049   6.826
 9330SOL    HW128889   0.670   0.135   6.825
 9330SOL    HW228890   0.573   0.037   6.738
 9331SOL     OW28891   1.919   2.579   5.306
 9331SOL    HW128892   1.985   2.654   5.301
 9331SOL    HW228893   1.866   2.585   5.390
 9332SOL     OW28894   4.318   5.526   0.234
 9332SOL    HW128895   4.402   5.519   0.180
 9332SOL    HW228896   4.309   5.446   0.293
 9333SOL     OW28897   3.579   6.007   0.702
 9333SOL    HW128898   3.554   5.917   0.666
 9333SOL    HW228899   3.508   6.040   0.764
 9334SOL     OW28900   5.401   0.548   4.144
 9334SOL    HW128901   5.448   0.616   4.201
 9334SOL    HW228902   5.318   0.518   4.190
 9335SOL     OW28903   2.124   2.177   0.970
 9335SOL    HW128904   2.198   2.117   0.939
 9335SOL    HW228905   2.161   2.242   1.038
 9336SOL     OW28906   5.820   0.136   4.317
 9336SOL    HW128907   5.864   0.068   4.377
 9336SOL    HW228908   5.887   0.173   4.254
 9337SOL     OW28909   4.882   0.324   6.990
 9337SOL    HW128910   4.920   0.284   0.055
 9337SOL    HW228911   4.783   0.308   6.986
 9338SOL     OW28912   0.160   5.850   0.044
 9338SOL    HW128913   0.107   5.808   6.989
 9338SOL    HW228914   0.186   5.781   0.111
 9339SOL     OW28915   5.670   5.267   0.349
 9339SOL    HW128916   5.613   5.341   0.315
 9339SOL    HW228917   5.764   5.280   0.318
 9340SOL     OW28918   3.963   4.789   2.509
 9340SOL    HW128919   3.952   4.856   2.583
 9340SOL    HW228920   3.874   4.769   2.469
 9341SOL     OW28921   6.549   4.566   6.689
 9341SOL    HW128922   6.465   4.614   6.716
 9341SOL    HW228923   6.526   4.473   6.660
 9342SOL     OW28924   3.061   0.592   4.872
 9342SOL    HW128925   3.122   0.570   4.948
 9342SOL    HW228926   3.085   0.537   4.793
 9343SOL     OW28927   4.864   3.770   2.104
 9343SOL    HW128928   4.785   3.758   2.165
 9343SOL    HW228929   4.887   3.682   2.062
 9344SOL     OW28930   5.335   5.294   6.819
 9344SOL    HW128931   5.385   5.208   6.817
 9344SOL    HW228932   5.280   5.303   6.736
 9345SOL     OW28933   6.453   6.025   6.772
 9345SOL    HW128934   6.458   6.052   6.868
 9345SOL    HW228935   6.360   6.038   6.738
 9346SOL     OW28936   4.735   5.752   2.478
 9346SOL    HW128937   4.820   5.744   2.530
 9346SOL    HW228938   4.662   5.784   2.538
 9347SOL     OW28939   3.550   5.732   0.563
 9347SOL    HW128940   3.541   5.659   0.631
 9347SOL    HW228941   3.525   5.696   0.473
 9348SOL     OW28942   2.625   5.428   3.219
 9348SOL    HW128943   2.605   5.434   3.316
 9348SOL    HW228944   2.623   5.332   3.190
 9349SOL     OW28945   6.477   5.465   2.104
 9349SOL    HW128946   6.487   5.552   2.151
 9349SOL    HW228947   6.393   5.465   2.050
 9350SOL     OW28948   6.795   1.247   4.026
 9350SOL    HW128949   6.869   1.310   4.002
 9350SOL    HW228950   6.722   1.297   4.072
 9351SOL     OW28951   2.279   0.974   5.553
 9351SOL    HW128952   2.243   1.035   5.624
 9351SOL    HW228953   2.238   0.884   5.563
 9352SOL     OW28954   1.491   2.862   5.433
 9352SOL    HW128955   1.468   2.804   5.512
 9352SOL    HW228956   1.451   2.953   5.446
 9353SOL     OW28957   1.682   4.346   2.138
 9353SOL    HW128958   1.754   4.393   2.088
 9353SOL    HW228959   1.698   4.247   2.134
 9354SOL     OW28960   6.486   1.644   1.100
 9354SOL    HW128961   6.460   1.741   1.098
 9354SOL    HW228962   6.417   1.591   1.050
 9355SOL     OW28963   6.220   1.258   3.759
 9355SOL    HW128964   6.242   1.295   3.850
 9355SOL    HW228965   6.142   1.307   3.721
 9356SOL     OW28966   4.769   5.180   2.168
 9356SOL    HW128967   4.815   5.101   2.127
 9356SOL    HW228968   4.683   5.196   2.122
 9357SOL     OW28969   2.241   4.468   6.969
 9357SOL    HW128970   2.230   4.396   0.019
 9357SOL    HW228971   2.329   4.457   6.922
 9358SOL     OW28972   5.486   3.487   1.654
 9358SOL    HW128973   5.393   3.491   1.693
 9358SOL    HW228974   5.542   3.424   1.709
 9359SOL     OW28975   0.245   3.366   5.231
 9359SOL    HW128976   0.332   3.415   5.227
 9359SOL    HW228977   0.260   3.269   5.210
 9360SOL     OW28978   1.175   0.157   6.009
 9360SOL    HW128979   1.161   0.059   6.015
 9360SOL    HW228980   1.244   0.186   6.075
 9361SOL     OW28981   2.632   0.278   3.478
 9361SOL    HW128982   2.657   0.210   3.409
 9361SOL    HW228983   2.714   0.309   3.526
 9362SOL     OW28984   1.362   1.297   1.915
 9362SOL    HW128985   1.366   1.356   1.995
 9362SOL    HW228986   1.455   1.265   1.892
 9363SOL     OW28987   4.086   5.257   2.124
 9363SOL    HW128988   4.130   5.329   2.177
 9363SOL    HW228989   4.062   5.292   2.033
 9364SOL     OW28990   3.908   3.381   6.130
 9364SOL    HW128991   3.933   3.389   6.227
 9364SOL    HW228992   3.900   3.472   6.090
 9365SOL     OW28993   2.415   1.739   5.020
 9365SOL    HW128994   2.489   1.745   4.953
 9365SOL    HW228995   2.453   1.720   5.111
 9366SOL     OW28996   3.265   1.810   6.860
 9366SOL    HW128997   3.358   1.798   6.824
 9366SOL    HW228998   3.206   1.738   6.823
 9367SOL     OW28999   7.017   6.113   3.769
 9367SOL    HW129000   6.955   6.036   3.780
 9367SOL    HW229001   0.088   6.091   3.808
 9368SOL     OW29002   3.027   1.621   3.157
 9368SOL    HW129003   3.022   1.525   3.131
 9368SOL    HW229004   3.122   1.651   3.157
 9369SOL     OW29005   0.383   0.592   5.975
 9369SOL    HW129006   0.355   0.516   6.034
 9369SOL    HW229007   0.431   0.660   6.031
 9370SOL     OW29008   5.401   0.206   2.344
 9370SOL    HW129009   5.470   0.274   2.320
 9370SOL    HW229010   5.343   0.241   2.417
 9371SOL     OW29011   2.236   5.207   0.327
 9371SOL    HW129012   2.310   5.222   0.261
 9371SOL    HW229013   2.228   5.110   0.348
 9372SOL     OW29014   5.881   5.994   2.980
 9372SOL    HW129015   5.925   5.985   2.890
 9372SOL    HW229016   5.854   5.903   3.013
 9373SOL     OW29017   4.847   2.134   2.819
 9373SOL    HW129018   4.751   2.108   2.812
 9373SOL    HW229019   4.865   2.211   2.758
 9374SOL     OW29020   6.033   2.984   6.948
 9374SOL    HW129021   6.072   2.921   6.881
 9374SOL    HW229022   5.947   2.947   6.982
 9375SOL     OW29023   6.698   1.819   3.820
 9375SOL    HW129024   6.693   1.723   3.794
 9375SOL    HW229025   6.739   1.872   3.746
 9376SOL     OW29026   2.783   3.775   1.069
 9376SOL    HW129027   2.691   3.772   1.107
 9376SOL    HW229028   2.845   3.819   1.135
 9377SOL     OW29029   1.355   5.600   4.043
 9377SOL    HW129030   1.394   5.622   4.132
 9377SOL    HW229031   1.363   5.501   4.027
 9378SOL     OW29032   1.067   0.390   5.594
 9378SOL    HW129033   1.146   0.394   5.534
 9378SOL    HW229034   0.998   0.328   5.555
 9379SOL     OW29035   4.613   5.189   5.197
 9379SOL    HW129036   4.675   5.268   5.198
 9379SOL    HW229037   4.521   5.218   5.224
 9380SOL     OW29038   5.692   4.659   4.766
 9380SOL    HW129039   5.781   4.684   4.728
 9380SOL    HW229040   5.645   4.742   4.796
 9381SOL     OW29041   2.221   3.094   5.647
 9381SOL    HW129042   2.168   3.054   5.721
 9381SOL    HW229043   2.213   3.036   5.565
 9382SOL     OW29044   3.573   1.791   2.849
 9382SOL    HW129045   3.563   1.716   2.784
 9382SOL    HW229046   3.487   1.804   2.899
 9383SOL     OW29047   2.820   6.357   4.853
 9383SOL    HW129048   2.736   6.383   4.901
 9383SOL    HW229049   2.850   6.267   4.885
 9384SOL     OW29050   3.826   6.087   1.296
 9384SOL    HW129051   3.889   6.152   1.340
 9384SOL    HW229052   3.810   6.116   1.201
 9385SOL     OW29053   4.420   1.385   2.479
 9385SOL    HW129054   4.379   1.472   2.507
 9385SOL    HW229055   4.416   1.321   2.556
 9386SOL     OW29056   2.231   6.413   5.355
 9386SOL    HW129057   2.289   6.332   5.366
 9386SOL    HW229058   2.134   6.386   5.358
 9387SOL     OW29059   3.698   0.387   6.929
 9387SOL    HW129060   3.761   0.440   6.871
 9387SOL    HW229061   3.606   0.395   6.892
 9388SOL     OW29062   1.912   5.487   2.600
 9388SOL    HW129063   1.975   5.564   2.612
 9388SOL    HW229064   1.836   5.495   2.665
 9389SOL     OW29065   1.979   6.818   5.474
 9389SOL    HW129066   2.043   6.790   5.402
 9389SOL    HW229067   2.014   6.898   5.521
 9390SOL     OW29068   4.226   5.694   4.600
 9390SOL    HW129069   4.231   5.709   4.699
 9390SOL    HW229070   4.155   5.627   4.580
 9391SOL     OW29071   2.372   0.524   5.259
 9391SOL    HW129072   2.295   0.476   5.218
 9391SOL    HW229073   2.455   0.504   5.207
 9392SOL     OW29074   7.008   0.461   5.252
 9392SOL    HW129075   0.042   0.523   5.194
 9392SOL    HW229076   6.923   0.434   5.206
 9393SOL     OW29077   3.139   1.076   5.532
 9393SOL    HW129078   3.065   1.022   5.573
 9393SOL    HW229079   3.143   1.057   5.434
 9394SOL     OW29080   6.360   1.726   2.379
 9394SOL    HW129081   6.353   1.641   2.327
 9394SOL    HW229082   6.444   1.726   2.433
 9395SOL     OW29083   2.601   2.654   0.560
 9395SOL    HW129084   2.509   2.613   0.560
 9395SOL    HW229085   2.602   2.731   0.496
 9396SOL     OW29086   0.443   5.403   3.496
 9396SOL    HW129087   0.438   5.499   3.523
 9396SOL    HW229088   0.528   5.364   3.530
 9397SOL     OW29089   2.768   0.375   0.498
 9397SOL    HW129090   2.675   0.392   0.465
 9397SOL    HW229091   2.796   0.282   0.474
 9398SOL     OW29092   1.756   0.117   5.459
 9398SOL    HW129093   1.724   0.041   5.403
 9398SOL    HW229094   1.847   0.095   5.495
 9399SOL     OW29095   0.492   1.509   0.114
 9399SOL    HW129096   0.570   1.537   0.059
 9399SOL    HW229097   0.411   1.498   0.056
 9400SOL     OW29098   5.645   2.694   1.359
 9400SOL    HW129099   5.570   2.716   1.422
 9400SOL    HW229100   5.698   2.618   1.397
 9401SOL     OW29101   3.948   6.645   3.212
 9401SOL    HW129102   3.940   6.617   3.117
 9401SOL    HW229103   4.042   6.634   3.243
 9402SOL     OW29104   0.995   4.820   4.546
 9402SOL    HW129105   1.023   4.873   4.466
 9402SOL    HW229106   1.066   4.754   4.569
 9403SOL     OW29107   5.482   1.449   3.170
 9403SOL    HW129108   5.504   1.499   3.254
 9403SOL    HW229109   5.537   1.485   3.095
 9404SOL     OW29110   0.664   3.429   5.949
 9404SOL    HW129111   0.628   3.343   5.986
 9404SOL    HW229112   0.592   3.499   5.953
 9405SOL     OW29113   0.500   6.392   2.382
 9405SOL    HW129114   0.590   6.408   2.342
 9405SOL    HW229115   0.473   6.297   2.365
 9406SOL     OW29116   0.169   3.164   6.417
 9406SOL    HW129117   0.095   3.124   6.470
 9406SOL    HW229118   0.212   3.237   6.470
 9407SOL     OW29119   2.524   5.198   3.495
 9407SOL    HW129120   2.589   5.273   3.483
 9407SOL    HW229121   2.573   5.118   3.531
 9408SOL     OW29122   4.012   1.834   6.234
 9408SOL    HW129123   4.025   1.921   6.281
 9408SOL    HW229124   3.960   1.849   6.150
 9409SOL     OW29125   6.017   4.651   6.080
 9409SOL    HW129126   6.024   4.726   6.014
 9409SOL    HW229127   6.096   4.590   6.071
 9410SOL     OW29128   3.538   6.435   1.852
 9410SOL    HW129129   3.506   6.528   1.833
 9410SOL    HW229130   3.634   6.438   1.878
 9411SOL     OW29131   4.028   3.796   1.315
 9411SOL    HW129132   4.100   3.819   1.248
 9411SOL    HW229133   4.071   3.772   1.402
 9412SOL     OW29134   0.229   3.326   1.642
 9412SOL    HW129135   0.236   3.272   1.726
 9412SOL    HW229136   0.134   3.354   1.628
 9413SOL     OW29137   4.210   6.410   4.512
 9413SOL    HW129138   4.169   6.324   4.481
 9413SOL    HW229139   4.307   6.396   4.530
 9414SOL     OW29140   3.029   1.010   3.709
 9414SOL    HW129141   3.030   1.085   3.644
 9414SOL    HW229142   3.021   0.923   3.660
 9415SOL     OW29143   2.615   7.004   2.728
 9415SOL    HW129144   2.689   6.984   2.792
 9415SOL    HW229145   2.606   0.085   2.716
 9416SOL     OW29146   0.861   1.503   1.208
 9416SOL    HW129147   0.860   1.600   1.185
 9416SOL    HW229148   0.819   1.451   1.133
 9417SOL     OW29149   3.998   7.007   5.703
 9417SOL    HW129150   4.074   0.054   5.704
 9417SOL    HW229151   4.015   6.934   5.769
 9418SOL     OW29152   3.132   6.895   1.116
 9418SOL    HW129153   3.086   6.846   1.042
 9418SOL    HW229154   3.064   6.939   1.174
 9419SOL     OW29155   2.823   5.131   5.682
 9419SOL    HW129156   2.904   5.187   5.666
 9419SOL    HW229157   2.755   5.149   5.612
 9420SOL     OW29158   0.094   2.153   4.162
 9420SOL    HW129159   0.158   2.177   4.235
 9420SOL    HW229160   0.056   2.237   4.123
 9421SOL     OW29161   2.584   6.519   4.974
 9421SOL    HW129162   2.526   6.497   5.053
 9421SOL    HW229163   2.537   6.496   4.890
 9422SOL     OW29164   4.147   5.986   2.782
 9422SOL    HW129165   4.120   5.908   2.839
 9422SOL    HW229166   4.087   6.064   2.800
 9423SOL     OW29167   4.540   0.892   3.375
 9423SOL    HW129168   4.468   0.826   3.354
 9423SOL    HW229169   4.630   0.849   3.361
 9424SOL     OW29170   4.936   0.971   5.286
 9424SOL    HW129171   4.899   0.977   5.194
 9424SOL    HW229172   5.030   0.937   5.282
 9425SOL     OW29173   0.631   3.786   6.072
 9425SOL    HW129174   0.721   3.798   6.116
 9425SOL    HW229175   0.634   3.823   5.979
 9426SOL     OW29176   2.416   1.958   0.387
 9426SOL    HW129177   2.407   2.024   0.313
 9426SOL    HW229178   2.327   1.945   0.431
 9427SOL     OW29179   3.487   5.250   4.829
 9427SOL    HW129180   3.488   5.168   4.887
 9427SOL    HW229181   3.486   5.332   4.886
 9428SOL     OW29182   5.290   1.066   0.935
 9428SOL    HW129183   5.229   0.991   0.956
 9428SOL    HW229184   5.245   1.131   0.874
 9429SOL     OW29185   1.853   4.540   2.053
 9429SOL    HW129186   1.930   4.559   1.993
 9429SOL    HW229187   1.816   4.625   2.089
 9430SOL     OW29188   0.108   4.571   1.605
 9430SOL    HW129189   0.166   4.496   1.571
 9430SOL    HW229190   0.161   4.627   1.668
 9431SOL     OW29191   5.369   4.114   0.750
 9431SOL    HW129192   5.376   4.020   0.782
 9431SOL    HW229193   5.421   4.174   0.812
 9432SOL     OW29194   5.160   0.702   2.393
 9432SOL    HW129195   5.233   0.636   2.380
 9432SOL    HW229196   5.189   0.792   2.360
 9433SOL     OW29197   3.492   4.993   3.645
 9433SOL    HW129198   3.513   5.089   3.666
 9433SOL    HW229199   3.556   4.934   3.693
 9434SOL     OW29200   5.476   5.281   3.012
 9434SOL    HW129201   5.514   5.319   3.097
 9434SOL    HW229202   5.546   5.227   2.966
 9435SOL     OW29203   0.784   1.827   4.626
 9435SOL    HW129204   0.701   1.772   4.633
 9435SOL    HW229205   0.841   1.791   4.551
 9436SOL     OW29206   1.281   3.971   2.206
 9436SOL    HW129207   1.367   3.989   2.158
 9436SOL    HW229208   1.205   4.004   2.150
 9437SOL     OW29209   1.599   6.262   3.657
 9437SOL    HW129210   1.676   6.310   3.700
 9437SOL    HW229211   1.602   6.165   3.681
 9438SOL     OW29212   0.972   6.764   1.815
 9438SOL    HW129213   0.959   6.839   1.880
 9438SOL    HW229214   0.916   6.686   1.844
 9439SOL     OW29215   0.398   2.417   2.138
 9439SOL    HW129216   0.311   2.456   2.105
 9439SOL    HW229217   0.474   2.471   2.102
 9440SOL     OW29218   4.605   6.067   4.326
 9440SOL    HW129219   4.636   6.064   4.421
 9440SOL    HW229220   4.575   5.976   4.298
 9441SOL     OW29221   1.658   3.578   5.072
 9441SOL    HW129222   1.713   3.660   5.054
 9441SOL    HW229223   1.563   3.604   5.086
 9442SOL     OW29224   5.093   3.375   0.124
 9442SOL    HW129225   5.121   3.419   0.039
 9442SOL    HW229226   4.996   3.351   0.119
 9443SOL     OW29227   2.608   5.644   1.558
 9443SOL    HW129228   2.707   5.639   1.549
 9443SOL    HW229229   2.584   5.723   1.615
 9444SOL     OW29230   1.540   3.791   6.289
 9444SOL    HW129231   1.500   3.805   6.379
 9444SOL    HW229232   1.604   3.715   6.291
 9445SOL     OW29233   5.675   3.680   2.607
 9445SOL    HW129234   5.703   3.585   2.618
 9445SOL    HW229235   5.575   3.685   2.603
 9446SOL     OW29236   6.507   6.754   3.809
 9446SOL    HW129237   6.547   6.721   3.895
 9446SOL    HW229238   6.409   6.737   3.810
 9447SOL     OW29239   6.375   3.132   3.413
 9447SOL    HW129240   6.302   3.165   3.353
 9447SOL    HW229241   6.460   3.180   3.391
 9448SOL     OW29242   6.763   6.656   6.355
 9448SOL    HW129243   6.798   6.726   6.416
 9448SOL    HW229244   6.665   6.642   6.372
 9449SOL     OW29245   6.569   5.776   6.380
 9449SOL    HW129246   6.610   5.773   6.288
 9449SOL    HW229247   6.548   5.682   6.409
 9450SOL     OW29248   3.358   4.962   4.564
 9450SOL    HW129249   3.313   4.900   4.628
 9450SOL    HW229250   3.291   5.001   4.502
 9451SOL     OW29251   3.780   5.996   6.019
 9451SOL    HW129252   3.777   6.014   6.118
 9451SOL    HW229253   3.706   5.934   5.994
 9452SOL     OW29254   0.889   3.688   0.902
 9452SOL    HW129255   0.986   3.667   0.915
 9452SOL    HW229256   0.877   3.787   0.895
 9453SOL     OW29257   2.114   5.088   3.781
 9453SOL    HW129258   2.139   4.991   3.786
 9453SOL    HW229259   2.197   5.142   3.766
 9454SOL     OW29260   2.235   3.282   5.999
 9454SOL    HW129261   2.142   3.272   6.034
 9454SOL    HW229262   2.274   3.368   6.030
 9455SOL     OW29263   3.997   1.711   2.831
 9455SOL    HW129264   4.025   1.664   2.747
 9455SOL    HW229265   3.928   1.779   2.809
 9456SOL     OW29266   0.912   4.059   0.190
 9456SOL    HW129267   0.877   4.114   0.115
 9456SOL    HW229268   0.996   4.014   0.162
 9457SOL     OW29269   2.284   4.092   5.470
 9457SOL    HW129270   2.382   4.070   5.467
 9457SOL    HW229271   2.235   4.020   5.519
 9458SOL     OW29272   1.390   3.113   6.526
 9458SOL    HW129273   1.293   3.092   6.520
 9458SOL    HW229274   1.409   3.200   6.480
 9459SOL     OW29275   5.854   4.714   2.750
 9459SOL    HW129276   5.775   4.659   2.777
 9459SOL    HW229277   5.930   4.696   2.813
 9460SOL     OW29278   6.719   1.559   4.968
 9460SOL    HW129279   6.764   1.633   4.918
 9460SOL    HW229280   6.633   1.592   5.006
 9461SOL     OW29281   6.613   1.929   2.885
 9461SOL    HW129282   6.529   1.875   2.893
 9461SOL    HW229283   6.673   1.888   2.817
 9462SOL     OW29284   2.145   3.631   3.544
 9462SOL    HW129285   2.162   3.705   3.478
 9462SOL    HW229286   2.113   3.670   3.630
 9463SOL     OW29287   0.548   0.787   1.278
 9463SOL    HW129288   0.532   0.860   1.343
 9463SOL    HW229289   0.606   0.820   1.204
 9464SOL     OW29290   5.761   6.489   0.686
 9464SOL    HW129291   5.714   6.561   0.736
 9464SOL    HW229292   5.796   6.525   0.600
 9465SOL     OW29293   0.545   6.502   3.067
 9465SOL    HW129294   0.497   6.590   3.059
 9465SOL    HW229295   0.481   6.433   3.100
 9466SOL     OW29296   3.787   4.273   5.159
 9466SOL    HW129297   3.738   4.315   5.236
 9466SOL    HW229298   3.754   4.179   5.146
 9467SOL     OW29299   1.429   2.433   1.922
 9467SOL    HW129300   1.524   2.404   1.917
 9467SOL    HW229301   1.412   2.475   2.012
 9468SOL     OW29302   5.904   2.697   6.120
 9468SOL    HW129303   5.895   2.598   6.126
 9468SOL    HW229304   5.817   2.740   6.142
 9469SOL     OW29305   5.683   5.856   1.418
 9469SOL    HW129306   5.652   5.823   1.329
 9469SOL    HW229307   5.768   5.811   1.443
 9470SOL     OW29308   4.675   4.015   5.584
 9470SOL    HW129309   4.655   3.920   5.558
 9470SOL    HW229310   4.721   4.016   5.672
 9471SOL     OW29311   5.874   1.384   4.307
 9471SOL    HW129312   5.798   1.401   4.369
 9471SOL    HW229313   5.855   1.302   4.252
 9472SOL     OW29314   5.978   2.860   4.293
 9472SOL    HW129315   6.019   2.944   4.258
 9472SOL    HW229316   5.915   2.823   4.226
 9473SOL     OW29317   2.531   4.937   5.517
 9473SOL    HW129318   2.570   4.897   5.600
 9473SOL    HW229319   2.531   5.037   5.526
 9474SOL     OW29320   6.364   2.754   6.929
 9474SOL    HW129321   6.381   2.674   6.986
 9474SOL    HW229322   6.450   2.800   6.909
 9475SOL     OW29323   3.106   3.611   0.456
 9475SOL    HW129324   3.030   3.674   0.445
 9475SOL    HW229325   3.191   3.663   0.464
 9476SOL     OW29326   2.912   3.254   4.902
 9476SOL    HW129327   2.972   3.183   4.865
 9476SOL    HW229328   2.820   3.217   4.915
 9477SOL     OW29329   0.489   3.124   2.807
 9477SOL    HW129330   0.435   3.131   2.723
 9477SOL    HW229331   0.433   3.084   2.879
 9478SOL     OW29332   4.643   3.208   5.745
 9478SOL    HW129333   4.555   3.217   5.698
 9478SOL    HW229334   4.633   3.144   5.821
 9479SOL     OW29335   5.532   6.343   6.988
 9479SOL    HW129336   5.577   6.287   6.918
 9479SOL    HW229337   5.594   6.415   0.001
 9480SOL     OW29338   5.083   4.224   0.324
 9480SOL    HW129339   5.159   4.167   0.355
 9480SOL    HW229340   5.097   4.318   0.357
 9481SOL     OW29341   5.865   3.522   1.497
 9481SOL    HW129342   5.768   3.546   1.509
 9481SOL    HW229343   5.883   3.500   1.401
 9482SOL     OW29344   6.557   0.742   2.983
 9482SOL    HW129345   6.551   0.642   2.978
 9482SOL    HW229346   6.647   0.768   3.017
 9483SOL     OW29347   1.535   1.909   1.311
 9483SOL    HW129348   1.449   1.892   1.262
 9483SOL    HW229349   1.560   1.827   1.364
 9484SOL     OW29350   4.028   1.234   3.185
 9484SOL    HW129351   4.021   1.325   3.226
 9484SOL    HW229352   3.991   1.166   3.248
 9485SOL     OW29353   0.833   0.084   2.367
 9485SOL    HW129354   0.759   0.058   2.430
 9485SOL    HW229355   0.909   0.020   2.377
 9486SOL     OW29356   2.651   4.942   1.576
 9486SOL    HW129357   2.600   4.875   1.522
 9486SOL    HW229358   2.677   4.901   1.664
 9487SOL     OW29359   3.009   3.382   3.030
 9487SOL    HW129360   2.967   3.356   3.117
 9487SOL    HW229361   3.032   3.479   3.031
 9488SOL     OW29362   2.551   6.244   1.156
 9488SOL    HW129363   2.471   6.200   1.117
 9488SOL    HW229364   2.556   6.339   1.125
 9489SOL     OW29365   3.971   4.057   1.410
 9489SOL    HW129366   3.887   4.007   1.432
 9489SOL    HW229367   4.043   3.991   1.386
 9490SOL     OW29368   6.291   5.867   1.076
 9490SOL    HW129369   6.326   5.779   1.044
 9490SOL    HW229370   6.243   5.913   1.001
 9491SOL     OW29371   6.756   4.291   3.568
 9491SOL    HW129372   6.849   4.259   3.548
 9491SOL    HW229373   6.721   4.344   3.491
 9492SOL     OW29374   3.648   3.119   2.981
 9492SOL    HW129375   3.651   3.019   2.980
 9492SOL    HW229376   3.592   3.152   2.904
 9493SOL     OW29377   4.297   5.203   4.172
 9493SOL    HW129378   4.271   5.149   4.092
 9493SOL    HW229379   4.397   5.210   4.176
 9494SOL     OW29380   4.471   4.462   1.579
 9494SOL    HW129381   4.434   4.470   1.671
 9494SOL    HW229382   4.568   4.438   1.584
 9495SOL     OW29383   5.864   1.864   4.763
 9495SOL    HW129384   5.956   1.827   4.751
 9495SOL    HW229385   5.853   1.900   4.855
 9496SOL     OW29386   5.554   4.935   0.835
 9496SOL    HW129387   5.508   5.017   0.800
 9496SOL    HW229388   5.485   4.865   0.856
 9497SOL     OW29389   5.969   4.608   0.180
 9497SOL    HW129390   5.894   4.608   0.114
 9497SOL    HW229391   6.027   4.528   0.165
 9498SOL     OW29392   5.201   0.282   5.528
 9498SOL    HW129393   5.274   0.296   5.595
 9498SOL    HW229394   5.173   0.371   5.491
 9499SOL     OW29395   2.599   4.136   5.901
 9499SOL    HW129396   2.504   4.165   5.916
 9499SOL    HW229397   2.637   4.102   5.987
 9500SOL     OW29398   4.271   0.544   1.529
 9500SOL    HW129399   4.241   0.480   1.458
 9500SOL    HW229400   4.266   0.638   1.494
 9501SOL     OW29401   3.295   1.616   4.778
 9501SOL    HW129402   3.287   1.543   4.846
 9501SOL    HW229403   3.249   1.698   4.812
 9502SOL     OW29404   0.463   2.018   4.346
 9502SOL    HW129405   0.494   1.925   4.326
 9502SOL    HW229406   0.431   2.061   4.262
 9503SOL     OW29407   0.334   1.713   1.290
 9503SOL    HW129408   0.320   1.617   1.313
 9503SOL    HW229409   0.408   1.721   1.224
 9504SOL     OW29410   0.561   1.734   0.541
 9504SOL    HW129411   0.572   1.676   0.621
 9504SOL    HW229412   0.475   1.784   0.547
 9505SOL     OW29413   5.429   4.011   4.121
 9505SOL    HW129414   5.486   4.017   4.203
 9505SOL    HW229415   5.480   4.049   4.043
 9506SOL     OW29416   0.517   3.500   6.688
 9506SOL    HW129417   0.485   3.530   6.778
 9506SOL    HW229418   0.507   3.401   6.680
 9507SOL     OW29419   1.274   0.994   3.747
 9507SOL    HW129420   1.219   1.077   3.757
 9507SOL    HW229421   1.371   1.019   3.746
 9508SOL     OW29422   5.578   3.407   0.810
 9508SOL    HW129423   5.489   3.367   0.790
 9508SOL    HW229424   5.591   3.413   0.909
 9509SOL     OW29425   0.702   0.346   5.723
 9509SOL    HW129426   0.653   0.425   5.686
 9509SOL    HW229427   0.662   0.321   5.811
 9510SOL     OW29428   0.935   4.455   1.971
 9510SOL    HW129429   0.908   4.519   2.044
 9510SOL    HW229430   0.875   4.468   1.892
 9511SOL     OW29431   0.355   1.453   6.886
 9511SOL    HW129432   0.286   1.414   6.826
 9511SOL    HW229433   0.436   1.395   6.886
 9512SOL     OW29434   5.709   1.141   2.341
 9512SOL    HW129435   5.798   1.105   2.315
 9512SOL    HW229436   5.642   1.067   2.340
 9513SOL     OW29437   1.717   3.216   5.256
 9513SOL    HW129438   1.728   3.147   5.328
 9513SOL    HW229439   1.800   3.220   5.201
 9514SOL     OW29440   2.536   4.690   6.962
 9514SOL    HW129441   2.447   4.710   6.921
 9514SOL    HW229442   2.531   4.703   0.043
 9515SOL     OW29443   1.433   5.777   0.439
 9515SOL    HW129444   1.397   5.716   0.369
 9515SOL    HW229445   1.388   5.759   0.526
 9516SOL     OW29446   5.592   3.604   5.259
 9516SOL    HW129447   5.549   3.665   5.193
 9516SOL    HW229448   5.683   3.640   5.282
 9517SOL     OW29449   1.813   4.710   6.962
 9517SOL    HW129450   1.826   4.654   6.880
 9517SOL    HW229451   1.867   4.672   0.019
 9518SOL     OW29452   1.121   2.233   0.206
 9518SOL    HW129453   1.032   2.241   0.161
 9518SOL    HW229454   1.188   2.290   0.157
 9519SOL     OW29455   3.806   3.350   4.087
 9519SOL    HW129456   3.878   3.402   4.133
 9519SOL    HW229457   3.747   3.308   4.156
 9520SOL     OW29458   6.843   1.220   2.470
 9520SOL    HW129459   6.773   1.216   2.398
 9520SOL    HW229460   6.860   1.315   2.494
 9521SOL     OW29461   3.668   4.191   1.089
 9521SOL    HW129462   3.634   4.284   1.100
 9521SOL    HW229463   3.661   4.142   1.175
 9522SOL     OW29464   4.456   5.818   2.517
 9522SOL    HW129465   4.390   5.758   2.473
 9522SOL    HW229466   4.424   5.842   2.609
 9523SOL     OW29467   2.668   5.237   5.011
 9523SOL    HW129468   2.701   5.156   5.059
 9523SOL    HW229469   2.576   5.220   4.975
 9524SOL     OW29470   2.251   2.609   0.309
 9524SOL    HW129471   2.170   2.550   0.310
 9524SOL    HW229472   2.331   2.554   0.285
 9525SOL     OW29473   1.917   2.034   5.160
 9525SOL    HW129474   1.912   1.943   5.203
 9525SOL    HW229475   1.858   2.098   5.209
 9526SOL     OW29476   6.070   4.158   1.407
 9526SOL    HW129477   6.083   4.122   1.499
 9526SOL    HW229478   6.155   4.150   1.355
 9527SOL     OW29479   2.000   0.696   5.334
 9527SOL    HW129480   2.032   0.613   5.288
 9527SOL    HW229481   2.077   0.741   5.379
 9528SOL     OW29482   6.828   1.802   6.993
 9528SOL    HW129483   6.862   1.716   0.014
 9528SOL    HW229484   6.884   1.828   6.915
 9529SOL     OW29485   6.116   3.508   6.340
 9529SOL    HW129486   6.023   3.475   6.356
 9529SOL    HW229487   6.154   3.542   6.426
 9530SOL     OW29488   1.423   3.050   3.727
 9530SOL    HW129489   1.332   3.049   3.769
 9530SOL    HW229490   1.425   2.987   3.649
 9531SOL     OW29491   4.964   4.255   2.195
 9531SOL    HW129492   4.875   4.277   2.236
 9531SOL    HW229493   4.994   4.165   2.227
 9532SOL     OW29494   0.022   5.335   1.072
 9532SOL    HW129495   6.957   5.306   1.024
 9532SOL    HW229496   0.042   5.431   1.050
 9533SOL     OW29497   0.654   5.977   4.826
 9533SOL    HW129498   0.727   6.043   4.810
 9533SOL    HW229499   0.693   5.890   4.858
 9534SOL     OW29500   6.090   4.187   5.101
 9534SOL    HW129501   6.057   4.094   5.088
 9534SOL    HW229502   6.181   4.184   5.144
 9535SOL     OW29503   2.225   0.454   5.689
 9535SOL    HW129504   2.167   0.425   5.613
 9535SOL    HW229505   2.316   0.479   5.655
 9536SOL     OW29506   3.040   3.925   5.240
 9536SOL    HW129507   2.999   4.003   5.287
 9536SOL    HW229508   3.140   3.932   5.243
 9537SOL     OW29509   2.191   0.579   4.359
 9537SOL    HW129510   2.289   0.564   4.349
 9537SOL    HW229511   2.149   0.498   4.401
 9538SOL     OW29512   5.223   1.023   4.424
 9538SOL    HW129513   5.228   1.002   4.327
 9538SOL    HW229514   5.276   0.956   4.476
 9539SOL     OW29515   3.529   4.158   4.383
 9539SOL    HW129516   3.621   4.151   4.345
 9539SOL    HW229517   3.525   4.109   4.470
 9540SOL     OW29518   5.765   4.598   4.172
 9540SOL    HW129519   5.792   4.602   4.269
 9540SOL    HW229520   5.702   4.673   4.152
 9541SOL     OW29521   2.756   0.185   6.049
 9541SOL    HW129522   2.835   0.158   6.103
 9541SOL    HW229523   2.729   0.109   5.989
 9542SOL     OW29524   5.000   4.494   5.070
 9542SOL    HW129525   5.092   4.455   5.063
 9542SOL    HW229526   4.940   4.427   5.113
 9543SOL     OW29527   3.638   0.904   6.182
 9543SOL    HW129528   3.542   0.913   6.153
 9543SOL    HW229529   3.650   0.816   6.229
 9544SOL     OW29530   5.780   2.847   3.885
 9544SOL    HW129531   5.727   2.906   3.824
 9544SOL    HW229532   5.780   2.753   3.849
 9545SOL     OW29533   5.700   5.731   3.462
 9545SOL    HW129534   5.788   5.684   3.469
 9545SOL    HW229535   5.644   5.686   3.391
 9546SOL     OW29536   3.471   2.147   5.945
 9546SOL    HW129537   3.525   2.202   6.008
 9546SOL    HW229538   3.418   2.207   5.885
 9547SOL     OW29539   2.351   5.372   4.141
 9547SOL    HW129540   2.272   5.314   4.160
 9547SOL    HW229541   2.358   5.442   4.212
 9548SOL     OW29542   0.082   4.667   5.132
 9548SOL    HW129543   0.021   4.731   5.178
 9548SOL    HW229544   0.110   4.595   5.196
 9549SOL     OW29545   3.084   2.291   1.510
 9549SOL    HW129546   3.120   2.347   1.436
 9549SOL    HW229547   2.985   2.283   1.500
 9550SOL     OW29548   0.183   0.583   0.331
 9550SOL    HW129549   0.125   0.554   0.407
 9550SOL    HW229550   0.178   0.683   0.322
 9551SOL     OW29551   6.163   2.795   6.209
 9551SOL    HW129552   6.099   2.718   6.210
 9551SOL    HW229553   6.112   2.880   6.200
 9552SOL     OW29554   2.251   6.328   4.663
 9552SOL    HW129555   2.270   6.238   4.703
 9552SOL    HW229556   2.199   6.383   4.728
 9553SOL     OW29557   5.627   2.622   6.261
 9553SOL    HW129558   5.613   2.643   6.357
 9553SOL    HW229559   5.572   2.542   6.236
 9554SOL     OW29560   3.072   0.192   3.111
 9554SOL    HW129561   3.120   0.245   3.041
 9554SOL    HW229562   2.975   0.216   3.110
 9555SOL     OW29563   1.018   1.607   2.328
 9555SOL    HW129564   1.107   1.591   2.370
 9555SOL    HW229565   1.027   1.674   2.255
 9556SOL     OW29566   1.988   4.081   2.120
 9556SOL    HW129567   2.053   4.020   2.075
 9556SOL    HW229568   2.030   4.172   2.130
 9557SOL     OW29569   6.646   6.092   1.559
 9557SOL    HW129570   6.604   6.177   1.526
 9557SOL    HW229571   6.639   6.087   1.658
 9558SOL     OW29572   6.097   5.988   5.937
 9558SOL    HW129573   6.012   5.940   5.912
 9558SOL    HW229574   6.080   6.042   6.019
 9559SOL     OW29575   0.552   4.557   0.840
 9559SOL    HW129576   0.608   4.587   0.763
 9559SOL    HW229577   0.558   4.625   0.913
 9560SOL     OW29578   2.739   0.898   3.360
 9560SOL    HW129579   2.738   0.822   3.425
 9560SOL    HW229580   2.714   0.983   3.407
 9561SOL     OW29581   1.897   0.773   0.903
 9561SOL    HW129582   1.957   0.806   0.976
 9561SOL    HW229583   1.888   0.674   0.910
 9562SOL     OW29584   2.616   0.440   5.758
 9562SOL    HW129585   2.588   0.431   5.854
 9562SOL    HW229586   2.591   0.532   5.725
 9563SOL     OW29587   6.939   6.409   0.768
 9563SOL    HW129588   6.932   6.458   0.681
 9563SOL    HW229589   6.853   6.362   0.787
 9564SOL     OW29590   2.312   1.125   0.935
 9564SOL    HW129591   2.270   1.172   1.013
 9564SOL    HW229592   2.360   1.043   0.968
 9565SOL     OW29593   4.488   1.247   4.811
 9565SOL    HW129594   4.393   1.227   4.837
 9565SOL    HW229595   4.531   1.164   4.775
 9566SOL     OW29596   2.839   5.217   6.854
 9566SOL    HW129597   2.783   5.298   6.840
 9566SOL    HW229598   2.839   5.192   6.951
 9567SOL     OW29599   4.706   4.968   0.643
 9567SOL    HW129600   4.648   4.967   0.725
 9567SOL    HW229601   4.796   4.931   0.666
 9568SOL     OW29602   4.121   2.661   6.192
 9568SOL    HW129603   4.131   2.743   6.135
 9568SOL    HW229604   4.185   2.591   6.161
 9569SOL     OW29605   6.335   1.046   2.410
 9569SOL    HW129606   6.261   0.989   2.443
 9569SOL    HW229607   6.352   1.120   2.476
 9570SOL     OW29608   0.680   3.398   1.792
 9570SOL    HW129609   0.727   3.386   1.879
 9570SOL    HW229610   0.582   3.388   1.805
 9571SOL     OW29611   3.541   3.671   6.090
 9571SOL    HW129612   3.583   3.650   6.002
 9571SOL    HW229613   3.577   3.609   6.160
 9572SOL     OW29614   2.266   4.586   2.153
 9572SOL    HW129615   2.255   4.663   2.215
 9572SOL    HW229616   2.355   4.591   2.107
 9573SOL     OW29617   1.077   2.652   6.630
 9573SOL    HW129618   1.165   2.606   6.615
 9573SOL    HW229619   1.093   2.749   6.648
 9574SOL     OW29620   3.937   3.564   3.129
 9574SOL    HW129621   3.895   3.499   3.065
 9574SOL    HW229622   3.998   3.515   3.191
 9575SOL     OW29623   0.487   1.028   1.451
 9575SOL    HW129624   0.541   1.022   1.534
 9575SOL    HW229625   0.419   1.101   1.460
 9576SOL     OW29626   1.874   1.610   1.392
 9576SOL    HW129627   1.781   1.608   1.428
 9576SOL    HW229628   1.903   1.706   1.383
 9577SOL     OW29629   0.947   0.443   6.070
 9577SOL    HW129630   1.013   0.430   5.995
 9577SOL    HW229631   0.890   0.362   6.079
 9578SOL     OW29632   0.656   4.048   3.281
 9578SOL    HW129633   0.702   3.975   3.332
 9578SOL    HW229634   0.581   4.010   3.228
 9579SOL     OW29635   1.239   5.027   3.282
 9579SOL    HW129636   1.256   4.978   3.368
 9579SOL    HW229637   1.270   5.122   3.292
 9580SOL     OW29638   4.954   3.533   0.926
 9580SOL    HW129639   4.965   3.601   0.854
 9580SOL    HW229640   4.872   3.478   0.907
 9581SOL     OW29641   0.455   6.316   5.754
 9581SOL    HW129642   0.465   6.394   5.692
 9581SOL    HW229643   0.370   6.267   5.732
 9582SOL     OW29644   4.440   5.395   6.020
 9582SOL    HW129645   4.444   5.303   6.059
 9582SOL    HW229646   4.505   5.402   5.945
 9583SOL     OW29647   3.652   4.184   1.559
 9583SOL    HW129648   3.585   4.225   1.621
 9583SOL    HW229649   3.610   4.107   1.510
 9584SOL     OW29650   0.099   5.363   6.732
 9584SOL    HW129651   0.162   5.439   6.714
 9584SOL    HW229652   0.081   5.314   6.646
 9585SOL     OW29653   6.363   0.025   4.498
 9585SOL    HW129654   6.422   0.100   4.527
 9585SOL    HW229655   6.419   6.969   4.459
 9586SOL     OW29656   5.589   4.614   2.417
 9586SOL    HW129657   5.684   4.640   2.435
 9586SOL    HW229658   5.586   4.521   2.380
 9587SOL     OW29659   0.746   0.523   1.743
 9587SOL    HW129660   0.705   0.438   1.708
 9587SOL    HW229661   0.685   0.563   1.812
 9588SOL     OW29662   6.807   1.024   1.135
 9588SOL    HW129663   6.868   1.026   1.215
 9588SOL    HW229664   6.713   1.009   1.165
 9589SOL     OW29665   2.461   4.941   6.629
 9589SOL    HW129666   2.469   4.877   6.705
 9589SOL    HW229667   2.518   5.021   6.648
 9590SOL     OW29668   6.449   2.926   1.935
 9590SOL    HW129669   6.462   2.835   1.973
 9590SOL    HW229670   6.521   2.987   1.968
 9591SOL     OW29671   3.064   5.969   5.756
 9591SOL    HW129672   2.982   6.021   5.733
 9591SOL    HW229673   3.060   5.879   5.712
 9592SOL     OW29674   3.653   4.528   0.617
 9592SOL    HW129675   3.557   4.551   0.605
 9592SOL    HW229676   3.695   4.591   0.682
 9593SOL     OW29677   0.504   1.035   5.976
 9593SOL    HW129678   0.537   0.951   6.020
 9593SOL    HW229679   0.434   1.078   6.034
 9594SOL     OW29680   1.176   4.935   2.834
 9594SOL    HW129681   1.140   5.027   2.845
 9594SOL    HW229682   1.174   4.909   2.737
 9595SOL     OW29683   0.752   3.200   4.871
 9595SOL    HW129684   0.760   3.298   4.853
 9595SOL    HW229685   0.836   3.154   4.842
 9596SOL     OW29686   0.329   5.531   6.260
 9596SOL    HW129687   0.246   5.585   6.273
 9596SOL    HW229688   0.402   5.567   6.318
 9597SOL     OW29689   0.855   4.253   1.531
 9597SOL    HW129690   0.837   4.308   1.450
 9597SOL    HW229691   0.878   4.160   1.504
 9598SOL     OW29692   1.473   4.118   4.039
 9598SOL    HW129693   1.381   4.113   3.998
 9598SOL    HW229694   1.541   4.098   3.968
 9599SOL     OW29695   3.191   0.182   4.826
 9599SOL    HW129696   3.288   0.169   4.848
 9599SOL    HW229697   3.156   0.100   4.781
 9600SOL     OW29698   2.498   6.736   6.759
 9600SOL    HW129699   2.426   6.694   6.815
 9600SOL    HW229700   2.485   6.709   6.663
 9601SOL     OW29701   4.765   3.975   0.678
 9601SOL    HW129702   4.699   3.970   0.603
 9601SOL    HW229703   4.856   3.993   0.641
 9602SOL     OW29704   6.302   5.149   5.908
 9602SOL    HW129705   6.328   5.060   5.872
 9602SOL    HW229706   6.371   5.179   5.975
 9603SOL     OW29707   3.571   1.936   3.812
 9603SOL    HW129708   3.614   2.013   3.763
 9603SOL    HW229709   3.569   1.856   3.751
 9604SOL     OW29710   4.764   0.354   6.540
 9604SOL    HW129711   4.785   0.257   6.526
 9604SOL    HW229712   4.848   0.406   6.548
 9605SOL     OW29713   0.658   5.205   3.586
 9605SOL    HW129714   0.703   5.133   3.533
 9605SOL    HW229715   0.717   5.286   3.590
 9606SOL     OW29716   1.609   6.520   6.740
 9606SOL    HW129717   1.652   6.596   6.789
 9606SOL    HW229718   1.631   6.526   6.643
 9607SOL     OW29719   1.689   1.967   0.440
 9607SOL    HW129720   1.609   2.026   0.454
 9607SOL    HW229721   1.760   1.992   0.505
 9608SOL     OW29722   6.873   5.203   3.033
 9608SOL    HW129723   6.973   5.200   3.030
 9608SOL    HW229724   6.840   5.270   2.966
 9609SOL     OW29725   2.514   4.395   6.894
 9609SOL    HW129726   2.548   4.488   6.876
 9609SOL    HW229727   2.572   4.329   6.846
 9610SOL     OW29728   1.484   4.961   4.038
 9610SOL    HW129729   1.439   4.919   4.117
 9610SOL    HW229730   1.579   4.982   4.062
 9611SOL     OW29731   0.679   6.303   6.644
 9611SOL    HW129732   0.769   6.344   6.662
 9611SOL    HW229733   0.608   6.374   6.649
 9612SOL     OW29734   0.667   4.096   1.746
 9612SOL    HW129735   0.702   4.070   1.656
 9612SOL    HW229736   0.569   4.116   1.738
 9613SOL     OW29737   5.157   6.324   3.015
 9613SOL    HW129738   5.236   6.360   3.064
 9613SOL    HW229739   5.075   6.374   3.043
 9614SOL     OW29740   2.952   1.890   0.675
 9614SOL    HW129741   2.885   1.877   0.602
 9614SOL    HW229742   3.043   1.905   0.635
 9615SOL     OW29743   1.420   7.016   0.011
 9615SOL    HW129744   1.332   6.969   0.002
 9615SOL    HW229745   1.439   0.014   0.108
 9616SOL     OW29746   4.355   3.944   1.476
 9616SOL    HW129747   4.258   3.937   1.497
 9616SOL    HW229748   4.397   4.015   1.533
 9617SOL     OW29749   2.213   2.792   3.009
 9617SOL    HW129750   2.222   2.866   3.076
 9617SOL    HW229751   2.195   2.830   2.919
 9618SOL     OW29752   3.922   6.994   5.431
 9618SOL    HW129753   3.987   6.937   5.382
 9618SOL    HW229754   3.942   6.990   5.529
 9619SOL     OW29755   0.977   0.362   0.477
 9619SOL    HW129756   0.887   0.322   0.465
 9619SOL    HW229757   1.046   0.302   0.435
 9620SOL     OW29758   4.563   2.089   6.595
 9620SOL    HW129759   4.486   2.141   6.558
 9620SOL    HW229760   4.559   2.091   6.695
 9621SOL     OW29761   1.061   0.950   1.923
 9621SOL    HW129762   1.016   1.031   1.887
 9621SOL    HW229763   1.158   0.969   1.938
 9622SOL     OW29764   6.772   1.033   6.848
 9622SOL    HW129765   6.751   0.981   6.764
 9622SOL    HW229766   6.839   1.104   6.827
 9623SOL     OW29767   3.032   4.438   6.095
 9623SOL    HW129768   3.076   4.509   6.039
 9623SOL    HW229769   3.018   4.356   6.040
 9624SOL     OW29770   0.042   4.789   2.344
 9624SOL    HW129771   0.010   4.849   2.270
 9624SOL    HW229772   0.008   4.696   2.328
 9625SOL     OW29773   5.227   5.456   0.176
 9625SOL    HW129774   5.174   5.438   0.094
 9625SOL    HW229775   5.276   5.542   0.166
 9626SOL     OW29776   3.088   5.993   0.029
 9626SOL    HW129777   3.127   6.008   0.120
 9626SOL    HW229778   3.019   6.063   0.011
 9627SOL     OW29779   6.828   6.078   3.081
 9627SOL    HW129780   6.789   6.098   3.171
 9627SOL    HW229781   6.860   6.164   3.040
 9628SOL     OW29782   5.570   4.803   0.249
 9628SOL    HW129783   5.657   4.785   0.295
 9628SOL    HW229784   5.579   4.782   0.152
 9629SOL     OW29785   0.479   6.940   2.373
 9629SOL    HW129786   0.526   6.852   2.367
 9629SOL    HW229787   0.540   7.007   2.417
 9630SOL     OW29788   6.306   6.089   6.175
 9630SOL    HW129789   6.214   6.126   6.162
 9630SOL    HW229790   6.355   6.091   6.088
 9631SOL     OW29791   6.181   6.994   6.982
 9631SOL    HW129792   6.120   6.988   0.043
 9631SOL    HW229793   6.258   6.931   6.996
 9632SOL     OW29794   2.318   5.711   2.531
 9632SOL    HW129795   2.283   5.618   2.520
 9632SOL    HW229796   2.388   5.729   2.463
 9633SOL     OW29797   5.407   5.223   0.148
 9633SOL    HW129798   5.407   5.318   0.115
 9633SOL    HW229799   5.317   5.183   0.135
 9634SOL     OW29800   0.794   0.015   3.803
 9634SOL    HW129801   0.783   7.007   3.707
 9634SOL    HW229802   0.767   0.111   3.815
 9635SOL     OW29803   1.522   4.787   5.650
 9635SOL    HW129804   1.618   4.763   5.634
 9635SOL    HW229805   1.479   4.810   5.563
 9636SOL     OW29806   3.752   2.004   6.425
 9636SOL    HW129807   3.845   2.039   6.410
 9636SOL    HW229808   3.686   2.064   6.380
 9637SOL     OW29809   3.100   1.637   6.709
 9637SOL    HW129810   3.021   1.637   6.771
 9637SOL    HW229811   3.072   1.674   6.620
 9638SOL     OW29812   6.835   3.292   6.702
 9638SOL    HW129813   6.840   3.336   6.613
 9638SOL    HW229814   6.761   3.225   6.702
 9639SOL     OW29815   3.919   1.715   2.208
 9639SOL    HW129816   3.835   1.768   2.223
 9639SOL    HW229817   3.998   1.777   2.206
 9640SOL     OW29818   2.889   1.815   2.791
 9640SOL    HW129819   2.851   1.769   2.872
 9640SOL    HW229820   2.832   1.795   2.711
 9641SOL     OW29821   4.965   6.051   0.957
 9641SOL    HW129822   4.974   5.953   0.937
 9641SOL    HW229823   4.922   6.064   1.046
 9642SOL     OW29824   3.344   6.196   5.478
 9642SOL    HW129825   3.352   6.203   5.578
 9642SOL    HW229826   3.434   6.175   5.439
 9643SOL     OW29827   5.984   4.789   4.404
 9643SOL    HW129828   5.982   4.885   4.375
 9643SOL    HW229829   5.961   4.783   4.501
 9644SOL     OW29830   0.993   4.938   5.688
 9644SOL    HW129831   0.916   4.970   5.632
 9644SOL    HW229832   1.064   5.009   5.689
 9645SOL     OW29833   4.024   4.764   4.002
 9645SOL    HW129834   3.998   4.851   4.043
 9645SOL    HW229835   3.978   4.689   4.049
 9646SOL     OW29836   2.788   4.808   2.143
 9646SOL    HW129837   2.792   4.738   2.071
 9646SOL    HW229838   2.801   4.898   2.103
 9647SOL     OW29839   6.526   5.301   1.482
 9647SOL    HW129840   6.460   5.373   1.464
 9647SOL    HW229841   6.618   5.332   1.458
 9648SOL     OW29842   3.630   2.153   6.704
 9648SOL    HW129843   3.688   2.084   6.661
 9648SOL    HW229844   3.593   2.117   6.790
 9649SOL     OW29845   2.835   5.751   0.076
 9649SOL    HW129846   2.932   5.729   0.084
 9649SOL    HW229847   2.810   5.757   6.997
 9650SOL     OW29848   5.292   4.801   2.999
 9650SOL    HW129849   5.320   4.818   2.905
 9650SOL    HW229850   5.325   4.711   3.028
 9651SOL     OW29851   0.016   0.544   6.571
 9651SOL    HW129852   0.109   0.556   6.606
 9651SOL    HW229853   0.017   0.475   6.499
 9652SOL     OW29854   2.090   4.724   0.559
 9652SOL    HW129855   2.151   4.776   0.619
 9652SOL    HW229856   2.138   4.644   0.524
 9653SOL     OW29857   4.056   5.064   4.840
 9653SOL    HW129858   4.093   5.115   4.763
 9653SOL    HW229859   3.957   5.079   4.847
 9654SOL     OW29860   4.178   3.396   1.733
 9654SOL    HW129861   4.245   3.323   1.722
 9654SOL    HW229862   4.156   3.406   1.830
 9655SOL     OW29863   0.283   1.906   6.935
 9655SOL    HW129864   0.264   1.899   0.015
 9655SOL    HW229865   0.382   1.911   6.921
 9656SOL     OW29866   3.385   2.336   0.884
 9656SOL    HW129867   3.408   2.380   0.971
 9656SOL    HW229868   3.290   2.305   0.886
 9657SOL     OW29869   6.447   1.954   3.713
 9657SOL    HW129870   6.530   1.942   3.658
 9657SOL    HW229871   6.431   1.872   3.768
 9658SOL     OW29872   6.073   1.578   2.578
 9658SOL    HW129873   6.131   1.558   2.657
 9658SOL    HW229874   6.048   1.675   2.578
 9659SOL     OW29875   0.143   4.096   0.061
 9659SOL    HW129876   0.165   4.169   7.015
 9659SOL    HW229877   0.066   4.123   0.118
 9660SOL     OW29878   0.449   5.684   1.264
 9660SOL    HW129879   0.441   5.714   1.169
 9660SOL    HW229880   0.388   5.607   1.280
 9661SOL     OW29881   3.819   6.461   1.870
 9661SOL    HW129882   3.822   6.507   1.782
 9661SOL    HW229883   3.881   6.383   1.870
 9662SOL     OW29884   4.719   2.944   5.134
 9662SOL    HW129885   4.762   2.854   5.145
 9662SOL    HW229886   4.707   2.963   5.037
 9663SOL     OW29887   0.895   6.547   4.524
 9663SOL    HW129888   0.958   6.475   4.551
 9663SOL    HW229889   0.868   6.600   4.604
 9664SOL     OW29890   6.047   6.214   3.843
 9664SOL    HW129891   5.965   6.255   3.883
 9664SOL    HW229892   6.028   6.121   3.814
 9665SOL     OW29893   5.671   5.839   0.091
 9665SOL    HW129894   5.620   5.763   0.131
 9665SOL    HW229895   5.716   5.892   0.163
 9666SOL     OW29896   5.833   4.485   1.313
 9666SOL    HW129897   5.783   4.571   1.319
 9666SOL    HW229898   5.824   4.435   1.398
 9667SOL     OW29899   3.658   3.680   4.505
 9667SOL    HW129900   3.657   3.599   4.446
 9667SOL    HW229901   3.635   3.761   4.451
 9668SOL     OW29902   6.388   1.638   6.760
 9668SOL    HW129903   6.482   1.645   6.793
 9668SOL    HW229904   6.333   1.589   6.828
 9669SOL     OW29905   1.440   0.170   1.849
 9669SOL    HW129906   1.449   0.246   1.785
 9669SOL    HW229907   1.510   0.176   1.920
 9670SOL     OW29908   5.460   4.724   6.599
 9670SOL    HW129909   5.469   4.627   6.578
 9670SOL    HW229910   5.526   4.749   6.670
 9671SOL     OW29911   6.103   5.439   6.673
 9671SOL    HW129912   6.049   5.471   6.751
 9671SOL    HW229913   6.043   5.426   6.594
 9672SOL     OW29914   1.164   5.994   4.886
 9672SOL    HW129915   1.170   6.034   4.978
 9672SOL    HW229916   1.078   6.024   4.843
 9673SOL     OW29917   6.093   3.814   0.309
 9673SOL    HW129918   6.098   3.752   0.387
 9673SOL    HW229919   6.070   3.762   0.227
 9674SOL     OW29920   2.316   5.580   3.381
 9674SOL    HW129921   2.400   5.631   3.400
 9674SOL    HW229922   2.281   5.541   3.466
 9675SOL     OW29923   5.856   1.931   0.550
 9675SOL    HW129924   5.843   1.850   0.494
 9675SOL    HW229925   5.808   2.008   0.510
 9676SOL     OW29926   1.380   3.639   5.108
 9676SOL    HW129927   1.381   3.556   5.164
 9676SOL    HW229928   1.362   3.719   5.166
 9677SOL     OW29929   1.930   5.611   5.156
 9677SOL    HW129930   1.889   5.527   5.123
 9677SOL    HW229931   1.858   5.679   5.173
 9678SOL     OW29932   3.288   3.371   3.079
 9678SOL    HW129933   3.369   3.349   3.134
 9678SOL    HW229934   3.207   3.364   3.137
 9679SOL     OW29935   1.983   0.846   2.560
 9679SOL    HW129936   1.974   0.832   2.461
 9679SOL    HW229937   2.067   0.897   2.579
 9680SOL     OW29938   5.796   0.880   3.165
 9680SOL    HW129939   5.814   0.784   3.187
 9680SOL    HW229940   5.867   0.938   3.206
 9681SOL     OW29941   3.817   1.263   0.162
 9681SOL    HW129942   3.799   1.349   0.211
 9681SOL    HW229943   3.738   1.239   0.106
 9682SOL     OW29944   5.139   4.988   3.863
 9682SOL    HW129945   5.173   5.073   3.822
 9682SOL    HW229946   5.045   4.973   3.835
 9683SOL     OW29947   2.956   5.554   1.095
 9683SOL    HW129948   2.858   5.551   1.114
 9683SOL    HW229949   2.971   5.535   0.998
 9684SOL     OW29950   0.489   2.574   4.825
 9684SOL    HW129951   0.461   2.655   4.774
 9684SOL    HW229952   0.496   2.597   4.922
 9685SOL     OW29953   1.806   3.739   1.014
 9685SOL    HW129954   1.770   3.733   1.107
 9685SOL    HW229955   1.895   3.783   1.015
 9686SOL     OW29956   6.826   1.918   0.441
 9686SOL    HW129957   6.925   1.930   0.444
 9686SOL    HW229958   6.797   1.855   0.512
 9687SOL     OW29959   2.129   1.008   4.192
 9687SOL    HW129960   2.225   1.027   4.168
 9687SOL    HW229961   2.124   0.970   4.284
 9688SOL     OW29962   6.597   1.988   3.249
 9688SOL    HW129963   6.503   1.999   3.279
 9688SOL    HW229964   6.627   2.071   3.201
 9689SOL     OW29965   1.833   5.885   0.224
 9689SOL    HW129966   1.782   5.814   0.272
 9689SOL    HW229967   1.875   5.947   0.290
 9690SOL     OW29968   5.658   5.943   6.582
 9690SOL    HW129969   5.683   5.926   6.677
 9690SOL    HW229970   5.579   5.887   6.558
 9691SOL     OW29971   3.130   4.991   2.177
 9691SOL    HW129972   3.185   4.944   2.108
 9691SOL    HW229973   3.038   5.008   2.141
 9692SOL     OW29974   3.223   5.462   2.799
 9692SOL    HW129975   3.310   5.419   2.774
 9692SOL    HW229976   3.173   5.403   2.863
 9693SOL     OW29977   6.463   5.908   1.743
 9693SOL    HW129978   6.534   5.910   1.672
 9693SOL    HW229979   6.436   6.002   1.766
 9694SOL     OW29980   2.513   0.603   6.694
 9694SOL    HW129981   2.538   0.549   6.613
 9694SOL    HW229982   2.455   0.548   6.754
 9695SOL     OW29983   6.853   3.629   1.891
 9695SOL    HW129984   6.889   3.537   1.900
 9695SOL    HW229985   6.757   3.625   1.863
 9696SOL     OW29986   5.024   3.254   1.149
 9696SOL    HW129987   4.948   3.296   1.199
 9696SOL    HW229988   5.106   3.255   1.206
 9697SOL     OW29989   6.931   6.473   6.512
 9697SOL    HW129990   6.930   6.380   6.473
 9697SOL    HW229991   6.872   6.532   6.457
 9698SOL     OW29992   5.109   1.844   5.883
 9698SOL    HW129993   5.126   1.875   5.789
 9698SOL    HW229994   5.025   1.790   5.885
 9699SOL     OW29995   0.014   4.729   6.614
 9699SOL    HW129996   0.019   4.683   6.702
 9699SOL    HW229997   6.939   4.765   6.601
 9700SOL     OW29998   4.224   5.136   5.062
 9700SOL    HW129999   4.151   5.107   5.000
 9700SOL    HW230000   4.313   5.122   5.018
 9701SOL     OW30001   3.851   5.046   5.240
 9701SOL    HW130002   3.902   4.964   5.213
 9701SOL    HW230003   3.768   5.053   5.185
 9702SOL     OW30004   5.110   0.706   6.807
 9702SOL    HW130005   5.157   0.763   6.739
 9702SOL    HW230006   5.150   0.722   6.897
 9703SOL     OW30007   4.144   5.061   4.549
 9703SOL    HW130008   4.240   5.059   4.520
 9703SOL    HW230009   4.106   4.968   4.544
 9704SOL     OW30010   2.650   0.895   3.082
 9704SOL    HW130011   2.677   0.869   3.175
 9704SOL    HW230012   2.730   0.923   3.030
 9705SOL     OW30013   4.733   5.672   6.359
 9705SOL    HW130014   4.705   5.768   6.364
 9705SOL    HW230015   4.696   5.631   6.276
 9706SOL     OW30016   0.823   2.526   0.919
 9706SOL    HW130017   0.818   2.537   0.820
 9706SOL    HW230018   0.911   2.484   0.943
 9707SOL     OW30019   6.354   4.224   1.348
 9707SOL    HW130020   6.422   4.151   1.357
 9707SOL    HW230021   6.355   4.260   1.255
 9708SOL     OW30022   1.406   2.018   2.382
 9708SOL    HW130023   1.462   1.984   2.307
 9708SOL    HW230024   1.390   2.116   2.370
 9709SOL     OW30025   5.963   5.925   2.720
 9709SOL    HW130026   6.054   5.931   2.679
 9709SOL    HW230027   5.894   5.926   2.647
 9710SOL     OW30028   0.468   1.561   1.730
 9710SOL    HW130029   0.514   1.636   1.683
 9710SOL    HW230030   0.534   1.509   1.784
 9711SOL     OW30031   2.344   4.209   6.209
 9711SOL    HW130032   2.323   4.270   6.133
 9711SOL    HW230033   2.415   4.144   6.182
 9712SOL     OW30034   6.119   4.853   5.912
 9712SOL    HW130035   6.075   4.928   5.863
 9712SOL    HW230036   6.215   4.847   5.885
 9713SOL     OW30037   1.394   5.137   3.743
 9713SOL    HW130038   1.295   5.127   3.757
 9713SOL    HW230039   1.441   5.131   3.830
 9714SOL     OW30040   2.939   0.880   1.596
 9714SOL    HW130041   2.960   0.827   1.678
 9714SOL    HW230042   2.990   0.842   1.518
 9715SOL     OW30043   5.299   4.349   6.345
 9715SOL    HW130044   5.363   4.412   6.300
 9715SOL    HW230045   5.268   4.390   6.431
 9716SOL     OW30046   4.240   2.778   6.432
 9716SOL    HW130047   4.179   2.740   6.363
 9716SOL    HW230048   4.298   2.849   6.391
 9717SOL     OW30049   5.574   5.628   5.666
 9717SOL    HW130050   5.573   5.665   5.759
 9717SOL    HW230051   5.592   5.703   5.602
 9718SOL     OW30052   4.962   2.798   1.413
 9718SOL    HW130053   4.887   2.733   1.398
 9718SOL    HW230054   4.939   2.885   1.371
 9719SOL     OW30055   0.231   2.198   6.597
 9719SOL    HW130056   0.300   2.225   6.664
 9719SOL    HW230057   0.143   2.238   6.621
 9720SOL     OW30058   6.930   5.418   2.300
 9720SOL    HW130059   6.944   5.415   2.399
 9720SOL    HW230060   6.921   5.325   2.265
 9721SOL     OW30061   0.370   3.345   1.182
 9721SOL    HW130062   0.412   3.258   1.207
 9721SOL    HW230063   0.364   3.404   1.263
 9722SOL     OW30064   6.884   0.180   4.117
 9722SOL    HW130065   6.832   0.243   4.175
 9722SOL    HW230066   6.946   0.126   4.174
 9723SOL     OW30067   2.225   6.183   3.732
 9723SOL    HW130068   2.162   6.260   3.718
 9723SOL    HW230069   2.220   6.154   3.828
 9724SOL     OW30070   2.031   3.524   0.278
 9724SOL    HW130071   2.037   3.485   0.370
 9724SOL    HW230072   2.108   3.493   0.223
 9725SOL     OW30073   3.600   4.341   6.496
 9725SOL    HW130074   3.629   4.278   6.424
 9725SOL    HW230075   3.540   4.411   6.458
 9726SOL     OW30076   5.144   0.615   3.852
 9726SOL    HW130077   5.084   0.682   3.809
 9726SOL    HW230078   5.090   0.542   3.893
 9727SOL     OW30079   0.465   3.668   5.475
 9727SOL    HW130080   0.498   3.598   5.538
 9727SOL    HW230081   0.439   3.626   5.388
 9728SOL     OW30082   0.328   0.395   6.180
 9728SOL    HW130083   0.231   0.407   6.201
 9728SOL    HW230084   0.358   0.305   6.212
 9729SOL     OW30085   0.871   4.180   3.163
 9729SOL    HW130086   0.859   4.181   3.064
 9729SOL    HW230087   0.802   4.121   3.205
 9730SOL     OW30088   0.435   3.226   3.214
 9730SOL    HW130089   0.530   3.196   3.215
 9730SOL    HW230090   0.377   3.155   3.173
 9731SOL     OW30091   4.674   4.055   1.147
 9731SOL    HW130092   4.593   4.080   1.199
 9731SOL    HW230093   4.754   4.060   1.206
 9732SOL     OW30094   5.359   6.003   3.337
 9732SOL    HW130095   5.458   6.000   3.346
 9732SOL    HW230096   5.324   5.911   3.320
 9733SOL     OW30097   5.430   5.108   0.668
 9733SOL    HW130098   5.409   5.205   0.657
 9733SOL    HW230099   5.442   5.067   0.577
 9734SOL     OW30100   6.009   1.448   2.857
 9734SOL    HW130101   5.933   1.419   2.799
 9734SOL    HW230102   5.994   1.542   2.887
 9735SOL     OW30103   1.793   4.456   3.156
 9735SOL    HW130104   1.734   4.470   3.235
 9735SOL    HW230105   1.889   4.470   3.183
 9736SOL     OW30106   6.053   1.761   5.921
 9736SOL    HW130107   6.053   1.739   6.018
 9736SOL    HW230108   6.097   1.849   5.906
 9737SOL     OW30109   6.502   3.056   4.464
 9737SOL    HW130110   6.505   3.111   4.548
 9737SOL    HW230111   6.418   3.002   4.463
 9738SOL     OW30112   2.052   0.294   2.220
 9738SOL    HW130113   1.995   0.213   2.233
 9738SOL    HW230114   2.046   0.324   2.125
 9739SOL     OW30115   6.196   5.283   2.303
 9739SOL    HW130116   6.249   5.199   2.314
 9739SOL    HW230117   6.161   5.312   2.392
 9740SOL     OW30118   6.257   2.118   3.885
 9740SOL    HW130119   6.307   2.032   3.891
 9740SOL    HW230120   6.224   2.132   3.792
 9741SOL     OW30121   5.165   1.873   2.757
 9741SOL    HW130122   5.145   1.898   2.663
 9741SOL    HW230123   5.117   1.935   2.820
 9742SOL     OW30124   3.708   0.363   1.862
 9742SOL    HW130125   3.612   0.336   1.863
 9742SOL    HW230126   3.724   0.431   1.791
 9743SOL     OW30127   1.057   1.608   4.459
 9743SOL    HW130128   1.126   1.666   4.503
 9743SOL    HW230129   0.977   1.601   4.519
 9744SOL     OW30130   0.421   0.670   2.423
 9744SOL    HW130131   0.338   0.660   2.368
 9744SOL    HW230132   0.433   0.765   2.449
 9745SOL     OW30133   6.477   3.016   6.184
 9745SOL    HW130134   6.556   3.035   6.243
 9745SOL    HW230135   6.395   3.058   6.224
 9746SOL     OW30136   6.389   1.109   6.206
 9746SOL    HW130137   6.352   1.037   6.147
 9746SOL    HW230138   6.466   1.072   6.259
 9747SOL     OW30139   1.660   0.412   1.903
 9747SOL    HW130140   1.732   0.468   1.861
 9747SOL    HW230141   1.690   0.317   1.907
 9748SOL     OW30142   0.983   1.151   3.577
 9748SOL    HW130143   0.960   1.212   3.501
 9748SOL    HW230144   1.050   1.195   3.637
 9749SOL     OW30145   2.143   1.834   5.305
 9749SOL    HW130146   2.047   1.811   5.321
 9749SOL    HW230147   2.159   1.842   5.207
 9750SOL     OW30148   5.651   4.802   3.476
 9750SOL    HW130149   5.627   4.867   3.403
 9750SOL    HW230150   5.745   4.817   3.504
 9751SOL     OW30151   1.537   1.162   0.620
 9751SOL    HW130152   1.634   1.138   0.613
 9751SOL    HW230153   1.524   1.226   0.696
 9752SOL     OW30154   5.654   1.939   0.067
 9752SOL    HW130155   5.737   1.884   0.053
 9752SOL    HW230156   5.596   1.934   7.004
 9753SOL     OW30157   6.255   5.492   5.525
 9753SOL    HW130158   6.187   5.515   5.594
 9753SOL    HW230159   6.215   5.430   5.458
 9754SOL     OW30160   0.967   1.365   6.191
 9754SOL    HW130161   0.968   1.308   6.108
 9754SOL    HW230162   0.874   1.395   6.210
 9755SOL     OW30163   3.885   4.012   5.293
 9755SOL    HW130164   3.873   3.982   5.388
 9755SOL    HW230165   3.960   4.079   5.289
 9756SOL     OW30166   5.944   3.313   0.253
 9756SOL    HW130167   5.937   3.400   0.302
 9756SOL    HW230168   5.859   3.297   0.203
 9757SOL     OW30169   5.674   3.484   3.267
 9757SOL    HW130170   5.704   3.514   3.177
 9757SOL    HW230171   5.595   3.423   3.257
 9758SOL     OW30172   2.899   0.126   6.855
 9758SOL    HW130173   2.919   0.109   6.951
 9758SOL    HW230174   2.806   0.096   6.834
 9759SOL     OW30175   2.365   0.087   6.880
 9759SOL    HW130176   2.305   0.152   6.926
 9759SOL    HW230177   2.440   0.137   6.836
 9760SOL     OW30178   4.697   3.313   5.343
 9760SOL    HW130179   4.748   3.334   5.260
 9760SOL    HW230180   4.722   3.222   5.375
 9761SOL     OW30181   6.144   0.126   1.687
 9761SOL    HW130182   6.139   0.225   1.676
 9761SOL    HW230183   6.235   0.101   1.720
 9762SOL     OW30184   2.697   2.276   4.185
 9762SOL    HW130185   2.641   2.193   4.197
 9762SOL    HW230186   2.649   2.340   4.126
 9763SOL     OW30187   4.695   1.984   1.910
 9763SOL    HW130188   4.674   2.062   1.969
 9763SOL    HW230189   4.700   2.014   1.815
 9764SOL     OW30190   0.796   2.709   3.479
 9764SOL    HW130191   0.835   2.618   3.494
 9764SOL    HW230192   0.773   2.719   3.382
 9765SOL     OW30193   6.267   2.199   2.928
 9765SOL    HW130194   6.319   2.161   3.004
 9765SOL    HW230195   6.217   2.126   2.881
 9766SOL     OW30196   2.934   0.523   3.235
 9766SOL    HW130197   2.909   0.469   3.154
 9766SOL    HW230198   3.030   0.552   3.226
 9767SOL     OW30199   5.268   2.090   5.236
 9767SOL    HW130200   5.258   2.153   5.159
 9767SOL    HW230201   5.293   2.141   5.318
 9768SOL     OW30202   4.850   1.779   2.498
 9768SOL    HW130203   4.807   1.759   2.410
 9768SOL    HW230204   4.781   1.810   2.563
 9769SOL     OW30205   2.278   1.204   2.353
 9769SOL    HW130206   2.206   1.257   2.307
 9769SOL    HW230207   2.297   1.245   2.442
 9770SOL     OW30208   5.347   0.297   6.976
 9770SOL    HW130209   5.388   0.308   6.886
 9770SOL    HW230210   5.275   0.365   6.989
 9771SOL     OW30211   3.415   4.801   1.255
 9771SOL    HW130212   3.409   4.880   1.316
 9771SOL    HW230213   3.508   4.764   1.256
 9772SOL     OW30214   1.463   5.765   2.806
 9772SOL    HW130215   1.556   5.760   2.772
 9772SOL    HW230216   1.459   5.824   2.887
 9773SOL     OW30217   5.338   6.544   4.647
 9773SOL    HW130218   5.307   6.621   4.703
 9773SOL    HW230219   5.407   6.492   4.697
 9774SOL     OW30220   6.111   4.723   1.543
 9774SOL    HW130221   6.200   4.759   1.571
 9774SOL    HW230222   6.106   4.626   1.564
 9775SOL     OW30223   2.603   1.152   3.415
 9775SOL    HW130224   2.604   1.252   3.408
 9775SOL    HW230225   2.536   1.125   3.484
 9776SOL     OW30226   0.160   5.836   4.602
 9776SOL    HW130227   0.227   5.839   4.677
 9776SOL    HW230228   0.193   5.775   4.530
 9777SOL     OW30229   5.452   4.863   6.378
 9777SOL    HW130230   5.426   4.958   6.399
 9777SOL    HW230231   5.440   4.807   6.460
 9778SOL     OW30232   0.219   0.790   3.515
 9778SOL    HW130233   0.166   0.820   3.594
 9778SOL    HW230234   0.174   0.711   3.473
 9779SOL     OW30235   2.319   1.470   5.221
 9779SOL    HW130236   2.227   1.463   5.183
 9779SOL    HW230237   2.384   1.422   5.162
 9780SOL     OW30238   2.534   1.829   1.354
 9780SOL    HW130239   2.542   1.746   1.299
 9780SOL    HW230240   2.603   1.828   1.426
 9781SOL     OW30241   1.141   3.595   4.276
 9781SOL    HW130242   1.229   3.563   4.310
 9781SOL    HW230243   1.147   3.691   4.250
 9782SOL     OW30244   6.942   0.582   1.237
 9782SOL    HW130245   6.973   0.627   1.153
 9782SOL    HW230246   7.007   0.510   1.262
 9783SOL     OW30247   5.479   2.366   2.572
 9783SOL    HW130248   5.399   2.400   2.523
 9783SOL    HW230249   5.508   2.279   2.533
 9784SOL     OW30250   3.744   1.529   3.818
 9784SOL    HW130251   3.809   1.605   3.827
 9784SOL    HW230252   3.660   1.563   3.775
 9785SOL     OW30253   6.950   4.186   5.268
 9785SOL    HW130254   7.015   4.125   5.222
 9785SOL    HW230255   6.859   4.143   5.269
 9786SOL     OW30256   2.363   4.831   6.389
 9786SOL    HW130257   2.400   4.868   6.474
 9786SOL    HW230258   2.306   4.751   6.409
 9787SOL     OW30259   4.697   3.800   1.697
 9787SOL    HW130260   4.782   3.749   1.685
 9787SOL    HW230261   4.716   3.888   1.739
 9788SOL     OW30262   0.238   0.445   3.543
 9788SOL    HW130263   0.313   0.502   3.578
 9788SOL    HW230264   0.174   0.425   3.617
 9789SOL     OW30265   1.219   6.008   6.718
 9789SOL    HW130266   1.317   5.991   6.704
 9789SOL    HW230267   1.172   6.006   6.630
 9790SOL     OW30268   5.683   4.073   6.178
 9790SOL    HW130269   5.735   4.069   6.263
 9790SOL    HW230270   5.732   4.025   6.106
 9791SOL     OW30271   0.169   1.407   3.011
 9791SOL    HW130272   0.246   1.373   3.065
 9791SOL    HW230273   0.199   1.481   2.952
 9792SOL     OW30274   5.728   5.197   1.825
 9792SOL    HW130275   5.805   5.252   1.857
 9792SOL    HW230276   5.704   5.224   1.732
 9793SOL     OW30277   5.350   4.932   3.486
 9793SOL    HW130278   5.429   4.959   3.431
 9793SOL    HW230279   5.371   4.944   3.583
 9794SOL     OW30280   6.738   4.095   6.273
 9794SOL    HW130281   6.697   4.176   6.230
 9794SOL    HW230282   6.811   4.059   6.214
 9795SOL     OW30283   1.330   1.902   4.246
 9795SOL    HW130284   1.254   1.847   4.210
 9795SOL    HW230285   1.334   1.890   4.345
 9796SOL     OW30286   4.099   2.754   1.126
 9796SOL    HW130287   4.140   2.759   1.216
 9796SOL    HW230288   4.063   2.844   1.100
 9797SOL     OW30289   3.174   4.403   6.592
 9797SOL    HW130290   3.140   4.318   6.551
 9797SOL    HW230291   3.099   4.467   6.604
 9798SOL     OW30292   2.065   0.860   1.086
 9798SOL    HW130293   2.025   0.929   1.147
 9798SOL    HW230294   2.158   0.838   1.117
 9799SOL     OW30295   3.384   3.303   3.419
 9799SOL    HW130296   3.458   3.316   3.353
 9799SOL    HW230297   3.305   3.358   3.392
 9800SOL     OW30298   3.240   6.545   5.423
 9800SOL    HW130299   3.235   6.633   5.376
 9800SOL    HW230300   3.279   6.558   5.514
 9801SOL     OW30301   4.275   4.585   0.689
 9801SOL    HW130302   4.350   4.624   0.636
 9801SOL    HW230303   4.284   4.486   0.691
 9802SOL     OW30304   0.681   2.591   2.719
 9802SOL    HW130305   0.780   2.578   2.709
 9802SOL    HW230306   0.654   2.564   2.812
 9803SOL     OW30307   6.190   1.634   6.968
 9803SOL    HW130308   6.158   1.673   0.037
 9803SOL    HW230309   6.111   1.613   6.910
 9804SOL     OW30310   0.778   5.598   3.417
 9804SOL    HW130311   0.762   5.693   3.389
 9804SOL    HW230312   0.784   5.539   3.336
 9805SOL     OW30313   0.990   5.846   5.719
 9805SOL    HW130314   0.942   5.931   5.696
 9805SOL    HW230315   1.086   5.854   5.692
 9806SOL     OW30316   1.022   1.708   0.145
 9806SOL    HW130317   1.086   1.747   0.078
 9806SOL    HW230318   1.040   1.610   0.154
 9807SOL     OW30319   2.082   2.725   0.030
 9807SOL    HW130320   1.998   2.679   0.002
 9807SOL    HW230321   2.090   2.723   0.130
 9808SOL     OW30322   5.859   0.970   5.510
 9808SOL    HW130323   5.769   0.940   5.479
 9808SOL    HW230324   5.897   0.904   5.575
 9809SOL     OW30325   1.021   1.834   6.171
 9809SOL    HW130326   1.106   1.845   6.119
 9809SOL    HW230327   1.010   1.738   6.197
 9810SOL     OW30328   2.625   2.240   3.823
 9810SOL    HW130329   2.597   2.320   3.876
 9810SOL    HW230330   2.645   2.164   3.885
 9811SOL     OW30331   6.189   5.491   4.064
 9811SOL    HW130332   6.122   5.540   4.118
 9811SOL    HW230333   6.163   5.492   3.968
 9812SOL     OW30334   3.163   2.689   6.125
 9812SOL    HW130335   3.253   2.648   6.132
 9812SOL    HW230336   3.095   2.628   6.166
 9813SOL     OW30337   6.003   6.492   0.011
 9813SOL    HW130338   5.919   6.470   0.060
 9813SOL    HW230339   6.028   6.415   6.970
 9814SOL     OW30340   0.583   1.328   6.849
 9814SOL    HW130341   0.636   1.378   6.917
 9814SOL    HW230342   0.644   1.293   6.778
 9815SOL     OW30343   6.735   2.996   2.205
 9815SOL    HW130344   6.835   2.998   2.193
 9815SOL    HW230345   6.711   2.918   2.264
 9816SOL     OW30346   6.804   1.237   6.190
 9816SOL    HW130347   6.776   1.176   6.263
 9816SOL    HW230348   6.899   1.265   6.204
 9817SOL     OW30349   3.001   5.882   1.997
 9817SOL    HW130350   3.067   5.929   1.938
 9817SOL    HW230351   3.018   5.783   1.993
 9818SOL     OW30352   1.555   1.022   3.794
 9818SOL    HW130353   1.585   0.985   3.882
 9818SOL    HW230354   1.570   1.121   3.792
 9819SOL     OW30355   4.983   3.141   5.075
 9819SOL    HW130356   4.990   3.222   5.018
 9819SOL    HW230357   4.972   3.169   5.171
 9820SOL     OW30358   3.549   2.940   6.551
 9820SOL    HW130359   3.496   3.020   6.525
 9820SOL    HW230360   3.633   2.968   6.596
 9821SOL     OW30361   4.096   1.422   0.720
 9821SOL    HW130362   4.192   1.450   0.725
 9821SOL    HW230363   4.049   1.448   0.804
 9822SOL     OW30364   3.681   5.647   4.310
 9822SOL    HW130365   3.621   5.666   4.388
 9822SOL    HW230366   3.666   5.716   4.239
 9823SOL     OW30367   1.743   0.072   2.198
 9823SOL    HW130368   1.769   0.066   2.295
 9823SOL    HW230369   1.644   0.078   2.191
 9824SOL     OW30370   2.139   6.023   5.276
 9824SOL    HW130371   2.040   6.032   5.269
 9824SOL    HW230372   2.165   5.928   5.261
 9825SOL     OW30373   5.552   6.204   4.969
 9825SOL    HW130374   5.649   6.211   4.992
 9825SOL    HW230375   5.523   6.109   4.976
 9826SOL     OW30376   3.673   6.633   5.181
 9826SOL    HW130377   3.673   6.619   5.280
 9826SOL    HW230378   3.671   6.544   5.135
 9827SOL     OW30379   1.966   3.851   3.185
 9827SOL    HW130380   1.954   3.919   3.112
 9827SOL    HW230381   1.902   3.870   3.259
 9828SOL     OW30382   3.182   2.050   4.949
 9828SOL    HW130383   3.121   2.119   4.989
 9828SOL    HW230384   3.216   2.084   4.861
 9829SOL     OW30385   4.522   5.667   6.136
 9829SOL    HW130386   4.591   5.715   6.080
 9829SOL    HW230387   4.475   5.599   6.080
 9830SOL     OW30388   5.116   1.738   1.772
 9830SOL    HW130389   5.182   1.782   1.711
 9830SOL    HW230390   5.160   1.660   1.816
 9831SOL     OW30391   0.824   4.745   1.860
 9831SOL    HW130392   0.741   4.799   1.850
 9831SOL    HW230393   0.806   4.651   1.829
 9832SOL     OW30394   4.510   5.526   3.628
 9832SOL    HW130395   4.512   5.619   3.665
 9832SOL    HW230396   4.597   5.505   3.584
 9833SOL     OW30397   3.357   3.040   3.473
 9833SOL    HW130398   3.291   2.999   3.410
 9833SOL    HW230399   3.366   3.138   3.454
 9834SOL     OW30400   1.809   4.781   5.710
 9834SOL    HW130401   1.784   4.876   5.725
 9834SOL    HW230402   1.885   4.776   5.646
 9835SOL     OW30403   3.962   3.078   4.448
 9835SOL    HW130404   3.985   3.149   4.515
 9835SOL    HW230405   4.044   3.049   4.399
 9836SOL     OW30406   0.830   4.627   4.803
 9836SOL    HW130407   0.810   4.530   4.817
 9836SOL    HW230408   0.831   4.646   4.704
 9837SOL     OW30409   5.732   1.357   2.750
 9837SOL    HW130410   5.727   1.370   2.651
 9837SOL    HW230411   5.675   1.279   2.777
 9838SOL     OW30412   1.533   0.018   0.755
 9838SOL    HW130413   1.531   6.942   0.790
 9838SOL    HW230414   1.549   0.081   0.832
 9839SOL     OW30415   4.299   7.016   3.201
 9839SOL    HW130416   4.326   6.919   3.209
 9839SOL    HW230417   4.261   0.028   3.289
 9840SOL     OW30418   4.525   1.772   0.488
 9840SOL    HW130419   4.506   1.732   0.398
 9840SOL    HW230420   4.605   1.727   0.528
 9841SOL     OW30421   0.959   4.881   3.347
 9841SOL    HW130422   1.033   4.862   3.412
 9841SOL    HW230423   0.940   4.798   3.294
 9842SOL     OW30424   3.788   3.017   0.148
 9842SOL    HW130425   3.759   2.963   0.227
 9842SOL    HW230426   3.743   2.983   0.066
 9843SOL     OW30427   6.692   0.038   1.815
 9843SOL    HW130428   6.739   0.124   1.833
 9843SOL    HW230429   6.652   0.002   1.899
 9844SOL     OW30430   5.868   0.946   3.813
 9844SOL    HW130431   5.786   0.894   3.838
 9844SOL    HW230432   5.949   0.901   3.849
 9845SOL     OW30433   1.119   2.551   3.247
 9845SOL    HW130434   1.147   2.645   3.231
 9845SOL    HW230435   1.024   2.539   3.217
 9846SOL     OW30436   4.897   1.528   0.221
 9846SOL    HW130437   4.912   1.573   0.309
 9846SOL    HW230438   4.939   1.438   0.222
 9847SOL     OW30439   3.678   3.039   2.192
 9847SOL    HW130440   3.615   2.966   2.166
 9847SOL    HW230441   3.745   3.004   2.258
 9848SOL     OW30442   3.321   4.544   5.371
 9848SOL    HW130443   3.377   4.461   5.359
 9848SOL    HW230444   3.226   4.518   5.387
 9849SOL     OW30445   0.918   6.759   0.043
 9849SOL    HW130446   0.946   6.663   0.039
 9849SOL    HW230447   0.846   6.770   0.112
 9850SOL     OW30448   6.693   0.568   3.437
 9850SOL    HW130449   6.635   0.614   3.369
 9850SOL    HW230450   6.646   0.487   3.472
 9851SOL     OW30451   2.834   6.400   4.571
 9851SOL    HW130452   2.836   6.383   4.669
 9851SOL    HW230453   2.833   6.313   4.522
 9852SOL     OW30454   1.359   1.033   5.362
 9852SOL    HW130455   1.402   1.118   5.390
 9852SOL    HW230456   1.270   1.051   5.321
 9853SOL     OW30457   6.873   3.541   5.133
 9853SOL    HW130458   6.942   3.590   5.187
 9853SOL    HW230459   6.807   3.606   5.097
 9854SOL     OW30460   0.789   5.147   5.121
 9854SOL    HW130461   0.783   5.221   5.188
 9854SOL    HW230462   0.885   5.123   5.106
 9855SOL     OW30463   1.120   3.487   0.955
 9855SOL    HW130464   1.097   3.522   1.046
 9855SOL    HW230465   1.111   3.388   0.953
 9856SOL     OW30466   5.622   4.450   3.833
 9856SOL    HW130467   5.636   4.456   3.932
 9856SOL    HW230468   5.633   4.540   3.792
 9857SOL     OW30469   5.669   3.120   2.695
 9857SOL    HW130470   5.584   3.080   2.730
 9857SOL    HW230471   5.661   3.131   2.596
 9858SOL     OW30472   1.046   6.451   1.554
 9858SOL    HW130473   1.014   6.544   1.535
 9858SOL    HW230474   1.125   6.431   1.496
 9859SOL     OW30475   6.545   4.829   4.733
 9859SOL    HW130476   6.588   4.891   4.798
 9859SOL    HW230477   6.502   4.882   4.660
 9860SOL     OW30478   1.544   2.126   5.115
 9860SOL    HW130479   1.495   2.205   5.079
 9860SOL    HW230480   1.630   2.157   5.157
 9861SOL     OW30481   3.074   0.801   3.395
 9861SOL    HW130482   3.166   0.791   3.434
 9861SOL    HW230483   3.006   0.784   3.465
 9862SOL     OW30484   2.831   4.008   0.685
 9862SOL    HW130485   2.814   4.102   0.658
 9862SOL    HW230486   2.907   3.971   0.632
 9863SOL     OW30487   3.186   5.548   1.223
 9863SOL    HW130488   3.176   5.567   1.320
 9863SOL    HW230489   3.098   5.559   1.177
 9864SOL     OW30490   2.883   0.336   5.837
 9864SOL    HW130491   2.809   0.376   5.782
 9864SOL    HW230492   2.844   0.279   5.909
 9865SOL     OW30493   0.596   6.365   5.298
 9865SOL    HW130494   0.526   6.296   5.280
 9865SOL    HW230495   0.646   6.384   5.214
 9866SOL     OW30496   6.046   4.480   5.181
 9866SOL    HW130497   5.991   4.531   5.116
 9866SOL    HW230498   6.077   4.395   5.139
 9867SOL     OW30499   6.386   2.283   2.606
 9867SOL    HW130500   6.431   2.218   2.667
 9867SOL    HW230501   6.383   2.373   2.649
 9868SOL     OW30502   0.706   3.716   4.116
 9868SOL    HW130503   0.785   3.685   4.063
 9868SOL    HW230504   0.705   3.816   4.116
 9869SOL     OW30505   0.630   2.592   1.096
 9869SOL    HW130506   0.704   2.551   1.042
 9869SOL    HW230507   0.669   2.655   1.164
 9870SOL     OW30508   4.312   0.376   2.871
 9870SOL    HW130509   4.242   0.320   2.915
 9870SOL    HW230510   4.401   0.357   2.912
 9871SOL     OW30511   6.697   3.099   6.330
 9871SOL    HW130512   6.743   3.182   6.300
 9871SOL    HW230513   6.724   3.078   6.424
 9872SOL     OW30514   2.063   5.341   4.927
 9872SOL    HW130515   2.127   5.372   4.998
 9872SOL    HW230516   2.044   5.417   4.864
 9873SOL     OW30517   2.324   2.344   6.224
 9873SOL    HW130518   2.270   2.319   6.144
 9873SOL    HW230519   2.412   2.381   6.194
 9874SOL     OW30520   0.340   3.458   4.657
 9874SOL    HW130521   0.242   3.443   4.650
 9874SOL    HW230522   0.369   3.448   4.752
 9875SOL     OW30523   0.082   5.624   2.224
 9875SOL    HW130524   0.038   5.644   2.136
 9875SOL    HW230525   0.033   5.551   2.270
 9876SOL     OW30526   5.035   0.434   4.022
 9876SOL    HW130527   5.082   0.498   4.082
 9876SOL    HW230528   5.046   0.341   4.057
 9877SOL     OW30529   6.903   4.661   4.318
 9877SOL    HW130530   6.959   4.650   4.400
 9877SOL    HW230531   6.916   4.581   4.259
 9878SOL     OW30532   1.983   3.439   6.677
 9878SOL    HW130533   1.997   3.362   6.739
 9878SOL    HW230534   2.008   3.412   6.584
 9879SOL     OW30535   0.572   4.884   5.743
 9879SOL    HW130536   0.598   4.859   5.650
 9879SOL    HW230537   0.629   4.834   5.808
 9880SOL     OW30538   2.651   0.981   0.333
 9880SOL    HW130539   2.668   1.023   0.244
 9880SOL    HW230540   2.618   1.050   0.398
 9881SOL     OW30541   5.800   0.611   4.719
 9881SOL    HW130542   5.878   0.642   4.773
 9881SOL    HW230543   5.735   0.563   4.779
 9882SOL     OW30544   3.537   3.442   4.798
 9882SOL    HW130545   3.593   3.480   4.872
 9882SOL    HW230546   3.449   3.489   4.795
 9883SOL     OW30547   2.203   6.292   1.721
 9883SOL    HW130548   2.160   6.204   1.704
 9883SOL    HW230549   2.153   6.341   1.793
 9884SOL     OW30550   3.111   2.810   6.509
 9884SOL    HW130551   3.106   2.887   6.445
 9884SOL    HW230552   3.106   2.724   6.459
 9885SOL     OW30553   0.638   3.326   4.111
 9885SOL    HW130554   0.656   3.365   4.201
 9885SOL    HW230555   0.675   3.386   4.040
 9886SOL     OW30556   6.091   6.853   2.137
 9886SOL    HW130557   6.016   6.876   2.199
 9886SOL    HW230558   6.055   6.831   2.047
 9887SOL     OW30559   3.622   0.138   0.343
 9887SOL    HW130560   3.642   0.230   0.310
 9887SOL    HW230561   3.547   0.099   0.289
 9888SOL     OW30562   5.974   6.219   3.159
 9888SOL    HW130563   6.054   6.259   3.114
 9888SOL    HW230564   5.941   6.141   3.106
 9889SOL     OW30565   0.570   5.037   2.699
 9889SOL    HW130566   0.656   5.076   2.730
 9889SOL    HW230567   0.534   4.975   2.769
 9890SOL     OW30568   6.029   2.930   0.222
 9890SOL    HW130569   6.040   2.990   0.143
 9890SOL    HW230570   5.943   2.951   0.269
 9891SOL     OW30571   5.155   4.781   1.457
 9891SOL    HW130572   5.175   4.705   1.518
 9891SOL    HW230573   5.143   4.865   1.511
 9892SOL     OW30574   2.380   5.311   3.697
 9892SOL    HW130575   2.296   5.355   3.663
 9892SOL    HW230576   2.424   5.262   3.622
 9893SOL     OW30577   0.050   5.657   2.702
 9893SOL    HW130578   0.067   5.561   2.680
 9893SOL    HW230579   0.118   5.715   2.656
 9894SOL     OW30580   2.797   1.391   6.737
 9894SOL    HW130581   2.822   1.411   6.643
 9894SOL    HW230582   2.868   1.426   6.799
 9895SOL     OW30583   5.767   2.098   5.844
 9895SOL    HW130584   5.838   2.129   5.907
 9895SOL    HW230585   5.687   2.068   5.896
 9896SOL     OW30586   4.155   2.649   0.879
 9896SOL    HW130587   4.235   2.689   0.834
 9896SOL    HW230588   4.148   2.682   0.973
 9897SOL     OW30589   5.373   1.299   2.519
 9897SOL    HW130590   5.362   1.387   2.566
 9897SOL    HW230591   5.325   1.228   2.571
 9898SOL     OW30592   0.710   5.341   5.628
 9898SOL    HW130593   0.677   5.285   5.703
 9898SOL    HW230594   0.645   5.336   5.552
 9899SOL     OW30595   6.182   4.101   2.150
 9899SOL    HW130596   6.258   4.054   2.106
 9899SOL    HW230597   6.133   4.157   2.083
 9900SOL     OW30598   1.949   2.127   2.566
 9900SOL    HW130599   1.925   2.034   2.593
 9900SOL    HW230600   1.967   2.182   2.647
 9901SOL     OW30601   1.350   2.418   0.068
 9901SOL    HW130602   1.395   2.473   0.138
 9901SOL    HW230603   1.294   2.477   0.010
 9902SOL     OW30604   3.373   3.031   0.747
 9902SOL    HW130605   3.413   2.939   0.746
 9902SOL    HW230606   3.370   3.065   0.841
 9903SOL     OW30607   4.706   0.697   2.086
 9903SOL    HW130608   4.649   0.625   2.049
 9903SOL    HW230609   4.774   0.658   2.149
 9904SOL     OW30610   0.366   3.885   6.537
 9904SOL    HW130611   0.358   3.872   6.438
 9904SOL    HW230612   0.459   3.864   6.566
 9905SOL     OW30613   1.653   6.499   0.712
 9905SOL    HW130614   1.603   6.538   0.635
 9905SOL    HW230615   1.749   6.526   0.706
 9906SOL     OW30616   1.501   2.866   0.003
 9906SOL    HW130617   1.590   2.824   7.006
 9906SOL    HW230618   1.504   2.924   0.085
 9907SOL     OW30619   2.668   6.264   3.216
 9907SOL    HW130620   2.572   6.276   3.191
 9907SOL    HW230621   2.688   6.167   3.226
 9908SOL     OW30622   0.913   3.417   6.235
 9908SOL    HW130623   0.838   3.476   6.206
 9908SOL    HW230624   0.884   3.321   6.232
 9909SOL     OW30625   3.477   1.036   3.079
 9909SOL    HW130626   3.522   1.038   2.989
 9909SOL    HW230627   3.527   1.095   3.142
 9910SOL     OW30628   0.117   4.977   1.446
 9910SOL    HW130629   0.053   4.976   1.523
 9910SOL    HW230630   0.098   4.900   1.385
 9911SOL     OW30631   4.694   5.509   3.252
 9911SOL    HW130632   4.706   5.424   3.302
 9911SOL    HW230633   4.719   5.496   3.156
 9912SOL     OW30634   3.945   0.559   2.726
 9912SOL    HW130635   3.931   0.612   2.642
 9912SOL    HW230636   3.977   0.467   2.703
 9913SOL     OW30637   5.770   2.868   1.815
 9913SOL    HW130638   5.794   2.863   1.718
 9913SOL    HW230639   5.689   2.812   1.832
 9914SOL     OW30640   0.955   0.644   5.612
 9914SOL    HW130641   0.921   0.678   5.524
 9914SOL    HW230642   1.000   0.556   5.598
 9915SOL     OW30643   5.711   3.849   4.170
 9915SOL    HW130644   5.774   3.905   4.116
 9915SOL    HW230645   5.689   3.765   4.119
 9916SOL     OW30646   2.692   2.101   3.352
 9916SOL    HW130647   2.733   2.176   3.404
 9916SOL    HW230648   2.605   2.075   3.395
 9917SOL     OW30649   3.080   3.067   4.786
 9917SOL    HW130650   3.065   3.099   4.692
 9917SOL    HW230651   3.094   2.968   4.786
 9918SOL     OW30652   1.430   1.242   0.110
 9918SOL    HW130653   1.337   1.224   0.141
 9918SOL    HW230654   1.485   1.275   0.187
 9919SOL     OW30655   2.234   4.841   2.336
 9919SOL    HW130656   2.185   4.871   2.418
 9919SOL    HW230657   2.327   4.815   2.360
 9920SOL     OW30658   3.696   0.870   2.612
 9920SOL    HW130659   3.772   0.817   2.574
 9920SOL    HW230660   3.672   0.944   2.550
 9921SOL     OW30661   6.383   6.081   3.690
 9921SOL    HW130662   6.464   6.024   3.683
 9921SOL    HW230663   6.303   6.024   3.707
 9922SOL     OW30664   4.309   4.254   0.986
 9922SOL    HW130665   4.259   4.183   0.937
 9922SOL    HW230666   4.389   4.213   1.031
 9923SOL     OW30667   6.582   2.599   0.071
 9923SOL    HW130668   6.574   2.500   0.061
 9923SOL    HW230669   6.639   2.620   0.151
 9924SOL     OW30670   5.736   1.769   1.592
 9924SOL    HW130671   5.724   1.677   1.631
 9924SOL    HW230672   5.658   1.826   1.618
 9925SOL     OW30673   2.136   4.459   5.188
 9925SOL    HW130674   2.140   4.360   5.201
 9925SOL    HW230675   2.188   4.504   5.261
 9926SOL     OW30676   3.237   2.429   1.310
 9926SOL    HW130677   3.304   2.365   1.346
 9926SOL    HW230678   3.262   2.522   1.337
 9927SOL     OW30679   1.005   2.351   1.096
 9927SOL    HW130680   0.966   2.427   1.149
 9927SOL    HW230681   1.018   2.272   1.156
 9928SOL     OW30682   6.002   4.239   2.357
 9928SOL    HW130683   6.058   4.177   2.303
 9928SOL    HW230684   5.962   4.189   2.435
 9929SOL     OW30685   2.705   4.232   5.493
 9929SOL    HW130686   2.638   4.168   5.456
 9929SOL    HW230687   2.729   4.300   5.424
 9930SOL     OW30688   6.789   0.358   5.936
 9930SOL    HW130689   6.769   0.298   5.859
 9930SOL    HW230690   6.703   0.395   5.972
 9931SOL     OW30691   0.066   5.815   5.278
 9931SOL    HW130692   0.052   5.738   5.216
 9931SOL    HW230693   0.143   5.870   5.246
 9932SOL     OW30694   1.482   2.146   0.393
 9932SOL    HW130695   1.557   2.205   0.362
 9932SOL    HW230696   1.410   2.202   0.435
 9933SOL     OW30697   2.636   0.723   3.615
 9933SOL    HW130698   2.613   0.818   3.636
 9933SOL    HW230699   2.555   0.666   3.626
 9934SOL     OW30700   6.127   1.995   0.135
 9934SOL    HW130701   6.080   2.063   0.078
 9934SOL    HW230702   6.144   2.033   0.226
 9935SOL     OW30703   3.028   2.023   0.902
 9935SOL    HW130704   2.991   1.977   0.821
 9935SOL    HW230705   2.954   2.040   0.967
 9936SOL     OW30706   5.692   4.478   6.290
 9936SOL    HW130707   5.722   4.572   6.273
 9936SOL    HW230708   5.631   4.450   6.216
 9937SOL     OW30709   1.116   0.808   2.992
 9937SOL    HW130710   1.094   0.760   2.907
 9937SOL    HW230711   1.193   0.871   2.975
 9938SOL     OW30712   5.495   0.488   3.652
 9938SOL    HW130713   5.466   0.566   3.708
 9938SOL    HW230714   5.541   0.521   3.569
 9939SOL     OW30715   1.344   3.189   1.128
 9939SOL    HW130716   1.417   3.233   1.075
 9939SOL    HW230717   1.384   3.137   1.203
 9940SOL     OW30718   6.772   0.124   3.617
 9940SOL    HW130719   6.714   0.103   3.695
 9940SOL    HW230720   6.840   0.192   3.643
 9941SOL     OW30721   3.826   5.324   4.998
 9941SOL    HW130722   3.857   5.336   5.092
 9941SOL    HW230723   3.821   5.413   4.953
 9942SOL     OW30724   4.795   4.457   2.554
 9942SOL    HW130725   4.697   4.446   2.540
 9942SOL    HW230726   4.821   4.420   2.643
 9943SOL     OW30727   1.148   4.439   6.163
 9943SOL    HW130728   1.218   4.508   6.182
 9943SOL    HW230729   1.086   4.473   6.092
 9944SOL     OW30730   6.760   5.516   6.592
 9944SOL    HW130731   6.831   5.564   6.540
 9944SOL    HW230732   6.733   5.571   6.670
 9945SOL     OW30733   5.768   4.092   6.422
 9945SOL    HW130734   5.822   4.011   6.446
 9945SOL    HW230735   5.675   4.081   6.456
 9946SOL     OW30736   5.838   7.008   3.146
 9946SOL    HW130737   5.855   6.909   3.147
 9946SOL    HW230738   5.897   0.034   3.079
 9947SOL     OW30739   1.478   1.047   3.458
 9947SOL    HW130740   1.508   0.999   3.541
 9947SOL    HW230741   1.555   1.099   3.421
 9948SOL     OW30742   6.700   5.773   5.185
 9948SOL    HW130743   6.763   5.708   5.144
 9948SOL    HW230744   6.715   5.776   5.284
 9949SOL     OW30745   0.088   5.195   4.342
 9949SOL    HW130746   0.110   5.262   4.272
 9949SOL    HW230747   0.165   5.131   4.352
 9950SOL     OW30748   6.538   5.202   6.160
 9950SOL    HW130749   6.469   5.220   6.231
 9950SOL    HW230750   6.592   5.122   6.186
 9951SOL     OW30751   1.656   2.709   2.490
 9951SOL    HW130752   1.620   2.626   2.447
 9951SOL    HW230753   1.653   2.784   2.424
 9952SOL     OW30754   0.518   3.590   2.117
 9952SOL    HW130755   0.498   3.672   2.169
 9952SOL    HW230756   0.546   3.615   2.024
 9953SOL     OW30757   6.333   2.515   3.623
 9953SOL    HW130758   6.342   2.420   3.594
 9953SOL    HW230759   6.294   2.569   3.548
 9954SOL     OW30760   2.351   1.664   5.408
 9954SOL    HW130761   2.342   1.581   5.353
 9954SOL    HW230762   2.271   1.722   5.394
 9955SOL     OW30763   4.654   3.178   6.896
 9955SOL    HW130764   4.707   3.144   6.974
 9955SOL    HW230765   4.558   3.189   6.923
 9956SOL     OW30766   0.432   4.059   2.033
 9956SOL    HW130767   0.439   3.976   2.089
 9956SOL    HW230768   0.517   4.111   2.041
 9957SOL     OW30769   5.463   0.105   1.215
 9957SOL    HW130770   5.457   0.133   1.311
 9957SOL    HW230771   5.523   0.026   1.208
 9958SOL     OW30772   3.490   5.612   6.126
 9958SOL    HW130773   3.408   5.556   6.118
 9958SOL    HW230774   3.548   5.577   6.199
 9959SOL     OW30775   4.491   3.418   1.666
 9959SOL    HW130776   4.456   3.510   1.682
 9959SOL    HW230777   4.457   3.356   1.736
 9960SOL     OW30778   6.961   6.010   1.703
 9960SOL    HW130779   7.015   5.949   1.760
 9960SOL    HW230780   6.892   6.056   1.759
 9961SOL     OW30781   2.028   4.519   2.657
 9961SOL    HW130782   1.930   4.536   2.666
 9961SOL    HW230783   2.045   4.470   2.571
 9962SOL     OW30784   3.577   0.822   1.540
 9962SOL    HW130785   3.669   0.859   1.540
 9962SOL    HW230786   3.515   0.886   1.585
 9963SOL     OW30787   2.319   2.312   0.385
 9963SOL    HW130788   2.311   2.258   0.469
 9963SOL    HW230789   2.400   2.370   0.389
 9964SOL     OW30790   3.719   5.031   5.881
 9964SOL    HW130791   3.804   4.997   5.922
 9964SOL    HW230792   3.646   4.965   5.900
 9965SOL     OW30793   3.837   5.482   4.569
 9965SOL    HW130794   3.774   5.449   4.639
 9965SOL    HW230795   3.842   5.582   4.574
 9966SOL     OW30796   2.706   5.025   2.463
 9966SOL    HW130797   2.698   5.080   2.380
 9966SOL    HW230798   2.654   5.070   2.536
 9967SOL     OW30799   6.230   5.625   2.973
 9967SOL    HW130800   6.148   5.656   2.925
 9967SOL    HW230801   6.271   5.701   3.022
 9968SOL     OW30802   4.679   5.452   6.924
 9968SOL    HW130803   4.758   5.457   6.985
 9968SOL    HW230804   4.611   5.521   6.950
 9969SOL     OW30805   1.686   3.004   4.669
 9969SOL    HW130806   1.738   3.030   4.750
 9969SOL    HW230807   1.590   2.988   4.694
 9970SOL     OW30808   6.090   5.033   1.787
 9970SOL    HW130809   6.132   4.944   1.771
 9970SOL    HW230810   6.020   5.051   1.718
 9971SOL     OW30811   1.387   2.833   1.449
 9971SOL    HW130812   1.388   2.878   1.538
 9971SOL    HW230813   1.439   2.747   1.455
 9972SOL     OW30814   2.759   4.029   1.208
 9972SOL    HW130815   2.746   4.052   1.112
 9972SOL    HW230816   2.680   3.978   1.242
 9973SOL     OW30817   4.854   2.980   4.470
 9973SOL    HW130818   4.801   2.897   4.487
 9973SOL    HW230819   4.871   3.027   4.557
 9974SOL     OW30820   6.609   1.627   3.379
 9974SOL    HW130821   6.518   1.639   3.418
 9974SOL    HW230822   6.616   1.679   3.294
 9975SOL     OW30823   0.731   5.450   6.374
 9975SOL    HW130824   0.757   5.365   6.418
 9975SOL    HW230825   0.731   5.438   6.274
 9976SOL     OW30826   0.840   5.026   5.977
 9976SOL    HW130827   0.931   5.060   6.000
 9976SOL    HW230828   0.776   5.103   5.975
 9977SOL     OW30829   5.051   4.667   5.684
 9977SOL    HW130830   5.128   4.640   5.742
 9977SOL    HW230831   4.966   4.631   5.722
 9978SOL     OW30832   0.106   2.082   5.151
 9978SOL    HW130833   0.168   2.160   5.155
 9978SOL    HW230834   0.054   2.084   5.065
 9979SOL     OW30835   6.218   4.368   6.085
 9979SOL    HW130836   6.245   4.350   5.990
 9979SOL    HW230837   6.127   4.329   6.101
 9980SOL     OW30838   2.059   0.391   1.137
 9980SOL    HW130839   2.037   0.302   1.098
 9980SOL    HW230840   2.002   0.407   1.217
 9981SOL     OW30841   1.644   2.176   0.932
 9981SOL    HW130842   1.740   2.152   0.941
 9981SOL    HW230843   1.633   2.245   0.861
 9982SOL     OW30844   1.296   1.010   4.368
 9982SOL    HW130845   1.280   0.934   4.431
 9982SOL    HW230846   1.379   1.060   4.394
 9983SOL     OW30847   6.662   1.869   2.220
 9983SOL    HW130848   6.762   1.858   2.219
 9983SOL    HW230849   6.635   1.916   2.305
 9984SOL     OW30850   0.698   6.080   0.416
 9984SOL    HW130851   0.716   5.996   0.468
 9984SOL    HW230852   0.757   6.082   0.335
 9985SOL     OW30853   2.769   5.278   1.188
 9985SOL    HW130854   2.691   5.336   1.212
 9985SOL    HW230855   2.798   5.299   1.095
 9986SOL     OW30856   6.114   4.831   0.990
 9986SOL    HW130857   6.128   4.773   0.910
 9986SOL    HW230858   6.190   4.820   1.053
 9987SOL     OW30859   5.987   2.772   2.182
 9987SOL    HW130860   6.019   2.709   2.111
 9987SOL    HW230861   5.892   2.750   2.206
 9988SOL     OW30862   6.847   5.182   4.382
 9988SOL    HW130863   6.810   5.091   4.363
 9988SOL    HW230864   6.933   5.194   4.332
 9989SOL     OW30865   5.977   3.946   2.252
 9989SOL    HW130866   6.062   3.985   2.215
 9989SOL    HW230867   5.902   3.963   2.188
 9990SOL     OW30868   2.101   6.368   3.395
 9990SOL    HW130869   2.020   6.384   3.338
 9990SOL    HW230870   2.178   6.342   3.337
 9991SOL     OW30871   2.073   3.714   3.812
 9991SOL    HW130872   2.072   3.617   3.834
 9991SOL    HW230873   2.022   3.764   3.883
 9992SOL     OW30874   3.389   3.403   0.791
 9992SOL    HW130875   3.479   3.420   0.751
 9992SOL    HW230876   3.394   3.327   0.855
 9993SOL     OW30877   3.744   6.543   3.837
 9993SOL    HW130878   3.688   6.472   3.879
 9993SOL    HW230879   3.692   6.586   3.763
 9994SOL     OW30880   6.946   3.694   2.774
 9994SOL    HW130881   6.967   3.604   2.735
 9994SOL    HW230882   6.911   3.754   2.702
 9995SOL     OW30883   3.444   1.518   3.362
 9995SOL    HW130884   3.398   1.533   3.450
 9995SOL    HW230885   3.526   1.575   3.358
 9996SOL     OW30886   3.027   4.201   1.229
 9996SOL    HW130887   2.964   4.124   1.232
 9996SOL    HW230888   3.121   4.167   1.226
 9997SOL     OW30889   5.913   0.763   2.896
 9997SOL    HW130890   5.818   0.795   2.886
 9997SOL    HW230891   5.948   0.735   2.807
 9998SOL     OW30892   5.355   3.908   1.898
 9998SOL    HW130893   5.396   3.883   1.986
 9998SOL    HW230894   5.426   3.908   1.827
 9999SOL     OW30895   6.951   6.384   4.915
 9999SOL    HW130896   6.869   6.327   4.904
 9999SOL    HW230897   0.005   6.350   4.854
10000SOL     OW30898   5.621   1.959   0.782
10000SOL    HW130899   5.673   2.037   0.748
10000SOL    HW230900   5.654   1.875   0.739
10001SOL     OW30901   3.344   0.422   1.584
10001SOL    HW130902   3.397   0.417   1.500
10001SOL    HW230903   3.304   0.513   1.593
10002SOL     OW30904   1.982   1.255   1.376
10002SOL    HW130905   2.041   1.310   1.436
10002SOL    HW230906   1.887   1.265   1.405
10003SOL     OW30907   3.115   2.125   2.586
10003SOL    HW130908   3.117   2.217   2.625
10003SOL    HW230909   3.179   2.066   2.635
10004SOL     OW30910   5.296   3.291   5.342
10004SOL    HW130911   5.341   3.202   5.355
10004SOL    HW230912   5.208   3.289   5.390
10005SOL     OW30913   3.556   5.538   2.907
10005SOL    HW130914   3.517   5.446   2.901
10005SOL    HW230915   3.486   5.606   2.883
10006SOL     OW30916   5.892   6.943   5.597
10006SOL    HW130917   5.795   6.958   5.577
10006SOL    HW230918   5.908   6.958   5.695
10007SOL     OW30919   1.160   3.076   4.279
10007SOL    HW130920   1.189   3.017   4.355
10007SOL    HW230921   1.070   3.115   4.300
10008SOL     OW30922   4.874   1.208   3.331
10008SOL    HW130923   4.831   1.242   3.414
10008SOL    HW230924   4.961   1.164   3.354
10009SOL     OW30925   2.011   4.487   1.643
10009SOL    HW130926   2.077   4.508   1.716
10009SOL    HW230927   2.018   4.555   1.571
10010SOL     OW30928   2.535   6.099   0.709
10010SOL    HW130929   2.561   6.003   0.714
10010SOL    HW230930   2.575   6.141   0.627
10011SOL     OW30931   0.144   4.294   6.813
10011SOL    HW130932   0.126   4.382   6.857
10011SOL    HW230933   0.239   4.293   6.780
10012SOL     OW30934   5.235   0.092   2.152
10012SOL    HW130935   5.315   0.114   2.207
10012SOL    HW230936   5.225   0.160   2.079
10013SOL     OW30937   1.925   2.883   4.341
10013SOL    HW130938   1.900   2.972   4.378
10013SOL    HW230939   1.937   2.818   4.415
10014SOL     OW30940   1.217   0.449   1.607
10014SOL    HW130941   1.210   0.495   1.695
10014SOL    HW230942   1.302   0.396   1.604
10015SOL     OW30943   4.299   4.914   0.446
10015SOL    HW130944   4.352   4.840   0.488
10015SOL    HW230945   4.210   4.921   0.490
10016SOL     OW30946   2.616   1.189   4.537
10016SOL    HW130947   2.639   1.102   4.582
10016SOL    HW230948   2.549   1.238   4.593
10017SOL     OW30949   1.770   1.534   2.830
10017SOL    HW130950   1.817   1.567   2.749
10017SOL    HW230951   1.715   1.454   2.807
10018SOL     OW30952   6.763   4.743   5.724
10018SOL    HW130953   6.761   4.728   5.823
10018SOL    HW230954   6.740   4.657   5.677
10019SOL     OW30955   6.920   1.437   3.092
10019SOL    HW130956   7.014   1.409   3.071
10019SOL    HW230957   6.862   1.423   3.011
10020SOL     OW30958   0.064   1.125   1.691
10020SOL    HW130959   6.989   1.162   1.686
10020SOL    HW230960   0.071   1.062   1.768
10021SOL     OW30961   0.701   2.981   2.881
10021SOL    HW130962   0.791   3.023   2.893
10021SOL    HW230963   0.632   3.052   2.868
10022SOL     OW30964   3.376   6.659   0.712
10022SOL    HW130965   3.408   6.747   0.676
10022SOL    HW230966   3.311   6.676   0.786
10023SOL     OW30967   2.193   5.620   4.443
10023SOL    HW130968   2.194   5.586   4.537
10023SOL    HW230969   2.099   5.631   4.412
10024SOL     OW30970   1.454   5.732   2.305
10024SOL    HW130971   1.425   5.721   2.210
10024SOL    HW230972   1.399   5.673   2.364
10025SOL     OW30973   1.290   2.948   2.422
10025SOL    HW130974   1.240   2.915   2.342
10025SOL    HW230975   1.388   2.934   2.408
10026SOL     OW30976   5.174   0.274   3.363
10026SOL    HW130977   5.190   0.362   3.320
10026SOL    HW230978   5.258   0.242   3.408
10027SOL     OW30979   0.753   2.504   4.760
10027SOL    HW130980   0.654   2.515   4.760
10027SOL    HW230981   0.784   2.480   4.668
10028SOL     OW30982   1.999   1.593   1.849
10028SOL    HW130983   1.914   1.550   1.819
10028SOL    HW230984   2.076   1.532   1.829
10029SOL     OW30985   1.825   2.519   3.841
10029SOL    HW130986   1.741   2.507   3.895
10029SOL    HW230987   1.903   2.485   3.894
10030SOL     OW30988   3.357   0.462   5.286
10030SOL    HW130989   3.455   0.445   5.276
10030SOL    HW230990   3.316   0.388   5.339
10031SOL     OW30991   5.310   4.546   4.829
10031SOL    HW130992   5.381   4.490   4.786
10031SOL    HW230993   5.330   4.642   4.813
10032SOL     OW30994   4.562   0.724   5.613
10032SOL    HW130995   4.574   0.783   5.534
10032SOL    HW230996   4.646   0.671   5.628
10033SOL     OW30997   4.606   2.633   4.313
10033SOL    HW130998   4.684   2.600   4.259
10033SOL    HW230999   4.562   2.555   4.358
10034SOL     OW31000   2.961   0.575   4.141
10034SOL    HW131001   2.876   0.610   4.102
10034SOL    HW231002   2.963   0.475   4.132
10035SOL     OW31003   6.859   4.774   0.815
10035SOL    HW131004   6.868   4.803   0.720
10035SOL    HW231005   6.942   4.799   0.865
10036SOL     OW31006   6.355   0.779   0.831
10036SOL    HW131007   6.399   0.864   0.859
10036SOL    HW231008   6.405   0.740   0.753
10037SOL     OW31009   6.383   0.805   0.032
10037SOL    HW131010   6.373   0.729   6.985
10037SOL    HW231011   6.438   0.877   7.009
10038SOL     OW31012   4.195   6.834   6.719
10038SOL    HW131013   4.180   6.884   6.804
10038SOL    HW231014   4.107   6.804   6.683
10039SOL     OW31015   4.369   6.667   5.188
10039SOL    HW131016   4.428   6.726   5.133
10039SOL    HW231017   4.409   6.575   5.194
10040SOL     OW31018   4.090   5.660   6.134
10040SOL    HW131019   4.019   5.611   6.083
10040SOL    HW231020   4.139   5.721   6.072
10041SOL     OW31021   4.908   5.884   6.587
10041SOL    HW131022   4.866   5.827   6.658
10041SOL    HW231023   4.836   5.936   6.540
10042SOL     OW31024   1.068   1.683   5.282
10042SOL    HW131025   1.036   1.778   5.289
10042SOL    HW231026   1.153   1.681   5.229
10043SOL     OW31027   0.239   1.503   4.355
10043SOL    HW131028   0.286   1.561   4.422
10043SOL    HW231029   0.260   1.535   4.262
10044SOL     OW31030   2.497   1.942   3.463
10044SOL    HW131031   2.398   1.926   3.465
10044SOL    HW231032   2.545   1.854   3.461
10045SOL     OW31033   4.981   6.636   3.492
10045SOL    HW131034   4.940   6.715   3.447
10045SOL    HW231035   5.000   6.658   3.588
10046SOL     OW31036   1.040   3.606   1.502
10046SOL    HW131037   0.943   3.603   1.528
10046SOL    HW231038   1.095   3.562   1.572
10047SOL     OW31039   5.860   3.989   5.021
10047SOL    HW131040   5.903   3.898   5.018
10047SOL    HW231041   5.829   4.014   4.929
10048SOL     OW31042   4.747   2.025   2.358
10048SOL    HW131043   4.734   2.100   2.423
10048SOL    HW231044   4.845   2.007   2.348
10049SOL     OW31045   0.467   0.564   6.898
10049SOL    HW131046   0.396   0.532   6.961
10049SOL    HW231047   0.517   0.640   6.941
10050SOL     OW31048   6.854   2.216   4.987
10050SOL    HW131049   6.937   2.264   4.962
10050SOL    HW231050   6.854   2.125   4.946
10051SOL     OW31051   6.268   2.388   4.975
10051SOL    HW131052   6.170   2.365   4.975
10051SOL    HW231053   6.319   2.318   5.025
10052SOL     OW31054   3.000   2.103   2.888
10052SOL    HW131055   2.969   2.009   2.874
10052SOL    HW231056   2.965   2.160   2.813
10053SOL     OW31057   3.494   6.083   1.834
10053SOL    HW131058   3.447   6.158   1.788
10053SOL    HW231059   3.581   6.066   1.789
10054SOL     OW31060   4.671   5.354   6.232
10054SOL    HW131061   4.579   5.378   6.264
10054SOL    HW231062   4.671   5.351   6.132
10055SOL     OW31063   6.115   2.601   5.260
10055SOL    HW131064   6.148   2.691   5.231
10055SOL    HW231065   6.121   2.538   5.183
10056SOL     OW31066   5.813   4.786   1.229
10056SOL    HW131067   5.768   4.856   1.173
10056SOL    HW231068   5.753   4.763   1.306
10057SOL     OW31069   3.829   2.166   4.662
10057SOL    HW131070   3.893   2.091   4.681
10057SOL    HW231071   3.880   2.252   4.654
10058SOL     OW31072   0.601   3.901   4.628
10058SOL    HW131073   0.523   3.843   4.652
10058SOL    HW231074   0.570   3.994   4.614
10059SOL     OW31075   5.300   6.369   1.081
10059SOL    HW131076   5.210   6.345   1.045
10059SOL    HW231077   5.290   6.430   1.159
10060SOL     OW31078   1.810   1.456   1.680
10060SOL    HW131079   1.758   1.541   1.678
10060SOL    HW231080   1.781   1.397   1.604
10061SOL     OW31081   5.513   1.163   4.760
10061SOL    HW131082   5.468   1.252   4.749
10061SOL    HW231083   5.610   1.171   4.737
10062SOL     OW31084   6.449   0.286   4.310
10062SOL    HW131085   6.391   0.213   4.345
10062SOL    HW231086   6.394   0.367   4.292
10063SOL     OW31087   1.670   1.314   3.841
10063SOL    HW131088   1.699   1.290   3.748
10063SOL    HW231089   1.748   1.310   3.902
10064SOL     OW31090   5.093   6.735   7.001
10064SOL    HW131091   5.086   6.763   0.079
10064SOL    HW231092   5.188   6.740   6.972
10065SOL     OW31093   1.935   6.688   2.592
10065SOL    HW131094   1.849   6.738   2.585
10065SOL    HW231095   2.008   6.751   2.619
10066SOL     OW31096   0.670   1.209   3.198
10066SOL    HW131097   0.759   1.227   3.158
10066SOL    HW231098   0.672   1.123   3.248
10067SOL     OW31099   6.214   4.276   4.802
10067SOL    HW131100   6.304   4.318   4.809
10067SOL    HW231101   6.218   4.183   4.839
10068SOL     OW31102   6.613   2.908   2.693
10068SOL    HW131103   6.648   2.894   2.601
10068SOL    HW231104   6.578   3.002   2.701
10069SOL     OW31105   1.855   5.499   3.926
10069SOL    HW131106   1.762   5.511   3.892
10069SOL    HW231107   1.882   5.403   3.918
10070SOL     OW31108   6.560   0.115   5.074
10070SOL    HW131109   6.572   0.199   5.022
10070SOL    HW231110   6.638   0.103   5.136
10071SOL     OW31111   6.190   5.617   3.689
10071SOL    HW131112   6.132   5.543   3.724
10071SOL    HW231113   6.285   5.585   3.685
10072SOL     OW31114   0.420   6.653   4.044
10072SOL    HW131115   0.361   6.649   3.963
10072SOL    HW231116   0.363   6.649   4.126
10073SOL     OW31117   6.294   4.921   5.275
10073SOL    HW131118   6.375   4.900   5.330
10073SOL    HW231119   6.213   4.879   5.317
10074SOL     OW31120   1.371   0.841   5.555
10074SOL    HW131121   1.336   0.887   5.474
10074SOL    HW231122   1.406   0.909   5.619
10075SOL     OW31123   1.323   2.914   3.500
10075SOL    HW131124   1.242   2.858   3.521
10075SOL    HW231125   1.295   2.998   3.454
10076SOL     OW31126   6.874   0.418   3.287
10076SOL    HW131127   6.970   0.442   3.305
10076SOL    HW231128   6.815   0.464   3.353
10077SOL     OW31129   3.706   2.850   6.279
10077SOL    HW131130   3.794   2.884   6.246
10077SOL    HW231131   3.645   2.927   6.298
10078SOL     OW31132   0.171   5.337   3.639
10078SOL    HW131133   0.112   5.330   3.720
10078SOL    HW231134   0.265   5.355   3.668
10079SOL     OW31135   0.022   3.735   2.070
10079SOL    HW131136   7.004   3.659   2.017
10079SOL    HW231137   0.109   3.764   2.031
10080SOL     OW31138   3.535   1.042   5.344
10080SOL    HW131139   3.562   1.054   5.249
10080SOL    HW231140   3.615   1.050   5.404
10081SOL     OW31141   6.897   0.179   0.730
10081SOL    HW131142   6.861   0.087   0.715
10081SOL    HW231143   6.928   0.188   0.824
10082SOL     OW31144   7.011   4.720   1.995
10082SOL    HW131145   0.061   4.701   1.924
10082SOL    HW231146   6.982   4.634   2.037
10083SOL     OW31147   5.487   0.710   3.208
10083SOL    HW131148   5.555   0.740   3.141
10083SOL    HW231149   5.395   0.733   3.175
10084SOL     OW31150   2.919   1.412   5.734
10084SOL    HW131151   2.968   1.338   5.781
10084SOL    HW231152   2.840   1.440   5.789
10085SOL     OW31153   1.601   6.233   2.184
10085SOL    HW131154   1.591   6.293   2.104
10085SOL    HW231155   1.672   6.270   2.244
10086SOL     OW31156   5.587   5.527   2.569
10086SOL    HW131157   5.541   5.438   2.560
10086SOL    HW231158   5.575   5.560   2.663
10087SOL     OW31159   0.323   0.221   3.383
10087SOL    HW131160   0.317   0.289   3.456
10087SOL    HW231161   0.419   0.208   3.357
10088SOL     OW31162   6.648   0.533   0.824
10088SOL    HW131163   6.699   0.484   0.752
10088SOL    HW231164   6.560   0.563   0.788
10089SOL     OW31165   3.200   1.970   2.286
10089SOL    HW131166   3.215   1.941   2.381
10089SOL    HW231167   3.127   2.038   2.283
10090SOL     OW31168   1.330   4.564   1.044
10090SOL    HW131169   1.397   4.636   1.062
10090SOL    HW231170   1.246   4.583   1.095
10091SOL     OW31171   1.455   3.671   5.728
10091SOL    HW131172   1.475   3.769   5.735
10091SOL    HW231173   1.503   3.633   5.648
10092SOL     OW31174   1.977   3.168   5.171
10092SOL    HW131175   2.031   3.207   5.246
10092SOL    HW231176   2.038   3.126   5.104
10093SOL     OW31177   6.713   3.732   5.040
10093SOL    HW131178   6.664   3.715   4.955
10093SOL    HW231179   6.786   3.799   5.024
10094SOL     OW31180   2.226   5.615   2.013
10094SOL    HW131181   2.147   5.642   1.959
10094SOL    HW231182   2.202   5.537   2.071
10095SOL     OW31183   5.582   1.661   5.283
10095SOL    HW131184   5.495   1.622   5.254
10095SOL    HW231185   5.618   1.608   5.359
10096SOL     OW31186   5.169   4.963   2.483
10096SOL    HW131187   5.094   4.945   2.419
10096SOL    HW231188   5.136   4.955   2.576
10097SOL     OW31189   0.816   0.921   0.717
10097SOL    HW131190   0.900   0.910   0.664
10097SOL    HW231191   0.786   0.832   0.751
10098SOL     OW31192   2.952   0.980   5.077
10098SOL    HW131193   3.035   0.992   5.131
10098SOL    HW231194   2.949   0.887   5.040
10099SOL     OW31195   6.900   5.000   1.032
10099SOL    HW131196   6.865   5.085   0.992
10099SOL    HW231197   6.986   4.976   0.987
10100SOL     OW31198   5.133   0.302   4.701
10100SOL    HW131199   5.163   0.234   4.634
10100SOL    HW231200   5.058   0.266   4.755
10101SOL     OW31201   5.944   4.337   1.698
10101SOL    HW131202   5.941   4.291   1.787
10101SOL    HW231203   6.033   4.320   1.656
10102SOL     OW31204   1.328   1.018   1.954
10102SOL    HW131205   1.306   1.113   1.932
10102SOL    HW231206   1.422   1.014   1.989
10103SOL     OW31207   2.707   0.879   6.542
10103SOL    HW131208   2.632   0.943   6.555
10103SOL    HW231209   2.676   0.802   6.486
10104SOL     OW31210   1.876   2.047   3.886
10104SOL    HW131211   1.877   2.085   3.978
10104SOL    HW231212   1.817   1.966   3.884
10105SOL     OW31213   1.394   0.777   0.781
10105SOL    HW131214   1.492   0.798   0.772
10105SOL    HW231215   1.372   0.700   0.721
10106SOL     OW31216   4.250   6.730   1.017
10106SOL    HW131217   4.185   6.690   0.952
10106SOL    HW231218   4.343   6.716   0.984
10107SOL     OW31219   6.906   1.228   6.623
10107SOL    HW131220   6.815   1.256   6.654
10107SOL    HW231221   6.945   1.299   6.564
10108SOL     OW31222   6.565   6.466   0.547
10108SOL    HW131223   6.663   6.473   0.528
10108SOL    HW231224   6.547   6.493   0.641
10109SOL     OW31225   5.056   0.190   0.636
10109SOL    HW131226   5.082   0.248   0.559
10109SOL    HW231227   5.014   0.246   0.708
10110SOL     OW31228   4.066   6.150   4.490
10110SOL    HW131229   4.111   6.136   4.402
10110SOL    HW231230   4.003   6.074   4.508
10111SOL     OW31231   5.209   3.785   3.361
10111SOL    HW131232   5.221   3.706   3.421
10111SOL    HW231233   5.220   3.869   3.414
10112SOL     OW31234   5.607   3.872   3.585
10112SOL    HW131235   5.611   3.807   3.661
10112SOL    HW231236   5.665   3.839   3.510
10113SOL     OW31237   4.546   0.144   6.028
10113SOL    HW131238   4.594   0.121   5.943
10113SOL    HW231239   4.537   0.062   6.084
10114SOL     OW31240   5.984   1.447   0.995
10114SOL    HW131241   5.977   1.350   0.973
10114SOL    HW231242   5.951   1.502   0.918
10115SOL     OW31243   3.727   1.840   4.346
10115SOL    HW131244   3.705   1.870   4.439
10115SOL    HW231245   3.646   1.849   4.289
10116SOL     OW31246   0.275   6.289   0.951
10116SOL    HW131247   0.312   6.281   0.858
10116SOL    HW231248   0.208   6.363   0.954
10117SOL     OW31249   6.415   6.246   5.613
10117SOL    HW131250   6.345   6.316   5.624
10117SOL    HW231251   6.373   6.155   5.621
10118SOL     OW31252   2.130   4.995   2.796
10118SOL    HW131253   2.065   5.070   2.784
10118SOL    HW231254   2.151   4.985   2.894
10119SOL     OW31255   0.335   6.131   4.702
10119SOL    HW131256   0.298   6.103   4.614
10119SOL    HW231257   0.377   6.053   4.748
10120SOL     OW31258   1.854   3.922   4.953
10120SOL    HW131259   1.759   3.950   4.938
10120SOL    HW231260   1.911   4.003   4.965
10121SOL     OW31261   6.413   4.089   6.704
10121SOL    HW131262   6.391   4.105   6.800
10121SOL    HW231263   6.453   4.171   6.664
10122SOL     OW31264   6.258   3.409   1.340
10122SOL    HW131265   6.331   3.477   1.333
10122SOL    HW231266   6.297   3.318   1.354
10123SOL     OW31267   5.653   0.144   0.041
10123SOL    HW131268   5.686   0.152   0.135
10123SOL    HW231269   5.576   0.080   0.038
10124SOL     OW31270   1.520   4.187   0.282
10124SOL    HW131271   1.441   4.126   0.281
10124SOL    HW231272   1.563   4.185   0.373
10125SOL     OW31273   1.881   1.674   2.060
10125SOL    HW131274   1.956   1.656   1.996
10125SOL    HW231275   1.853   1.588   2.102
10126SOL     OW31276   0.283   6.700   6.258
10126SOL    HW131277   0.274   6.781   6.317
10126SOL    HW231278   0.229   6.714   6.175
10127SOL     OW31279   2.811   4.923   6.462
10127SOL    HW131280   2.767   4.839   6.431
10127SOL    HW231281   2.835   4.915   6.559
10128SOL     OW31282   2.793   1.097   1.680
10128SOL    HW131283   2.795   1.154   1.598
10128SOL    HW231284   2.861   1.023   1.671
10129SOL     OW31285   5.626   2.101   2.376
10129SOL    HW131286   5.567   2.072   2.451
10129SOL    HW231287   5.599   2.054   2.292
10130SOL     OW31288   1.371   3.475   1.881
10130SOL    HW131289   1.463   3.465   1.917
10130SOL    HW231290   1.376   3.500   1.784
10131SOL     OW31291   1.053   6.939   4.258
10131SOL    HW131292   0.960   6.961   4.230
10131SOL    HW231293   1.117   7.002   4.215
10132SOL     OW31294   3.663   7.018   4.776
10132SOL    HW131295   3.686   6.940   4.834
10132SOL    HW231296   3.709   7.008   4.688
10133SOL     OW31297   3.718   6.460   1.060
10133SOL    HW131298   3.690   6.491   0.969
10133SOL    HW231299   3.648   6.400   1.098
10134SOL     OW31300   0.071   6.560   3.422
10134SOL    HW131301   0.078   6.470   3.378
10134SOL    HW231302   0.149   6.574   3.482
10135SOL     OW31303   4.876   3.278   3.462
10135SOL    HW131304   4.793   3.232   3.493
10135SOL    HW231305   4.937   3.211   3.419
10136SOL     OW31306   5.402   0.585   2.497
10136SOL    HW131307   5.496   0.589   2.531
10136SOL    HW231308   5.369   0.491   2.501
10137SOL     OW31309   6.283   4.019   4.147
10137SOL    HW131310   6.286   4.074   4.231
10137SOL    HW231311   6.290   4.079   4.068
10138SOL     OW31312   4.924   3.314   0.616
10138SOL    HW131313   5.023   3.303   0.621
10138SOL    HW231314   4.901   3.382   0.547
10139SOL     OW31315   3.141   4.029   3.046
10139SOL    HW131316   3.167   3.933   3.058
10139SOL    HW231317   3.100   4.064   3.131
10140SOL     OW31318   5.809   6.139   6.982
10140SOL    HW131319   5.759   6.213   0.009
10140SOL    HW231320   5.881   6.106   0.025
10141SOL     OW31321   3.656   1.604   5.113
10141SOL    HW131322   3.705   1.636   5.194
10141SOL    HW231323   3.662   1.504   5.107
10142SOL     OW31324   5.938   6.530   5.044
10142SOL    HW131325   5.972   6.598   5.109
10142SOL    HW231326   6.009   6.509   4.977
10143SOL     OW31327   4.927   1.184   6.777
10143SOL    HW131328   4.946   1.105   6.836
10143SOL    HW231329   4.828   1.201   6.775
10144SOL     OW31330   3.403   0.326   6.259
10144SOL    HW131331   3.336   0.397   6.239
10144SOL    HW231332   3.356   0.245   6.294
10145SOL     OW31333   2.415   5.603   4.299
10145SOL    HW131334   2.345   5.622   4.368
10145SOL    HW231335   2.496   5.659   4.317
10146SOL     OW31336   4.330   4.709   4.818
10146SOL    HW131337   4.366   4.647   4.887
10146SOL    HW231338   4.239   4.740   4.844
10147SOL     OW31339   4.971   4.083   5.314
10147SOL    HW131340   5.041   4.133   5.365
10147SOL    HW231341   4.963   3.990   5.350
10148SOL     OW31342   5.247   4.902   6.712
10148SOL    HW131343   5.224   4.995   6.682
10148SOL    HW231344   5.329   4.871   6.663
10149SOL     OW31345   5.669   3.343   0.411
10149SOL    HW131346   5.626   3.263   0.369
10149SOL    HW231347   5.750   3.313   0.462
10150SOL     OW31348   3.569   3.907   0.164
10150SOL    HW131349   3.554   3.829   0.226
10150SOL    HW231350   3.636   3.969   0.204
10151SOL     OW31351   0.754   6.302   6.964
10151SOL    HW131352   0.739   6.206   6.942
10151SOL    HW231353   0.698   6.359   6.903
10152SOL     OW31354   6.813   6.199   4.473
10152SOL    HW131355   6.842   6.288   4.507
10152SOL    HW231356   6.878   6.129   4.503
10153SOL     OW31357   4.962   6.282   3.740
10153SOL    HW131358   4.932   6.288   3.835
10153SOL    HW231359   4.896   6.228   3.687
10154SOL     OW31360   4.567   6.623   5.773
10154SOL    HW131361   4.503   6.647   5.846
10154SOL    HW231362   4.551   6.683   5.694
10155SOL     OW31363   3.680   2.423   5.447
10155SOL    HW131364   3.726   2.487   5.509
10155SOL    HW231365   3.740   2.346   5.428
10156SOL     OW31366   5.820   0.737   2.521
10156SOL    HW131367   5.898   0.795   2.499
10156SOL    HW231368   5.836   0.645   2.483
10157SOL     OW31369   6.749   1.845   0.773
10157SOL    HW131370   6.789   1.868   0.862
10157SOL    HW231371   6.657   1.884   0.767
10158SOL     OW31372   5.858   5.082   0.659
10158SOL    HW131373   5.785   5.062   0.594
10158SOL    HW231374   5.822   5.138   0.734
10159SOL     OW31375   2.237   3.427   0.102
10159SOL    HW131376   2.335   3.422   0.085
10159SOL    HW231377   2.188   3.441   0.016
10160SOL     OW31378   1.791   3.091   2.069
10160SOL    HW131379   1.865   3.048   2.016
10160SOL    HW231380   1.829   3.159   2.131
10161SOL     OW31381   2.953   2.705   0.283
10161SOL    HW131382   2.998   2.759   0.355
10161SOL    HW231383   2.943   2.611   0.314
10162SOL     OW31384   3.767   4.675   0.826
10162SOL    HW131385   3.679   4.651   0.867
10162SOL    HW231386   3.827   4.714   0.896
10163SOL     OW31387   6.219   4.376   6.754
10163SOL    HW131388   6.281   4.352   6.679
10163SOL    HW231389   6.245   4.465   6.791
10164SOL     OW31390   6.025   3.467   4.260
10164SOL    HW131391   6.099   3.416   4.218
10164SOL    HW231392   5.937   3.428   4.232
10165SOL     OW31393   6.604   1.732   3.121
10165SOL    HW131394   6.558   1.816   3.149
10165SOL    HW231395   6.683   1.754   3.064
10166SOL     OW31396   3.295   1.941   1.858
10166SOL    HW131397   3.280   1.889   1.942
10166SOL    HW231398   3.347   2.024   1.878
10167SOL     OW31399   2.081   4.360   6.767
10167SOL    HW131400   2.130   4.283   6.727
10167SOL    HW231401   2.141   4.410   6.828
10168SOL     OW31402   5.964   3.268   6.387
10168SOL    HW131403   5.940   3.188   6.332
10168SOL    HW231404   5.992   3.238   6.478
10169SOL     OW31405   6.711   4.517   3.740
10169SOL    HW131406   6.724   4.433   3.687
10169SOL    HW231407   6.800   4.555   3.765
10170SOL     OW31408   6.964   5.774   5.546
10170SOL    HW131409   0.011   5.823   5.605
10170SOL    HW231410   6.994   5.781   5.451
10171SOL     OW31411   6.872   2.465   4.703
10171SOL    HW131412   6.940   2.461   4.775
10171SOL    HW231413   6.918   2.472   4.614
10172SOL     OW31414   0.035   6.084   4.980
10172SOL    HW131415   0.063   6.033   5.061
10172SOL    HW231416   6.955   6.069   4.963
10173SOL     OW31417   1.569   3.003   0.832
10173SOL    HW131418   1.651   3.000   0.774
10173SOL    HW231419   1.487   2.999   0.775
10174SOL     OW31420   4.804   4.622   3.254
10174SOL    HW131421   4.777   4.536   3.211
10174SOL    HW231422   4.903   4.626   3.265
10175SOL     OW31423   5.941   1.712   3.758
10175SOL    HW131424   5.917   1.623   3.718
10175SOL    HW231425   5.905   1.717   3.851
10176SOL     OW31426   0.638   3.687   4.877
10176SOL    HW131427   0.692   3.772   4.873
10176SOL    HW231428   0.541   3.709   4.870
10177SOL     OW31429   2.536   0.459   1.500
10177SOL    HW131430   2.511   0.537   1.442
10177SOL    HW231431   2.519   0.374   1.452
10178SOL     OW31432   0.877   1.072   6.052
10178SOL    HW131433   0.874   0.982   6.008
10178SOL    HW231434   0.796   1.083   6.110
10179SOL     OW31435   0.783   2.768   6.474
10179SOL    HW131436   0.774   2.713   6.558
10179SOL    HW231437   0.875   2.757   6.437
10180SOL     OW31438   4.165   0.900   5.760
10180SOL    HW131439   4.239   0.947   5.711
10180SOL    HW231440   4.200   0.815   5.800
10181SOL     OW31441   6.489   3.177   0.968
10181SOL    HW131442   6.448   3.263   0.999
10181SOL    HW231443   6.585   3.193   0.944
10182SOL     OW31444   4.582   0.889   1.907
10182SOL    HW131445   4.497   0.912   1.955
10182SOL    HW231446   4.636   0.827   1.963
10183SOL     OW31447   0.201   2.968   6.644
10183SOL    HW131448   0.123   2.950   6.586
10183SOL    HW231449   0.182   3.047   6.703
10184SOL     OW31450   3.856   1.668   5.865
10184SOL    HW131451   3.925   1.741   5.868
10184SOL    HW231452   3.836   1.638   5.958
10185SOL     OW31453   6.461   6.042   2.782
10185SOL    HW131454   6.507   5.966   2.828
10185SOL    HW231455   6.522   6.122   2.781
10186SOL     OW31456   5.702   3.599   4.060
10186SOL    HW131457   5.644   3.521   4.079
10186SOL    HW231458   5.794   3.568   4.035
10187SOL     OW31459   1.217   3.731   0.607
10187SOL    HW131460   1.306   3.688   0.591
10187SOL    HW231461   1.228   3.808   0.670
10188SOL     OW31462   4.059   5.255   0.518
10188SOL    HW131463   4.051   5.182   0.586
10188SOL    HW231464   3.993   5.327   0.537
10189SOL     OW31465   1.242   0.901   5.933
10189SOL    HW131466   1.267   0.809   5.965
10189SOL    HW231467   1.163   0.894   5.872
10190SOL     OW31468   4.976   3.508   2.117
10190SOL    HW131469   4.962   3.435   2.050
10190SOL    HW231470   5.036   3.578   2.077
10191SOL     OW31471   4.475   6.292   6.681
10191SOL    HW131472   4.496   6.288   6.584
10191SOL    HW231473   4.419   6.212   6.707
10192SOL     OW31474   4.269   1.585   4.862
10192SOL    HW131475   4.362   1.552   4.843
10192SOL    HW231476   4.263   1.613   4.958
10193SOL     OW31477   3.785   2.870   1.917
10193SOL    HW131478   3.695   2.881   1.874
10193SOL    HW231479   3.787   2.922   2.002
10194SOL     OW31480   5.522   6.216   5.523
10194SOL    HW131481   5.466   6.168   5.456
10194SOL    HW231482   5.618   6.209   5.498
10195SOL     OW31483   5.977   5.974   0.511
10195SOL    HW131484   5.945   5.912   0.439
10195SOL    HW231485   5.898   6.009   0.562
10196SOL     OW31486   4.339   1.912   3.946
10196SOL    HW131487   4.401   1.987   3.922
10196SOL    HW231488   4.369   1.870   4.031
10197SOL     OW31489   5.748   1.186   5.095
10197SOL    HW131490   5.786   1.116   5.035
10197SOL    HW231491   5.798   1.186   5.182
10198SOL     OW31492   2.808   6.609   3.037
10198SOL    HW131493   2.875   6.536   3.050
10198SOL    HW231494   2.726   6.590   3.091
10199SOL     OW31495   2.043   3.448   0.538
10199SOL    HW131496   2.134   3.467   0.574
10199SOL    HW231497   1.977   3.513   0.578
10200SOL     OW31498   4.864   2.629   6.443
10200SOL    HW131499   4.831   2.563   6.376
10200SOL    HW231500   4.789   2.689   6.471
10201SOL     OW31501   1.249   5.111   0.391
10201SOL    HW131502   1.343   5.114   0.357
10201SOL    HW231503   1.196   5.046   0.336
10202SOL     OW31504   3.547   4.600   0.947
10202SOL    HW131505   3.537   4.516   1.002
10202SOL    HW231506   3.471   4.661   0.968
10203SOL     OW31507   6.581   2.565   2.604
10203SOL    HW131508   6.509   2.546   2.671
10203SOL    HW231509   6.562   2.653   2.560
10204SOL     OW31510   5.022   6.179   0.312
10204SOL    HW131511   4.989   6.086   0.327
10204SOL    HW231512   5.110   6.191   0.357
10205SOL     OW31513   2.421   0.507   2.059
10205SOL    HW131514   2.451   0.600   2.079
10205SOL    HW231515   2.382   0.504   1.966
10206SOL     OW31516   6.538   0.422   6.685
10206SOL    HW131517   6.595   0.503   6.676
10206SOL    HW231518   6.558   0.358   6.611
10207SOL     OW31519   1.237   1.848   6.705
10207SOL    HW131520   1.187   1.881   6.784
10207SOL    HW231521   1.303   1.918   6.675
10208SOL     OW31522   6.298   4.749   3.915
10208SOL    HW131523   6.329   4.821   3.853
10208SOL    HW231524   6.373   4.687   3.935
10209SOL     OW31525   0.219   6.749   0.379
10209SOL    HW131526   0.144   6.797   0.424
10209SOL    HW231527   0.204   6.650   0.386
10210SOL     OW31528   4.350   6.904   1.861
10210SOL    HW131529   4.359   6.993   1.906
10210SOL    HW231530   4.438   6.858   1.859
10211SOL     OW31531   4.101   6.469   4.760
10211SOL    HW131532   4.122   6.382   4.805
10211SOL    HW231533   4.120   6.462   4.662
10212SOL     OW31534   0.089   0.221   5.715
10212SOL    HW131535   0.065   0.173   5.631
10212SOL    HW231536   0.189   0.222   5.726
10213SOL     OW31537   5.938   2.603   1.573
10213SOL    HW131538   6.033   2.590   1.599
10213SOL    HW231539   5.932   2.620   1.474
10214SOL     OW31540   0.651   1.771   1.678
10214SOL    HW131541   0.586   1.822   1.735
10214SOL    HW231542   0.743   1.805   1.694
10215SOL     OW31543   3.821   2.959   3.900
10215SOL    HW131544   3.859   3.051   3.914
10215SOL    HW231545   3.849   2.899   3.975
10216SOL     OW31546   0.243   1.451   1.314
10216SOL    HW131547   0.143   1.452   1.309
10216SOL    HW231548   0.280   1.472   1.224
10217SOL     OW31549   3.055   1.368   3.035
10217SOL    HW131550   3.137   1.365   3.093
10217SOL    HW231551   2.987   1.304   3.071
10218SOL     OW31552   1.286   1.603   1.740
10218SOL    HW131553   1.274   1.665   1.662
10218SOL    HW231554   1.325   1.654   1.817
10219SOL     OW31555   0.450   1.672   3.402
10219SOL    HW131556   0.492   1.730   3.472
10219SOL    HW231557   0.499   1.682   3.316
10220SOL     OW31558   4.786   1.779   0.703
10220SOL    HW131559   4.876   1.808   0.733
10220SOL    HW231560   4.730   1.756   0.782
10221SOL     OW31561   1.275   4.403   3.907
10221SOL    HW131562   1.304   4.481   3.961
10221SOL    HW231563   1.225   4.339   3.965
10222SOL     OW31564   3.116   4.278   5.319
10222SOL    HW131565   3.085   4.369   5.348
10222SOL    HW231566   3.053   4.209   5.353
10223SOL     OW31567   2.011   4.543   1.052
10223SOL    HW131568   2.105   4.550   1.021
10223SOL    HW231569   2.004   4.470   1.120
10224SOL     OW31570   5.788   2.989   5.844
10224SOL    HW131571   5.858   2.918   5.846
10224SOL    HW231572   5.752   2.998   5.751
10225SOL     OW31573   0.954   5.653   5.480
10225SOL    HW131574   0.856   5.666   5.463
10225SOL    HW231575   0.981   5.708   5.559
10226SOL     OW31576   2.280   0.033   6.098
10226SOL    HW131577   2.347   0.070   6.034
10226SOL    HW231578   2.233   6.973   6.056
10227SOL     OW31579   5.713   4.951   1.049
10227SOL    HW131580   5.641   4.958   0.980
10227SOL    HW231581   5.798   4.989   1.014
10228SOL     OW31582   0.486   6.224   2.054
10228SOL    HW131583   0.504   6.262   1.963
10228SOL    HW231584   0.570   6.185   2.091
10229SOL     OW31585   1.783   3.062   4.928
10229SOL    HW131586   1.776   3.160   4.949
10229SOL    HW231587   1.814   3.013   5.009
10230SOL     OW31588   6.038   6.493   2.972
10230SOL    HW131589   6.070   6.546   2.893
10230SOL    HW231590   5.953   6.446   2.947
10231SOL     OW31591   6.716   4.528   5.208
10231SOL    HW131592   6.617   4.512   5.208
10231SOL    HW231593   6.733   4.626   5.217
10232SOL     OW31594   3.342   1.531   3.606
10232SOL    HW131595   3.341   1.454   3.670
10232SOL    HW231596   3.250   1.546   3.570
10233SOL     OW31597   3.666   4.176   4.902
10233SOL    HW131598   3.709   4.264   4.920
10233SOL    HW231599   3.650   4.166   4.804
10234SOL     OW31600   6.054   0.890   0.617
10234SOL    HW131601   6.076   0.874   0.521
10234SOL    HW231602   5.978   0.955   0.623
10235SOL     OW31603   3.006   2.391   1.114
10235SOL    HW131604   3.094   2.429   1.143
10235SOL    HW231605   2.936   2.415   1.182
10236SOL     OW31606   2.383   1.179   0.263
10236SOL    HW131607   2.419   1.231   0.185
10236SOL    HW231608   2.324   1.105   0.229
10237SOL     OW31609   1.078   3.958   6.422
10237SOL    HW131610   0.992   3.917   6.452
10237SOL    HW231611   1.059   4.042   6.371
10238SOL     OW31612   3.860   4.227   1.727
10238SOL    HW131613   3.774   4.188   1.695
10238SOL    HW231614   3.894   4.174   1.805
10239SOL     OW31615   1.699   3.318   5.760
10239SOL    HW131616   1.688   3.228   5.801
10239SOL    HW231617   1.796   3.337   5.747
10240SOL     OW31618   1.979   4.810   2.551
10240SOL    HW131619   1.940   4.901   2.534
10240SOL    HW231620   1.922   4.742   2.506
10241SOL     OW31621   0.051   6.847   3.008
10241SOL    HW131622   0.003   6.810   3.087
10241SOL    HW231623   0.093   6.771   2.957
10242SOL     OW31624   0.369   0.868   0.956
10242SOL    HW131625   0.369   0.809   0.875
10242SOL    HW231626   0.275   0.877   0.990
10243SOL     OW31627   2.206   4.305   2.194
10243SOL    HW131628   2.259   4.258   2.265
10243SOL    HW231629   2.232   4.402   2.193
10244SOL     OW31630   1.616   4.415   0.415
10244SOL    HW131631   1.594   4.419   0.318
10244SOL    HW231632   1.627   4.508   0.451
10245SOL     OW31633   3.406   3.766   1.590
10245SOL    HW131634   3.385   3.707   1.669
10245SOL    HW231635   3.371   3.723   1.507
10246SOL     OW31636   3.275   3.334   3.863
10246SOL    HW131637   3.327   3.252   3.840
10246SOL    HW231638   3.309   3.411   3.807
10247SOL     OW31639   6.360   4.073   5.739
10247SOL    HW131640   6.266   4.097   5.716
10247SOL    HW231641   6.401   4.147   5.793
10248SOL     OW31642   1.503   6.203   2.697
10248SOL    HW131643   1.519   6.291   2.652
10248SOL    HW231644   1.482   6.134   2.629
10249SOL     OW31645   3.704   5.762   6.712
10249SOL    HW131646   3.735   5.842   6.763
10249SOL    HW231647   3.782   5.722   6.664
10250SOL     OW31648   6.891   3.055   1.668
10250SOL    HW131649   6.849   2.994   1.735
10250SOL    HW231650   6.983   3.021   1.646
10251SOL     OW31651   1.998   1.582   5.544
10251SOL    HW131652   2.088   1.548   5.517
10251SOL    HW231653   1.931   1.508   5.536
10252SOL     OW31654   4.198   4.192   6.337
10252SOL    HW131655   4.107   4.177   6.299
10252SOL    HW231656   4.216   4.124   6.408
10253SOL     OW31657   2.897   6.233   0.502
10253SOL    HW131658   2.815   6.291   0.509
10253SOL    HW231659   2.946   6.233   0.589
10254SOL     OW31660   5.233   1.109   5.662
10254SOL    HW131661   5.148   1.143   5.702
10254SOL    HW231662   5.307   1.175   5.677
10255SOL     OW31663   2.617   6.359   1.691
10255SOL    HW131664   2.711   6.344   1.725
10255SOL    HW231665   2.552   6.340   1.765
10256SOL     OW31666   4.770   2.426   2.275
10256SOL    HW131667   4.870   2.433   2.272
10256SOL    HW231668   4.741   2.387   2.362
10257SOL     OW31669   1.767   4.895   4.381
10257SOL    HW131670   1.823   4.895   4.464
10257SOL    HW231671   1.674   4.865   4.403
10258SOL     OW31672   3.570   1.942   3.284
10258SOL    HW131673   3.510   1.978   3.213
10258SOL    HW231674   3.632   2.014   3.315
10259SOL     OW31675   1.084   4.498   2.427
10259SOL    HW131676   1.094   4.597   2.439
10259SOL    HW231677   1.169   4.460   2.391
10260SOL     OW31678   1.162   1.028   3.275
10260SOL    HW131679   1.064   1.018   3.296
10260SOL    HW231680   1.193   1.118   3.305
10261SOL     OW31681   6.504   4.398   1.489
10261SOL    HW131682   6.422   4.364   1.444
10261SOL    HW231683   6.479   4.473   1.551
10262SOL     OW31684   2.298   6.597   5.747
10262SOL    HW131685   2.311   6.661   5.671
10262SOL    HW231686   2.341   6.510   5.724
10263SOL     OW31687   5.450   0.335   0.216
10263SOL    HW131688   5.362   0.379   0.201
10263SOL    HW231689   5.464   0.264   0.147
10264SOL     OW31690   6.147   0.086   6.740
10264SOL    HW131691   6.193   0.174   6.744
10264SOL    HW231692   6.153   0.041   6.829
10265SOL     OW31693   2.835   2.514   1.285
10265SOL    HW131694   2.741   2.546   1.277
10265SOL    HW231695   2.885   2.572   1.349
10266SOL     OW31696   3.524   2.848   3.599
10266SOL    HW131697   3.506   2.932   3.549
10266SOL    HW231698   3.535   2.773   3.534
10267SOL     OW31699   5.441   2.651   6.817
10267SOL    HW131700   5.391   2.568   6.843
10267SOL    HW231701   5.400   2.730   6.861
10268SOL     OW31702   6.529   5.739   2.513
10268SOL    HW131703   6.454   5.728   2.448
10268SOL    HW231704   6.602   5.674   2.491
10269SOL     OW31705   0.967   3.853   6.821
10269SOL    HW131706   0.942   3.924   6.756
10269SOL    HW231707   1.007   3.775   6.772
10270SOL     OW31708   2.998   4.844   2.662
10270SOL    HW131709   2.930   4.785   2.619
10270SOL    HW231710   2.986   4.843   2.761
10271SOL     OW31711   3.832   2.633   6.406
10271SOL    HW131712   3.800   2.722   6.372
10271SOL    HW231713   3.919   2.644   6.452
10272SOL     OW31714   1.534   1.200   5.510
10272SOL    HW131715   1.583   1.277   5.471
10272SOL    HW231716   1.491   1.227   5.596
10273SOL     OW31717   2.644   5.748   2.783
10273SOL    HW131718   2.724   5.714   2.833
10273SOL    HW231719   2.621   5.683   2.711
10274SOL     OW31720   0.777   4.752   5.926
10274SOL    HW131721   0.823   4.695   5.994
10274SOL    HW231722   0.795   4.848   5.946
10275SOL     OW31723   0.777   6.446   2.281
10275SOL    HW131724   0.847   6.481   2.343
10275SOL    HW231725   0.821   6.394   2.207
10276SOL     OW31726   5.358   5.390   5.730
10276SOL    HW131727   5.388   5.459   5.795
10276SOL    HW231728   5.259   5.376   5.740
10277SOL     OW31729   1.599   5.849   4.633
10277SOL    HW131730   1.526   5.780   4.636
10277SOL    HW231731   1.561   5.936   4.601
10278SOL     OW31732   1.388   1.590   3.431
10278SOL    HW131733   1.435   1.670   3.394
10278SOL    HW231734   1.447   1.510   3.423
10279SOL     OW31735   1.535   4.604   4.046
10279SOL    HW131736   1.525   4.678   3.979
10279SOL    HW231737   1.555   4.518   3.997
10280SOL     OW31738   6.951   2.800   0.004
10280SOL    HW131739   0.002   2.765   6.959
10280SOL    HW231740   6.983   2.886   0.045
10281SOL     OW31741   5.566   1.121   2.783
10281SOL    HW131742   5.475   1.157   2.761
10281SOL    HW231743   5.567   1.022   2.770
10282SOL     OW31744   5.402   3.913   4.470
10282SOL    HW131745   5.400   3.876   4.377
10282SOL    HW231746   5.443   3.846   4.532
10283SOL     OW31747   1.816   3.368   0.897
10283SOL    HW131748   1.864   3.323   0.821
10283SOL    HW231749   1.840   3.323   0.983
10284SOL     OW31750   4.813   2.655   5.029
10284SOL    HW131751   4.796   2.719   4.954
10284SOL    HW231752   4.910   2.659   5.055
10285SOL     OW31753   5.458   6.662   2.436
10285SOL    HW131754   5.473   6.596   2.361
10285SOL    HW231755   5.543   6.711   2.453
10286SOL     OW31756   3.363   2.076   3.456
10286SOL    HW131757   3.341   1.980   3.440
10286SOL    HW231758   3.423   2.110   3.383
10287SOL     OW31759   3.112   6.231   1.685
10287SOL    HW131760   3.113   6.151   1.624
10287SOL    HW231761   3.203   6.270   1.689
10288SOL     OW31762   4.422   5.590   3.298
10288SOL    HW131763   4.518   5.568   3.284
10288SOL    HW231764   4.376   5.512   3.341
10289SOL     OW31765   2.856   6.305   6.946
10289SOL    HW131766   2.824   6.398   6.927
10289SOL    HW231767   2.794   6.261   7.011
10290SOL     OW31768   2.922   3.583   2.804
10290SOL    HW131769   2.866   3.505   2.834
10290SOL    HW231770   3.018   3.561   2.818
10291SOL     OW31771   4.080   1.397   2.550
10291SOL    HW131772   4.009   1.349   2.602
10291SOL    HW231773   4.039   1.436   2.468
10292SOL     OW31774   1.958   1.996   5.556
10292SOL    HW131775   2.041   2.014   5.505
10292SOL    HW231776   1.980   1.947   5.641
10293SOL     OW31777   1.714   3.720   2.494
10293SOL    HW131778   1.810   3.703   2.476
10293SOL    HW231779   1.699   3.819   2.505
10294SOL     OW31780   5.143   2.723   3.387
10294SOL    HW131781   5.070   2.743   3.321
10294SOL    HW231782   5.204   2.654   3.348
10295SOL     OW31783   0.216   3.551   5.698
10295SOL    HW131784   0.215   3.498   5.613
10295SOL    HW231785   0.233   3.647   5.676
10296SOL     OW31786   5.242   1.651   6.768
10296SOL    HW131787   5.292   1.677   6.850
10296SOL    HW231788   5.210   1.557   6.777
10297SOL     OW31789   1.854   0.096   6.532
10297SOL    HW131790   1.937   0.061   6.488
10297SOL    HW231791   1.868   0.097   6.631
10298SOL     OW31792   2.453   4.471   1.112
10298SOL    HW131793   2.522   4.534   1.147
10298SOL    HW231794   2.493   4.410   1.044
10299SOL     OW31795   4.542   4.534   2.966
10299SOL    HW131796   4.448   4.534   2.999
10299SOL    HW231797   4.567   4.626   2.935
10300SOL     OW31798   0.749   4.157   2.304
10300SOL    HW131799   0.735   4.203   2.217
10300SOL    HW231800   0.819   4.086   2.293
10301SOL     OW31801   5.194   2.317   4.180
10301SOL    HW131802   5.192   2.392   4.246
10301SOL    HW231803   5.269   2.331   4.116
10302SOL     OW31804   2.151   6.485   4.907
10302SOL    HW131805   2.213   6.504   4.983
10302SOL    HW231806   2.061   6.458   4.943
10303SOL     OW31807   1.628   5.552   3.109
10303SOL    HW131808   1.561   5.486   3.074
10303SOL    HW231809   1.613   5.564   3.207
10304SOL     OW31810   5.453   0.225   1.528
10304SOL    HW131811   5.355   0.207   1.526
10304SOL    HW231812   5.496   0.168   1.598
10305SOL     OW31813   1.318   4.071   6.476
10305SOL    HW131814   1.368   3.989   6.506
10305SOL    HW231815   1.223   4.047   6.458
10306SOL     OW31816   5.159   6.154   0.061
10306SOL    HW131817   5.161   6.253   0.047
10306SOL    HW231818   5.064   6.123   0.063
10307SOL     OW31819   2.817   2.325   5.119
10307SOL    HW131820   2.834   2.385   5.197
10307SOL    HW231821   2.904   2.292   5.083
10308SOL     OW31822   1.652   3.809   2.912
10308SOL    HW131823   1.728   3.759   2.952
10308SOL    HW231824   1.603   3.751   2.847
10309SOL     OW31825   6.918   2.020   6.301
10309SOL    HW131826   6.966   2.039   6.215
10309SOL    HW231827   6.819   2.020   6.284
10310SOL     OW31828   3.096   3.532   1.174
10310SOL    HW131829   3.036   3.489   1.107
10310SOL    HW231830   3.185   3.550   1.133
10311SOL     OW31831   0.038   5.965   0.780
10311SOL    HW131832   0.015   6.048   0.730
10311SOL    HW231833   6.974   5.909   0.792
10312SOL     OW31834   3.440   5.289   2.906
10312SOL    HW131835   3.424   5.259   3.000
10312SOL    HW231836   3.436   5.210   2.845
10313SOL     OW31837   4.402   6.237   2.180
10313SOL    HW131838   4.424   6.330   2.208
10313SOL    HW231839   4.303   6.223   2.185
10314SOL     OW31840   6.147   0.444   1.594
10314SOL    HW131841   6.180   0.536   1.573
10314SOL    HW231842   6.142   0.432   1.693
10315SOL     OW31843   5.015   5.693   5.210
10315SOL    HW131844   5.058   5.682   5.300
10315SOL    HW231845   5.019   5.789   5.182
10316SOL     OW31846   5.378   1.522   5.122
10316SOL    HW131847   5.410   1.537   5.029
10316SOL    HW231848   5.396   1.427   5.149
10317SOL     OW31849   4.697   5.651   5.270
10317SOL    HW131850   4.641   5.710   5.211
10317SOL    HW231851   4.790   5.687   5.272
10318SOL     OW31852   5.320   6.483   6.431
10318SOL    HW131853   5.321   6.430   6.516
10318SOL    HW231854   5.370   6.569   6.445
10319SOL     OW31855   1.186   2.439   5.664
10319SOL    HW131856   1.100   2.425   5.614
10319SOL    HW231857   1.245   2.360   5.651
10320SOL     OW31858   0.095   0.795   2.344
10320SOL    HW131859   0.069   0.849   2.264
10320SOL    HW231860   0.090   0.853   2.425
10321SOL     OW31861   3.664   1.902   1.703
10321SOL    HW131862   3.759   1.926   1.723
10321SOL    HW231863   3.604   1.977   1.731
10322SOL     OW31864   6.509   5.642   5.499
10322SOL    HW131865   6.588   5.581   5.510
10322SOL    HW231866   6.428   5.589   5.473
10323SOL     OW31867   5.466   3.561   5.675
10323SOL    HW131868   5.401   3.600   5.610
10323SOL    HW231869   5.467   3.615   5.759
10324SOL     OW31870   3.045   3.412   2.176
10324SOL    HW131871   2.996   3.425   2.262
10324SOL    HW231872   3.029   3.491   2.117
10325SOL     OW31873   6.590   3.731   1.915
10325SOL    HW131874   6.659   3.797   1.885
10325SOL    HW231875   6.499   3.769   1.899
10326SOL     OW31876   3.285   5.367   0.281
10326SOL    HW131877   3.225   5.323   0.214
10326SOL    HW231878   3.294   5.307   0.361
10327SOL     OW31879   1.906   1.241   0.995
10327SOL    HW131880   1.867   1.313   1.052
10327SOL    HW231881   2.004   1.259   0.982
10328SOL     OW31882   6.223   2.304   0.898
10328SOL    HW131883   6.233   2.372   0.825
10328SOL    HW231884   6.148   2.331   0.958
10329SOL     OW31885   3.829   1.033   3.843
10329SOL    HW131886   3.741   0.997   3.874
10329SOL    HW231887   3.832   1.031   3.743
10330SOL     OW31888   5.055   0.877   2.029
10330SOL    HW131889   4.982   0.898   2.094
10330SOL    HW231890   5.030   0.797   1.975
10331SOL     OW31891   6.610   0.703   6.044
10331SOL    HW131892   6.599   0.799   6.018
10331SOL    HW231893   6.666   0.656   5.976
10332SOL     OW31894   6.679   6.956   1.022
10332SOL    HW131895   6.608   6.905   1.070
10332SOL    HW231896   6.671   0.035   1.044
10333SOL     OW31897   6.745   4.680   4.612
10333SOL    HW131898   6.662   4.703   4.663
10333SOL    HW231899   6.821   4.736   4.645
10334SOL     OW31900   3.569   6.924   3.583
10334SOL    HW131901   3.499   6.994   3.566
10334SOL    HW231902   3.642   6.963   3.639
10335SOL     OW31903   3.107   4.362   0.073
10335SOL    HW131904   3.132   4.369   6.994
10335SOL    HW231905   3.095   4.453   0.112
10336SOL     OW31906   6.807   6.789   1.855
10336SOL    HW131907   6.847   6.789   1.946
10336SOL    HW231908   6.775   6.881   1.832
10337SOL     OW31909   0.101   6.726   6.038
10337SOL    HW131910   0.043   6.803   6.010
10337SOL    HW231911   0.044   6.657   6.083
10338SOL     OW31912   2.129   6.458   2.854
10338SOL    HW131913   2.078   6.375   2.827
10338SOL    HW231914   2.207   6.432   2.910
10339SOL     OW31915   3.467   4.535   0.060
10339SOL    HW131916   3.378   4.582   0.067
10339SOL    HW231917   3.466   4.475   6.998
10340SOL     OW31918   1.788   4.192   1.066
10340SOL    HW131919   1.767   4.151   1.155
10340SOL    HW231920   1.746   4.137   0.993
10341SOL     OW31921   2.135   3.139   2.015
10341SOL    HW131922   2.091   3.053   1.989
10341SOL    HW231923   2.142   3.198   1.935
10342SOL     OW31924   0.838   0.654   5.368
10342SOL    HW131925   0.842   0.555   5.362
10342SOL    HW231926   0.743   0.683   5.383
10343SOL     OW31927   3.396   5.887   6.461
10343SOL    HW131928   3.401   5.801   6.512
10343SOL    HW231929   3.305   5.928   6.474
10344SOL     OW31930   4.532   4.121   1.642
10344SOL    HW131931   4.620   4.079   1.665
10344SOL    HW231932   4.494   4.165   1.724
10345SOL     OW31933   1.855   1.240   6.954
10345SOL    HW131934   1.786   1.177   6.988
10345SOL    HW231935   1.816   1.332   6.946
10346SOL     OW31936   6.549   5.994   2.039
10346SOL    HW131937   6.613   5.923   2.011
10346SOL    HW231938   6.455   5.958   2.033
10347SOL     OW31939   4.823   1.994   3.248
10347SOL    HW131940   4.733   2.036   3.261
10347SOL    HW231941   4.812   1.908   3.199
10348SOL     OW31942   6.574   1.699   6.983
10348SOL    HW131943   6.670   1.709   6.954
10348SOL    HW231944   6.536   1.790   7.000
10349SOL     OW31945   0.159   0.399   0.960
10349SOL    HW131946   0.214   0.436   1.035
10349SOL    HW231947   0.070   0.446   0.957
10350SOL     OW31948   1.659   6.830   5.433
10350SOL    HW131949   1.603   6.832   5.515
10350SOL    HW231950   1.746   6.784   5.453
10351SOL     OW31951   4.069   4.754   6.675
10351SOL    HW131952   4.155   4.775   6.722
10351SOL    HW231953   3.992   4.765   6.739
10352SOL     OW31954   4.090   1.829   5.912
10352SOL    HW131955   4.166   1.814   5.975
10352SOL    HW231956   4.046   1.916   5.934
10353SOL     OW31957   6.564   2.383   5.326
10353SOL    HW131958   6.598   2.302   5.280
10353SOL    HW231959   6.583   2.464   5.270
10354SOL     OW31960   6.047   2.595   1.956
10354SOL    HW131961   6.123   2.566   2.014
10354SOL    HW231962   6.079   2.608   1.862
10355SOL     OW31963   1.662   6.844   2.046
10355SOL    HW131964   1.643   6.787   2.126
10355SOL    HW231965   1.617   6.932   2.055
10356SOL     OW31966   0.648   4.360   6.163
10356SOL    HW131967   0.558   4.318   6.148
10356SOL    HW231968   0.715   4.288   6.183
10357SOL     OW31969   2.496   3.137   6.127
10357SOL    HW131970   2.398   3.131   6.103
10357SOL    HW231971   2.525   3.052   6.170
10358SOL     OW31972   6.171   2.786   2.753
10358SOL    HW131973   6.130   2.876   2.767
10358SOL    HW231974   6.139   2.747   2.667
10359SOL     OW31975   0.203   1.819   1.086
10359SOL    HW131976   0.227   1.750   1.155
10359SOL    HW231977   0.226   1.910   1.120
10360SOL     OW31978   5.154   5.523   2.888
10360SOL    HW131979   5.173   5.425   2.891
10360SOL    HW231980   5.104   5.550   2.971
10361SOL     OW31981   3.415   0.370   3.399
10361SOL    HW131982   3.346   0.304   3.370
10361SOL    HW231983   3.382   0.419   3.480
10362SOL     OW31984   0.802   4.893   4.894
10362SOL    HW131985   0.834   4.804   4.860
10362SOL    HW231986   0.797   4.890   4.994
10363SOL     OW31987   4.800   1.681   1.152
10363SOL    HW131988   4.731   1.664   1.223
10363SOL    HW231989   4.787   1.774   1.116
10364SOL     OW31990   3.377   3.613   1.832
10364SOL    HW131991   3.464   3.570   1.807
10364SOL    HW231992   3.308   3.591   1.763
10365SOL     OW31993   4.516   4.600   6.009
10365SOL    HW131994   4.514   4.592   5.909
10365SOL    HW231995   4.532   4.510   6.049
10366SOL     OW31996   4.184   0.118   4.415
10366SOL    HW131997   4.191   0.024   4.381
10366SOL    HW231998   4.186   0.181   4.337
10367SOL     OW31999   6.578   1.735   2.526
10367SOL    HW132000   6.614   1.642   2.538
10367SOL    HW232001   6.644   1.800   2.565
10368SOL     OW32002   1.974   1.091   2.018
10368SOL    HW132003   2.042   1.018   2.013
10368SOL    HW232004   1.899   1.063   2.078
10369SOL     OW32005   3.869   1.412   5.134
10369SOL    HW132006   3.874   1.318   5.102
10369SOL    HW232007   3.888   1.475   5.059
10370SOL     OW32008   5.226   1.887   5.425
10370SOL    HW132009   5.256   1.954   5.357
10370SOL    HW232010   5.221   1.796   5.382
10371SOL     OW32011   2.602   6.188   4.719
10371SOL    HW132012   2.545   6.168   4.799
10371SOL    HW232013   2.697   6.165   4.740
10372SOL     OW32014   1.100   1.449   0.140
10372SOL    HW132015   1.162   1.464   0.218
10372SOL    HW232016   1.077   1.352   0.134
10373SOL     OW32017   2.277   6.065   4.798
10373SOL    HW132018   2.186   6.025   4.794
10373SOL    HW232019   2.341   5.998   4.837
10374SOL     OW32020   4.197   1.175   2.343
10374SOL    HW132021   4.183   1.230   2.426
10374SOL    HW232022   4.266   1.220   2.285
10375SOL     OW32023   2.950   1.717   6.469
10375SOL    HW132024   2.911   1.798   6.511
10375SOL    HW232025   2.943   1.725   6.369
10376SOL     OW32026   1.162   6.436   4.327
10376SOL    HW132027   1.136   6.494   4.250
10376SOL    HW232028   1.234   6.480   4.380
10377SOL     OW32029   6.843   0.506   4.113
10377SOL    HW132030   6.907   0.581   4.129
10377SOL    HW232031   6.813   0.467   4.200
10378SOL     OW32032   6.365   6.993   6.041
10378SOL    HW132033   6.440   6.959   6.098
10378SOL    HW232034   6.278   6.959   6.077
10379SOL     OW32035   3.312   6.510   4.678
10379SOL    HW132036   3.336   6.548   4.767
10379SOL    HW232037   3.214   6.515   4.664
10380SOL     OW32038   0.545   1.475   3.920
10380SOL    HW132039   0.550   1.574   3.935
10380SOL    HW232040   0.606   1.451   3.844
10381SOL     OW32041   4.285   5.644   6.604
10381SOL    HW132042   4.384   5.626   6.610
10381SOL    HW232043   4.268   5.711   6.531
10382SOL     OW32044   2.284   4.544   0.371
10382SOL    HW132045   2.205   4.508   0.322
10382SOL    HW232046   2.337   4.604   0.311
10383SOL     OW32047   0.681   3.316   0.301
10383SOL    HW132048   0.751   3.281   0.239
10383SOL    HW232049   0.717   3.392   0.354
10384SOL     OW32050   0.869   0.173   0.971
10384SOL    HW132051   0.801   0.241   1.000
10384SOL    HW232052   0.890   0.113   1.048
10385SOL     OW32053   3.678   6.875   6.082
10385SOL    HW132054   3.696   6.932   6.162
10385SOL    HW232055   3.670   6.932   6.001
10386SOL     OW32056   6.211   2.923   5.539
10386SOL    HW132057   6.121   2.924   5.495
10386SOL    HW232058   6.277   2.967   5.479
10387SOL     OW32059   4.250   2.270   2.753
10387SOL    HW132060   4.199   2.353   2.728
10387SOL    HW232061   4.247   2.205   2.678
10388SOL     OW32062   1.693   5.745   2.676
10388SOL    HW132063   1.788   5.751   2.707
10388SOL    HW232064   1.690   5.702   2.586
10389SOL     OW32065   0.487   6.614   1.930
10389SOL    HW132066   0.396   6.577   1.911
10389SOL    HW232067   0.478   6.698   1.984
10390SOL     OW32068   1.560   3.213   1.620
10390SOL    HW132069   1.647   3.212   1.669
10390SOL    HW232070   1.503   3.287   1.654
10391SOL     OW32071   1.209   5.708   4.966
10391SOL    HW132072   1.110   5.695   4.962
10391SOL    HW232073   1.246   5.715   4.874
10392SOL     OW32074   6.547   4.064   0.359
10392SOL    HW132075   6.603   3.982   0.355
10392SOL    HW232076   6.477   4.061   0.287
10393SOL     OW32077   2.187   2.191   2.767
10393SOL    HW132078   2.263   2.243   2.805
10393SOL    HW232079   2.105   2.208   2.821
10394SOL     OW32080   2.701   6.628   5.558
10394SOL    HW132081   2.661   6.713   5.595
10394SOL    HW232082   2.629   6.574   5.516
10395SOL     OW32083   6.321   0.379   3.370
10395SOL    HW132084   6.402   0.357   3.425
10395SOL    HW232085   6.348   0.439   3.294
10396SOL     OW32086   2.432   0.608   4.665
10396SOL    HW132087   2.424   0.591   4.567
10396SOL    HW232088   2.527   0.629   4.688
10397SOL     OW32089   2.750   2.332   3.489
10397SOL    HW132090   2.766   2.422   3.449
10397SOL    HW232091   2.806   2.322   3.571
10398SOL     OW32092   5.628   2.811   0.579
10398SOL    HW132093   5.560   2.738   0.584
10398SOL    HW232094   5.596   2.890   0.631
10399SOL     OW32095   4.249   1.973   4.441
10399SOL    HW132096   4.248   2.028   4.524
10399SOL    HW232097   4.157   1.967   4.403
10400SOL     OW32098   3.573   5.888   2.033
10400SOL    HW132099   3.555   5.943   2.114
10400SOL    HW232100   3.554   5.942   1.951
10401SOL     OW32101   6.713   0.118   2.703
10401SOL    HW132102   6.788   0.170   2.661
10401SOL    HW232103   6.750   0.043   2.757
10402SOL     OW32104   0.030   2.725   5.279
10402SOL    HW132105   6.948   2.738   5.275
10402SOL    HW232106   0.060   2.737   5.374
10403SOL     OW32107   5.134   1.449   2.431
10403SOL    HW132108   5.118   1.505   2.350
10403SOL    HW232109   5.171   1.360   2.403
10404SOL     OW32110   0.489   6.587   3.441
10404SOL    HW132111   0.575   6.634   3.423
10404SOL    HW232112   0.423   6.608   3.368
10405SOL     OW32113   1.005   5.333   4.832
10405SOL    HW132114   1.008   5.234   4.842
10405SOL    HW232115   1.061   5.361   4.754
10406SOL     OW32116   2.174   3.821   5.190
10406SOL    HW132117   2.169   3.920   5.174
10406SOL    HW232118   2.264   3.798   5.226
10407SOL     OW32119   1.641   0.193   6.401
10407SOL    HW132120   1.718   0.154   6.451
10407SOL    HW232121   1.608   0.127   6.333
10408SOL     OW32122   4.144   5.861   2.224
10408SOL    HW132123   4.092   5.906   2.151
10408SOL    HW232124   4.082   5.834   2.297
10409SOL     OW32125   0.705   4.332   0.851
10409SOL    HW132126   0.634   4.390   0.812
10409SOL    HW232127   0.674   4.296   0.940
10410SOL     OW32128   5.351   1.780   1.143
10410SOL    HW132129   5.301   1.694   1.140
10410SOL    HW232130   5.333   1.826   1.229
10411SOL     OW32131   3.780   5.394   4.250
10411SOL    HW132132   3.713   5.328   4.283
10411SOL    HW232133   3.751   5.486   4.275
10412SOL     OW32134   0.301   1.452   0.343
10412SOL    HW132135   0.339   1.526   0.288
10412SOL    HW232136   0.301   1.367   0.290
10413SOL     OW32137   0.083   2.317   0.740
10413SOL    HW132138   0.071   2.415   0.724
10413SOL    HW232139   0.039   2.266   0.666
10414SOL     OW32140   4.580   6.356   5.390
10414SOL    HW132141   4.527   6.358   5.475
10414SOL    HW232142   4.619   6.265   5.378
10415SOL     OW32143   2.147   4.830   3.751
10415SOL    HW132144   2.204   4.863   3.676
10415SOL    HW232145   2.065   4.785   3.713
10416SOL     OW32146   6.417   1.429   5.807
10416SOL    HW132147   6.440   1.430   5.905
10416SOL    HW232148   6.320   1.410   5.796
10417SOL     OW32149   4.815   4.060   4.309
10417SOL    HW132150   4.839   4.143   4.360
10417SOL    HW232151   4.897   4.006   4.291
10418SOL     OW32152   6.318   4.211   5.245
10418SOL    HW132153   6.366   4.133   5.203
10418SOL    HW232154   6.353   4.225   5.338
10419SOL     OW32155   2.931   0.600   5.337
10419SOL    HW132156   2.954   0.512   5.379
10419SOL    HW232157   2.930   0.590   5.238
10420SOL     OW32158   6.888   3.935   3.528
10420SOL    HW132159   6.948   3.909   3.604
10420SOL    HW232160   6.802   3.884   3.534
10421SOL     OW32161   1.602   3.115   4.171
10421SOL    HW132162   1.510   3.091   4.143
10421SOL    HW232163   1.668   3.072   4.109
10422SOL     OW32164   6.572   3.616   5.627
10422SOL    HW132165   6.479   3.652   5.620
10422SOL    HW232166   6.580   3.560   5.710
10423SOL     OW32167   4.088   4.798   4.911
10423SOL    HW132168   4.084   4.896   4.889
10423SOL    HW232169   4.057   4.784   5.005
10424SOL     OW32170   4.892   2.150   6.759
10424SOL    HW132171   4.813   2.202   6.790
10424SOL    HW232172   4.876   2.115   6.666
10425SOL     OW32173   0.885   6.392   1.783
10425SOL    HW132174   0.913   6.421   1.692
10425SOL    HW232175   0.785   6.396   1.790
10426SOL     OW32176   4.998   3.856   5.701
10426SOL    HW132177   5.036   3.800   5.775
10426SOL    HW232178   5.016   3.811   5.613
10427SOL     OW32179   5.283   5.947   5.582
10427SOL    HW132180   5.356   5.971   5.647
10427SOL    HW232181   5.299   5.855   5.546
10428SOL     OW32182   1.398   1.620   3.963
10428SOL    HW132183   1.300   1.641   3.961
10428SOL    HW232184   1.433   1.619   3.869
10429SOL     OW32185   1.221   3.732   2.873
10429SOL    HW132186   1.162   3.757   2.796
10429SOL    HW232187   1.258   3.641   2.858
10430SOL     OW32188   3.196   6.213   4.229
10430SOL    HW132189   3.162   6.191   4.138
10430SOL    HW232190   3.278   6.159   4.249
10431SOL     OW32191   2.557   0.926   3.979
10431SOL    HW132192   2.612   0.971   3.909
10431SOL    HW232193   2.617   0.894   4.053
10432SOL     OW32194   0.637   1.171   5.320
10432SOL    HW132195   0.598   1.232   5.389
10432SOL    HW232196   0.726   1.207   5.291
10433SOL     OW32197   0.433   6.452   1.614
10433SOL    HW132198   0.424   6.382   1.542
10433SOL    HW232199   0.477   6.533   1.576
10434SOL     OW32200   4.892   6.191   4.541
10434SOL    HW132201   4.912   6.094   4.529
10434SOL    HW232202   4.944   6.244   4.474
10435SOL     OW32203   1.279   1.892   6.051
10435SOL    HW132204   1.372   1.916   6.079
10435SOL    HW232205   1.280   1.852   5.960
10436SOL     OW32206   6.148   3.915   3.866
10436SOL    HW132207   6.057   3.874   3.855
10436SOL    HW232208   6.193   3.875   3.946
10437SOL     OW32209   5.409   5.029   5.300
10437SOL    HW132210   5.323   5.047   5.348
10437SOL    HW232211   5.464   5.113   5.298
10438SOL     OW32212   0.152   6.413   5.769
10438SOL    HW132213   0.061   6.447   5.747
10438SOL    HW232214   0.208   6.487   5.806
10439SOL     OW32215   5.867   0.996   4.935
10439SOL    HW132216   5.886   0.992   4.837
10439SOL    HW232217   5.945   0.960   4.986
10440SOL     OW32218   6.738   6.773   6.938
10440SOL    HW132219   6.810   6.807   6.998
10440SOL    HW232220   6.777   6.710   6.871
10441SOL     OW32221   2.840   1.324   0.752
10441SOL    HW132222   2.843   1.235   0.706
10441SOL    HW232223   2.801   1.313   0.843
10442SOL     OW32224   4.191   0.871   4.818
10442SOL    HW132225   4.126   0.839   4.887
10442SOL    HW232226   4.241   0.950   4.854
10443SOL     OW32227   6.494   2.334   3.058
10443SOL    HW132228   6.433   2.312   3.134
10443SOL    HW232229   6.557   2.406   3.086
10444SOL     OW32230   2.955   5.113   3.135
10444SOL    HW132231   2.988   5.036   3.189
10444SOL    HW232232   2.883   5.161   3.186
10445SOL     OW32233   0.735   3.728   2.677
10445SOL    HW132234   0.674   3.723   2.598
10445SOL    HW232235   0.683   3.708   2.760
10446SOL     OW32236   1.833   4.308   6.075
10446SOL    HW132237   1.891   4.231   6.101
10446SOL    HW232238   1.887   4.391   6.069
10447SOL     OW32239   6.513   0.734   1.879
10447SOL    HW132240   6.473   0.797   1.946
10447SOL    HW232241   6.612   0.747   1.876
10448SOL     OW32242   3.554   0.360   3.172
10448SOL    HW132243   3.514   0.389   3.259
10448SOL    HW232244   3.542   0.262   3.161
10449SOL     OW32245   3.339   5.594   6.509
10449SOL    HW132246   3.438   5.587   6.524
10449SOL    HW232247   3.294   5.513   6.544
10450SOL     OW32248   6.848   0.704   6.172
10450SOL    HW132249   6.886   0.612   6.169
10450SOL    HW232250   6.750   0.700   6.153
10451SOL     OW32251   3.498   0.617   2.938
10451SOL    HW132252   3.464   0.530   2.974
10451SOL    HW232253   3.528   0.675   3.014
10452SOL     OW32254   0.008   2.455   2.690
10452SOL    HW132255   6.959   2.528   2.673
10452SOL    HW232256   6.983   2.382   2.743
10453SOL     OW32257   4.352   6.129   2.908
10453SOL    HW132258   4.400   6.215   2.891
10453SOL    HW232259   4.286   6.112   2.835
10454SOL     OW32260   6.075   0.851   0.334
10454SOL    HW132261   6.106   0.760   0.305
10454SOL    HW232262   6.094   0.917   0.261
10455SOL     OW32263   0.005   5.954   4.322
10455SOL    HW132264   7.002   5.972   4.418
10455SOL    HW232265   7.005   6.036   4.268
10456SOL     OW32266   0.210   5.350   0.645
10456SOL    HW132267   0.284   5.409   0.677
10456SOL    HW232268   0.185   5.375   0.552
10457SOL     OW32269   4.087   3.264   6.915
10457SOL    HW132270   4.097   3.339   6.849
10457SOL    HW232271   4.160   3.198   6.900
10458SOL     OW32272   6.732   0.029   6.605
10458SOL    HW132273   6.636   0.052   6.621
10458SOL    HW232274   6.783   0.036   6.692
10459SOL     OW32275   5.966   5.043   0.994
10459SOL    HW132276   6.030   4.966   0.998
10459SOL    HW232277   6.018   5.129   0.990
10460SOL     OW32278   0.206   3.573   1.869
10460SOL    HW132279   0.285   3.525   1.830
10460SOL    HW232280   0.233   3.665   1.897
10461SOL     OW32281   6.510   4.785   5.433
10461SOL    HW132282   6.479   4.690   5.433
10461SOL    HW232283   6.472   4.832   5.512
10462SOL     OW32284   4.962   2.261   2.466
10462SOL    HW132285   4.948   2.184   2.528
10462SOL    HW232286   5.000   2.338   2.516
10463SOL     OW32287   5.028   1.530   6.523
10463SOL    HW132288   5.064   1.485   6.441
10463SOL    HW232289   5.063   1.483   6.604
10464SOL     OW32290   5.889   5.296   2.264
10464SOL    HW132291   5.964   5.247   2.307
10464SOL    HW232292   5.809   5.237   2.259
10465SOL     OW32293   4.738   5.439   2.506
10465SOL    HW132294   4.783   5.459   2.419
10465SOL    HW232295   4.651   5.394   2.489
10466SOL     OW32296   4.560   4.301   6.439
10466SOL    HW132297   4.604   4.386   6.410
10466SOL    HW232298   4.460   4.313   6.438
10467SOL     OW32299   1.571   2.836   0.531
10467SOL    HW132300   1.502   2.820   0.602
10467SOL    HW232301   1.621   2.920   0.552
10468SOL     OW32302   3.823   4.995   3.634
10468SOL    HW132303   3.789   4.926   3.698
10468SOL    HW232304   3.821   5.084   3.679
10469SOL     OW32305   4.566   4.415   5.610
10469SOL    HW132306   4.494   4.347   5.626
10469SOL    HW232307   4.651   4.368   5.586
10470SOL     OW32308   2.244   1.534   3.102
10470SOL    HW132309   2.183   1.457   3.081
10470SOL    HW232310   2.268   1.531   3.199
10471SOL     OW32311   3.369   0.376   0.282
10471SOL    HW132312   3.460   0.377   0.240
10471SOL    HW232313   3.375   0.412   0.375
10472SOL     OW32314   2.674   5.564   1.130
10472SOL    HW132315   2.667   5.531   1.224
10472SOL    HW232316   2.583   5.575   1.091
10473SOL     OW32317   5.739   6.352   5.744
10473SOL    HW132318   5.761   6.308   5.832
10473SOL    HW232319   5.670   6.297   5.697
10474SOL     OW32320   4.513   1.812   3.695
10474SOL    HW132321   4.468   1.826   3.606
10474SOL    HW232322   4.552   1.899   3.726
10475SOL     OW32323   3.299   0.006   1.716
10475SOL    HW132324   3.223   0.054   1.760
10475SOL    HW232325   3.264   6.951   1.657
10476SOL     OW32326   4.590   6.305   6.417
10476SOL    HW132327   4.683   6.341   6.429
10476SOL    HW232328   4.537   6.369   6.361
10477SOL     OW32329   6.814   0.604   4.935
10477SOL    HW132330   6.715   0.601   4.946
10477SOL    HW232331   6.855   0.653   5.012
10478SOL     OW32332   6.825   6.127   0.015
10478SOL    HW132333   6.844   6.062   6.960
10478SOL    HW232334   6.756   6.089   0.076
10479SOL     OW32335   6.470   1.076   1.920
10479SOL    HW132336   6.394   1.098   1.859
10479SOL    HW232337   6.555   1.070   1.867
10480SOL     OW32338   1.420   0.868   1.724
10480SOL    HW132339   1.438   0.774   1.750
10480SOL    HW232340   1.383   0.918   1.802
10481SOL     OW32341   1.968   5.886   3.271
10481SOL    HW132342   1.986   5.931   3.358
10481SOL    HW232343   1.899   5.938   3.221
10482SOL     OW32344   6.076   5.242   4.855
10482SOL    HW132345   6.168   5.262   4.822
10482SOL    HW232346   6.009   5.277   4.790
10483SOL     OW32347   5.632   5.738   0.351
10483SOL    HW132348   5.732   5.740   0.358
10483SOL    HW232349   5.603   5.660   0.296
10484SOL     OW32350   4.676   1.850   1.558
10484SOL    HW132351   4.670   1.767   1.614
10484SOL    HW232352   4.643   1.928   1.610
10485SOL     OW32353   3.319   4.864   0.227
10485SOL    HW132354   3.337   4.830   0.319
10485SOL    HW232355   3.244   4.812   0.186
10486SOL     OW32356   6.942   0.931   0.170
10486SOL    HW132357   6.916   0.871   0.094
10486SOL    HW232358   6.875   1.005   0.178
10487SOL     OW32359   5.098   6.696   2.258
10487SOL    HW132360   5.116   6.642   2.340
10487SOL    HW232361   5.015   6.751   2.273
10488SOL     OW32362   2.995   1.807   6.197
10488SOL    HW132363   2.959   1.778   6.108
10488SOL    HW232364   3.062   1.880   6.184
10489SOL     OW32365   0.471   6.561   4.788
10489SOL    HW132366   0.387   6.526   4.829
10489SOL    HW232367   0.473   6.661   4.797
10490SOL     OW32368   6.259   1.456   1.956
10490SOL    HW132369   6.304   1.545   1.948
10490SOL    HW232370   6.160   1.469   1.961
10491SOL     OW32371   1.451   3.511   0.034
10491SOL    HW132372   1.467   3.418   0.066
10491SOL    HW232373   1.378   3.552   0.089
10492SOL     OW32374   5.698   4.265   5.957
10492SOL    HW132375   5.686   4.207   6.038
10492SOL    HW232376   5.611   4.310   5.936
10493SOL     OW32377   3.477   1.082   1.298
10493SOL    HW132378   3.526   1.130   1.371
10493SOL    HW232379   3.419   1.147   1.249
10494SOL     OW32380   4.585   3.743   5.553
10494SOL    HW132381   4.536   3.739   5.466
10494SOL    HW232382   4.610   3.650   5.582
10495SOL     OW32383   2.024   6.430   0.421
10495SOL    HW132384   2.050   6.429   0.324
10495SOL    HW232385   2.106   6.447   0.476
10496SOL     OW32386   0.159   5.040   6.949
10496SOL    HW132387   0.065   5.051   6.916
10496SOL    HW232388   0.180   5.113   7.014
10497SOL     OW32389   2.551   0.157   2.328
10497SOL    HW132390   2.462   0.116   2.307
10497SOL    HW232391   2.537   0.241   2.381
10498SOL     OW32392   3.223   6.787   1.580
10498SOL    HW132393   3.192   6.777   1.674
10498SOL    HW232394   3.218   6.699   1.533
10499SOL     OW32395   3.283   6.941   2.437
10499SOL    HW132396   3.185   6.919   2.432
10499SOL    HW232397   3.297   0.001   2.499
10500SOL     OW32398   0.118   0.362   6.930
10500SOL    HW132399   0.032   0.411   6.950
10500SOL    HW232400   0.190   0.396   6.991
10501SOL     OW32401   2.321   5.078   3.035
10501SOL    HW132402   2.336   5.130   3.119
10501SOL    HW232403   2.267   4.996   3.056
10502SOL     OW32404   2.861   0.434   0.798
10502SOL    HW132405   2.812   0.468   0.718
10502SOL    HW232406   2.877   0.510   0.861
10503SOL     OW32407   3.974   3.224   0.146
10503SOL    HW132408   3.909   3.149   0.138
10503SOL    HW232409   4.013   3.245   0.057
10504SOL     OW32410   1.799   1.870   0.215
10504SOL    HW132411   1.768   1.911   0.301
10504SOL    HW232412   1.855   1.789   0.236
10505SOL     OW32413   5.474   6.127   0.687
10505SOL    HW132414   5.400   6.066   0.715
10505SOL    HW232415   5.514   6.094   0.601
10506SOL     OW32416   6.769   5.223   6.600
10506SOL    HW132417   6.805   5.193   6.512
10506SOL    HW232418   6.769   5.322   6.605
10507SOL     OW32419   2.329   0.288   0.322
10507SOL    HW132420   2.238   0.299   0.283
10507SOL    HW232421   2.327   0.216   0.392
10508SOL     OW32422   6.124   6.303   4.339
10508SOL    HW132423   6.084   6.349   4.418
10508SOL    HW232424   6.219   6.279   4.360
10509SOL     OW32425   0.817   6.319   5.466
10509SOL    HW132426   0.731   6.332   5.416
10509SOL    HW232427   0.894   6.325   5.401
10510SOL     OW32428   4.765   5.935   5.591
10510SOL    HW132429   4.860   5.965   5.583
10510SOL    HW232430   4.730   5.959   5.682
10511SOL     OW32431   4.341   1.709   1.447
10511SOL    HW132432   4.382   1.756   1.525
10511SOL    HW232433   4.285   1.773   1.395
10512SOL     OW32434   4.188   0.179   5.701
10512SOL    HW132435   4.153   0.247   5.637
10512SOL    HW232436   4.210   0.224   5.788
10513SOL     OW32437   6.776   2.247   4.442
10513SOL    HW132438   6.767   2.241   4.542
10513SOL    HW232439   6.832   2.327   4.419
10514SOL     OW32440   0.177   3.549   0.049
10514SOL    HW132441   0.176   3.649   0.047
10514SOL    HW232442   0.098   3.516   0.100
10515SOL     OW32443   6.989   2.919   3.041
10515SOL    HW132444   6.890   2.923   3.029
10515SOL    HW232445   7.011   2.856   3.116
10516SOL     OW32446   4.236   0.654   6.898
10516SOL    HW132447   4.298   0.721   6.936
10516SOL    HW232448   4.285   0.596   6.832
10517SOL     OW32449   0.123   1.926   3.056
10517SOL    HW132450   0.076   1.967   2.978
10517SOL    HW232451   0.102   1.977   3.139
10518SOL     OW32452   1.112   4.905   6.187
10518SOL    HW132453   1.078   4.828   6.242
10518SOL    HW232454   1.109   4.881   6.090
10519SOL     OW32455   2.315   2.917   6.367
10519SOL    HW132456   2.305   3.015   6.351
10519SOL    HW232457   2.355   2.902   6.457
10520SOL     OW32458   1.367   2.210   6.422
10520SOL    HW132459   1.284   2.263   6.400
10520SOL    HW232460   1.348   2.113   6.412
10521SOL     OW32461   5.605   5.589   1.857
10521SOL    HW132462   5.641   5.506   1.816
10521SOL    HW232463   5.607   5.580   1.957
10522SOL     OW32464   6.129   0.477   0.036
10522SOL    HW132465   6.181   0.401   0.074
10522SOL    HW232466   6.046   0.443   7.010
10523SOL     OW32467   0.685   5.047   4.505
10523SOL    HW132468   0.675   5.013   4.598
10523SOL    HW232469   0.758   5.116   4.503
10524SOL     OW32470   1.919   0.861   5.076
10524SOL    HW132471   1.836   0.904   5.041
10524SOL    HW232472   1.897   0.806   5.157
10525SOL     OW32473   3.211   0.129   6.092
10525SOL    HW132474   3.259   0.043   6.109
10525SOL    HW232475   3.127   0.132   6.145
10526SOL     OW32476   0.362   0.018   2.799
10526SOL    HW132477   0.317   0.024   2.888
10526SOL    HW232478   0.306   0.064   2.730
10527SOL     OW32479   6.464   2.294   4.767
10527SOL    HW132480   6.415   2.306   4.853
10527SOL    HW232481   6.416   2.343   4.694
10528SOL     OW32482   1.095   3.171   5.864
10528SOL    HW132483   1.139   3.083   5.882
10528SOL    HW232484   1.056   3.171   5.772
10529SOL     OW32485   2.091   6.416   3.653
10529SOL    HW132486   2.176   6.459   3.685
10529SOL    HW232487   2.096   6.403   3.554
10530SOL     OW32488   2.298   0.863   6.378
10530SOL    HW132489   2.290   0.765   6.362
10530SOL    HW232490   2.212   0.898   6.415
10531SOL     OW32491   1.023   2.882   4.043
10531SOL    HW132492   0.937   2.931   4.033
10531SOL    HW232493   1.036   2.856   4.138
10532SOL     OW32494   1.906   4.580   6.742
10532SOL    HW132495   1.970   4.505   6.759
10532SOL    HW232496   1.827   4.544   6.691
10533SOL     OW32497   3.135   1.523   4.571
10533SOL    HW132498   3.205   1.539   4.639
10533SOL    HW232499   3.045   1.523   4.615
10534SOL     OW32500   5.823   5.766   1.784
10534SOL    HW132501   5.901   5.713   1.819
10534SOL    HW232502   5.738   5.726   1.817
10535SOL     OW32503   0.960   1.650   0.803
10535SOL    HW132504   0.937   1.743   0.833
10535SOL    HW232505   0.958   1.646   0.703
10536SOL     OW32506   4.194   0.963   3.266
10536SOL    HW132507   4.168   0.973   3.362
10536SOL    HW232508   4.143   0.887   3.226
10537SOL     OW32509   3.592   5.227   4.322
10537SOL    HW132510   3.500   5.264   4.335
10537SOL    HW232511   3.590   5.128   4.330
10538SOL     OW32512   4.916   2.398   0.163
10538SOL    HW132513   5.008   2.427   0.187
10538SOL    HW232514   4.920   2.332   0.087
10539SOL     OW32515   0.620   3.959   6.646
10539SOL    HW132516   0.617   4.004   6.556
10539SOL    HW232517   0.715   3.952   6.676
10540SOL     OW32518   1.473   2.415   5.100
10540SOL    HW132519   1.571   2.420   5.078
10540SOL    HW232520   1.427   2.498   5.069
10541SOL     OW32521   3.784   3.632   1.987
10541SOL    HW132522   3.784   3.533   2.003
10541SOL    HW232523   3.729   3.677   2.058
10542SOL     OW32524   6.494   1.616   6.288
10542SOL    HW132525   6.457   1.659   6.370
10542SOL    HW232526   6.588   1.587   6.305
10543SOL     OW32527   6.645   1.334   5.181
10543SOL    HW132528   6.709   1.403   5.146
10543SOL    HW232529   6.692   1.276   5.248
10544SOL     OW32530   1.660   6.797   2.558
10544SOL    HW132531   1.635   6.892   2.578
10544SOL    HW232532   1.612   6.737   2.622
10545SOL     OW32533   6.191   1.257   2.787
10545SOL    HW132534   6.116   1.199   2.755
10545SOL    HW232535   6.155   1.347   2.812
10546SOL     OW32536   0.943   1.060   6.471
10546SOL    HW132537   0.961   0.987   6.536
10546SOL    HW232538   1.028   1.108   6.449
10547SOL     OW32539   4.939   2.143   1.997
10547SOL    HW132540   4.841   2.155   1.983
10547SOL    HW232541   4.957   2.126   2.093
10548SOL     OW32542   5.235   4.381   5.023
10548SOL    HW132543   5.243   4.436   4.940
10548SOL    HW232544   5.247   4.285   5.001
10549SOL     OW32545   6.328   6.992   2.139
10549SOL    HW132546   6.387   6.965   2.063
10549SOL    HW232547   6.249   6.931   2.144
10550SOL     OW32548   4.619   6.216   4.788
10550SOL    HW132549   4.636   6.275   4.709
10550SOL    HW232550   4.572   6.133   4.758
10551SOL     OW32551   1.884   2.601   5.796
10551SOL    HW132552   1.828   2.667   5.846
10551SOL    HW232553   1.980   2.622   5.811
10552SOL     OW32554   3.923   2.015   5.981
10552SOL    HW132555   3.831   1.994   5.947
10552SOL    HW232556   3.919   2.095   6.040
10553SOL     OW32557   1.003   5.074   1.420
10553SOL    HW132558   1.063   5.123   1.357
10553SOL    HW232559   0.991   5.129   1.503
10554SOL     OW32560   4.919   5.221   0.144
10554SOL    HW132561   4.996   5.160   0.123
10554SOL    HW232562   4.952   5.314   0.156
10555SOL     OW32563   2.292   3.120   0.600
10555SOL    HW132564   2.345   3.105   0.683
10555SOL    HW232565   2.308   3.045   0.536
10556SOL     OW32566   2.164   2.419   5.032
10556SOL    HW132567   2.073   2.396   4.999
10556SOL    HW232568   2.185   2.514   5.009
10557SOL     OW32569   1.944   2.219   2.845
10557SOL    HW132570   1.877   2.145   2.846
10557SOL    HW232571   1.925   2.282   2.921
10558SOL     OW32572   4.200   0.360   3.804
10558SOL    HW132573   4.110   0.376   3.764
10558SOL    HW232574   4.268   0.351   3.732
10559SOL     OW32575   4.597   0.584   1.183
10559SOL    HW132576   4.599   0.675   1.224
10559SOL    HW232577   4.559   0.518   1.248
10560SOL     OW32578   3.149   6.960   3.533
10560SOL    HW132579   3.061   7.004   3.516
10560SOL    HW232580   3.135   6.877   3.586
10561SOL     OW32581   2.713   4.734   0.816
10561SOL    HW132582   2.711   4.697   0.909
10561SOL    HW232583   2.630   4.788   0.800
10562SOL     OW32584   5.252   6.326   0.432
10562SOL    HW132585   5.275   6.347   0.337
10562SOL    HW232586   5.333   6.335   0.489
10563SOL     OW32587   0.753   0.595   3.903
10563SOL    HW132588   0.767   0.607   3.805
10563SOL    HW232589   0.796   0.672   3.952
10564SOL     OW32590   5.908   6.196   2.466
10564SOL    HW132591   5.995   6.168   2.506
10564SOL    HW232592   5.890   6.141   2.384
10565SOL     OW32593   0.126   0.757   5.973
10565SOL    HW132594   0.040   0.806   5.964
10565SOL    HW232595   0.162   0.735   5.882
10566SOL     OW32596   4.341   2.843   6.977
10566SOL    HW132597   4.408   2.780   6.935
10566SOL    HW232598   4.261   2.791   7.006
10567SOL     OW32599   2.562   1.839   4.799
10567SOL    HW132600   2.580   1.934   4.821
10567SOL    HW232601   2.633   1.805   4.737
10568SOL     OW32602   6.004   1.743   1.553
10568SOL    HW132603   5.909   1.770   1.571
10568SOL    HW232604   6.066   1.816   1.583
10569SOL     OW32605   6.067   2.183   1.450
10569SOL    HW132606   6.143   2.248   1.459
10569SOL    HW232607   6.087   2.101   1.504
10570SOL     OW32608   1.447   4.577   3.468
10570SOL    HW132609   1.378   4.505   3.468
10570SOL    HW232610   1.529   4.546   3.516
10571SOL     OW32611   6.929   4.839   4.701
10571SOL    HW132612   6.983   4.798   4.774
10571SOL    HW232613   6.990   4.885   4.636
10572SOL     OW32614   6.895   4.229   3.940
10572SOL    HW132615   6.956   4.207   3.864
10572SOL    HW232616   6.806   4.186   3.924
10573SOL     OW32617   4.525   0.019   4.654
10573SOL    HW132618   4.491   6.969   4.588
10573SOL    HW232619   4.602   0.067   4.614
10574SOL     OW32620   1.102   1.435   4.232
10574SOL    HW132621   1.019   1.383   4.212
10574SOL    HW232622   1.078   1.518   4.282
10575SOL     OW32623   0.131   1.200   2.824
10575SOL    HW132624   0.146   1.272   2.892
10575SOL    HW232625   0.033   1.182   2.816
10576SOL     OW32626   6.910   6.511   5.502
10576SOL    HW132627   6.912   6.424   5.452
10576SOL    HW232628   6.964   6.578   5.452
10577SOL     OW32629   1.743   2.386   6.944
10577SOL    HW132630   1.818   2.436   6.987
10577SOL    HW232631   1.729   2.419   6.851
10578SOL     OW32632   6.285   0.719   3.264
10578SOL    HW132633   6.238   0.777   3.331
10578SOL    HW232634   6.242   0.730   3.175
10579SOL     OW32635   3.898   1.915   0.452
10579SOL    HW132636   3.967   1.871   0.509
10579SOL    HW232637   3.808   1.873   0.468
10580SOL     OW32638   6.578   0.279   0.460
10580SOL    HW132639   6.548   0.264   0.365
10580SOL    HW232640   6.498   0.285   0.519
10581SOL     OW32641   6.892   6.647   3.143
10581SOL    HW132642   6.838   6.581   3.091
10581SOL    HW232643   6.831   6.709   3.192
10582SOL     OW32644   4.490   4.717   6.898
10582SOL    HW132645   4.459   4.675   6.983
10582SOL    HW232646   4.486   4.817   6.906
10583SOL     OW32647   3.784   0.840   5.190
10583SOL    HW132648   3.757   0.767   5.253
10583SOL    HW232649   3.702   0.887   5.157
10584SOL     OW32650   6.410   6.532   1.606
10584SOL    HW132651   6.394   6.627   1.633
10584SOL    HW232652   6.468   6.488   1.674
10585SOL     OW32653   2.117   2.793   5.326
10585SOL    HW132654   2.179   2.717   5.306
10585SOL    HW232655   2.165   2.879   5.316
10586SOL     OW32656   0.582   5.336   5.001
10586SOL    HW132657   0.598   5.410   5.066
10586SOL    HW232658   0.613   5.250   5.040
10587SOL     OW32659   6.354   3.889   0.460
10587SOL    HW132660   6.278   3.897   0.396
10587SOL    HW232661   6.415   3.967   0.449
10588SOL     OW32662   0.220   3.867   2.343
10588SOL    HW132663   0.176   3.956   2.354
10588SOL    HW232664   0.150   3.799   2.319
10589SOL     OW32665   6.136   1.250   4.688
10589SOL    HW132666   6.222   1.223   4.732
10589SOL    HW232667   6.154   1.326   4.625
10590SOL     OW32668   1.616   0.156   1.534
10590SOL    HW132669   1.616   0.056   1.534
10590SOL    HW232670   1.702   0.189   1.574
10591SOL     OW32671   1.104   1.253   6.403
10591SOL    HW132672   1.063   1.283   6.318
10591SOL    HW232673   1.057   1.296   6.480
10592SOL     OW32674   6.329   2.851   0.632
10592SOL    HW132675   6.252   2.816   0.578
10592SOL    HW232676   6.326   2.951   0.634
10593SOL     OW32677   2.531   5.332   0.626
10593SOL    HW132678   2.467   5.385   0.571
10593SOL    HW232679   2.625   5.361   0.605
10594SOL     OW32680   5.267   1.237   2.285
10594SOL    HW132681   5.228   1.146   2.301
10594SOL    HW232682   5.315   1.268   2.367
10595SOL     OW32683   3.504   0.380   5.799
10595SOL    HW132684   3.444   0.416   5.727
10595SOL    HW232685   3.476   0.288   5.824
10596SOL     OW32686   4.899   0.016   0.462
10596SOL    HW132687   4.890   6.938   0.489
10596SOL    HW232688   4.977   0.057   0.510
10597SOL     OW32689   3.608   1.032   5.065
10597SOL    HW132690   3.626   0.957   5.002
10597SOL    HW232691   3.557   1.104   5.017
10598SOL     OW32692   2.503   2.700   6.828
10598SOL    HW132693   2.548   2.614   6.852
10598SOL    HW232694   2.405   2.694   6.849
10599SOL     OW32695   4.930   2.502   6.852
10599SOL    HW132696   4.851   2.441   6.849
10599SOL    HW232697   4.906   2.588   6.806
10600SOL     OW32698   1.771   2.656   0.450
10600SOL    HW132699   1.687   2.699   0.481
10600SOL    HW232700   1.799   2.586   0.516
10601SOL     OW32701   1.594   4.729   6.585
10601SOL    HW132702   1.548   4.730   6.674
10601SOL    HW232703   1.623   4.822   6.561
10602SOL     OW32704   5.276   1.992   3.269
10602SOL    HW132705   5.253   2.079   3.225
10602SOL    HW232706   5.206   1.970   3.337
10603SOL     OW32707   2.314   5.742   4.101
10603SOL    HW132708   2.369   5.724   4.019
10603SOL    HW232709   2.349   5.688   4.178
10604SOL     OW32710   5.862   3.692   5.293
10604SOL    HW132711   5.860   3.621   5.364
10604SOL    HW232712   5.865   3.782   5.336
10605SOL     OW32713   1.492   4.958   0.714
10605SOL    HW132714   1.448   4.996   0.795
10605SOL    HW232715   1.498   5.028   0.643
10606SOL     OW32716   6.443   6.929   2.403
10606SOL    HW132717   6.403   6.946   2.313
10606SOL    HW232718   6.519   6.992   2.419
10607SOL     OW32719   4.076   4.021   5.939
10607SOL    HW132720   4.075   4.049   6.035
10607SOL    HW232721   4.050   4.099   5.882
10608SOL     OW32722   5.380   2.178   5.488
10608SOL    HW132723   5.400   2.272   5.461
10608SOL    HW232724   5.465   2.132   5.513
10609SOL     OW32725   3.507   6.711   1.788
10609SOL    HW132726   3.432   6.767   1.824
10609SOL    HW232727   3.592   6.734   1.833
10610SOL     OW32728   0.310   3.325   5.859
10610SOL    HW132729   0.248   3.397   5.829
10610SOL    HW232730   0.390   3.322   5.799
10611SOL     OW32731   4.198   3.814   5.558
10611SOL    HW132732   4.168   3.800   5.652
10611SOL    HW232733   4.213   3.912   5.543
10612SOL     OW32734   2.651   0.082   5.788
10612SOL    HW132735   2.654   0.146   5.711
10612SOL    HW232736   2.741   0.039   5.799
10613SOL     OW32737   6.819   0.693   5.358
10613SOL    HW132738   6.810   0.597   5.331
10613SOL    HW232739   6.880   0.739   5.294
10614SOL     OW32740   6.735   1.952   4.546
10614SOL    HW132741   6.702   2.044   4.524
10614SOL    HW232742   6.816   1.958   4.604
10615SOL     OW32743   3.066   6.110   5.984
10615SOL    HW132744   2.977   6.155   5.976
10615SOL    HW232745   3.081   6.051   5.905
10616SOL     OW32746   2.805   6.398   1.258
10616SOL    HW132747   2.864   6.474   1.286
10616SOL    HW232748   2.841   6.312   1.294
10617SOL     OW32749   2.333   2.591   0.572
10617SOL    HW132750   2.277   2.623   0.649
10617SOL    HW232751   2.297   2.630   0.487
10618SOL     OW32752   6.044   3.550   6.712
10618SOL    HW132753   6.041   3.501   6.799
10618SOL    HW232754   6.134   3.591   6.699
10619SOL     OW32755   0.237   3.835   1.923
10619SOL    HW132756   0.327   3.825   1.880
10619SOL    HW232757   0.169   3.856   1.852
10620SOL     OW32758   1.181   5.524   5.891
10620SOL    HW132759   1.167   5.478   5.804
10620SOL    HW232760   1.130   5.477   5.963
10621SOL     OW32761   1.299   6.438   1.385
10621SOL    HW132762   1.314   6.537   1.391
10621SOL    HW232763   1.386   6.391   1.391
10622SOL     OW32764   5.404   0.816   1.197
10622SOL    HW132765   5.501   0.836   1.208
10622SOL    HW232766   5.389   0.773   1.108
10623SOL     OW32767   6.868   4.924   4.279
10623SOL    HW132768   6.877   4.824   4.284
10623SOL    HW232769   6.928   4.959   4.207
10624SOL     OW32770   0.361   1.421   4.710
10624SOL    HW132771   0.427   1.398   4.781
10624SOL    HW232772   0.378   1.365   4.629
10625SOL     OW32773   0.552   4.798   0.223
10625SOL    HW132774   0.493   4.721   0.197
10625SOL    HW232775   0.503   4.883   0.206
10626SOL     OW32776   1.132   3.195   0.929
10626SOL    HW132777   1.124   3.118   0.865
10626SOL    HW232778   1.212   3.182   0.987
10627SOL     OW32779   5.285   5.780   1.328
10627SOL    HW132780   5.334   5.796   1.414
10627SOL    HW232781   5.337   5.717   1.271
10628SOL     OW32782   5.361   5.399   6.112
10628SOL    HW132783   5.283   5.391   6.174
10628SOL    HW232784   5.444   5.415   6.166
10629SOL     OW32785   2.447   4.762   4.701
10629SOL    HW132786   2.448   4.759   4.601
10629SOL    HW232787   2.367   4.812   4.732
10630SOL     OW32788   6.479   1.484   3.613
10630SOL    HW132789   6.401   1.541   3.638
10630SOL    HW232790   6.542   1.479   3.691
10631SOL     OW32791   1.424   4.648   5.357
10631SOL    HW132792   1.523   4.653   5.365
10631SOL    HW232793   1.385   4.739   5.368
10632SOL     OW32794   5.315   1.938   3.960
10632SOL    HW132795   5.219   1.922   3.935
10632SOL    HW232796   5.319   1.984   4.049
10633SOL     OW32797   2.322   3.621   1.156
10633SOL    HW132798   2.261   3.615   1.235
10633SOL    HW232799   2.271   3.599   1.073
10634SOL     OW32800   3.171   5.293   1.511
10634SOL    HW132801   3.103   5.316   1.441
10634SOL    HW232802   3.220   5.376   1.538
10635SOL     OW32803   3.513   1.700   0.845
10635SOL    HW132804   3.539   1.755   0.925
10635SOL    HW232805   3.421   1.726   0.816
10636SOL     OW32806   1.365   2.038   1.492
10636SOL    HW132807   1.345   2.128   1.450
10636SOL    HW232808   1.447   2.000   1.450
10637SOL     OW32809   3.209   5.029   5.592
10637SOL    HW132810   3.286   5.014   5.530
10637SOL    HW232811   3.154   5.106   5.560
10638SOL     OW32812   0.335   5.792   2.962
10638SOL    HW132813   0.327   5.731   3.041
10638SOL    HW232814   0.317   5.886   2.990
10639SOL     OW32815   0.267   2.678   2.957
10639SOL    HW132816   0.251   2.600   2.898
10639SOL    HW232817   0.253   2.763   2.906
10640SOL     OW32818   4.090   0.312   6.061
10640SOL    HW132819   4.058   0.390   6.115
10640SOL    HW232820   4.015   0.246   6.050
10641SOL     OW32821   3.607   2.075   0.188
10641SOL    HW132822   3.702   2.046   0.178
10641SOL    HW232823   3.565   2.086   0.098
10642SOL     OW32824   0.073   2.559   1.679
10642SOL    HW132825   0.144   2.576   1.611
10642SOL    HW232826   7.012   2.618   1.661
10643SOL     OW32827   2.038   4.754   5.570
10643SOL    HW132828   2.011   4.804   5.487
10643SOL    HW232829   2.133   4.776   5.593
10644SOL     OW32830   5.729   1.945   3.087
10644SOL    HW132831   5.675   1.941   3.172
10644SOL    HW232832   5.668   1.963   3.010
10645SOL     OW32833   0.250   1.114   4.400
10645SOL    HW132834   0.217   1.117   4.306
10645SOL    HW232835   0.212   1.035   4.447
10646SOL     OW32836   0.419   1.651   5.709
10646SOL    HW132837   0.411   1.644   5.809
10646SOL    HW232838   0.513   1.673   5.685
10647SOL     OW32839   4.145   5.646   6.864
10647SOL    HW132840   4.203   5.656   6.783
10647SOL    HW232841   4.177   5.568   6.918
10648SOL     OW32842   4.650   3.824   6.466
10648SOL    HW132843   4.612   3.891   6.403
10648SOL    HW232844   4.646   3.733   6.424
10649SOL     OW32845   0.459   4.098   3.034
10649SOL    HW132846   0.509   4.014   3.011
10649SOL    HW232847   0.384   4.111   2.969
10650SOL     OW32848   1.369   6.086   3.209
10650SOL    HW132849   1.348   6.097   3.306
10650SOL    HW232850   1.318   6.153   3.156
10651SOL     OW32851   4.864   6.787   6.017
10651SOL    HW132852   4.871   6.703   5.962
10651SOL    HW232853   4.803   6.852   5.972
10652SOL     OW32854   3.384   6.905   6.074
10652SOL    HW132855   3.459   6.859   6.122
10652SOL    HW232856   3.336   6.838   6.017
10653SOL     OW32857   5.239   4.444   4.346
10653SOL    HW132858   5.257   4.384   4.424
10653SOL    HW232859   5.141   4.445   4.326
10654SOL     OW32860   4.588   1.186   0.685
10654SOL    HW132861   4.569   1.176   0.783
10654SOL    HW232862   4.548   1.109   0.635
10655SOL     OW32863   2.952   5.424   1.375
10655SOL    HW132864   2.921   5.448   1.283
10655SOL    HW232865   2.912   5.488   1.441
10656SOL     OW32866   5.911   2.489   0.664
10656SOL    HW132867   5.963   2.459   0.584
10656SOL    HW232868   5.904   2.589   0.664
10657SOL     OW32869   6.461   6.743   6.716
10657SOL    HW132870   6.457   6.839   6.688
10657SOL    HW232871   6.487   6.738   6.813
10658SOL     OW32872   6.526   4.016   4.483
10658SOL    HW132873   6.506   4.059   4.571
10658SOL    HW232874   6.505   3.919   4.487
10659SOL     OW32875   6.326   6.194   0.950
10659SOL    HW132876   6.226   6.182   0.951
10659SOL    HW232877   6.366   6.150   1.030
10660SOL     OW32878   5.544   4.479   6.545
10660SOL    HW132879   5.588   4.477   6.455
10660SOL    HW232880   5.499   4.391   6.562
10661SOL     OW32881   0.616   6.696   2.304
10661SOL    HW132882   0.703   6.737   2.276
10661SOL    HW232883   0.620   6.597   2.290
10662SOL     OW32884   5.839   0.710   1.874
10662SOL    HW132885   5.866   0.614   1.866
10662SOL    HW232886   5.796   0.725   1.963
10663SOL     OW32887   0.210   6.787   1.662
10663SOL    HW132888   0.132   6.777   1.601
10663SOL    HW232889   0.256   6.699   1.672
10664SOL     OW32890   1.915   4.220   5.375
10664SOL    HW132891   2.007   4.212   5.337
10664SOL    HW232892   1.918   4.203   5.474
10665SOL     OW32893   0.680   0.391   0.720
10665SOL    HW132894   0.630   0.470   0.685
10665SOL    HW232895   0.656   0.310   0.666
10666SOL     OW32896   3.665   4.706   0.173
10666SOL    HW132897   3.709   4.660   0.251
10666SOL    HW232898   3.587   4.653   0.142
10667SOL     OW32899   3.543   2.659   5.346
10667SOL    HW132900   3.612   2.721   5.308
10667SOL    HW232901   3.585   2.571   5.368
10668SOL     OW32902   1.170   1.428   5.031
10668SOL    HW132903   1.259   1.432   4.986
10668SOL    HW232904   1.179   1.377   5.117
10669SOL     OW32905   6.033   6.607   0.793
10669SOL    HW132906   6.008   6.664   0.715
10669SOL    HW232907   6.107   6.544   0.767
10670SOL     OW32908   4.844   4.360   5.525
10670SOL    HW132909   4.814   4.285   5.466
10670SOL    HW232910   4.864   4.440   5.468
10671SOL     OW32911   2.320   2.438   2.461
10671SOL    HW132912   2.325   2.342   2.488
10671SOL    HW232913   2.375   2.452   2.378
10672SOL     OW32914   6.981   2.574   0.732
10672SOL    HW132915   6.951   2.609   0.643
10672SOL    HW232916   7.016   2.649   0.788
10673SOL     OW32917   1.690   2.459   6.202
10673SOL    HW132918   1.635   2.376   6.216
10673SOL    HW232919   1.771   2.455   6.260
10674SOL     OW32920   3.750   3.122   0.558
10674SOL    HW132921   3.750   3.033   0.604
10674SOL    HW232922   3.815   3.120   0.482
10675SOL     OW32923   1.970   0.789   6.369
10675SOL    HW132924   1.919   0.872   6.350
10675SOL    HW232925   1.915   0.727   6.425
10676SOL     OW32926   6.395   6.904   6.452
10676SOL    HW132927   6.334   6.829   6.427
10676SOL    HW232928   6.467   6.912   6.384
10677SOL     OW32929   0.485   0.277   2.059
10677SOL    HW132930   0.406   0.272   1.997
10677SOL    HW232931   0.495   0.372   2.090
10678SOL     OW32932   3.682   5.371   3.176
10678SOL    HW132933   3.625   5.444   3.139
10678SOL    HW232934   3.699   5.302   3.105
10679SOL     OW32935   4.921   4.618   5.968
10679SOL    HW132936   4.908   4.547   6.037
10679SOL    HW232937   4.856   4.604   5.893
10680SOL     OW32938   2.323   2.476   3.874
10680SOL    HW132939   2.380   2.464   3.792
10680SOL    HW232940   2.276   2.564   3.869
10681SOL     OW32941   0.034   3.910   6.446
10681SOL    HW132942   0.039   3.913   6.347
10681SOL    HW232943   0.058   3.999   6.484
10682SOL     OW32944   1.761   2.018   3.016
10682SOL    HW132945   1.775   2.044   3.111
10682SOL    HW232946   1.817   1.938   2.995
10683SOL     OW32947   3.178   1.786   3.628
10683SOL    HW132948   3.085   1.822   3.635
10683SOL    HW232949   3.215   1.769   3.719
10684SOL     OW32950   4.581   3.722   0.370
10684SOL    HW132951   4.601   3.696   0.464
10684SOL    HW232952   4.543   3.644   0.321
10685SOL     OW32953   6.806   4.159   2.047
10685SOL    HW132954   6.873   4.104   1.997
10685SOL    HW232955   6.737   4.098   2.087
10686SOL     OW32956   4.237   5.195   6.403
10686SOL    HW132957   4.255   5.108   6.357
10686SOL    HW232958   4.161   5.242   6.359
10687SOL     OW32959   6.981   4.958   2.122
10687SOL    HW132960   6.995   4.884   2.057
10687SOL    HW232961   6.969   5.044   2.073
10688SOL     OW32962   5.956   4.095   2.604
10688SOL    HW132963   5.979   4.003   2.638
10688SOL    HW232964   5.859   4.114   2.621
10689SOL     OW32965   0.592   0.386   3.092
10689SOL    HW132966   0.518   0.405   3.028
10689SOL    HW232967   0.615   0.470   3.141
10690SOL     OW32968   6.104   5.397   3.810
10690SOL    HW132969   6.171   5.323   3.814
10690SOL    HW232970   6.035   5.375   3.740
10691SOL     OW32971   6.942   1.835   2.171
10691SOL    HW132972   7.014   1.888   2.215
10691SOL    HW232973   6.951   1.844   2.072
10692SOL     OW32974   3.236   5.218   3.813
10692SOL    HW132975   3.313   5.154   3.804
10692SOL    HW232976   3.183   5.219   3.729
10693SOL     OW32977   1.695   0.832   1.759
10693SOL    HW132978   1.604   0.864   1.731
10693SOL    HW232979   1.763   0.902   1.737
10694SOL     OW32980   3.520   6.260   1.151
10694SOL    HW132981   3.428   6.292   1.125
10694SOL    HW232982   3.533   6.166   1.121
10695SOL     OW32983   6.497   2.282   3.907
10695SOL    HW132984   6.513   2.270   3.809
10695SOL    HW232985   6.416   2.230   3.935
10696SOL     OW32986   6.851   5.173   1.996
10696SOL    HW132987   6.758   5.205   1.977
10696SOL    HW232988   6.908   5.250   2.023
10697SOL     OW32989   0.184   6.292   4.097
10697SOL    HW132990   0.235   6.206   4.090
10697SOL    HW232991   0.224   6.349   4.169
10698SOL     OW32992   3.258   6.843   3.879
10698SOL    HW132993   3.167   6.820   3.914
10698SOL    HW232994   3.304   6.759   3.851
10699SOL     OW32995   4.827   1.674   2.856
10699SOL    HW132996   4.892   1.632   2.794
10699SOL    HW232997   4.875   1.713   2.935
10700SOL     OW32998   0.948   0.443   0.757
10700SOL    HW132999   0.996   0.405   0.678
10700SOL    HW233000   0.853   0.411   0.757
10701SOL     OW33001   4.420   6.093   6.992
10701SOL    HW133002   4.333   6.125   0.012
10701SOL    HW233003   4.486   6.169   6.994
10702SOL     OW33004   5.607   2.497   1.873
10702SOL    HW133005   5.661   2.462   1.949
10702SOL    HW233006   5.512   2.469   1.884
10703SOL     OW33007   3.567   2.892   3.885
10703SOL    HW133008   3.667   2.898   3.876
10703SOL    HW233009   3.528   2.858   3.800
10704SOL     OW33010   4.772   6.003   2.177
10704SOL    HW133011   4.693   6.052   2.213
10704SOL    HW233012   4.856   6.049   2.207
10705SOL     OW33013   1.037   3.685   0.200
10705SOL    HW133014   1.004   3.713   0.291
10705SOL    HW233015   0.968   3.627   0.157
10706SOL     OW33016   4.873   0.303   1.585
10706SOL    HW133017   4.893   0.368   1.512
10706SOL    HW233018   4.787   0.329   1.630
10707SOL     OW33019   0.452   6.843   4.803
10707SOL    HW133020   0.521   6.916   4.805
10707SOL    HW233021   0.362   6.881   4.826
10708SOL     OW33022   4.882   1.079   1.682
10708SOL    HW133023   4.937   1.152   1.640
10708SOL    HW233024   4.885   1.088   1.782
10709SOL     OW33025   6.390   0.726   5.441
10709SOL    HW133026   6.474   0.737   5.495
10709SOL    HW233027   6.333   0.807   5.452
10710SOL     OW33028   0.692   6.407   4.861
10710SOL    HW133029   0.622   6.466   4.821
10710SOL    HW233030   0.684   6.409   4.960
10711SOL     OW33031   1.612   0.134   3.914
10711SOL    HW133032   1.550   0.120   3.837
10711SOL    HW233033   1.700   0.091   3.893
10712SOL     OW33034   3.869   1.090   3.561
10712SOL    HW133035   3.810   1.076   3.481
10712SOL    HW233036   3.884   1.187   3.576
10713SOL     OW33037   2.019   5.364   1.596
10713SOL    HW133038   1.975   5.437   1.544
10713SOL    HW233039   1.960   5.338   1.673
10714SOL     OW33040   0.168   4.033   5.153
10714SOL    HW133041   0.167   4.017   5.054
10714SOL    HW233042   0.177   3.946   5.201
10715SOL     OW33043   5.122   0.223   2.751
10715SOL    HW133044   5.106   0.183   2.842
10715SOL    HW233045   5.048   0.194   2.689
10716SOL     OW33046   0.194   1.592   3.533
10716SOL    HW133047   0.289   1.586   3.505
10716SOL    HW233048   0.135   1.576   3.454
10717SOL     OW33049   0.398   1.402   1.043
10717SOL    HW133050   0.497   1.416   1.046
10717SOL    HW233051   0.379   1.304   1.034
10718SOL     OW33052   6.495   4.747   0.470
10718SOL    HW133053   6.454   4.784   0.553
10718SOL    HW233054   6.523   4.652   0.487
10719SOL     OW33055   5.276   6.535   2.074
10719SOL    HW133056   5.180   6.526   2.100
10719SOL    HW233057   5.334   6.491   2.143
10720SOL     OW33058   6.438   3.540   6.105
10720SOL    HW133059   6.345   3.563   6.077
10720SOL    HW233060   6.487   3.624   6.129
10721SOL     OW33061   6.036   2.186   4.021
10721SOL    HW133062   6.115   2.155   3.968
10721SOL    HW233063   6.022   2.284   4.005
10722SOL     OW33064   0.429   3.560   6.936
10722SOL    HW133065   0.334   3.543   6.961
10722SOL    HW233066   0.462   3.641   6.984
10723SOL     OW33067   5.534   3.927   6.635
10723SOL    HW133068   5.435   3.934   6.625
10723SOL    HW233069   5.561   3.831   6.630
10724SOL     OW33070   4.164   6.505   5.949
10724SOL    HW133071   4.236   6.561   5.908
10724SOL    HW233072   4.120   6.557   6.022
10725SOL     OW33073   0.020   5.458   4.439
10725SOL    HW133074   0.031   5.358   4.441
10725SOL    HW233075   6.959   5.482   4.382
10726SOL     OW33076   5.984   0.378   4.638
10726SOL    HW133077   5.976   0.404   4.542
10726SOL    HW233078   6.002   0.460   4.693
10727SOL     OW33079   1.376   5.336   5.355
10727SOL    HW133080   1.315   5.386   5.293
10727SOL    HW233081   1.436   5.277   5.302
10728SOL     OW33082   5.461   6.329   2.895
10728SOL    HW133083   5.381   6.347   2.952
10728SOL    HW233084   5.463   6.391   2.817
10729SOL     OW33085   6.374   1.922   2.602
10729SOL    HW133086   6.436   1.844   2.593
10729SOL    HW233087   6.391   1.986   2.528
10730SOL     OW33088   2.561   6.378   2.173
10730SOL    HW133089   2.659   6.376   2.153
10730SOL    HW233090   2.545   6.429   2.258
10731SOL     OW33091   2.577   5.927   0.914
10731SOL    HW133092   2.536   5.886   0.996
10731SOL    HW233093   2.653   5.987   0.941
10732SOL     OW33094   6.815   0.080   3.138
10732SOL    HW133095   6.861   0.026   3.208
10732SOL    HW233096   6.745   0.023   3.093
10733SOL     OW33097   6.127   2.333   6.743
10733SOL    HW133098   6.223   2.346   6.718
10733SOL    HW233099   6.070   2.400   6.696
10734SOL     OW33100   0.461   0.545   6.402
10734SOL    HW133101   0.443   0.639   6.430
10734SOL    HW233102   0.391   0.516   6.336
10735SOL     OW33103   0.785   5.069   2.358
10735SOL    HW133104   0.703   5.017   2.383
10735SOL    HW233105   0.771   5.165   2.380
10736SOL     OW33106   0.444   0.800   3.370
10736SOL    HW133107   0.382   0.816   3.447
10736SOL    HW233108   0.390   0.786   3.287
10737SOL     OW33109   0.682   1.587   0.842
10737SOL    HW133110   0.676   1.503   0.896
10737SOL    HW233111   0.777   1.618   0.839
10738SOL     OW33112   2.320   0.252   2.705
10738SOL    HW133113   2.306   0.289   2.797
10738SOL    HW233114   2.400   0.193   2.705
10739SOL     OW33115   6.464   2.078   1.963
10739SOL    HW133116   6.441   2.051   2.056
10739SOL    HW233117   6.559   2.107   1.959
10740SOL     OW33118   1.103   6.555   5.603
10740SOL    HW133119   1.004   6.568   5.593
10740SOL    HW233120   1.122   6.464   5.638
10741SOL     OW33121   1.888   1.679   3.527
10741SOL    HW133122   1.898   1.704   3.431
10741SOL    HW233123   1.823   1.740   3.571
10742SOL     OW33124   5.533   6.145   2.414
10742SOL    HW133125   5.628   6.146   2.445
10742SOL    HW233126   5.476   6.098   2.482
10743SOL     OW33127   3.557   1.481   4.804
10743SOL    HW133128   3.622   1.557   4.807
10743SOL    HW233129   3.473   1.507   4.851
10744SOL     OW33130   3.241   1.377   2.055
10744SOL    HW133131   3.178   1.389   2.132
10744SOL    HW233132   3.262   1.280   2.043
10745SOL     OW33133   2.199   4.906   0.713
10745SOL    HW133134   2.140   4.959   0.773
10745SOL    HW233135   2.294   4.918   0.741
10746SOL     OW33136   2.344   5.698   1.425
10746SOL    HW133137   2.314   5.603   1.428
10746SOL    HW233138   2.433   5.707   1.471
10747SOL     OW33139   5.304   1.404   3.671
10747SOL    HW133140   5.252   1.420   3.587
10747SOL    HW233141   5.367   1.327   3.657
10748SOL     OW33142   5.289   5.463   1.148
10748SOL    HW133143   5.326   5.492   1.236
10748SOL    HW233144   5.364   5.429   1.091
10749SOL     OW33145   6.690   4.655   2.940
10749SOL    HW133146   6.694   4.735   2.880
10749SOL    HW233147   6.647   4.680   3.026
10750SOL     OW33148   4.853   3.968   4.576
10750SOL    HW133149   4.801   3.968   4.491
10750SOL    HW233150   4.813   4.035   4.639
10751SOL     OW33151   1.359   3.028   5.141
10751SOL    HW133152   1.433   2.960   5.145
10751SOL    HW233153   1.398   3.120   5.149
10752SOL     OW33154   5.918   4.378   6.971
10752SOL    HW133155   5.906   4.279   6.980
10752SOL    HW233156   6.015   4.400   6.966
10753SOL     OW33157   5.225   0.084   3.906
10753SOL    HW133158   5.285   0.039   3.841
10753SOL    HW233159   5.256   0.178   3.921
10754SOL     OW33160   1.020   2.902   2.030
10754SOL    HW133161   1.057   2.898   1.937
10754SOL    HW233162   1.010   2.998   2.057
10755SOL     OW33163   0.025   1.967   0.746
10755SOL    HW133164   6.967   1.941   0.687
10755SOL    HW233165   0.103   1.996   0.691
10756SOL     OW33166   6.600   2.326   0.107
10756SOL    HW133167   6.518   2.272   0.130
10756SOL    HW233168   6.680   2.266   0.109
10757SOL     OW33169   0.210   3.992   0.462
10757SOL    HW133170   0.221   3.946   0.374
10757SOL    HW233171   0.114   4.016   0.475
10758SOL     OW33172   0.519   5.574   6.032
10758SOL    HW133173   0.481   5.586   6.124
10758SOL    HW233174   0.463   5.625   5.966
10759SOL     OW33175   1.745   3.359   6.098
10759SOL    HW133176   1.713   3.286   6.038
10759SOL    HW233177   1.734   3.447   6.051
10760SOL     OW33178   0.937   5.610   0.765
10760SOL    HW133179   0.983   5.696   0.791
10760SOL    HW233180   0.852   5.601   0.815
10761SOL     OW33181   1.285   2.618   6.361
10761SOL    HW133182   1.276   2.528   6.404
10761SOL    HW233183   1.352   2.673   6.410
10762SOL     OW33184   4.989   0.938   6.032
10762SOL    HW133185   4.977   0.895   6.122
10762SOL    HW233186   4.904   0.929   5.980
10763SOL     OW33187   5.130   0.304   1.662
10763SOL    HW133188   5.166   0.386   1.616
10763SOL    HW233189   5.031   0.299   1.647
10764SOL     OW33190   5.444   1.295   5.773
10764SOL    HW133191   5.527   1.269   5.724
10764SOL    HW233192   5.463   1.302   5.871
10765SOL     OW33193   5.706   1.506   2.258
10765SOL    HW133194   5.640   1.574   2.291
10765SOL    HW233195   5.697   1.422   2.312
10766SOL     OW33196   2.181   4.348   0.186
10766SOL    HW133197   2.082   4.337   0.194
10766SOL    HW233198   2.227   4.261   0.203
10767SOL     OW33199   1.982   6.216   0.843
10767SOL    HW133200   2.029   6.303   0.829
10767SOL    HW233201   2.043   6.141   0.821
10768SOL     OW33202   5.299   5.740   0.180
10768SOL    HW133203   5.298   5.836   0.208
10768SOL    HW233204   5.273   5.733   0.083
10769SOL     OW33205   2.710   4.451   5.316
10769SOL    HW133206   2.782   4.473   5.251
10769SOL    HW233207   2.632   4.412   5.267
10770SOL     OW33208   5.495   0.296   4.693
10770SOL    HW133209   5.496   0.387   4.734
10770SOL    HW233210   5.445   0.299   4.606
10771SOL     OW33211   4.267   0.243   5.409
10771SOL    HW133212   4.222   0.153   5.407
10771SOL    HW233213   4.199   0.314   5.391
10772SOL     OW33214   6.822   6.395   3.856
10772SOL    HW133215   6.885   6.317   3.861
10772SOL    HW233216   6.728   6.361   3.850
10773SOL     OW33217   6.876   4.268   6.891
10773SOL    HW133218   6.970   4.275   6.859
10773SOL    HW233219   6.824   4.347   6.859
10774SOL     OW33220   1.794   2.609   1.526
10774SOL    HW133221   1.862   2.657   1.581
10774SOL    HW233222   1.819   2.613   1.430
10775SOL     OW33223   2.038   4.653   1.446
10775SOL    HW133224   2.117   4.698   1.405
10775SOL    HW233225   1.959   4.664   1.386
10776SOL     OW33226   0.224   6.590   2.273
10776SOL    HW133227   0.208   6.664   2.208
10776SOL    HW233228   0.321   6.588   2.298
10777SOL     OW33229   4.149   0.409   3.230
10777SOL    HW133230   4.179   0.502   3.247
10777SOL    HW233231   4.121   0.366   3.316
10778SOL     OW33232   6.223   6.035   4.762
10778SOL    HW133233   6.205   6.050   4.859
10778SOL    HW233234   6.176   6.105   4.708
10779SOL     OW33235   6.414   4.313   2.524
10779SOL    HW133236   6.458   4.224   2.534
10779SOL    HW233237   6.471   4.384   2.565
10780SOL     OW33238   0.238   5.625   4.409
10780SOL    HW133239   0.172   5.550   4.402
10780SOL    HW233240   0.312   5.611   4.342
10781SOL     OW33241   5.195   0.846   4.183
10781SOL    HW133242   5.115   0.796   4.217
10781SOL    HW233243   5.277   0.814   4.231
10782SOL     OW33244   6.137   3.084   4.197
10782SOL    HW133245   6.179   3.052   4.112
10782SOL    HW233246   6.154   3.181   4.208
10783SOL     OW33247   2.214   3.044   2.540
10783SOL    HW133248   2.232   2.974   2.472
10783SOL    HW233249   2.201   3.132   2.495
10784SOL     OW33250   2.764   6.666   2.227
10784SOL    HW133251   2.816   6.729   2.170
10784SOL    HW233252   2.796   6.673   2.322
10785SOL     OW33253   1.398   5.303   1.350
10785SOL    HW133254   1.374   5.400   1.352
10785SOL    HW233255   1.345   5.254   1.419
10786SOL     OW33256   4.470   1.939   2.408
10786SOL    HW133257   4.447   1.860   2.351
10786SOL    HW233258   4.563   1.969   2.386
10787SOL     OW33259   3.273   1.181   4.154
10787SOL    HW133260   3.209   1.146   4.086
10787SOL    HW233261   3.337   1.244   4.110
10788SOL     OW33262   1.987   4.113   0.107
10788SOL    HW133263   1.915   4.171   0.070
10788SOL    HW233264   2.002   4.035   0.045
10789SOL     OW33265   6.571   1.111   0.577
10789SOL    HW133266   6.616   1.162   0.651
10789SOL    HW233267   6.484   1.074   0.609
10790SOL     OW33268   6.578   1.089   5.723
10790SOL    HW133269   6.573   1.071   5.821
10790SOL    HW233270   6.666   1.130   5.701
10791SOL     OW33271   2.055   1.833   1.731
10791SOL    HW133272   2.129   1.821   1.664
10791SOL    HW233273   2.032   1.745   1.771
10792SOL     OW33274   3.589   2.837   1.104
10792SOL    HW133275   3.664   2.902   1.115
10792SOL    HW233276   3.591   2.770   1.178
10793SOL     OW33277   4.993   2.168   4.081
10793SOL    HW133278   4.964   2.123   4.166
10793SOL    HW233279   5.074   2.223   4.099
10794SOL     OW33280   4.001   3.964   1.838
10794SOL    HW133281   4.047   3.888   1.883
10794SOL    HW233282   3.941   4.011   1.903
10795SOL     OW33283   6.673   3.816   2.369
10795SOL    HW133284   6.652   3.730   2.325
10795SOL    HW233285   6.691   3.801   2.467
10796SOL     OW33286   4.161   6.922   6.139
10796SOL    HW133287   4.076   6.959   6.177
10796SOL    HW233288   4.218   6.887   6.213
10797SOL     OW33289   3.826   2.285   6.924
10797SOL    HW133290   3.760   2.229   6.874
10797SOL    HW233291   3.790   2.305   7.016
10798SOL     OW33292   2.531   0.241   6.700
10798SOL    HW133293   2.571   0.296   6.626
10798SOL    HW233294   2.473   0.300   6.757
10799SOL     OW33295   3.530   2.123   2.586
10799SOL    HW133296   3.478   2.175   2.519
10799SOL    HW233297   3.470   2.057   2.631
10800SOL     OW33298   2.471   6.540   0.704
10800SOL    HW133299   2.442   6.635   0.708
10800SOL    HW233300   2.473   6.500   0.796
10801SOL     OW33301   1.968   6.300   5.347
10801SOL    HW133302   2.003   6.249   5.425
10801SOL    HW233303   1.924   6.238   5.283
10802SOL     OW33304   2.116   3.227   3.850
10802SOL    HW133305   2.154   3.162   3.915
10802SOL    HW233306   2.158   3.213   3.760
10803SOL     OW33307   5.192   4.799   5.489
10803SOL    HW133308   5.190   4.899   5.485
10803SOL    HW233309   5.138   4.767   5.567
10804SOL     OW33310   0.029   3.657   0.616
10804SOL    HW133311   0.003   3.692   0.706
10804SOL    HW233312   6.994   3.573   0.597
10805SOL     OW33313   3.447   6.787   6.653
10805SOL    HW133314   3.439   6.878   6.693
10805SOL    HW233315   3.491   6.725   6.718
10806SOL     OW33316   6.099   4.079   0.349
10806SOL    HW133317   6.082   3.984   0.375
10806SOL    HW233318   6.185   4.084   0.298
10807SOL     OW33319   3.057   6.647   3.489
10807SOL    HW133320   3.081   6.581   3.561
10807SOL    HW233321   3.131   6.652   3.422
10808SOL     OW33322   0.474   3.839   0.052
10808SOL    HW133323   0.458   3.922   7.016
10808SOL    HW233324   0.539   3.859   0.125
10809SOL     OW33325   2.978   0.886   4.345
10809SOL    HW133326   2.954   0.929   4.432
10809SOL    HW233327   3.014   0.955   4.282
10810SOL     OW33328   0.249   1.290   5.601
10810SOL    HW133329   0.290   1.199   5.615
10810SOL    HW233330   0.212   1.323   5.688
10811SOL     OW33331   3.784   5.305   5.779
10811SOL    HW133332   3.709   5.369   5.799
10811SOL    HW233333   3.755   5.212   5.802
10812SOL     OW33334   0.443   2.471   2.632
10812SOL    HW133335   0.538   2.491   2.656
10812SOL    HW233336   0.405   2.548   2.579
10813SOL     OW33337   3.098   5.950   1.614
10813SOL    HW133338   3.025   5.957   1.682
10813SOL    HW233339   3.059   5.944   1.523
10814SOL     OW33340   1.750   0.162   5.808
10814SOL    HW133341   1.788   0.071   5.828
10814SOL    HW233342   1.772   0.224   5.882
10815SOL     OW33343   4.628   4.838   3.255
10815SOL    HW133344   4.550   4.776   3.253
10815SOL    HW233345   4.713   4.786   3.267
10816SOL     OW33346   1.623   1.479   2.020
10816SOL    HW133347   1.553   1.456   2.087
10816SOL    HW233348   1.583   1.536   1.948
10817SOL     OW33349   5.400   6.681   2.989
10817SOL    HW133350   5.396   6.606   3.055
10817SOL    HW233351   5.324   6.744   3.003
10818SOL     OW33352   5.666   2.873   6.081
10818SOL    HW133353   5.641   2.888   6.176
10818SOL    HW233354   5.671   2.961   6.034
10819SOL     OW33355   1.030   3.654   6.656
10819SOL    HW133356   0.936   3.667   6.625
10819SOL    HW233357   1.092   3.658   6.578
10820SOL     OW33358   0.117   6.885   3.895
10820SOL    HW133359   0.077   6.843   3.977
10820SOL    HW233360   0.052   6.879   3.819
10821SOL     OW33361   6.774   5.860   2.292
10821SOL    HW133362   6.848   5.835   2.355
10821SOL    HW233363   6.706   5.915   2.341
10822SOL     OW33364   1.632   3.525   2.324
10822SOL    HW133365   1.660   3.585   2.399
10822SOL    HW233366   1.560   3.464   2.355
10823SOL     OW33367   1.961   6.082   1.378
10823SOL    HW133368   1.870   6.108   1.409
10823SOL    HW233369   2.020   6.162   1.374
10824SOL     OW33370   5.278   6.938   3.515
10824SOL    HW133371   5.191   6.954   3.562
10824SOL    HW233372   5.260   6.918   3.418
10825SOL     OW33373   2.239   1.367   1.122
10825SOL    HW133374   2.273   1.411   1.205
10825SOL    HW233375   2.230   1.435   1.050
10826SOL     OW33376   6.607   3.588   2.174
10826SOL    HW133377   6.640   3.494   2.181
10826SOL    HW233378   6.628   3.624   2.083
10827SOL     OW33379   6.218   3.416   3.888
10827SOL    HW133380   6.173   3.331   3.861
10827SOL    HW233381   6.291   3.438   3.822
10828SOL     OW33382   0.847   6.073   1.541
10828SOL    HW133383   0.756   6.080   1.581
10828SOL    HW233384   0.853   6.130   1.459
10829SOL     OW33385   2.395   3.124   1.271
10829SOL    HW133386   2.422   3.088   1.360
10829SOL    HW233387   2.362   3.050   1.213
10830SOL     OW33388   5.922   2.603   4.397
10830SOL    HW133389   5.962   2.515   4.368
10830SOL    HW233390   5.980   2.677   4.364
10831SOL     OW33391   5.267   0.287   1.961
10831SOL    HW133392   5.220   0.304   1.874
10831SOL    HW233393   5.336   0.357   1.976
10832SOL     OW33394   0.734   1.981   0.647
10832SOL    HW133395   0.782   2.041   0.583
10832SOL    HW233396   0.699   1.901   0.597
10833SOL     OW33397   2.038   0.231   3.751
10833SOL    HW133398   1.953   0.281   3.767
10833SOL    HW233399   2.110   0.269   3.809
10834SOL     OW33400   0.233   1.582   5.126
10834SOL    HW133401   0.231   1.598   5.028
10834SOL    HW233402   0.169   1.643   5.172
10835SOL     OW33403   6.745   1.811   1.721
10835SOL    HW133404   6.648   1.814   1.698
10835SOL    HW233405   6.757   1.821   1.820
10836SOL     OW33406   6.692   1.891   5.200
10836SOL    HW133407   6.748   1.883   5.118
10836SOL    HW233408   6.597   1.905   5.174
10837SOL     OW33409   6.860   4.436   0.432
10837SOL    HW133410   6.914   4.501   0.486
10837SOL    HW233411   6.875   4.452   0.335
10838SOL     OW33412   5.426   0.204   5.760
10838SOL    HW133413   5.412   0.303   5.753
10838SOL    HW233414   5.510   0.178   5.712
10839SOL     OW33415   2.838   2.306   7.015
10839SOL    HW133416   2.877   2.222   6.977
10839SOL    HW233417   2.889   2.385   6.980
10840SOL     OW33418   3.664   5.900   1.498
10840SOL    HW133419   3.656   5.924   1.595
10840SOL    HW233420   3.728   5.962   1.453
10841SOL     OW33421   3.778   5.988   5.595
10841SOL    HW133422   3.829   6.059   5.643
10841SOL    HW233423   3.681   5.996   5.618
10842SOL     OW33424   6.306   2.962   0.958
10842SOL    HW133425   6.341   2.870   0.976
10842SOL    HW233426   6.382   3.027   0.957
10843SOL     OW33427   0.964   1.852   1.600
10843SOL    HW133428   1.001   1.820   1.513
10843SOL    HW233429   1.036   1.898   1.652
10844SOL     OW33430   6.553   6.396   4.406
10844SOL    HW133431   6.600   6.408   4.493
10844SOL    HW233432   6.523   6.301   4.397
10845SOL     OW33433   1.520   1.114   1.629
10845SOL    HW133434   1.478   1.028   1.656
10845SOL    HW233435   1.560   1.105   1.538
10846SOL     OW33436   4.872   1.608   0.482
10846SOL    HW133437   4.831   1.656   0.560
10846SOL    HW233438   4.899   1.516   0.511
10847SOL     OW33439   2.705   1.641   6.188
10847SOL    HW133440   2.670   1.649   6.281
10847SOL    HW233441   2.777   1.572   6.185
10848SOL     OW33442   2.696   1.859   6.877
10848SOL    HW133443   2.752   1.851   6.960
10848SOL    HW233444   2.611   1.906   6.898
10849SOL     OW33445   3.656   4.883   3.848
10849SOL    HW133446   3.713   4.809   3.884
10849SOL    HW233447   3.601   4.921   3.923
10850SOL     OW33448   4.003   6.755   0.019
10850SOL    HW133449   3.995   6.757   0.118
10850SOL    HW233450   3.912   6.757   6.995
10851SOL     OW33451   3.189   3.230   5.839
10851SOL    HW133452   3.267   3.276   5.882
10851SOL    HW233453   3.118   3.297   5.818
10852SOL     OW33454   0.289   0.683   6.684
10852SOL    HW133455   0.342   0.652   6.763
10852SOL    HW233456   0.200   0.716   6.715
10853SOL     OW33457   3.488   2.103   4.138
10853SOL    HW133458   3.463   2.156   4.219
10853SOL    HW233459   3.512   2.010   4.165
10854SOL     OW33460   5.859   0.362   6.966
10854SOL    HW133461   5.790   0.295   6.992
10854SOL    HW233462   5.855   0.377   6.867
10855SOL     OW33463   2.835   6.204   2.534
10855SOL    HW133464   2.743   6.191   2.570
10855SOL    HW233465   2.865   6.297   2.553
10856SOL     OW33466   6.058   0.004   0.783
10856SOL    HW133467   5.993   0.081   0.789
10856SOL    HW233468   6.151   0.039   0.792
10857SOL     OW33469   6.316   2.669   2.957
10857SOL    HW133470   6.299   2.740   3.026
10857SOL    HW233471   6.285   2.701   2.868
10858SOL     OW33472   1.868   3.047   0.174
10858SOL    HW133473   1.895   3.060   0.078
10858SOL    HW233474   1.865   3.135   0.220
10859SOL     OW33475   1.572   3.481   3.117
10859SOL    HW133476   1.607   3.493   3.210
10859SOL    HW233477   1.498   3.546   3.101
10860SOL     OW33478   6.550   1.059   6.988
10860SOL    HW133479   6.578   1.064   0.066
10860SOL    HW233480   6.631   1.057   6.930
10861SOL     OW33481   3.825   2.718   1.672
10861SOL    HW133482   3.784   2.759   1.753
10861SOL    HW233483   3.776   2.749   1.590
10862SOL     OW33484   2.670   2.158   6.580
10862SOL    HW133485   2.755   2.195   6.542
10862SOL    HW233486   2.606   2.138   6.505
10863SOL     OW33487   2.822   0.314   3.018
10863SOL    HW133488   2.742   0.368   3.045
10863SOL    HW233489   2.855   0.345   2.929
10864SOL     OW33490   2.476   4.769   1.450
10864SOL    HW133491   2.429   4.685   1.426
10864SOL    HW233492   2.410   4.844   1.457
10865SOL     OW33493   5.505   3.150   3.566
10865SOL    HW133494   5.548   3.110   3.485
10865SOL    HW233495   5.539   3.244   3.579
10866SOL     OW33496   6.144   3.184   1.083
10866SOL    HW133497   6.059   3.222   1.048
10866SOL    HW233498   6.172   3.106   1.027
10867SOL     OW33499   2.768   2.876   0.149
10867SOL    HW133500   2.691   2.813   0.159
10867SOL    HW233501   2.844   2.845   0.207
10868SOL     OW33502   1.004   2.139   3.219
10868SOL    HW133503   1.027   2.188   3.303
10868SOL    HW233504   1.082   2.140   3.157
10869NA      NA33505   0.802   1.921   6.073
10870NA      NA33506   4.504   4.572   5.144
10871NA      NA33507   1.974   4.796   2.786
10872NA      NA33508   5.069   4.545   3.689
10873NA      NA33509   4.339   2.448   5.261
10874NA      NA33510   3.046   4.892   1.534
10875NA      NA33511   1.178   4.782   0.172
10876NA      NA33512   4.033   4.281   1.552
10877NA      NA33513   4.727   4.040   0.914
10878NA      NA33514   3.584   1.142   5.719
10879NA      NA33515   4.870   5.856   2.038
10880NA      NA33516   1.626   0.272   5.619
10881NA      NA33517   5.167   4.958   1.975
10882NA      NA33518   3.276   3.193   0.286
   7.01793   7.01793   7.01793
