Generated by trjconv : CNT in water t= 121.00000
33518
    1C        C    1   2.845   2.768   4.746
    1C        C    2   2.893   2.715   4.868
    1C        C    3   2.836   2.768   4.984
    1C        C    4   2.849   2.772   4.259
    1C        C    5   2.897   2.724   4.383
    1C        C    6   2.840   2.766   4.505
    1C        C    7   3.016   2.642   4.627
    1C        C    8   2.897   2.718   4.625
    1C        C    9   3.079   2.607   4.748
    1C        C   10   3.008   2.632   4.867
    1C        C   11   3.180   2.491   4.976
    1C        C   12   3.059   2.561   4.976
    1C        C   13   2.846   2.765   3.770
    1C        C   14   2.897   2.715   3.892
    1C        C   15   2.851   2.768   4.014
    1C        C   16   3.015   2.638   4.141
    1C        C   17   2.902   2.723   4.138
    1C        C   18   3.076   2.605   4.264
    1C        C   19   3.012   2.642   4.385
    1C        C   20   3.208   2.552   4.502
    1C        C   21   3.079   2.608   4.505
    1C        C   22   3.276   2.531   4.624
    1C        C   23   3.207   2.544   4.747
    1C        C   24   3.412   2.483   4.865
    1C        C   25   3.270   2.495   4.865
    1C        C   26   3.489   2.482   4.982
    1C        C   27   2.848   2.762   3.282
    1C        C   28   2.903   2.719   3.404
    1C        C   29   2.852   2.770   3.526
    1C        C   30   3.017   2.637   3.649
    1C        C   31   2.901   2.719   3.648
    1C        C   32   3.075   2.602   3.773
    1C        C   33   3.011   2.632   3.896
    1C        C   34   3.204   2.548   4.018
    1C        C   35   3.073   2.600   4.018
    1C        C   36   3.275   2.527   4.139
    1C        C   37   3.208   2.554   4.260
    1C        C   38   3.417   2.509   4.382
    1C        C   39   3.278   2.532   4.381
    1C        C   40   3.487   2.505   4.504
    1C        C   41   3.415   2.508   4.626
    1C        C   42   3.630   2.488   4.745
    1C        C   43   3.488   2.485   4.744
    1C        C   44   3.705   2.491   4.864
    1C        C   45   3.628   2.480   4.981
    1C        C   46   2.839   2.750   2.795
    1C        C   47   2.894   2.704   2.917
    1C        C   48   2.842   2.758   3.037
    1C        C   49   3.017   2.638   3.161
    1C        C   50   2.897   2.713   3.159
    1C        C   51   3.079   2.603   3.283
    1C        C   52   3.018   2.637   3.406
    1C        C   53   3.206   2.541   3.529
    1C        C   54   3.075   2.595   3.528
    1C        C   55   3.275   2.531   3.652
    1C        C   56   3.207   2.553   3.774
    1C        C   57   3.412   2.502   3.895
    1C        C   58   3.274   2.529   3.896
    1C        C   59   3.484   2.496   4.017
    1C        C   60   3.414   2.503   4.139
    1C        C   61   3.628   2.504   4.259
    1C        C   62   3.487   2.498   4.260
    1C        C   63   3.701   2.514   4.380
    1C        C   64   3.628   2.503   4.500
    1C        C   65   3.834   2.546   4.621
    1C        C   66   3.699   2.505   4.623
    1C        C   67   3.906   2.561   4.742
    1C        C   68   3.840   2.531   4.863
    1C        C   69   4.053   2.582   4.977
    1C        C   70   3.921   2.536   4.978
    1C        C   71   2.823   2.731   2.310
    1C        C   72   2.883   2.689   2.430
    1C        C   73   2.832   2.742   2.551
    1C        C   74   3.006   2.620   2.675
    1C        C   75   2.889   2.699   2.673
    1C        C   76   3.072   2.588   2.795
    1C        C   77   3.012   2.627   2.917
    1C        C   78   3.204   2.539   3.038
    1C        C   79   3.074   2.595   3.040
    1C        C   80   3.271   2.517   3.160
    1C        C   81   3.205   2.539   3.283
    1C        C   82   3.412   2.501   3.403
    1C        C   83   3.273   2.520   3.406
    1C        C   84   3.483   2.499   3.526
    1C        C   85   3.414   2.507   3.649
    1C        C   86   3.623   2.501   3.770
    1C        C   87   3.482   2.495   3.772
    1C        C   88   3.694   2.511   3.892
    1C        C   89   3.625   2.500   4.016
    1C        C   90   3.832   2.556   4.136
    1C        C   91   3.697   2.514   4.136
    1C        C   92   3.904   2.577   4.256
    1C        C   93   3.839   2.547   4.378
    1C        C   94   4.028   2.637   4.498
    1C        C   95   3.904   2.569   4.501
    1C        C   96   4.089   2.675   4.620
    1C        C   97   4.032   2.625   4.740
    1C        C   98   4.193   2.761   4.865
    1C        C   99   4.100   2.652   4.862
    1C        C  100   4.212   2.843   4.978
    1C        C  101   2.818   2.722   2.071
    1C        C  102   2.988   2.587   2.190
    1C        C  103   2.874   2.673   2.190
    1C        C  104   3.062   2.574   2.311
    1C        C  105   3.000   2.610   2.433
    1C        C  106   3.200   2.534   2.551
    1C        C  107   3.068   2.583   2.553
    1C        C  108   3.272   2.516   2.671
    1C        C  109   3.202   2.532   2.793
    1C        C  110   3.410   2.497   2.916
    1C        C  111   3.270   2.514   2.915
    1C        C  112   3.482   2.494   3.037
    1C        C  113   3.411   2.495   3.160
    1C        C  114   3.624   2.499   3.281
    1C        C  115   3.483   2.490   3.281
    1C        C  116   3.693   2.509   3.404
    1C        C  117   3.624   2.503   3.527
    1C        C  118   3.830   2.549   3.647
    1C        C  119   3.694   2.510   3.649
    1C        C  120   3.895   2.575   3.769
    1C        C  121   3.830   2.546   3.891
    1C        C  122   4.024   2.639   4.011
    1C        C  123   3.896   2.579   4.012
    1C        C  124   4.087   2.677   4.132
    1C        C  125   4.030   2.641   4.256
    1C        C  126   4.202   2.765   4.378
    1C        C  127   4.090   2.678   4.378
    1C        C  128   4.248   2.816   4.501
    1C        C  129   4.200   2.762   4.622
    1C        C  130   4.324   2.934   4.740
    1C        C  131   4.241   2.819   4.745
    1C        C  132   4.360   2.999   4.861
    1C        C  133   4.286   2.960   4.973
    1C        C  134   3.173   2.473   2.080
    1C        C  135   3.037   2.508   2.082
    1C        C  136   3.260   2.481   2.189
    1C        C  137   3.195   2.522   2.307
    1C        C  138   3.404   2.481   2.428
    1C        C  139   3.265   2.507   2.428
    1C        C  140   3.480   2.474   2.548
    1C        C  141   3.410   2.488   2.670
    1C        C  142   3.621   2.497   2.793
    1C        C  143   3.480   2.497   2.793
    1C        C  144   3.692   2.508   2.914
    1C        C  145   3.623   2.499   3.037
    1C        C  146   3.832   2.540   3.157
    1C        C  147   3.695   2.507   3.159
    1C        C  148   3.897   2.566   3.279
    1C        C  149   3.830   2.543   3.401
    1C        C  150   4.022   2.633   3.523
    1C        C  151   3.896   2.569   3.523
    1C        C  152   4.086   2.665   3.645
    1C        C  153   4.022   2.638   3.767
    1C        C  154   4.190   2.769   3.886
    1C        C  155   4.082   2.678   3.889
    1C        C  156   4.242   2.815   4.010
    1C        C  157   4.200   2.761   4.133
    1C        C  158   4.340   2.922   4.252
    1C        C  159   4.254   2.810   4.254
    1C        C  160   4.377   2.984   4.374
    1C        C  161   4.331   2.930   4.496
    1C        C  162   4.438   3.113   4.614
    1C        C  163   4.366   2.991   4.618
    1C        C  164   4.468   3.183   4.733
    1C        C  165   4.437   3.117   4.854
    1C        C  166   4.512   3.318   4.971
    1C        C  167   4.480   3.183   4.970
    1C        C  168   3.477   2.438   2.072
    1C        C  169   3.399   2.453   2.187
    1C        C  170   3.616   2.464   2.308
    1C        C  171   3.473   2.461   2.307
    1C        C  172   3.692   2.483   2.425
    1C        C  173   3.620   2.486   2.546
    1C        C  174   3.824   2.544   2.668
    1C        C  175   3.689   2.502   2.669
    1C        C  176   3.894   2.564   2.789
    1C        C  177   3.829   2.542   2.913
    1C        C  178   4.024   2.628   3.033
    1C        C  179   3.897   2.566   3.034
    1C        C  180   4.085   2.664   3.155
    1C        C  181   4.025   2.627   3.277
    1C        C  182   4.195   2.754   3.399
    1C        C  183   4.081   2.670   3.400
    1C        C  184   4.248   2.802   3.521
    1C        C  185   4.197   2.753   3.643
    1C        C  186   4.338   2.916   3.765
    1C        C  187   4.246   2.809   3.763
    1C        C  188   4.375   2.979   3.886
    1C        C  189   4.332   2.924   4.008
    1C        C  190   4.440   3.107   4.126
    1C        C  191   4.377   2.981   4.129
    1C        C  192   4.470   3.173   4.248
    1C        C  193   4.443   3.109   4.371
    1C        C  194   4.503   3.313   4.491
    1C        C  195   4.473   3.175   4.492
    1C        C  196   4.517   3.387   4.610
    1C        C  197   4.500   3.321   4.734
    1C        C  198   4.553   3.533   4.849
    1C        C  199   4.530   3.392   4.854
    1C        C  200   4.580   3.618   4.961
    1C        C  201   3.615   2.416   2.074
    1C        C  202   3.825   2.511   2.181
    1C        C  203   3.691   2.462   2.187
    1C        C  204   3.894   2.544   2.301
    1C        C  205   3.827   2.525   2.424
    1C        C  206   4.018   2.624   2.545
    1C        C  207   3.891   2.561   2.545
    1C        C  208   4.083   2.658   2.666
    1C        C  209   4.020   2.627   2.788
    1C        C  210   4.198   2.746   2.909
    1C        C  211   4.084   2.663   2.909
    1C        C  212   4.250   2.796   3.030
    1C        C  213   4.194   2.754   3.152
    1C        C  214   4.332   2.912   3.271
    1C        C  215   4.244   2.801   3.275
    1C        C  216   4.368   2.970   3.395
    1C        C  217   4.333   2.915   3.520
    1C        C  218   4.432   3.103   3.638
    1C        C  219   4.373   2.975   3.642
    1C        C  220   4.457   3.172   3.759
    1C        C  221   4.435   3.107   3.882
    1C        C  222   4.501   3.310   4.003
    1C        C  223   4.466   3.173   4.004
    1C        C  224   4.514   3.383   4.124
    1C        C  225   4.500   3.311   4.244
    1C        C  226   4.520   3.522   4.367
    1C        C  227   4.509   3.381   4.367
    1C        C  228   4.522   3.598   4.486
    1C        C  229   4.528   3.528   4.608
    1C        C  230   4.500   3.741   4.725
    1C        C  231   4.536   3.604   4.727
    1C        C  232   4.492   3.819   4.843
    1C        C  233   4.544   3.753   4.956
    1C        C  234   4.015   2.614   2.065
    1C        C  235   3.893   2.548   2.064
    1C        C  236   4.084   2.650   2.182
    1C        C  237   4.020   2.611   2.302
    1C        C  238   4.197   2.736   2.420
    1C        C  239   4.080   2.654   2.422
    1C        C  240   4.253   2.784   2.540
    1C        C  241   4.196   2.743   2.663
    1C        C  242   4.336   2.903   2.783
    1C        C  243   4.248   2.792   2.785
    1C        C  244   4.375   2.963   2.904
    1C        C  245   4.339   2.907   3.029
    1C        C  246   4.437   3.097   3.149
    1C        C  247   4.376   2.969   3.150
    1C        C  248   4.459   3.163   3.272
    1C        C  249   4.431   3.097   3.393
    1C        C  250   4.492   3.303   3.513
    1C        C  251   4.457   3.166   3.514
    1C        C  252   4.502   3.374   3.635
    1C        C  253   4.491   3.309   3.760
    1C        C  254   4.524   3.519   3.878
    1C        C  255   4.515   3.378   3.880
    1C        C  256   4.521   3.591   4.000
    1C        C  257   4.525   3.524   4.124
    1C        C  258   4.492   3.733   4.240
    1C        C  259   4.517   3.594   4.246
    1C        C  260   4.476   3.804   4.361
    1C        C  261   4.495   3.737   4.484
    1C        C  262   4.426   3.941   4.602
    1C        C  263   4.477   3.809   4.604
    1C        C  264   4.398   4.008   4.723
    1C        C  265   4.432   3.946   4.845
    1C        C  266   4.315   4.132   4.958
    1C        C  267   4.395   4.019   4.960
    1C        C  268   4.252   2.778   2.062
    1C        C  269   4.200   2.730   2.183
    1C        C  270   4.355   2.884   2.300
    1C        C  271   4.259   2.780   2.301
    1C        C  272   4.389   2.953   2.419
    1C        C  273   4.344   2.892   2.539
    1C        C  274   4.450   3.079   2.658
    1C        C  275   4.380   2.956   2.659
    1C        C  276   4.470   3.150   2.778
    1C        C  277   4.442   3.087   2.902
    1C        C  278   4.501   3.292   3.021
    1C        C  279   4.466   3.155   3.023
    1C        C  280   4.507   3.363   3.143
    1C        C  281   4.495   3.299   3.268
    1C        C  282   4.514   3.512   3.388
    1C        C  283   4.507   3.370   3.390
    1C        C  284   4.515   3.585   3.509
    1C        C  285   4.516   3.514   3.631
    1C        C  286   4.490   3.725   3.751
    1C        C  287   4.512   3.585   3.754
    1C        C  288   4.478   3.797   3.872
    1C        C  289   4.490   3.729   3.995
    1C        C  290   4.424   3.932   4.114
    1C        C  291   4.475   3.800   4.117
    1C        C  292   4.391   3.996   4.236
    1C        C  293   4.423   3.935   4.359
    1C        C  294   4.320   4.124   4.477
    1C        C  295   4.393   4.003   4.479
    1C        C  296   4.280   4.185   4.598
    1C        C  297   4.323   4.129   4.720
    1C        C  298   4.204   4.317   4.837
    1C        C  299   4.282   4.197   4.838
    1C        C  300   4.170   4.404   4.945
    1C        C  301   4.344   2.882   2.063
    1C        C  302   4.467   3.067   2.173
    1C        C  303   4.397   2.943   2.178
    1C        C  304   4.487   3.141   2.293
    1C        C  305   4.452   3.079   2.415
    1C        C  306   4.510   3.283   2.533
    1C        C  307   4.482   3.144   2.536
    1C        C  308   4.517   3.354   2.655
    1C        C  309   4.502   3.288   2.779
    1C        C  310   4.520   3.501   2.897
    1C        C  311   4.521   3.360   2.898
    1C        C  312   4.512   3.574   3.018
    1C        C  313   4.508   3.504   3.141
    1C        C  314   4.490   3.717   3.261
    1C        C  315   4.510   3.577   3.263
    1C        C  316   4.475   3.789   3.382
    1C        C  317   4.494   3.724   3.506
    1C        C  318   4.426   3.926   3.625
    1C        C  319   4.473   3.793   3.628
    1C        C  320   4.402   3.993   3.747
    1C        C  321   4.427   3.929   3.871
    1C        C  322   4.326   4.118   3.989
    1C        C  323   4.394   3.994   3.991
    1C        C  324   4.279   4.174   4.110
    1C        C  325   4.315   4.115   4.233
    1C        C  326   4.181   4.282   4.353
    1C        C  327   4.274   4.176   4.354
    1C        C  328   4.136   4.340   4.474
    1C        C  329   4.192   4.296   4.596
    1C        C  330   4.024   4.433   4.714
    1C        C  331   4.143   4.356   4.714
    1C        C  332   3.970   4.490   4.832
    1C        C  333   4.052   4.478   4.945
    1C        C  334   4.550   3.268   2.057
    1C        C  335   4.531   3.130   2.061
    1C        C  336   4.538   3.350   2.170
    1C        C  337   4.520   3.280   2.291
    1C        C  338   4.523   3.495   2.409
    1C        C  339   4.524   3.354   2.412
    1C        C  340   4.520   3.567   2.530
    1C        C  341   4.521   3.495   2.652
    1C        C  342   4.494   3.708   2.769
    1C        C  343   4.517   3.568   2.773
    1C        C  344   4.479   3.778   2.891
    1C        C  345   4.492   3.714   3.016
    1C        C  346   4.424   3.915   3.133
    1C        C  347   4.476   3.784   3.138
    1C        C  348   4.393   3.980   3.254
    1C        C  349   4.432   3.924   3.378
    1C        C  350   4.320   4.103   3.498
    1C        C  351   4.398   3.986   3.500
    1C        C  352   4.275   4.160   3.620
    1C        C  353   4.321   4.109   3.743
    1C        C  354   4.180   4.267   3.866
    1C        C  355   4.281   4.168   3.865
    1C        C  356   4.123   4.315   3.986
    1C        C  357   4.177   4.271   4.109
    1C        C  358   4.013   4.407   4.229
    1C        C  359   4.130   4.329   4.230
    1C        C  360   3.951   4.449   4.349
    1C        C  361   4.020   4.420   4.469
    1C        C  362   3.830   4.514   4.592
    1C        C  363   3.961   4.460   4.591
    1C        C  364   3.763   4.544   4.712
    1C        C  365   3.837   4.539   4.832
    1C        C  366   3.629   4.593   4.951
    1C        C  367   3.766   4.571   4.948
    1C        C  368   4.511   3.564   2.048
    1C        C  369   4.527   3.491   2.167
    1C        C  370   4.497   3.705   2.283
    1C        C  371   4.517   3.565   2.287
    1C        C  372   4.482   3.777   2.403
    1C        C  373   4.504   3.708   2.524
    1C        C  374   4.429   3.907   2.647
    1C        C  375   4.483   3.776   2.646
    1C        C  376   4.398   3.973   2.768
    1C        C  377   4.429   3.910   2.890
    1C        C  378   4.317   4.095   3.010
    1C        C  379   4.396   3.977   3.009
    1C        C  380   4.273   4.152   3.131
    1C        C  381   4.316   4.099   3.255
    1C        C  382   4.179   4.261   3.377
    1C        C  383   4.278   4.160   3.376
    1C        C  384   4.127   4.311   3.499
    1C        C  385   4.178   4.262   3.621
    1C        C  386   4.010   4.392   3.739
    1C        C  387   4.126   4.311   3.743
    1C        C  388   3.949   4.430   3.861
    1C        C  389   4.006   4.394   3.985
    1C        C  390   3.818   4.491   4.108
    1C        C  391   3.948   4.435   4.107
    1C        C  392   3.751   4.521   4.229
    1C        C  393   3.820   4.502   4.350
    1C        C  394   3.617   4.554   4.476
    1C        C  395   3.756   4.530   4.473
    1C        C  396   3.545   4.565   4.597
    1C        C  397   3.623   4.561   4.714
    1C        C  398   3.413   4.551   4.839
    1C        C  399   3.552   4.577   4.835
    1C        C  400   3.344   4.513   4.955
    1C        C  401   4.503   3.702   2.045
    1C        C  402   4.453   3.913   2.166
    1C        C  403   4.494   3.778   2.163
    1C        C  404   4.410   3.978   2.284
    1C        C  405   4.434   3.910   2.405
    1C        C  406   4.319   4.090   2.525
    1C        C  407   4.397   3.973   2.526
    1C        C  408   4.275   4.146   2.647
    1C        C  409   4.316   4.088   2.769
    1C        C  410   4.178   4.254   2.888
    1C        C  411   4.277   4.154   2.888
    1C        C  412   4.121   4.297   3.010
    1C        C  413   4.173   4.253   3.134
    1C        C  414   4.004   4.382   3.252
    1C        C  415   4.122   4.304   3.255
    1C        C  416   3.943   4.415   3.375
    1C        C  417   4.008   4.388   3.497
    1C        C  418   3.813   4.476   3.621
    1C        C  419   3.946   4.426   3.618
    1C        C  420   3.749   4.505   3.744
    1C        C  421   3.819   4.486   3.865
    1C        C  422   3.611   4.532   3.985
    1C        C  423   3.751   4.510   3.986
    1C        C  424   3.543   4.532   4.108
    1C        C  425   3.611   4.537   4.232
    1C        C  426   3.402   4.545   4.353
    1C        C  427   3.543   4.549   4.355
    1C        C  428   3.331   4.541   4.476
    1C        C  429   3.404   4.555   4.596
    1C        C  430   3.198   4.516   4.721
    1C        C  431   3.337   4.547   4.720
    1C        C  432   3.125   4.492   4.840
    1C        C  433   3.207   4.487   4.954
    1C        C  434   4.382   4.118   2.050
    1C        C  435   4.450   3.996   2.053
    1C        C  436   4.304   4.167   2.160
    1C        C  437   4.335   4.099   2.281
    1C        C  438   4.189   4.254   2.402
    1C        C  439   4.286   4.152   2.403
    1C        C  440   4.131   4.302   2.521
    1C        C  441   4.179   4.250   2.643
    1C        C  442   4.005   4.372   2.765
    1C        C  443   4.125   4.297   2.764
    1C        C  444   3.941   4.409   2.885
    1C        C  445   4.003   4.373   3.007
    1C        C  446   3.812   4.468   3.130
    1C        C  447   3.942   4.412   3.128
    1C        C  448   3.746   4.492   3.253
    1C        C  449   3.813   4.469   3.375
    1C        C  450   3.609   4.521   3.496
    1C        C  451   3.747   4.491   3.498
    1C        C  452   3.542   4.538   3.619
    1C        C  453   3.611   4.536   3.742
    1C        C  454   3.399   4.538   3.864
    1C        C  455   3.540   4.545   3.864
    1C        C  456   3.332   4.527   3.988
    1C        C  457   3.401   4.533   4.110
    1C        C  458   3.193   4.495   4.235
    1C        C  459   3.332   4.523   4.233
    1C        C  460   3.126   4.482   4.359
    1C        C  461   3.194   4.510   4.479
    1C        C  462   2.997   4.432   4.604
    1C        C  463   3.126   4.489   4.602
    1C        C  464   2.931   4.398   4.724
    1C        C  465   2.990   4.443   4.845
    1C        C  466   2.804   4.334   4.960
    1C        C  467   2.910   4.426   4.962
    1C        C  468   4.122   4.287   2.041
    1C        C  469   4.192   4.256   2.159
    1C        C  470   4.011   4.374   2.281
    1C        C  471   4.131   4.298   2.280
    1C        C  472   3.944   4.404   2.402
    1C        C  473   4.009   4.373   2.523
    1C        C  474   3.814   4.465   2.644
    1C        C  475   3.942   4.407   2.643
    1C        C  476   3.744   4.493   2.764
    1C        C  477   3.814   4.471   2.885
    1C        C  478   3.607   4.516   3.010
    1C        C  479   3.745   4.488   3.007
    1C        C  480   3.535   4.528   3.132
    1C        C  481   3.607   4.519   3.253
    1C        C  482   3.396   4.531   3.376
    1C        C  483   3.537   4.528   3.375
    1C        C  484   3.328   4.527   3.500
    1C        C  485   3.400   4.538   3.621
    1C        C  486   3.192   4.490   3.745
    1C        C  487   3.328   4.527   3.742
    1C        C  488   3.125   4.475   3.868
    1C        C  489   3.195   4.492   3.990
    1C        C  490   3.000   4.411   4.114
    1C        C  491   3.127   4.472   4.112
    1C        C  492   2.941   4.382   4.239
    1C        C  493   2.998   4.422   4.362
    1C        C  494   2.829   4.297   4.484
    1C        C  495   2.936   4.389   4.484
    1C        C  496   2.769   4.257   4.605
    1C        C  497   2.815   4.316   4.725
    1C        C  498   2.665   4.163   4.845
    1C        C  499   2.752   4.274   4.844
    1C        C  500   2.597   4.114   4.957
    1C        C  501   3.998   4.351   2.044
    1C        C  502   3.819   4.470   2.157
    1C        C  503   3.946   4.409   2.161
    1C        C  504   3.748   4.486   2.278
    1C        C  505   3.812   4.455   2.400
    1C        C  506   3.607   4.510   2.522
    1C        C  507   3.746   4.483   2.521
    1C        C  508   3.535   4.513   2.643
    1C        C  509   3.605   4.515   2.766
    1C        C  510   3.394   4.526   2.885
    1C        C  511   3.535   4.525   2.889
    1C        C  512   3.323   4.520   3.007
    1C        C  513   3.394   4.527   3.130
    1C        C  514   3.191   4.483   3.257
    1C        C  515   3.326   4.523   3.253
    1C        C  516   3.124   4.456   3.379
    1C        C  517   3.192   4.488   3.499
    1C        C  518   2.997   4.408   3.625
    1C        C  519   3.126   4.466   3.622
    1C        C  520   2.939   4.372   3.748
    1C        C  521   3.000   4.409   3.870
    1C        C  522   2.828   4.285   3.996
    1C        C  523   2.939   4.372   3.992
    1C        C  524   2.782   4.238   4.121
    1C        C  525   2.831   4.294   4.241
    1C        C  526   2.694   4.132   4.365
    1C        C  527   2.777   4.246   4.363
    1C        C  528   2.648   4.076   4.487
    1C        C  529   2.679   4.148   4.605
    1C        C  530   2.586   3.958   4.733
    1C        C  531   2.639   4.090   4.727
    1C        C  532   2.538   3.898   4.853
    1C        C  533   2.527   3.992   4.960
    1C        C  534   3.619   4.557   2.041
    1C        C  535   3.753   4.515   2.042
    1C        C  536   3.538   4.531   2.155
    1C        C  537   3.608   4.511   2.277
    1C        C  538   3.396   4.512   2.398
    1C        C  539   3.537   4.518   2.400
    1C        C  540   3.325   4.500   2.519
    1C        C  541   3.394   4.506   2.643
    1C        C  542   3.186   4.474   2.766
    1C        C  543   3.323   4.507   2.765
    1C        C  544   3.120   4.459   2.890
    1C        C  545   3.187   4.483   3.013
    1C        C  546   2.993   4.400   3.134
    1C        C  547   3.121   4.460   3.136
    1C        C  548   2.933   4.365   3.257
    1C        C  549   2.995   4.399   3.379
    1C        C  550   2.825   4.283   3.504
    1C        C  551   2.935   4.370   3.504
    1C        C  552   2.777   4.233   3.627
    1C        C  553   2.829   4.283   3.748
    1C        C  554   2.691   4.127   3.874
    1C        C  555   2.781   4.236   3.872
    1C        C  556   2.649   4.070   3.996
    1C        C  557   2.692   4.129   4.117
    1C        C  558   2.594   3.948   4.245
    1C        C  559   2.653   4.076   4.242
    1C        C  560   2.565   3.882   4.367
    1C        C  561   2.587   3.949   4.489
    1C        C  562   2.527   3.750   4.615
    1C        C  563   2.561   3.887   4.614
    1C        C  564   2.519   3.680   4.737
    1C        C  565   2.515   3.756   4.857
    1C        C  566   2.525   3.544   4.977
    1C        C  567   2.527   3.683   4.976
    1C        C  568   3.330   4.477   2.037
    1C        C  569   3.398   4.505   2.156
    1C        C  570   3.185   4.471   2.277
    1C        C  571   3.324   4.504   2.277
    1C        C  572   3.118   4.455   2.400
    1C        C  573   3.185   4.481   2.522
    1C        C  574   2.989   4.398   2.648
    1C        C  575   3.118   4.457   2.644
    1C        C  576   2.928   4.360   2.769
    1C        C  577   2.994   4.395   2.889
    1C        C  578   2.821   4.276   3.016
    1C        C  579   2.934   4.361   3.012
    1C        C  580   2.772   4.225   3.139
    1C        C  581   2.825   4.274   3.260
    1C        C  582   2.686   4.118   3.385
    1C        C  583   2.774   4.228   3.384
    1C        C  584   2.652   4.059   3.509
    1C        C  585   2.693   4.119   3.630
    1C        C  586   2.589   3.937   3.757
    1C        C  587   2.657   4.061   3.754
    1C        C  588   2.565   3.873   3.881
    1C        C  589   2.590   3.942   4.002
    1C        C  590   2.530   3.742   4.129
    1C        C  591   2.564   3.879   4.125
    1C        C  592   2.515   3.672   4.251
    1C        C  593   2.526   3.746   4.371
    1C        C  594   2.512   3.537   4.497
    1C        C  595   2.513   3.678   4.494
    1C        C  596   2.521   3.465   4.618
    1C        C  597   2.517   3.538   4.739
    1C        C  598   2.537   3.326   4.863
    1C        C  599   2.524   3.466   4.861
    1C        C  600   2.529   3.247   4.979
    1C        C  601   3.197   4.441   2.041
    1C        C  602   2.983   4.390   2.159
    1C        C  603   3.116   4.443   2.156
    1C        C  604   2.924   4.362   2.285
    1C        C  605   2.991   4.394   2.405
    1C        C  606   2.819   4.268   2.527
    1C        C  607   2.930   4.355   2.527
    1C        C  608   2.765   4.221   2.649
    1C        C  609   2.818   4.272   2.770
    1C        C  610   2.679   4.117   2.899
    1C        C  611   2.769   4.226   2.895
    1C        C  612   2.642   4.056   3.021
    1C        C  613   2.682   4.116   3.142
    1C        C  614   2.579   3.932   3.267
    1C        C  615   2.643   4.058   3.264
    1C        C  616   2.558   3.866   3.390
    1C        C  617   2.591   3.931   3.511
    1C        C  618   2.534   3.731   3.637
    1C        C  619   2.565   3.869   3.636
    1C        C  620   2.517   3.667   3.761
    1C        C  621   2.527   3.737   3.883
    1C        C  622   2.512   3.529   4.009
    1C        C  623   2.522   3.670   4.007
    1C        C  624   2.518   3.460   4.132
    1C        C  625   2.516   3.531   4.254
    1C        C  626   2.544   3.324   4.379
    1C        C  627   2.513   3.462   4.377
    1C        C  628   2.565   3.254   4.500
    1C        C  629   2.549   3.327   4.621
    1C        C  630   2.603   3.121   4.744
    1C        C  631   2.562   3.257   4.743
    1C        C  632   2.621   3.048   4.865
    1C        C  633   2.563   3.111   4.979
    1C        C  634   2.782   4.301   2.055
    1C        C  635   2.888   4.392   2.052
    1C        C  636   2.750   4.227   2.169
    1C        C  637   2.813   4.273   2.287
    1C        C  638   2.674   4.110   2.409
    1C        C  639   2.761   4.221   2.407
    1C        C  640   2.640   4.048   2.532
    1C        C  641   2.678   4.111   2.653
    1C        C  642   2.582   3.927   2.778
    1C        C  643   2.640   4.056   2.778
    1C        C  644   2.555   3.860   2.899
    1C        C  645   2.584   3.927   3.020
    1C        C  646   2.522   3.728   3.148
    1C        C  647   2.559   3.864   3.145
    1C        C  648   2.511   3.659   3.270
    1C        C  649   2.520   3.730   3.392
    1C        C  650   2.517   3.521   3.518
    1C        C  651   2.515   3.662   3.515
    1C        C  652   2.521   3.454   3.642
    1C        C  653   2.514   3.525   3.764
    1C        C  654   2.541   3.318   3.891
    1C        C  655   2.518   3.457   3.887
    1C        C  656   2.556   3.248   4.014
    1C        C  657   2.541   3.320   4.134
    1C        C  658   2.606   3.120   4.258
    1C        C  659   2.559   3.254   4.258
    1C        C  660   2.640   3.056   4.380
    1C        C  661   2.608   3.120   4.502
    1C        C  662   2.716   2.938   4.626
    1C        C  663   2.635   3.054   4.623
    1C        C  664   2.751   2.875   4.747
    1C        C  665   2.696   2.926   4.868
    1C        C  666   2.744   2.871   4.987
    1C        C  667   2.676   4.022   2.055
    1C        C  668   2.681   4.104   2.168
    1C        C  669   2.588   3.912   2.295
    1C        C  670   2.639   4.045   2.289
    1C        C  671   2.558   3.847   2.417
    1C        C  672   2.578   3.921   2.535
    1C        C  673   2.518   3.720   2.661
    1C        C  674   2.555   3.857   2.658
    1C        C  675   2.512   3.650   2.783
    1C        C  676   2.526   3.722   2.904
    1C        C  677   2.509   3.513   3.030
    1C        C  678   2.513   3.655   3.028
    1C        C  679   2.514   3.444   3.153
    1C        C  680   2.512   3.517   3.273
    1C        C  681   2.539   3.309   3.402
    1C        C  682   2.515   3.448   3.396
    1C        C  683   2.562   3.244   3.525
    1C        C  684   2.546   3.315   3.647
    1C        C  685   2.611   3.116   3.772
    1C        C  686   2.562   3.248   3.770
    1C        C  687   2.643   3.052   3.894
    1C        C  688   2.608   3.117   4.015
    1C        C  689   2.712   2.933   4.136
    1C        C  690   2.638   3.054   4.138
    1C        C  691   2.755   2.878   4.259
    1C        C  692   2.712   2.935   4.381
    1C        C  693   2.753   2.878   4.504
    1C        C  694   2.620   3.894   2.057
    1C        C  695   2.519   3.707   2.178
    1C        C  696   2.572   3.838   2.176
    1C        C  697   2.502   3.638   2.299
    1C        C  698   2.513   3.713   2.419
    1C        C  699   2.497   3.504   2.541
    1C        C  700   2.502   3.645   2.542
    1C        C  701   2.504   3.435   2.665
    1C        C  702   2.505   3.508   2.785
    1C        C  703   2.532   3.301   2.911
    1C        C  704   2.512   3.441   2.909
    1C        C  705   2.554   3.236   3.035
    1C        C  706   2.534   3.304   3.157
    1C        C  707   2.601   3.105   3.278
    1C        C  708   2.555   3.239   3.281
    1C        C  709   2.633   3.046   3.402
    1C        C  710   2.609   3.111   3.526
    1C        C  711   2.717   2.932   3.648
    1C        C  712   2.639   3.051   3.650
    1C        C  713   2.759   2.876   3.770
    1C        C  714   2.721   2.935   3.893
    1C        C  715   2.759   2.876   4.016
    1C        C  716   2.454   3.498   2.060
    1C        C  717   2.491   3.633   2.062
    1C        C  718   2.464   3.421   2.180
    1C        C  719   2.484   3.497   2.299
    1C        C  720   2.521   3.290   2.425
    1C        C  721   2.493   3.429   2.422
    1C        C  722   2.539   3.223   2.548
    1C        C  723   2.529   3.296   2.668
    1C        C  724   2.596   3.096   2.790
    1C        C  725   2.546   3.229   2.791
    1C        C  726   2.626   3.035   2.914
    1C        C  727   2.604   3.104   3.035
    1C        C  728   2.705   2.918   3.160
    1C        C  729   2.631   3.038   3.157
    1C        C  730   2.752   2.867   3.283
    1C        C  731   2.713   2.930   3.403
    1C        C  732   2.760   2.877   3.525
    1C        C  733   2.492   3.196   2.073
    1C        C  734   2.490   3.280   2.185
    1C        C  735   2.586   3.085   2.308
    1C        C  736   2.529   3.215   2.306
    1C        C  737   2.613   3.019   2.430
    1C        C  738   2.586   3.089   2.550
    1C        C  739   2.697   2.906   2.671
    1C        C  740   2.624   3.027   2.671
    1C        C  741   2.741   2.852   2.794
    1C        C  742   2.700   2.914   2.914
    1C        C  743   2.747   2.862   3.037
    1C        C  744   2.541   3.066   2.077
    1C        C  745   2.684   2.894   2.187
    1C        C  746   2.608   3.013   2.188
    1C        C  747   2.731   2.840   2.308
    1C        C  748   2.685   2.898   2.428
    1C        C  749   2.738   2.848   2.549
    1C        C  750   2.734   2.832   2.071
    1C        C  751   3.659   2.305   1.987
    1C        O  752   3.601   2.194   1.999
    1C        O  753   3.677   2.326   1.850
    1C        C  754   4.627   3.049   1.982
    1C        O  755   4.609   3.017   1.861
    1C        O  756   4.745   3.004   2.040
    1C        C  757   4.433   4.199   1.937
    1C        O  758   4.486   4.310   1.961
    1C        O  759   4.384   4.187   1.806
    1C        C  760   3.580   4.644   1.928
    1C        O  761   3.583   4.770   1.940
    1C        O  762   3.585   4.603   1.794
    1C        C  763   2.874   4.507   1.959
    1C        O  764   2.926   4.495   1.844
    1C        O  765   2.826   4.635   1.988
    1C        C  766   2.370   3.466   1.943
    1C        O  767   2.413   3.420   1.833
    1C        O  768   2.236   3.507   1.939
    1C        C  769   4.678   3.585   5.068
    1C        O  770   4.647   3.592   5.190
    1C        O  771   4.811   3.626   5.055
    1C        C  772   4.268   4.464   5.039
    1C        O  773   4.272   4.423   5.158
    1C        O  774   4.347   4.575   5.007
    1C        C  775   4.154   2.528   5.071
    1C        O  776   4.211   2.424   5.031
    1C        O  777   4.121   2.539   5.207
    1C        C  778   2.905   4.532   5.065
    1C        O  779   2.820   4.624   5.065
    1C        O  780   2.946   4.509   5.197
    1C        C  781   2.457   3.031   5.044
    1C        O  782   2.339   3.025   5.000
    1C        O  783   2.458   2.965   5.166
    1C        C  784   2.402   4.004   5.038
    1C        O  785   2.301   4.068   4.999
    1C        O  786   2.387   3.942   5.162
    1C        C  787   2.951   2.398   2.033
    1C        O  788   2.873   2.404   1.935
    1C        O  789   2.955   2.271   2.090
    1C        C  790   3.175   2.363   5.051
    1C        O  791   3.202   2.254   4.995
    1C        O  792   3.198   2.362   5.189
    1C        H  793   4.243   3.039   5.030
    1C        H  794   4.201   2.801   5.076
    1C        H  795   4.449   3.154   5.068
    1C        H  796   4.526   3.363   5.068
    1C        H  797   4.570   3.810   5.042
    1C        H  798   4.416   3.970   5.053
    1C        H  799   4.264   4.157   5.049
    1C        H  800   4.030   4.532   5.035
    1C        H  801   3.826   4.592   5.034
    1C        H  802   3.592   4.655   5.031
    1C        H  803   3.393   4.498   5.049
    1C        H  804   3.180   4.420   5.033
    1C        H  805   3.872   2.550   5.072
    1C        H  806   3.670   2.416   5.056
    1C        H  807   3.020   2.582   5.074
    1C        H  808   3.448   2.456   5.077
    1C        H  809   2.900   2.754   5.069
    1C        H  810   2.662   2.852   5.054
    1C        H  811   2.479   3.282   5.068
    1C        H  812   2.530   3.491   5.070
    1C        H  813   2.515   3.733   5.070
    1C        H  814   2.620   4.152   5.054
    1C        H  815   2.770   4.298   5.055
    1C        H  816   2.718   2.882   1.978
    1C        H  817   2.835   2.663   1.984
    1C        H  818   3.204   2.410   1.999
    1C        H  819   3.432   2.462   1.978
    1C        H  820   3.855   2.525   1.967
    1C        H  821   4.065   2.620   1.971
    1C        H  822   4.262   2.712   1.978
    1C        H  823   4.365   2.927   1.968
    1C        H  824   4.614   3.306   1.980
    1C        H  825   4.537   3.520   1.954
    1C        H  826   4.462   3.735   1.952
    1C        H  827   3.807   4.540   1.953
    1C        H  828   3.932   4.325   1.964
    1C        H  829   4.179   4.296   1.952
    1C        H  830   4.536   3.987   1.989
    1C        H  831   2.598   3.852   1.961
    1C        H  832   2.723   4.061   1.966
    1C        H  833   2.722   4.291   1.967
    1C        H  834   3.390   4.431   1.961
    1C        H  835   3.156   4.435   1.942
    1C        H  836   2.501   2.996   2.007
    1C        H  837   2.443   3.231   1.985
    1C        H  838   2.471   3.691   1.974
    2V3OU   H29  839   2.801   3.549   1.568
    2V3OU   C27  840   2.782   3.505   1.669
    2V3OU   H27  841   2.723   3.572   1.737
    2V3OU   H28  842   2.735   3.403   1.669
    2V3OU   O11  843   2.907   3.483   1.736
    2V3OU   C15  844   2.922   3.398   1.844
    2V3OU   C13  845   3.046   3.380   1.908
    2V3OU   C14  846   3.073   3.271   1.992
    2V3OU   C16  847   2.971   3.180   2.020
    2V3OU    H6  848   2.989   3.107   2.099
    2V3OU   C12  849   3.211   3.234   2.030
    2V3OU    O2  850   3.227   3.127   2.093
    2V3OU   C10  851   3.326   3.309   1.977
    2V3OU    C8  852   3.456   3.271   2.004
    2V3OU   O10  853   3.486   3.157   2.072
    2V3OU   H26  854   3.402   3.114   2.092
    2V3OU    C6  855   3.564   3.348   1.952
    2V3OU    C5  856   3.538   3.464   1.878
    2V3OU    C4  857   3.702   3.291   1.955
    2V3OU    H4  858   3.722   3.223   2.043
    2V3OU    H5  859   3.712   3.233   1.858
    2V3OU    C2  860   3.815   3.395   1.952
    2V3OU    O6  861   3.806   3.475   2.070
    2V3OU   H21  862   3.769   3.557   2.034
    2V3OU    C3  863   3.783   3.492   1.838
    2V3OU    H2  864   3.857   3.576   1.831
    2V3OU    H3  865   3.792   3.437   1.741
    2V3OU   C25  866   3.949   3.323   1.939
    2V3OU    O7  867   3.994   3.297   1.827
    2V3OU   C26  868   4.031   3.285   2.061
    2V3OU   H22  869   4.063   3.387   2.094
    2V3OU   H23  870   4.120   3.224   2.030
    2V3OU    O8  871   3.968   3.203   2.157
    2V3OU   H24  872   3.932   3.267   2.220
    2V3OU    C1  873   3.647   3.559   1.840
    2V3OU    H1  874   3.629   3.613   1.743
    2V3OU    O3  875   3.655   3.650   1.950
    2V3OU   C19  876   3.620   3.788   1.937
    2V3OU    H9  877   3.521   3.792   1.882
    2V3OU    O4  878   3.713   3.846   1.848
    2V3OU   C20  879   3.841   3.878   1.902
    2V3OU   H10  880   3.893   3.778   1.912
    2V3OU   C24  881   3.609   3.855   2.074
    2V3OU   H16  882   3.544   3.793   2.140
    2V3OU   H17  883   3.560   3.955   2.061
    2V3OU   C23  884   3.749   3.874   2.134
    2V3OU   H15  885   3.792   3.770   2.153
    2V3OU    N1  886   3.731   3.959   2.251
    2V3OU   H19  887   3.808   3.930   2.307
    2V3OU   H20  888   3.650   3.928   2.301
    2V3OU   C21  889   3.846   3.949   2.038
    2V3OU   H11  890   3.945   3.929   2.088
    2V3OU    O5  891   3.826   4.089   2.042
    2V3OU   H18  892   3.780   4.101   2.127
    2V3OU   C22  893   3.915   3.951   1.791
    2V3OU   H12  894   3.867   4.052   1.777
    2V3OU   H13  895   3.905   3.895   1.695
    2V3OU   H14  896   4.023   3.960   1.817
    2V3OU   C11  897   3.159   3.469   1.879
    2V3OU    O1  898   3.135   3.585   1.838
    2V3OU    C9  899   3.299   3.424   1.897
    2V3OU    C7  900   3.403   3.502   1.849
    2V3OU    O9  901   3.384   3.614   1.771
    2V3OU   H25  902   3.288   3.628   1.766
    2V3OU   C17  903   2.819   3.309   1.882
    2V3OU    H7  904   2.717   3.341   1.861
    2V3OU   C18  905   2.843   3.205   1.971
    2V3OU    H8  906   2.759   3.148   2.014
    3SOL     OW  907   2.174   4.540   1.517
    3SOL    HW1  908   2.185   4.457   1.463
    3SOL    HW2  909   2.115   4.604   1.469
    4SOL     OW  910   6.214   6.832   1.481
    4SOL    HW1  911   6.122   6.794   1.492
    4SOL    HW2  912   6.266   6.816   1.565
    5SOL     OW  913   4.248   1.337   1.706
    5SOL    HW1  914   4.261   1.332   1.607
    5SOL    HW2  915   4.305   1.267   1.750
    6SOL     OW  916   3.563   2.099   2.263
    6SOL    HW1  917   3.484   2.154   2.235
    6SOL    HW2  918   3.612   2.068   2.182
    7SOL     OW  919   6.014   2.145   1.831
    7SOL    HW1  920   6.049   2.083   1.902
    7SOL    HW2  921   6.086   2.162   1.764
    8SOL     OW  922   2.404   6.543   4.729
    8SOL    HW1  923   2.362   6.467   4.680
    8SOL    HW2  924   2.502   6.545   4.709
    9SOL     OW  925   1.533   5.737   5.739
    9SOL    HW1  926   1.446   5.785   5.754
    9SOL    HW2  927   1.526   5.684   5.655
   10SOL     OW  928   0.600   4.636   6.005
   10SOL    HW1  929   0.589   4.639   6.104
   10SOL    HW2  930   0.528   4.580   5.964
   11SOL     OW  931   3.484   0.190   0.147
   11SOL    HW1  932   3.551   0.115   0.147
   11SOL    HW2  933   3.409   0.167   0.210
   12SOL     OW  934   4.703   6.000   3.158
   12SOL    HW1  935   4.778   6.019   3.095
   12SOL    HW2  936   4.733   5.935   3.227
   13SOL     OW  937   2.889   6.487   4.392
   13SOL    HW1  938   2.873   6.540   4.308
   13SOL    HW2  939   2.977   6.514   4.431
   14SOL     OW  940   3.631   5.970   6.626
   14SOL    HW1  941   3.672   5.916   6.700
   14SOL    HW2  942   3.679   6.058   6.618
   15SOL     OW  943   1.079   6.402   6.949
   15SOL    HW1  944   1.113   6.395   0.021
   15SOL    HW2  945   1.137   6.347   6.889
   16SOL     OW  946   6.557   2.083   6.051
   16SOL    HW1  947   6.655   2.091   6.066
   16SOL    HW2  948   6.539   2.073   5.953
   17SOL     OW  949   4.911   6.420   4.346
   17SOL    HW1  950   4.935   6.329   4.380
   17SOL    HW2  951   4.883   6.478   4.423
   18SOL     OW  952   2.558   2.391   5.970
   18SOL    HW1  953   2.511   2.304   5.953
   18SOL    HW2  954   2.576   2.401   6.068
   19SOL     OW  955   0.307   0.104   3.520
   19SOL    HW1  956   0.230   0.056   3.560
   19SOL    HW2  957   0.383   0.107   3.585
   20SOL     OW  958   3.533   0.879   4.388
   20SOL    HW1  959   3.592   0.959   4.376
   20SOL    HW2  960   3.541   0.846   4.482
   21SOL     OW  961   3.245   1.719   2.046
   21SOL    HW1  962   3.157   1.729   1.998
   21SOL    HW2  963   3.243   1.772   2.131
   22SOL     OW  964   1.833   6.839   6.066
   22SOL    HW1  965   1.855   6.746   6.095
   22SOL    HW2  966   1.734   6.852   6.069
   23SOL     OW  967   4.410   6.437   3.661
   23SOL    HW1  968   4.350   6.493   3.604
   23SOL    HW2  969   4.499   6.480   3.668
   24SOL     OW  970   5.347   0.901   4.427
   24SOL    HW1  971   5.430   0.950   4.399
   24SOL    HW2  972   5.267   0.951   4.394
   25SOL     OW  973   3.027   6.166   0.260
   25SOL    HW1  974   3.107   6.133   0.310
   25SOL    HW2  975   3.036   6.265   0.246
   26SOL     OW  976   6.178   1.187   1.940
   26SOL    HW1  977   6.162   1.104   1.886
   26SOL    HW2  978   6.161   1.167   2.037
   27SOL     OW  979   6.671   0.471   2.409
   27SOL    HW1  980   6.728   0.394   2.381
   27SOL    HW2  981   6.696   0.498   2.503
   28SOL     OW  982   4.406   0.450   6.084
   28SOL    HW1  983   4.360   0.445   6.173
   28SOL    HW2  984   4.346   0.496   6.019
   29SOL     OW  985   5.295   2.499   2.170
   29SOL    HW1  986   5.358   2.526   2.098
   29SOL    HW2  987   5.276   2.401   2.162
   30SOL     OW  988   2.556   0.023   5.909
   30SOL    HW1  989   2.592   0.051   5.997
   30SOL    HW2  990   2.627   6.998   5.857
   31SOL     OW  991   0.763   0.966   5.753
   31SOL    HW1  992   0.804   0.928   5.835
   31SOL    HW2  993   0.784   0.907   5.675
   32SOL     OW  994   0.853   1.977   3.092
   32SOL    HW1  995   0.842   2.028   3.177
   32SOL    HW2  996   0.932   1.915   3.101
   33SOL     OW  997   1.724   2.662   5.765
   33SOL    HW1  998   1.697   2.567   5.752
   33SOL    HW2  999   1.642   2.720   5.764
   34SOL     OW 1000   2.041   0.331   4.761
   34SOL    HW1 1001   2.140   0.325   4.752
   34SOL    HW2 1002   2.002   0.368   4.676
   35SOL     OW 1003   4.272   2.044   6.405
   35SOL    HW1 1004   4.243   1.960   6.452
   35SOL    HW2 1005   4.266   2.121   6.469
   36SOL     OW 1006   1.290   0.728   6.342
   36SOL    HW1 1007   1.191   0.720   6.337
   36SOL    HW2 1008   1.325   0.672   6.417
   37SOL     OW 1009   2.243   6.942   1.155
   37SOL    HW1 1010   2.336   6.975   1.140
   37SOL    HW2 1011   2.231   6.854   1.108
   38SOL     OW 1012   0.116   6.219   2.970
   38SOL    HW1 1013   0.037   6.159   2.955
   38SOL    HW2 1014   0.085   6.314   2.978
   39SOL     OW 1015   6.576   3.781   6.085
   39SOL    HW1 1016   6.534   3.858   6.133
   39SOL    HW2 1017   6.664   3.811   6.046
   40SOL     OW 1018   6.343   1.710   2.556
   40SOL    HW1 1019   6.369   1.763   2.474
   40SOL    HW2 1020   6.260   1.750   2.595
   41SOL     OW 1021   2.001   6.269   4.308
   41SOL    HW1 1022   2.078   6.330   4.328
   41SOL    HW2 1023   1.976   6.218   4.390
   42SOL     OW 1024   3.132   6.943   6.185
   42SOL    HW1 1025   3.121   6.886   6.267
   42SOL    HW2 1026   3.229   6.945   6.159
   43SOL     OW 1027   5.967   5.746   5.377
   43SOL    HW1 1028   5.887   5.717   5.324
   43SOL    HW2 1029   6.050   5.732   5.323
   44SOL     OW 1030   7.004   2.755   6.307
   44SOL    HW1 1031   6.927   2.782   6.365
   44SOL    HW2 1032   0.032   2.836   6.279
   45SOL     OW 1033   3.459   0.598   2.821
   45SOL    HW1 1034   3.487   0.503   2.813
   45SOL    HW2 1035   3.364   0.607   2.793
   46SOL     OW 1036   1.034   3.596   4.481
   46SOL    HW1 1037   1.084   3.522   4.525
   46SOL    HW2 1038   1.036   3.677   4.541
   47SOL     OW 1039   6.472   3.540   3.937
   47SOL    HW1 1040   6.384   3.575   3.904
   47SOL    HW2 1041   6.473   3.542   4.037
   48SOL     OW 1042   0.381   2.412   4.739
   48SOL    HW1 1043   0.430   2.500   4.734
   48SOL    HW2 1044   0.428   2.345   4.682
   49SOL     OW 1045   4.715   4.353   1.130
   49SOL    HW1 1046   4.716   4.453   1.131
   49SOL    HW2 1047   4.629   4.321   1.170
   50SOL     OW 1048   6.918   3.422   4.770
   50SOL    HW1 1049   6.933   3.512   4.811
   50SOL    HW2 1050   6.940   3.351   4.836
   51SOL     OW 1051   3.388   4.919   2.909
   51SOL    HW1 1052   3.361   4.865   2.829
   51SOL    HW2 1053   3.334   5.003   2.911
   52SOL     OW 1054   3.134   1.749   3.121
   52SOL    HW1 1055   3.150   1.818   3.050
   52SOL    HW2 1056   3.076   1.788   3.193
   53SOL     OW 1057   4.559   0.132   3.837
   53SOL    HW1 1058   4.656   0.142   3.815
   53SOL    HW2 1059   4.505   0.191   3.778
   54SOL     OW 1060   2.884   5.056   6.264
   54SOL    HW1 1061   2.890   5.145   6.218
   54SOL    HW2 1062   2.927   5.062   6.354
   55SOL     OW 1063   3.725   1.235   5.800
   55SOL    HW1 1064   3.803   1.183   5.834
   55SOL    HW2 1065   3.654   1.172   5.768
   56SOL     OW 1066   1.939   0.621   2.370
   56SOL    HW1 1067   1.953   0.534   2.418
   56SOL    HW2 1068   1.842   0.642   2.367
   57SOL     OW 1069   5.127   0.517   0.647
   57SOL    HW1 1070   5.046   0.479   0.690
   57SOL    HW2 1071   5.182   0.566   0.715
   58SOL     OW 1072   0.189   5.739   6.838
   58SOL    HW1 1073   0.203   5.829   6.798
   58SOL    HW2 1074   0.092   5.725   6.858
   59SOL     OW 1075   1.519   0.342   6.596
   59SOL    HW1 1076   1.567   0.353   6.683
   59SOL    HW2 1077   1.533   0.249   6.561
   60SOL     OW 1078   4.511   0.200   5.818
   60SOL    HW1 1079   4.474   0.285   5.781
   60SOL    HW2 1080   4.529   0.136   5.743
   61SOL     OW 1081   4.897   0.129   4.084
   61SOL    HW1 1082   4.844   0.064   4.029
   61SOL    HW2 1083   4.918   0.209   4.029
   62SOL     OW 1084   0.899   0.588   4.107
   62SOL    HW1 1085   0.988   0.543   4.100
   62SOL    HW2 1086   0.827   0.523   4.083
   63SOL     OW 1087   6.382   2.010   3.235
   63SOL    HW1 1088   6.320   2.048   3.304
   63SOL    HW2 1089   6.385   2.071   3.156
   64SOL     OW 1090   6.857   3.706   5.838
   64SOL    HW1 1091   6.950   3.673   5.821
   64SOL    HW2 1092   6.834   3.776   5.771
   65SOL     OW 1093   6.546   4.239   5.331
   65SOL    HW1 1094   6.501   4.244   5.421
   65SOL    HW2 1095   6.632   4.190   5.339
   66SOL     OW 1096   3.476   0.795   6.904
   66SOL    HW1 1097   3.464   0.698   6.884
   66SOL    HW2 1098   3.556   0.829   6.855
   67SOL     OW 1099   5.776   6.289   5.196
   67SOL    HW1 1100   5.789   6.224   5.271
   67SOL    HW2 1101   5.747   6.240   5.114
   68SOL     OW 1102   6.150   1.598   6.664
   68SOL    HW1 1103   6.155   1.509   6.708
   68SOL    HW2 1104   6.120   1.586   6.569
   69SOL     OW 1105   1.659   4.363   6.792
   69SOL    HW1 1106   1.675   4.460   6.806
   69SOL    HW2 1107   1.736   4.323   6.742
   70SOL     OW 1108   6.623   5.931   2.682
   70SOL    HW1 1109   6.575   5.869   2.744
   70SOL    HW2 1110   6.556   5.983   2.628
   71SOL     OW 1111   3.051   2.188   3.938
   71SOL    HW1 1112   2.959   2.168   3.973
   71SOL    HW2 1113   3.115   2.195   4.014
   72SOL     OW 1114   2.763   5.992   4.009
   72SOL    HW1 1115   2.833   5.929   4.043
   72SOL    HW2 1116   2.735   6.055   4.082
   73SOL     OW 1117   3.096   2.694   6.922
   73SOL    HW1 1118   3.101   2.619   6.987
   73SOL    HW2 1119   3.039   2.667   6.844
   74SOL     OW 1120   5.183   6.652   0.313
   74SOL    HW1 1121   5.209   6.735   0.263
   74SOL    HW2 1122   5.261   6.619   0.365
   75SOL     OW 1123   3.424   5.269   5.018
   75SOL    HW1 1124   3.453   5.311   5.104
   75SOL    HW2 1125   3.464   5.319   4.941
   76SOL     OW 1126   2.064   2.737   1.185
   76SOL    HW1 1127   2.159   2.734   1.214
   76SOL    HW2 1128   2.033   2.645   1.163
   77SOL     OW 1129   5.292   5.593   4.703
   77SOL    HW1 1130   5.376   5.539   4.713
   77SOL    HW2 1131   5.299   5.650   4.621
   78SOL     OW 1132   6.570   6.892   6.254
   78SOL    HW1 1133   6.471   6.901   6.256
   78SOL    HW2 1134   6.597   6.838   6.174
   79SOL     OW 1135   3.370   0.042   0.539
   79SOL    HW1 1136   3.316   6.985   0.563
   79SOL    HW2 1137   3.462   0.032   0.577
   80SOL     OW 1138   6.454   0.894   5.164
   80SOL    HW1 1139   6.551   0.882   5.144
   80SOL    HW2 1140   6.430   0.844   5.247
   81SOL     OW 1141   2.382   0.765   2.875
   81SOL    HW1 1142   2.319   0.843   2.880
   81SOL    HW2 1143   2.330   0.680   2.864
   82SOL     OW 1144   6.658   5.460   0.175
   82SOL    HW1 1145   6.618   5.439   0.264
   82SOL    HW2 1146   6.587   5.460   0.105
   83SOL     OW 1147   6.871   6.713   0.624
   83SOL    HW1 1148   6.826   6.713   0.713
   83SOL    HW2 1149   6.843   6.794   0.573
   84SOL     OW 1150   5.169   3.637   2.453
   84SOL    HW1 1151   5.168   3.554   2.508
   84SOL    HW2 1152   5.136   3.616   2.361
   85SOL     OW 1153   0.784   0.982   5.244
   85SOL    HW1 1154   0.692   0.948   5.224
   85SOL    HW2 1155   0.778   1.077   5.274
   86SOL     OW 1156   0.368   0.526   5.672
   86SOL    HW1 1157   0.298   0.460   5.645
   86SOL    HW2 1158   0.333   0.619   5.658
   87SOL     OW 1159   4.463   2.744   7.014
   87SOL    HW1 1160   4.487   2.813   0.059
   87SOL    HW2 1161   4.468   2.653   0.032
   88SOL     OW 1162   4.798   1.702   0.139
   88SOL    HW1 1163   4.792   1.645   0.057
   88SOL    HW2 1164   4.708   1.710   0.181
   89SOL     OW 1165   2.174   2.894   0.028
   89SOL    HW1 1166   2.250   2.955   0.009
   89SOL    HW2 1167   2.089   2.946   0.029
   90SOL     OW 1168   4.738   6.962   3.960
   90SOL    HW1 1169   4.718   6.916   4.046
   90SOL    HW2 1170   4.653   6.985   3.913
   91SOL     OW 1171   4.825   4.607   3.701
   91SOL    HW1 1172   4.879   4.549   3.640
   91SOL    HW2 1173   4.782   4.681   3.648
   92SOL     OW 1174   2.871   5.883   0.646
   92SOL    HW1 1175   2.946   5.924   0.698
   92SOL    HW2 1176   2.864   5.926   0.556
   93SOL     OW 1177   3.089   4.349   6.240
   93SOL    HW1 1178   3.118   4.254   6.255
   93SOL    HW2 1179   3.068   4.362   6.143
   94SOL     OW 1180   3.002   5.360   6.558
   94SOL    HW1 1181   3.045   5.395   6.641
   94SOL    HW2 1182   2.926   5.300   6.583
   95SOL     OW 1183   0.186   1.627   3.929
   95SOL    HW1 1184   0.119   1.682   3.879
   95SOL    HW2 1185   0.277   1.644   3.891
   96SOL     OW 1186   2.575   0.251   5.725
   96SOL    HW1 1187   2.563   0.174   5.788
   96SOL    HW2 1188   2.671   0.257   5.699
   97SOL     OW 1189   6.782   4.120   4.984
   97SOL    HW1 1190   6.858   4.082   4.931
   97SOL    HW2 1191   6.779   4.077   5.074
   98SOL     OW 1192   5.936   3.312   6.511
   98SOL    HW1 1193   5.999   3.390   6.511
   98SOL    HW2 1194   5.912   3.289   6.605
   99SOL     OW 1195   4.354   2.892   1.253
   99SOL    HW1 1196   4.257   2.893   1.279
   99SOL    HW2 1197   4.404   2.958   1.310
  100SOL     OW 1198   0.082   6.735   6.575
  100SOL    HW1 1199   0.106   6.815   6.630
  100SOL    HW2 1200   0.162   6.674   6.569
  101SOL     OW 1201   0.804   5.827   2.626
  101SOL    HW1 1202   0.868   5.860   2.557
  101SOL    HW2 1203   0.855   5.784   2.701
  102SOL     OW 1204   4.227   0.870   3.098
  102SOL    HW1 1205   4.215   0.970   3.105
  102SOL    HW2 1206   4.280   0.848   3.017
  103SOL     OW 1207   4.325   1.581   1.804
  103SOL    HW1 1208   4.280   1.497   1.772
  103SOL    HW2 1209   4.328   1.647   1.729
  104SOL     OW 1210   6.507   5.744   2.843
  104SOL    HW1 1211   6.467   5.814   2.903
  104SOL    HW2 1212   6.576   5.693   2.894
  105SOL     OW 1213   6.373   1.036   6.885
  105SOL    HW1 1214   6.440   1.108   6.904
  105SOL    HW2 1215   6.338   0.999   6.970
  106SOL     OW 1216   2.829   6.504   6.454
  106SOL    HW1 1217   2.823   6.524   6.356
  106SOL    HW2 1218   2.859   6.586   6.503
  107SOL     OW 1219   1.757   2.064   1.652
  107SOL    HW1 1220   1.675   2.078   1.597
  107SOL    HW2 1221   1.739   2.094   1.746
  108SOL     OW 1222   4.776   4.580   0.134
  108SOL    HW1 1223   4.756   4.490   0.096
  108SOL    HW2 1224   4.775   4.648   0.060
  109SOL     OW 1225   0.591   0.383   1.474
  109SOL    HW1 1226   0.663   0.328   1.517
  109SOL    HW2 1227   0.631   0.463   1.430
  110SOL     OW 1228   4.098   5.421   5.462
  110SOL    HW1 1229   4.043   5.420   5.545
  110SOL    HW2 1230   4.055   5.364   5.392
  111SOL     OW 1231   4.150   0.524   4.051
  111SOL    HW1 1232   4.068   0.494   4.101
  111SOL    HW2 1233   4.188   0.448   4.000
  112SOL     OW 1234   5.792   5.509   5.575
  112SOL    HW1 1235   5.697   5.509   5.544
  112SOL    HW2 1236   5.797   5.474   5.669
  113SOL     OW 1237   6.243   4.821   3.663
  113SOL    HW1 1238   6.157   4.769   3.657
  113SOL    HW2 1239   6.259   4.868   3.576
  114SOL     OW 1240   1.042   0.368   0.759
  114SOL    HW1 1241   1.106   0.336   0.829
  114SOL    HW2 1242   1.019   0.464   0.776
  115SOL     OW 1243   4.664   1.015   4.271
  115SOL    HW1 1244   4.620   1.041   4.185
  115SOL    HW2 1245   4.621   0.932   4.307
  116SOL     OW 1246   6.098   5.079   2.200
  116SOL    HW1 1247   6.050   5.101   2.115
  116SOL    HW2 1248   6.113   5.163   2.251
  117SOL     OW 1249   0.701   1.062   6.663
  117SOL    HW1 1250   0.720   0.984   6.602
  117SOL    HW2 1251   0.788   1.102   6.693
  118SOL     OW 1252   0.072   1.065   1.846
  118SOL    HW1 1253   0.153   1.074   1.788
  118SOL    HW2 1254   7.013   1.093   1.796
  119SOL     OW 1255   0.035   2.412   6.596
  119SOL    HW1 1256   7.016   2.415   6.505
  119SOL    HW2 1257   7.020   2.335   6.647
  120SOL     OW 1258   6.859   6.951   1.183
  120SOL    HW1 1259   6.948   6.906   1.174
  120SOL    HW2 1260   6.786   6.885   1.165
  121SOL     OW 1261   2.435   3.791   6.947
  121SOL    HW1 1262   2.372   3.755   6.879
  121SOL    HW2 1263   2.510   3.726   6.962
  122SOL     OW 1264   1.639   3.764   5.596
  122SOL    HW1 1265   1.604   3.673   5.617
  122SOL    HW2 1266   1.564   3.829   5.593
  123SOL     OW 1267   0.047   2.261   1.068
  123SOL    HW1 1268   0.037   2.231   0.973
  123SOL    HW2 1269   0.060   2.360   1.071
  124SOL     OW 1270   5.396   3.193   0.316
  124SOL    HW1 1271   5.426   3.164   0.407
  124SOL    HW2 1272   5.445   3.140   0.247
  125SOL     OW 1273   2.215   2.033   3.204
  125SOL    HW1 1274   2.249   2.126   3.189
  125SOL    HW2 1275   2.277   1.967   3.163
  126SOL     OW 1276   3.281   4.602   1.004
  126SOL    HW1 1277   3.202   4.547   1.028
  126SOL    HW2 1278   3.272   4.694   1.043
  127SOL     OW 1279   6.953   4.466   5.928
  127SOL    HW1 1280   6.853   4.465   5.928
  127SOL    HW2 1281   6.986   4.438   6.018
  128SOL     OW 1282   4.585   2.661   1.570
  128SOL    HW1 1283   4.576   2.673   1.669
  128SOL    HW2 1284   4.672   2.614   1.550
  129SOL     OW 1285   4.264   3.429   6.117
  129SOL    HW1 1286   4.314   3.478   6.046
  129SOL    HW2 1287   4.323   3.357   6.155
  130SOL     OW 1288   0.632   0.733   4.554
  130SOL    HW1 1289   0.581   0.819   4.542
  130SOL    HW2 1290   0.724   0.754   4.587
  131SOL     OW 1291   4.769   1.207   2.928
  131SOL    HW1 1292   4.722   1.141   2.987
  131SOL    HW2 1293   4.728   1.297   2.941
  132SOL     OW 1294   1.619   2.841   0.730
  132SOL    HW1 1295   1.635   2.747   0.701
  132SOL    HW2 1296   1.617   2.846   0.830
  133SOL     OW 1297   5.580   6.479   3.373
  133SOL    HW1 1298   5.520   6.436   3.306
  133SOL    HW2 1299   5.673   6.483   3.337
  134SOL     OW 1300   5.879   2.595   2.806
  134SOL    HW1 1301   5.869   2.569   2.710
  134SOL    HW2 1302   5.872   2.694   2.815
  135SOL     OW 1303   5.141   1.982   2.996
  135SOL    HW1 1304   5.173   2.013   2.907
  135SOL    HW2 1305   5.208   1.920   3.036
  136SOL     OW 1306   4.586   4.416   5.985
  136SOL    HW1 1307   4.609   4.319   5.976
  136SOL    HW2 1308   4.565   4.454   5.895
  137SOL     OW 1309   4.103   6.959   5.360
  137SOL    HW1 1310   4.139   6.923   5.274
  137SOL    HW2 1311   4.045   0.016   5.341
  138SOL     OW 1312   0.442   4.930   4.239
  138SOL    HW1 1313   0.358   4.920   4.186
  138SOL    HW2 1314   0.519   4.897   4.186
  139SOL     OW 1315   2.358   6.092   5.357
  139SOL    HW1 1316   2.295   6.047   5.294
  139SOL    HW2 1317   2.351   6.049   5.447
  140SOL     OW 1318   6.551   4.904   4.410
  140SOL    HW1 1319   6.556   4.811   4.374
  140SOL    HW2 1320   6.631   4.922   4.468
  141SOL     OW 1321   0.528   1.668   5.502
  141SOL    HW1 1322   0.510   1.661   5.404
  141SOL    HW2 1323   0.463   1.611   5.552
  142SOL     OW 1324   2.204   6.395   1.400
  142SOL    HW1 1325   2.205   6.327   1.327
  142SOL    HW2 1326   2.255   6.360   1.478
  143SOL     OW 1327   5.448   4.154   2.108
  143SOL    HW1 1328   5.406   4.195   2.027
  143SOL    HW2 1329   5.378   4.108   2.163
  144SOL     OW 1330   1.569   6.697   6.284
  144SOL    HW1 1331   1.588   6.742   6.196
  144SOL    HW2 1332   1.607   6.605   6.283
  145SOL     OW 1333   1.320   5.276   0.928
  145SOL    HW1 1334   1.344   5.323   1.013
  145SOL    HW2 1335   1.389   5.206   0.909
  146SOL     OW 1336   4.718   6.037   6.795
  146SOL    HW1 1337   4.807   6.080   6.815
  146SOL    HW2 1338   4.661   6.040   6.877
  147SOL     OW 1339   6.268   2.677   0.444
  147SOL    HW1 1340   6.237   2.590   0.405
  147SOL    HW2 1341   6.355   2.703   0.402
  148SOL     OW 1342   0.458   4.717   5.538
  148SOL    HW1 1343   0.451   4.816   5.554
  148SOL    HW2 1344   0.466   4.700   5.439
  149SOL     OW 1345   2.647   1.160   4.307
  149SOL    HW1 1346   2.669   1.252   4.277
  149SOL    HW2 1347   2.550   1.141   4.290
  150SOL     OW 1348   0.044   4.833   6.042
  150SOL    HW1 1349   7.000   4.902   6.014
  150SOL    HW2 1350   0.071   4.779   5.962
  151SOL     OW 1351   3.985   2.154   1.273
  151SOL    HW1 1352   3.905   2.183   1.325
  151SOL    HW2 1353   4.002   2.056   1.289
  152SOL     OW 1354   2.253   0.912   4.731
  152SOL    HW1 1355   2.327   0.850   4.758
  152SOL    HW2 1356   2.205   0.874   4.652
  153SOL     OW 1357   2.407   0.096   2.210
  153SOL    HW1 1358   2.471   0.136   2.276
  153SOL    HW2 1359   2.341   0.165   2.181
  154SOL     OW 1360   6.641   3.097   1.914
  154SOL    HW1 1361   6.679   3.005   1.918
  154SOL    HW2 1362   6.659   3.136   1.823
  155SOL     OW 1363   0.404   1.289   3.633
  155SOL    HW1 1364   0.352   1.350   3.573
  155SOL    HW2 1365   0.472   1.239   3.579
  156SOL     OW 1366   6.763   1.279   1.308
  156SOL    HW1 1367   6.783   1.336   1.388
  156SOL    HW2 1368   6.748   1.185   1.337
  157SOL     OW 1369   6.331   3.552   2.271
  157SOL    HW1 1370   6.351   3.636   2.221
  157SOL    HW2 1371   6.343   3.473   2.210
  158SOL     OW 1372   2.872   0.279   2.170
  158SOL    HW1 1373   2.877   0.348   2.243
  158SOL    HW2 1374   2.883   0.188   2.210
  159SOL     OW 1375   5.018   4.688   1.241
  159SOL    HW1 1376   5.042   4.612   1.181
  159SOL    HW2 1377   4.919   4.690   1.255
  160SOL     OW 1378   6.687   4.724   6.649
  160SOL    HW1 1379   6.716   4.755   6.739
  160SOL    HW2 1380   6.714   4.629   6.636
  161SOL     OW 1381   1.724   5.094   5.043
  161SOL    HW1 1382   1.729   5.108   4.944
  161SOL    HW2 1383   1.778   5.164   5.089
  162SOL     OW 1384   3.973   6.710   0.196
  162SOL    HW1 1385   4.026   6.646   0.251
  162SOL    HW2 1386   4.004   6.704   0.100
  163SOL     OW 1387   4.313   6.171   1.275
  163SOL    HW1 1388   4.274   6.152   1.365
  163SOL    HW2 1389   4.406   6.134   1.270
  164SOL     OW 1390   6.555   3.892   1.325
  164SOL    HW1 1391   6.633   3.898   1.387
  164SOL    HW2 1392   6.470   3.901   1.377
  165SOL     OW 1393   4.951   3.043   0.640
  165SOL    HW1 1394   4.997   3.003   0.719
  165SOL    HW2 1395   4.873   2.985   0.613
  166SOL     OW 1396   0.201   5.652   3.763
  166SOL    HW1 1397   0.126   5.597   3.729
  166SOL    HW2 1398   0.288   5.608   3.741
  167SOL     OW 1399   5.945   1.987   0.399
  167SOL    HW1 1400   5.893   1.992   0.484
  167SOL    HW2 1401   5.903   1.920   0.338
  168SOL     OW 1402   2.778   3.702   0.682
  168SOL    HW1 1403   2.743   3.763   0.753
  168SOL    HW2 1404   2.855   3.649   0.717
  169SOL     OW 1405   3.048   0.157   1.738
  169SOL    HW1 1406   2.988   0.235   1.756
  169SOL    HW2 1407   3.021   0.113   1.653
  170SOL     OW 1408   0.469   1.706   4.123
  170SOL    HW1 1409   0.394   1.686   4.186
  170SOL    HW2 1410   0.451   1.792   4.076
  171SOL     OW 1411   3.320   3.970   7.003
  171SOL    HW1 1412   3.317   3.885   0.031
  171SOL    HW2 1413   3.302   4.047   0.042
  172SOL     OW 1414   6.511   1.399   4.780
  172SOL    HW1 1415   6.541   1.466   4.847
  172SOL    HW2 1416   6.489   1.445   4.694
  173SOL     OW 1417   6.683   0.250   4.438
  173SOL    HW1 1418   6.781   0.266   4.446
  173SOL    HW2 1419   6.668   0.156   4.405
  174SOL     OW 1420   2.861   5.385   3.517
  174SOL    HW1 1421   2.872   5.374   3.616
  174SOL    HW2 1422   2.889   5.301   3.470
  175SOL     OW 1423   1.844   6.838   1.919
  175SOL    HW1 1424   1.881   6.771   1.983
  175SOL    HW2 1425   1.751   6.863   1.948
  176SOL     OW 1426   2.426   4.108   1.143
  176SOL    HW1 1427   2.418   4.032   1.207
  176SOL    HW2 1428   2.518   4.110   1.104
  177SOL     OW 1429   5.666   2.932   3.039
  177SOL    HW1 1430   5.729   2.959   2.967
  177SOL    HW2 1431   5.706   2.953   3.128
  178SOL     OW 1432   4.697   3.959   6.420
  178SOL    HW1 1433   4.616   3.939   6.475
  178SOL    HW2 1434   4.734   4.048   6.446
  179SOL     OW 1435   2.889   1.165   6.614
  179SOL    HW1 1436   2.792   1.142   6.614
  179SOL    HW2 1437   2.923   1.165   6.519
  180SOL     OW 1438   0.916   1.214   6.738
  180SOL    HW1 1439   0.901   1.297   6.791
  180SOL    HW2 1440   1.006   1.175   6.761
  181SOL     OW 1441   3.657   1.836   6.671
  181SOL    HW1 1442   3.613   1.912   6.719
  181SOL    HW2 1443   3.611   1.820   6.583
  182SOL     OW 1444   4.460   2.455   4.126
  182SOL    HW1 1445   4.363   2.431   4.122
  182SOL    HW2 1446   4.498   2.426   4.215
  183SOL     OW 1447   3.675   6.996   2.022
  183SOL    HW1 1448   3.726   0.044   1.973
  183SOL    HW2 1449   3.678   7.015   2.120
  184SOL     OW 1450   1.633   5.736   3.898
  184SOL    HW1 1451   1.579   5.794   3.838
  184SOL    HW2 1452   1.702   5.792   3.945
  185SOL     OW 1453   1.269   3.100   6.600
  185SOL    HW1 1454   1.303   3.133   6.511
  185SOL    HW2 1455   1.347   3.081   6.660
  186SOL     OW 1456   6.657   0.785   3.333
  186SOL    HW1 1457   6.623   0.812   3.423
  186SOL    HW2 1458   6.757   0.780   3.335
  187SOL     OW 1459   5.380   0.656   3.757
  187SOL    HW1 1460   5.414   0.734   3.810
  187SOL    HW2 1461   5.395   0.572   3.809
  188SOL     OW 1462   5.832   2.625   3.212
  188SOL    HW1 1463   5.789   2.664   3.293
  188SOL    HW2 1464   5.769   2.561   3.168
  189SOL     OW 1465   1.845   5.739   2.688
  189SOL    HW1 1466   1.803   5.668   2.746
  189SOL    HW2 1467   1.822   5.829   2.724
  190SOL     OW 1468   3.781   1.092   4.778
  190SOL    HW1 1469   3.766   0.998   4.808
  190SOL    HW2 1470   3.846   1.092   4.702
  191SOL     OW 1471   5.605   5.221   5.950
  191SOL    HW1 1472   5.589   5.123   5.955
  191SOL    HW2 1473   5.678   5.247   6.014
  192SOL     OW 1474   0.412   6.342   1.913
  192SOL    HW1 1475   0.367   6.317   1.998
  192SOL    HW2 1476   0.397   6.439   1.895
  193SOL     OW 1477   5.000   2.907   6.618
  193SOL    HW1 1478   5.002   2.942   6.524
  193SOL    HW2 1479   5.054   2.823   6.624
  194SOL     OW 1480   3.791   0.830   3.047
  194SOL    HW1 1481   3.870   0.771   3.037
  194SOL    HW2 1482   3.731   0.820   2.968
  195SOL     OW 1483   1.678   6.188   3.624
  195SOL    HW1 1484   1.640   6.193   3.532
  195SOL    HW2 1485   1.726   6.273   3.644
  196SOL     OW 1486   2.335   2.501   0.146
  196SOL    HW1 1487   2.361   2.539   0.235
  196SOL    HW2 1488   2.296   2.573   0.089
  197SOL     OW 1489   2.167   1.875   1.054
  197SOL    HW1 1490   2.209   1.789   1.026
  197SOL    HW2 1491   2.109   1.859   1.134
  198SOL     OW 1492   4.351   0.789   3.336
  198SOL    HW1 1493   4.328   0.799   3.239
  198SOL    HW2 1494   4.303   0.859   3.389
  199SOL     OW 1495   1.923   2.562   4.280
  199SOL    HW1 1496   2.023   2.551   4.273
  199SOL    HW2 1497   1.879   2.513   4.205
  200SOL     OW 1498   0.809   2.171   0.892
  200SOL    HW1 1499   0.895   2.142   0.934
  200SOL    HW2 1500   0.787   2.111   0.815
  201SOL     OW 1501   0.356   0.950   5.851
  201SOL    HW1 1502   0.407   0.875   5.894
  201SOL    HW2 1503   0.289   0.912   5.787
  202SOL     OW 1504   4.845   0.529   6.611
  202SOL    HW1 1505   4.797   0.552   6.696
  202SOL    HW2 1506   4.842   0.608   6.550
  203SOL     OW 1507   5.779   2.664   5.234
  203SOL    HW1 1508   5.696   2.611   5.216
  203SOL    HW2 1509   5.815   2.640   5.324
  204SOL     OW 1510   0.156   0.285   5.592
  204SOL    HW1 1511   0.139   0.188   5.608
  204SOL    HW2 1512   0.088   0.320   5.527
  205SOL     OW 1513   1.205   2.231   2.783
  205SOL    HW1 1514   1.257   2.304   2.826
  205SOL    HW2 1515   1.174   2.259   2.692
  206SOL     OW 1516   0.459   3.147   1.841
  206SOL    HW1 1517   0.535   3.212   1.831
  206SOL    HW2 1518   0.451   3.093   1.758
  207SOL     OW 1519   4.756   1.856   3.273
  207SOL    HW1 1520   4.733   1.950   3.248
  207SOL    HW2 1521   4.854   1.850   3.294
  208SOL     OW 1522   0.235   4.095   5.254
  208SOL    HW1 1523   0.183   4.097   5.169
  208SOL    HW2 1524   0.318   4.149   5.244
  209SOL     OW 1525   6.648   4.516   2.690
  209SOL    HW1 1526   6.641   4.520   2.790
  209SOL    HW2 1527   6.646   4.609   2.653
  210SOL     OW 1528   4.342   2.277   0.355
  210SOL    HW1 1529   4.271   2.227   0.405
  210SOL    HW2 1530   4.392   2.336   0.419
  211SOL     OW 1531   1.964   0.570   2.986
  211SOL    HW1 1532   1.925   0.481   2.965
  211SOL    HW2 1533   1.891   0.639   2.990
  212SOL     OW 1534   1.141   3.745   2.513
  212SOL    HW1 1535   1.064   3.682   2.499
  212SOL    HW2 1536   1.222   3.694   2.539
  213SOL     OW 1537   1.584   5.961   1.028
  213SOL    HW1 1538   1.546   5.977   1.119
  213SOL    HW2 1539   1.664   6.020   1.014
  214SOL     OW 1540   4.136   5.064   2.170
  214SOL    HW1 1541   4.079   5.059   2.088
  214SOL    HW2 1542   4.077   5.073   2.250
  215SOL     OW 1543   2.651   4.991   1.295
  215SOL    HW1 1544   2.617   4.912   1.345
  215SOL    HW2 1545   2.580   5.061   1.290
  216SOL     OW 1546   1.362   0.327   2.701
  216SOL    HW1 1547   1.394   0.414   2.663
  216SOL    HW2 1548   1.439   0.279   2.743
  217SOL     OW 1549   1.095   2.651   5.548
  217SOL    HW1 1550   1.150   2.704   5.482
  217SOL    HW2 1551   1.154   2.620   5.623
  218SOL     OW 1552   0.820   2.229   5.451
  218SOL    HW1 1553   0.772   2.278   5.379
  218SOL    HW2 1554   0.759   2.158   5.489
  219SOL     OW 1555   3.866   0.636   0.227
  219SOL    HW1 1556   3.869   0.708   0.297
  219SOL    HW2 1557   3.929   0.563   0.252
  220SOL     OW 1558   3.093   0.678   0.775
  220SOL    HW1 1559   3.172   0.731   0.744
  220SOL    HW2 1560   3.110   0.645   0.868
  221SOL     OW 1561   5.943   5.139   1.294
  221SOL    HW1 1562   6.022   5.117   1.237
  221SOL    HW2 1563   5.904   5.226   1.264
  222SOL     OW 1564   1.793   4.626   6.803
  222SOL    HW1 1565   1.835   4.715   6.785
  222SOL    HW2 1566   1.725   4.636   6.876
  223SOL     OW 1567   6.888   2.875   5.350
  223SOL    HW1 1568   6.791   2.851   5.338
  223SOL    HW2 1569   6.901   2.972   5.334
  224SOL     OW 1570   3.230   2.263   5.941
  224SOL    HW1 1571   3.131   2.275   5.938
  224SOL    HW2 1572   3.274   2.345   5.907
  225SOL     OW 1573   4.391   3.563   5.909
  225SOL    HW1 1574   4.421   3.622   5.984
  225SOL    HW2 1575   4.469   3.547   5.847
  226SOL     OW 1576   1.021   1.636   6.696
  226SOL    HW1 1577   1.043   1.733   6.701
  226SOL    HW2 1578   0.961   1.619   6.618
  227SOL     OW 1579   2.212   4.243   2.774
  227SOL    HW1 1580   2.123   4.267   2.736
  227SOL    HW2 1581   2.238   4.151   2.744
  228SOL     OW 1582   2.164   0.975   3.172
  228SOL    HW1 1583   2.127   0.943   3.085
  228SOL    HW2 1584   2.095   0.966   3.243
  229SOL     OW 1585   5.151   4.781   6.692
  229SOL    HW1 1586   5.080   4.835   6.648
  229SOL    HW2 1587   5.240   4.823   6.677
  230SOL     OW 1588   4.566   6.047   4.530
  230SOL    HW1 1589   4.577   6.115   4.457
  230SOL    HW2 1590   4.482   5.995   4.514
  231SOL     OW 1591   5.534   1.274   0.019
  231SOL    HW1 1592   5.489   1.364   0.015
  231SOL    HW2 1593   5.477   1.211   0.071
  232SOL     OW 1594   0.162   2.941   6.626
  232SOL    HW1 1595   0.066   2.967   6.616
  232SOL    HW2 1596   0.173   2.884   6.707
  233SOL     OW 1597   3.095   2.188   3.656
  233SOL    HW1 1598   3.095   2.196   3.756
  233SOL    HW2 1599   3.002   2.203   3.622
  234SOL     OW 1600   5.744   0.993   5.976
  234SOL    HW1 1601   5.756   1.058   5.901
  234SOL    HW2 1602   5.827   0.993   6.033
  235SOL     OW 1603   4.798   2.914   2.556
  235SOL    HW1 1604   4.790   2.944   2.461
  235SOL    HW2 1605   4.847   2.983   2.609
  236SOL     OW 1606   4.787   3.643   6.901
  236SOL    HW1 1607   4.834   3.600   6.824
  236SOL    HW2 1608   4.849   3.647   6.980
  237SOL     OW 1609   7.004   4.338   2.422
  237SOL    HW1 1610   0.018   4.248   2.399
  237SOL    HW2 1611   0.010   4.363   2.514
  238SOL     OW 1612   6.561   1.081   0.478
  238SOL    HW1 1613   6.499   1.086   0.556
  238SOL    HW2 1614   6.634   1.149   0.489
  239SOL     OW 1615   0.918   4.214   0.643
  239SOL    HW1 1616   0.838   4.167   0.681
  239SOL    HW2 1617   0.982   4.147   0.608
  240SOL     OW 1618   6.924   3.426   3.630
  240SOL    HW1 1619   6.928   3.403   3.727
  240SOL    HW2 1620   6.976   3.510   3.614
  241SOL     OW 1621   2.896   2.271   4.223
  241SOL    HW1 1622   2.868   2.197   4.283
  241SOL    HW2 1623   2.854   2.258   4.133
  242SOL     OW 1624   3.838   3.521   3.613
  242SOL    HW1 1625   3.818   3.468   3.696
  242SOL    HW2 1626   3.827   3.462   3.533
  243SOL     OW 1627   4.754   1.469   6.882
  243SOL    HW1 1628   4.737   1.379   6.924
  243SOL    HW2 1629   4.673   1.497   6.831
  244SOL     OW 1630   5.884   3.052   6.351
  244SOL    HW1 1631   5.904   3.148   6.374
  244SOL    HW2 1632   5.969   2.999   6.352
  245SOL     OW 1633   3.715   1.919   3.843
  245SOL    HW1 1634   3.695   1.989   3.912
  245SOL    HW2 1635   3.784   1.856   3.878
  246SOL     OW 1636   5.146   1.689   3.565
  246SOL    HW1 1637   5.231   1.641   3.587
  246SOL    HW2 1638   5.079   1.672   3.637
  247SOL     OW 1639   2.737   2.078   0.693
  247SOL    HW1 1640   2.660   2.021   0.664
  247SOL    HW2 1641   2.739   2.083   0.793
  248SOL     OW 1642   2.571   1.406   2.873
  248SOL    HW1 1643   2.552   1.334   2.940
  248SOL    HW2 1644   2.665   1.439   2.885
  249SOL     OW 1645   5.064   6.858   5.267
  249SOL    HW1 1646   5.120   6.861   5.350
  249SOL    HW2 1647   4.975   6.819   5.288
  250SOL     OW 1648   3.875   3.055   1.080
  250SOL    HW1 1649   3.872   3.002   1.164
  250SOL    HW2 1650   3.821   3.139   1.091
  251SOL     OW 1651   4.690   3.406   5.372
  251SOL    HW1 1652   4.608   3.349   5.388
  251SOL    HW2 1653   4.670   3.475   5.303
  252SOL     OW 1654   6.391   0.032   5.555
  252SOL    HW1 1655   6.319   6.995   5.520
  252SOL    HW2 1656   6.379   0.044   5.654
  253SOL     OW 1657   3.768   4.655   5.708
  253SOL    HW1 1658   3.770   4.647   5.807
  253SOL    HW2 1659   3.673   4.671   5.678
  254SOL     OW 1660   6.794   2.323   3.521
  254SOL    HW1 1661   6.740   2.380   3.583
  254SOL    HW2 1662   6.733   2.261   3.471
  255SOL     OW 1663   1.584   5.111   5.987
  255SOL    HW1 1664   1.661   5.174   5.995
  255SOL    HW2 1665   1.618   5.017   5.991
  256SOL     OW 1666   5.525   2.894   6.031
  256SOL    HW1 1667   5.511   2.843   5.946
  256SOL    HW2 1668   5.600   2.959   6.019
  257SOL     OW 1669   5.358   6.705   3.077
  257SOL    HW1 1670   5.296   6.651   3.133
  257SOL    HW2 1671   5.377   6.655   2.992
  258SOL     OW 1672   2.222   4.039   5.603
  258SOL    HW1 1673   2.219   4.100   5.682
  258SOL    HW2 1674   2.248   4.090   5.522
  259SOL     OW 1675   5.335   0.895   2.155
  259SOL    HW1 1676   5.429   0.871   2.181
  259SOL    HW2 1677   5.273   0.825   2.190
  260SOL     OW 1678   3.644   5.113   3.316
  260SOL    HW1 1679   3.620   5.077   3.226
  260SOL    HW2 1680   3.644   5.039   3.382
  261SOL     OW 1681   5.521   4.748   1.468
  261SOL    HW1 1682   5.619   4.770   1.471
  261SOL    HW2 1683   5.504   4.682   1.396
  262SOL     OW 1684   1.701   3.900   1.000
  262SOL    HW1 1685   1.708   3.927   1.096
  262SOL    HW2 1686   1.781   3.934   0.950
  263SOL     OW 1687   1.324   0.312   3.913
  263SOL    HW1 1688   1.392   0.376   3.876
  263SOL    HW2 1689   1.371   0.235   3.957
  264SOL     OW 1690   6.504   2.748   0.351
  264SOL    HW1 1691   6.512   2.801   0.435
  264SOL    HW2 1692   6.548   2.798   0.276
  265SOL     OW 1693   6.077   6.576   3.076
  265SOL    HW1 1694   6.029   6.604   3.160
  265SOL    HW2 1695   6.019   6.594   2.997
  266SOL     OW 1696   4.661   3.142   6.077
  266SOL    HW1 1697   4.685   3.057   6.030
  266SOL    HW2 1698   4.684   3.220   6.019
  267SOL     OW 1699   1.415   0.729   5.220
  267SOL    HW1 1700   1.345   0.661   5.241
  267SOL    HW2 1701   1.453   0.764   5.305
  268SOL     OW 1702   3.634   1.065   6.181
  268SOL    HW1 1703   3.616   1.139   6.117
  268SOL    HW2 1704   3.725   1.026   6.164
  269SOL     OW 1705   3.060   2.507   0.280
  269SOL    HW1 1706   3.035   2.418   0.319
  269SOL    HW2 1707   2.996   2.576   0.313
  270SOL     OW 1708   0.707   6.114   0.389
  270SOL    HW1 1709   0.791   6.065   0.370
  270SOL    HW2 1710   0.690   6.181   0.317
  271SOL     OW 1711   0.482   1.764   6.340
  271SOL    HW1 1712   0.501   1.701   6.415
  271SOL    HW2 1713   0.395   1.811   6.356
  272SOL     OW 1714   3.428   6.254   3.992
  272SOL    HW1 1715   3.507   6.208   4.034
  272SOL    HW2 1716   3.461   6.317   3.922
  273SOL     OW 1717   1.602   5.134   5.518
  273SOL    HW1 1718   1.651   5.073   5.580
  273SOL    HW2 1719   1.595   5.092   5.428
  274SOL     OW 1720   3.913   0.929   3.756
  274SOL    HW1 1721   3.954   0.885   3.676
  274SOL    HW2 1722   3.815   0.912   3.757
  275SOL     OW 1723   0.122   6.443   2.368
  275SOL    HW1 1724   0.176   6.415   2.447
  275SOL    HW2 1725   0.125   6.543   2.359
  276SOL     OW 1726   0.515   6.795   3.642
  276SOL    HW1 1727   0.538   6.815   3.547
  276SOL    HW2 1728   0.498   6.697   3.652
  277SOL     OW 1729   1.449   3.195   0.032
  277SOL    HW1 1730   1.517   3.264   0.054
  277SOL    HW2 1731   1.470   3.110   0.079
  278SOL     OW 1732   0.230   3.219   3.082
  278SOL    HW1 1733   0.170   3.267   3.019
  278SOL    HW2 1734   0.240   3.273   3.166
  279SOL     OW 1735   5.204   2.807   4.257
  279SOL    HW1 1736   5.258   2.853   4.328
  279SOL    HW2 1737   5.266   2.753   4.199
  280SOL     OW 1738   2.368   5.484   1.552
  280SOL    HW1 1739   2.400   5.567   1.597
  280SOL    HW2 1740   2.346   5.505   1.456
  281SOL     OW 1741   2.033   4.449   1.732
  281SOL    HW1 1742   2.093   4.492   1.664
  281SOL    HW2 1743   2.084   4.380   1.783
  282SOL     OW 1744   3.250   0.961   5.107
  282SOL    HW1 1745   3.151   0.963   5.121
  282SOL    HW2 1746   3.294   1.023   5.173
  283SOL     OW 1747   5.575   2.902   6.712
  283SOL    HW1 1748   5.602   2.928   6.619
  283SOL    HW2 1749   5.480   2.928   6.728
  284SOL     OW 1750   0.756   3.659   3.676
  284SOL    HW1 1751   0.803   3.699   3.597
  284SOL    HW2 1752   0.822   3.610   3.733
  285SOL     OW 1753   5.284   4.938   4.071
  285SOL    HW1 1754   5.353   4.897   4.130
  285SOL    HW2 1755   5.328   4.985   3.995
  286SOL     OW 1756   3.225   4.344   6.671
  286SOL    HW1 1757   3.146   4.293   6.637
  286SOL    HW2 1758   3.309   4.303   6.635
  287SOL     OW 1759   1.674   3.263   1.115
  287SOL    HW1 1760   1.609   3.339   1.117
  287SOL    HW2 1761   1.635   3.187   1.062
  288SOL     OW 1762   4.005   1.511   6.496
  288SOL    HW1 1763   3.914   1.552   6.491
  288SOL    HW2 1764   4.072   1.581   6.521
  289SOL     OW 1765   1.865   4.484   5.816
  289SOL    HW1 1766   1.947   4.496   5.760
  289SOL    HW2 1767   1.798   4.428   5.767
  290SOL     OW 1768   6.999   1.517   5.130
  290SOL    HW1 1769   7.013   1.447   5.201
  290SOL    HW2 1770   0.002   1.606   5.165
  291SOL     OW 1771   0.936   1.827   3.984
  291SOL    HW1 1772   0.888   1.775   4.055
  291SOL    HW2 1773   0.879   1.831   3.901
  292SOL     OW 1774   2.302   0.521   3.551
  292SOL    HW1 1775   2.248   0.438   3.538
  292SOL    HW2 1776   2.241   0.599   3.564
  293SOL     OW 1777   4.587   5.905   4.185
  293SOL    HW1 1778   4.581   6.000   4.214
  293SOL    HW2 1779   4.614   5.848   4.262
  294SOL     OW 1780   5.336   5.862   6.710
  294SOL    HW1 1781   5.409   5.882   6.645
  294SOL    HW2 1782   5.259   5.924   6.693
  295SOL     OW 1783   4.857   0.759   3.576
  295SOL    HW1 1784   4.793   0.831   3.600
  295SOL    HW2 1785   4.883   0.708   3.659
  296SOL     OW 1786   3.433   1.241   2.957
  296SOL    HW1 1787   3.346   1.194   2.972
  296SOL    HW2 1788   3.416   1.338   2.944
  297SOL     OW 1789   1.764   3.825   3.345
  297SOL    HW1 1790   1.757   3.923   3.363
  297SOL    HW2 1791   1.840   3.807   3.283
  298SOL     OW 1792   6.160   5.578   0.872
  298SOL    HW1 1793   6.174   5.639   0.794
  298SOL    HW2 1794   6.245   5.571   0.924
  299SOL     OW 1795   6.251   2.313   4.862
  299SOL    HW1 1796   6.156   2.340   4.880
  299SOL    HW2 1797   6.292   2.378   4.798
  300SOL     OW 1798   6.302   0.417   2.942
  300SOL    HW1 1799   6.343   0.419   2.851
  300SOL    HW2 1800   6.236   0.492   2.951
  301SOL     OW 1801   5.983   3.556   6.908
  301SOL    HW1 1802   5.900   3.588   6.953
  301SOL    HW2 1803   6.033   3.634   6.871
  302SOL     OW 1804   0.798   0.232   4.077
  302SOL    HW1 1805   0.721   0.295   4.074
  302SOL    HW2 1806   0.847   0.244   4.163
  303SOL     OW 1807   4.889   0.628   3.108
  303SOL    HW1 1808   4.971   0.676   3.141
  303SOL    HW2 1809   4.900   0.530   3.124
  304SOL     OW 1810   2.464   0.130   3.352
  304SOL    HW1 1811   2.541   0.148   3.414
  304SOL    HW2 1812   2.438   0.214   3.306
  305SOL     OW 1813   1.169   4.341   6.882
  305SOL    HW1 1814   1.174   4.381   6.790
  305SOL    HW2 1815   1.075   4.318   6.904
  306SOL     OW 1816   2.541   0.888   3.579
  306SOL    HW1 1817   2.478   0.886   3.502
  306SOL    HW2 1818   2.508   0.952   3.648
  307SOL     OW 1819   4.426   0.319   1.318
  307SOL    HW1 1820   4.346   0.377   1.306
  307SOL    HW2 1821   4.467   0.335   1.407
  308SOL     OW 1822   1.088   6.286   3.322
  308SOL    HW1 1823   1.043   6.201   3.296
  308SOL    HW2 1824   1.108   6.339   3.239
  309SOL     OW 1825   3.600   4.491   5.314
  309SOL    HW1 1826   3.693   4.525   5.299
  309SOL    HW2 1827   3.537   4.568   5.322
  310SOL     OW 1828   0.446   6.522   5.600
  310SOL    HW1 1829   0.500   6.469   5.665
  310SOL    HW2 1830   0.474   6.618   5.604
  311SOL     OW 1831   0.671   5.796   1.602
  311SOL    HW1 1832   0.712   5.880   1.636
  311SOL    HW2 1833   0.732   5.719   1.621
  312SOL     OW 1834   5.108   1.511   5.213
  312SOL    HW1 1835   5.185   1.535   5.271
  312SOL    HW2 1836   5.140   1.498   5.119
  313SOL     OW 1837   2.027   4.251   2.149
  313SOL    HW1 1838   2.009   4.315   2.224
  313SOL    HW2 1839   1.959   4.265   2.077
  314SOL     OW 1840   3.418   5.540   0.393
  314SOL    HW1 1841   3.399   5.443   0.404
  314SOL    HW2 1842   3.516   5.554   0.384
  315SOL     OW 1843   0.432   2.705   3.547
  315SOL    HW1 1844   0.470   2.796   3.566
  315SOL    HW2 1845   0.506   2.640   3.534
  316SOL     OW 1846   2.321   2.796   3.776
  316SOL    HW1 1847   2.363   2.746   3.852
  316SOL    HW2 1848   2.362   2.886   3.768
  317SOL     OW 1849   6.633   1.610   6.934
  317SOL    HW1 1850   6.597   1.589   6.843
  317SOL    HW2 1851   6.601   1.542   6.999
  318SOL     OW 1852   1.739   4.114   0.676
  318SOL    HW1 1853   1.778   4.164   0.753
  318SOL    HW2 1854   1.764   4.160   0.590
  319SOL     OW 1855   1.386   0.370   1.177
  319SOL    HW1 1856   1.486   0.378   1.173
  319SOL    HW2 1857   1.361   0.299   1.242
  320SOL     OW 1858   6.276   3.273   1.023
  320SOL    HW1 1859   6.350   3.325   0.981
  320SOL    HW2 1860   6.216   3.236   0.952
  321SOL     OW 1861   1.626   2.195   1.883
  321SOL    HW1 1862   1.559   2.136   1.839
  321SOL    HW2 1863   1.594   2.218   1.975
  322SOL     OW 1864   3.691   2.826   4.996
  322SOL    HW1 1865   3.621   2.801   4.929
  322SOL    HW2 1866   3.649   2.878   5.071
  323SOL     OW 1867   6.634   4.293   0.933
  323SOL    HW1 1868   6.638   4.231   1.011
  323SOL    HW2 1869   6.543   4.288   0.891
  324SOL     OW 1870   1.116   3.328   4.548
  324SOL    HW1 1871   1.095   3.247   4.602
  324SOL    HW2 1872   1.215   3.345   4.550
  325SOL     OW 1873   2.000   2.779   1.884
  325SOL    HW1 1874   1.989   2.693   1.834
  325SOL    HW2 1875   1.945   2.850   1.840
  326SOL     OW 1876   2.083   6.039   6.571
  326SOL    HW1 1877   2.087   5.967   6.640
  326SOL    HW2 1878   2.120   6.124   6.610
  327SOL     OW 1879   6.073   4.872   5.366
  327SOL    HW1 1880   6.108   4.793   5.315
  327SOL    HW2 1881   6.049   4.843   5.459
  328SOL     OW 1882   4.515   4.742   1.725
  328SOL    HW1 1883   4.559   4.735   1.814
  328SOL    HW2 1884   4.473   4.654   1.701
  329SOL     OW 1885   3.502   3.834   3.065
  329SOL    HW1 1886   3.531   3.929   3.075
  329SOL    HW2 1887   3.482   3.815   2.969
  330SOL     OW 1888   3.253   7.013   1.460
  330SOL    HW1 1889   3.313   6.933   1.463
  330SOL    HW2 1890   3.158   6.983   1.469
  331SOL     OW 1891   5.011   5.110   5.637
  331SOL    HW1 1892   4.914   5.107   5.614
  331SOL    HW2 1893   5.065   5.088   5.556
  332SOL     OW 1894   3.018   1.661   3.973
  332SOL    HW1 1895   3.063   1.744   3.941
  332SOL    HW2 1896   3.052   1.637   4.064
  333SOL     OW 1897   4.000   6.319   6.124
  333SOL    HW1 1898   4.093   6.288   6.106
  333SOL    HW2 1899   3.978   6.304   6.220
  334SOL     OW 1900   3.425   6.945   2.347
  334SOL    HW1 1901   3.363   6.978   2.276
  334SOL    HW2 1902   3.376   6.881   2.406
  335SOL     OW 1903   3.307   5.726   3.658
  335SOL    HW1 1904   3.267   5.747   3.569
  335SOL    HW2 1905   3.250   5.764   3.731
  336SOL     OW 1906   3.246   0.932   3.416
  336SOL    HW1 1907   3.190   0.888   3.345
  336SOL    HW2 1908   3.253   1.030   3.397
  337SOL     OW 1909   0.022   3.232   1.587
  337SOL    HW1 1910   0.110   3.193   1.613
  337SOL    HW2 1911   6.988   3.244   1.669
  338SOL     OW 1912   2.861   2.948   1.503
  338SOL    HW1 1913   2.826   2.914   1.590
  338SOL    HW2 1914   2.951   2.907   1.485
  339SOL     OW 1915   3.883   6.462   2.838
  339SOL    HW1 1916   3.942   6.537   2.869
  339SOL    HW2 1917   3.792   6.474   2.875
  340SOL     OW 1918   4.926   3.675   4.617
  340SOL    HW1 1919   4.924   3.641   4.711
  340SOL    HW2 1920   4.909   3.599   4.554
  341SOL     OW 1921   5.320   5.377   3.950
  341SOL    HW1 1922   5.264   5.458   3.935
  341SOL    HW2 1923   5.262   5.301   3.981
  342SOL     OW 1924   6.225   5.227   0.400
  342SOL    HW1 1925   6.152   5.228   0.469
  342SOL    HW2 1926   6.309   5.193   0.441
  343SOL     OW 1927   3.690   6.801   1.643
  343SOL    HW1 1928   3.695   6.888   1.593
  343SOL    HW2 1929   3.710   6.726   1.580
  344SOL     OW 1930   1.790   4.973   0.611
  344SOL    HW1 1931   1.878   4.947   0.651
  344SOL    HW2 1932   1.723   4.900   0.627
  345SOL     OW 1933   0.907   0.673   5.420
  345SOL    HW1 1934   0.813   0.687   5.450
  345SOL    HW2 1935   0.910   0.663   5.321
  346SOL     OW 1936   1.573   0.197   2.842
  346SOL    HW1 1937   1.623   0.162   2.763
  346SOL    HW2 1938   1.549   0.122   2.903
  347SOL     OW 1939   5.436   6.933   6.712
  347SOL    HW1 1940   5.516   6.943   6.770
  347SOL    HW2 1941   5.391   7.022   6.701
  348SOL     OW 1942   3.410   5.348   1.038
  348SOL    HW1 1943   3.455   5.373   0.953
  348SOL    HW2 1944   3.415   5.248   1.050
  349SOL     OW 1945   0.339   4.891   2.527
  349SOL    HW1 1946   0.292   4.979   2.520
  349SOL    HW2 1947   0.291   4.824   2.470
  350SOL     OW 1948   3.901   3.514   1.391
  350SOL    HW1 1949   3.849   3.429   1.382
  350SOL    HW2 1950   3.843   3.592   1.366
  351SOL     OW 1951   2.657   1.596   0.068
  351SOL    HW1 1952   2.569   1.637   0.093
  351SOL    HW2 1953   2.646   1.542   7.008
  352SOL     OW 1954   3.256   0.269   5.785
  352SOL    HW1 1955   3.289   0.344   5.728
  352SOL    HW2 1956   3.165   0.241   5.756
  353SOL     OW 1957   1.767   5.957   0.573
  353SOL    HW1 1958   1.671   5.938   0.594
  353SOL    HW2 1959   1.776   5.983   0.477
  354SOL     OW 1960   4.317   1.363   0.117
  354SOL    HW1 1961   4.312   1.298   0.041
  354SOL    HW2 1962   4.268   1.325   0.196
  355SOL     OW 1963   0.128   3.579   2.526
  355SOL    HW1 1964   0.036   3.604   2.497
  355SOL    HW2 1965   0.125   3.494   2.577
  356SOL     OW 1966   4.127   5.063   3.580
  356SOL    HW1 1967   4.079   5.010   3.651
  356SOL    HW2 1968   4.172   5.000   3.516
  357SOL     OW 1969   0.306   5.862   5.248
  357SOL    HW1 1970   0.322   5.800   5.170
  357SOL    HW2 1971   0.392   5.907   5.272
  358SOL     OW 1972   5.676   0.547   1.984
  358SOL    HW1 1973   5.605   0.573   1.918
  358SOL    HW2 1974   5.766   0.558   1.941
  359SOL     OW 1975   1.545   1.887   2.294
  359SOL    HW1 1976   1.604   1.943   2.353
  359SOL    HW2 1977   1.449   1.915   2.307
  360SOL     OW 1978   4.391   6.968   0.167
  360SOL    HW1 1979   4.366   6.880   0.206
  360SOL    HW2 1980   4.426   6.955   0.074
  361SOL     OW 1981   4.922   6.473   2.489
  361SOL    HW1 1982   4.909   6.433   2.398
  361SOL    HW2 1983   4.965   6.563   2.480
  362SOL     OW 1984   3.223   3.643   1.254
  362SOL    HW1 1985   3.212   3.623   1.352
  362SOL    HW2 1986   3.183   3.568   1.201
  363SOL     OW 1987   4.291   5.026   3.837
  363SOL    HW1 1988   4.319   5.089   3.764
  363SOL    HW2 1989   4.371   4.991   3.884
  364SOL     OW 1990   1.543   5.303   6.271
  364SOL    HW1 1991   1.497   5.215   6.278
  364SOL    HW2 1992   1.641   5.288   6.254
  365SOL     OW 1993   5.221   6.319   1.917
  365SOL    HW1 1994   5.308   6.305   1.871
  365SOL    HW2 1995   5.160   6.242   1.898
  366SOL     OW 1996   5.795   0.985   0.030
  366SOL    HW1 1997   5.888   0.950   0.038
  366SOL    HW2 1998   5.782   1.060   0.094
  367SOL     OW 1999   5.519   3.171   1.254
  367SOL    HW1 2000   5.498   3.216   1.341
  367SOL    HW2 2001   5.528   3.239   1.182
  368SOL     OW 2002   1.376   4.746   5.312
  368SOL    HW1 2003   1.437   4.709   5.382
  368SOL    HW2 2004   1.302   4.797   5.355
  369SOL     OW 2005   0.638   4.077   1.970
  369SOL    HW1 2006   0.550   4.121   1.988
  369SOL    HW2 2007   0.683   4.122   1.893
  370SOL     OW 2008   3.283   1.670   5.318
  370SOL    HW1 2009   3.258   1.753   5.269
  370SOL    HW2 2010   3.226   1.594   5.287
  371SOL     OW 2011   3.065   3.565   0.142
  371SOL    HW1 2012   3.071   3.573   0.241
  371SOL    HW2 2013   3.134   3.624   0.100
  372SOL     OW 2014   0.006   6.895   5.831
  372SOL    HW1 2015   6.994   6.844   5.910
  372SOL    HW2 2016   0.016   6.833   5.754
  373SOL     OW 2017   0.073   6.431   0.695
  373SOL    HW1 2018   0.057   6.526   0.669
  373SOL    HW2 2019   0.034   6.370   0.625
  374SOL     OW 2020   3.528   0.826   1.573
  374SOL    HW1 2021   3.520   0.814   1.672
  374SOL    HW2 2022   3.541   0.922   1.551
  375SOL     OW 2023   6.780   5.113   3.466
  375SOL    HW1 2024   6.707   5.131   3.532
  375SOL    HW2 2025   6.833   5.034   3.497
  376SOL     OW 2026   2.087   2.804   4.351
  376SOL    HW1 2027   2.172   2.796   4.404
  376SOL    HW2 2028   2.038   2.717   4.354
  377SOL     OW 2029   4.803   2.258   3.351
  377SOL    HW1 2030   4.730   2.240   3.417
  377SOL    HW2 2031   4.878   2.306   3.396
  378SOL     OW 2032   4.515   3.212   5.460
  378SOL    HW1 2033   4.426   3.168   5.475
  378SOL    HW2 2034   4.578   3.147   5.418
  379SOL     OW 2035   5.386   3.934   1.097
  379SOL    HW1 2036   5.403   3.836   1.080
  379SOL    HW2 2037   5.340   3.974   1.018
  380SOL     OW 2038   1.694   1.920   1.294
  380SOL    HW1 2039   1.616   1.981   1.282
  380SOL    HW2 2040   1.670   1.847   1.356
  381SOL     OW 2041   3.317   3.959   0.994
  381SOL    HW1 2042   3.358   3.903   0.922
  381SOL    HW2 2043   3.388   3.988   1.058
  382SOL     OW 2044   3.076   6.128   0.561
  382SOL    HW1 2045   2.986   6.132   0.518
  382SOL    HW2 2046   3.133   6.062   0.513
  383SOL     OW 2047   6.632   2.507   0.365
  383SOL    HW1 2048   6.591   2.455   0.440
  383SOL    HW2 2049   6.580   2.592   0.351
  384SOL     OW 2050   1.085   5.460   4.849
  384SOL    HW1 2051   1.170   5.425   4.808
  384SOL    HW2 2052   1.022   5.384   4.865
  385SOL     OW 2053   4.488   6.375   0.353
  385SOL    HW1 2054   4.477   6.429   0.269
  385SOL    HW2 2055   4.402   6.329   0.374
  386SOL     OW 2056   3.607   6.234   5.778
  386SOL    HW1 2057   3.674   6.244   5.852
  386SOL    HW2 2058   3.639   6.282   5.697
  387SOL     OW 2059   0.253   0.681   5.332
  387SOL    HW1 2060   0.167   0.660   5.379
  387SOL    HW2 2061   0.301   0.596   5.311
  388SOL     OW 2062   6.502   2.595   5.145
  388SOL    HW1 2063   6.530   2.640   5.061
  388SOL    HW2 2064   6.582   2.583   5.205
  389SOL     OW 2065   4.305   4.868   1.395
  389SOL    HW1 2066   4.349   4.935   1.455
  389SOL    HW2 2067   4.254   4.916   1.324
  390SOL     OW 2068   3.288   1.944   0.433
  390SOL    HW1 2069   3.296   1.846   0.412
  390SOL    HW2 2070   3.314   1.997   0.352
  391SOL     OW 2071   3.236   4.041   5.986
  391SOL    HW1 2072   3.173   4.099   5.934
  391SOL    HW2 2073   3.324   4.089   5.996
  392SOL     OW 2074   1.196   3.606   1.704
  392SOL    HW1 2075   1.292   3.579   1.713
  392SOL    HW2 2076   1.138   3.524   1.707
  393SOL     OW 2077   1.052   4.442   1.338
  393SOL    HW1 2078   0.958   4.411   1.352
  393SOL    HW2 2079   1.082   4.415   1.246
  394SOL     OW 2080   6.510   1.033   6.287
  394SOL    HW1 2081   6.462   1.120   6.278
  394SOL    HW2 2082   6.498   0.998   6.380
  395SOL     OW 2083   5.681   4.742   1.231
  395SOL    HW1 2084   5.767   4.793   1.224
  395SOL    HW2 2085   5.611   4.798   1.274
  396SOL     OW 2086   2.803   1.458   2.523
  396SOL    HW1 2087   2.804   1.371   2.571
  396SOL    HW2 2088   2.897   1.488   2.508
  397SOL     OW 2089   4.321   1.774   5.480
  397SOL    HW1 2090   4.337   1.780   5.578
  397SOL    HW2 2091   4.383   1.706   5.440
  398SOL     OW 2092   2.253   1.254   4.341
  398SOL    HW1 2093   2.324   1.296   4.398
  398SOL    HW2 2094   2.295   1.196   4.272
  399SOL     OW 2095   5.727   6.119   3.896
  399SOL    HW1 2096   5.735   6.179   3.975
  399SOL    HW2 2097   5.746   6.171   3.813
  400SOL     OW 2098   6.750   0.463   4.858
  400SOL    HW1 2099   6.688   0.414   4.797
  400SOL    HW2 2100   6.825   0.403   4.884
  401SOL     OW 2101   6.901   5.587   5.884
  401SOL    HW1 2102   6.919   5.493   5.854
  401SOL    HW2 2103   6.956   5.607   5.965
  402SOL     OW 2104   6.838   0.258   2.354
  402SOL    HW1 2105   6.822   0.160   2.369
  402SOL    HW2 2106   6.865   0.274   2.260
  403SOL     OW 2107   2.389   1.108   5.450
  403SOL    HW1 2108   2.443   1.093   5.367
  403SOL    HW2 2109   2.330   1.028   5.466
  404SOL     OW 2110   3.957   4.852   3.732
  404SOL    HW1 2111   4.012   4.788   3.678
  404SOL    HW2 2112   4.007   4.876   3.815
  405SOL     OW 2113   2.928   4.835   3.826
  405SOL    HW1 2114   2.994   4.907   3.848
  405SOL    HW2 2115   2.949   4.798   3.735
  406SOL     OW 2116   0.645   5.465   5.900
  406SOL    HW1 2117   0.718   5.398   5.917
  406SOL    HW2 2118   0.685   5.548   5.860
  407SOL     OW 2119   2.063   3.154   4.645
  407SOL    HW1 2120   2.076   3.232   4.584
  407SOL    HW2 2121   2.088   3.179   4.738
  408SOL     OW 2122   2.846   1.393   3.864
  408SOL    HW1 2123   2.864   1.408   3.961
  408SOL    HW2 2124   2.922   1.429   3.810
  409SOL     OW 2125   0.984   3.460   2.729
  409SOL    HW1 2126   0.977   3.549   2.773
  409SOL    HW2 2127   0.977   3.470   2.630
  410SOL     OW 2128   2.287   1.907   1.651
  410SOL    HW1 2129   2.258   1.967   1.726
  410SOL    HW2 2130   2.371   1.943   1.610
  411SOL     OW 2131   0.846   2.643   1.114
  411SOL    HW1 2132   0.872   2.552   1.080
  411SOL    HW2 2133   0.905   2.668   1.191
  412SOL     OW 2134   1.839   4.865   1.527
  412SOL    HW1 2135   1.827   4.963   1.510
  412SOL    HW2 2136   1.749   4.820   1.527
  413SOL     OW 2137   5.173   5.459   2.849
  413SOL    HW1 2138   5.240   5.483   2.778
  413SOL    HW2 2139   5.092   5.418   2.806
  414SOL     OW 2140   2.618   6.263   3.297
  414SOL    HW1 2141   2.582   6.300   3.383
  414SOL    HW2 2142   2.701   6.313   3.272
  415SOL     OW 2143   6.572   0.836   0.763
  415SOL    HW1 2144   6.621   0.777   0.826
  415SOL    HW2 2145   6.530   0.780   0.691
  416SOL     OW 2146   4.868   3.205   4.889
  416SOL    HW1 2147   4.862   3.233   4.985
  416SOL    HW2 2148   4.840   3.110   4.880
  417SOL     OW 2149   3.174   2.028   6.049
  417SOL    HW1 2150   3.150   2.048   6.144
  417SOL    HW2 2151   3.200   2.113   6.003
  418SOL     OW 2152   3.974   5.644   4.712
  418SOL    HW1 2153   4.025   5.580   4.654
  418SOL    HW2 2154   3.887   5.667   4.668
  419SOL     OW 2155   1.044   6.702   1.296
  419SOL    HW1 2156   1.105   6.648   1.355
  419SOL    HW2 2157   0.989   6.641   1.240
  420SOL     OW 2158   5.145   1.474   6.075
  420SOL    HW1 2159   5.231   1.521   6.054
  420SOL    HW2 2160   5.163   1.395   6.133
  421SOL     OW 2161   5.357   3.358   2.266
  421SOL    HW1 2162   5.344   3.404   2.179
  421SOL    HW2 2163   5.424   3.408   2.321
  422SOL     OW 2164   4.921   3.190   1.872
  422SOL    HW1 2165   5.010   3.160   1.906
  422SOL    HW2 2166   4.849   3.134   1.912
  423SOL     OW 2167   3.710   1.257   6.558
  423SOL    HW1 2168   3.778   1.235   6.628
  423SOL    HW2 2169   3.679   1.173   6.515
  424SOL     OW 2170   1.044   3.765   3.323
  424SOL    HW1 2171   1.062   3.667   3.308
  424SOL    HW2 2172   0.970   3.775   3.389
  425SOL     OW 2173   2.655   0.888   5.180
  425SOL    HW1 2174   2.694   0.868   5.090
  425SOL    HW2 2175   2.658   0.986   5.197
  426SOL     OW 2176   2.548   2.387   4.120
  426SOL    HW1 2177   2.561   2.297   4.161
  426SOL    HW2 2178   2.474   2.382   4.053
  427SOL     OW 2179   3.547   2.101   3.127
  427SOL    HW1 2180   3.513   2.077   3.219
  427SOL    HW2 2181   3.470   2.127   3.069
  428SOL     OW 2182   2.508   1.741   5.673
  428SOL    HW1 2183   2.504   1.679   5.595
  428SOL    HW2 2184   2.516   1.835   5.641
  429SOL     OW 2185   1.496   5.846   3.697
  429SOL    HW1 2186   1.449   5.934   3.703
  429SOL    HW2 2187   1.466   5.797   3.615
  430SOL     OW 2188   1.591   0.151   3.554
  430SOL    HW1 2189   1.641   0.081   3.503
  430SOL    HW2 2190   1.549   0.215   3.490
  431SOL     OW 2191   2.752   1.795   1.712
  431SOL    HW1 2192   2.687   1.863   1.746
  431SOL    HW2 2193   2.745   1.789   1.612
  432SOL     OW 2194   4.196   2.296   2.051
  432SOL    HW1 2195   4.245   2.365   1.998
  432SOL    HW2 2196   4.098   2.303   2.031
  433SOL     OW 2197   2.473   5.708   0.370
  433SOL    HW1 2198   2.529   5.716   0.288
  433SOL    HW2 2199   2.416   5.790   0.380
  434SOL     OW 2200   4.072   6.270   3.672
  434SOL    HW1 2201   4.085   6.327   3.752
  434SOL    HW2 2202   4.133   6.191   3.676
  435SOL     OW 2203   3.290   1.895   6.331
  435SOL    HW1 2204   3.281   1.847   6.419
  435SOL    HW2 2205   3.285   1.829   6.256
  436SOL     OW 2206   4.913   0.004   2.862
  436SOL    HW1 2207   4.992   6.967   2.873
  436SOL    HW2 2208   4.832   6.971   2.841
  437SOL     OW 2209   6.932   0.241   4.937
  437SOL    HW1 2210   6.925   0.197   5.027
  437SOL    HW2 2211   6.999   0.316   4.942
  438SOL     OW 2212   0.464   4.614   2.841
  438SOL    HW1 2213   0.456   4.524   2.885
  438SOL    HW2 2214   0.456   4.604   2.742
  439SOL     OW 2215   6.406   0.070   3.934
  439SOL    HW1 2216   6.375   0.048   4.026
  439SOL    HW2 2217   6.327   0.080   3.873
  440SOL     OW 2218   3.872   0.821   0.909
  440SOL    HW1 2219   3.953   0.763   0.905
  440SOL    HW2 2220   3.791   0.767   0.890
  441SOL     OW 2221   0.162   4.111   2.377
  441SOL    HW1 2222   0.225   4.154   2.311
  441SOL    HW2 2223   0.142   4.018   2.347
  442SOL     OW 2224   5.407   3.267   5.869
  442SOL    HW1 2225   5.327   3.324   5.854
  442SOL    HW2 2226   5.460   3.260   5.784
  443SOL     OW 2227   4.888   3.261   2.350
  443SOL    HW1 2228   4.857   3.183   2.294
  443SOL    HW2 2229   4.865   3.244   2.446
  444SOL     OW 2230   4.133   1.023   1.613
  444SOL    HW1 2231   4.071   0.968   1.669
  444SOL    HW2 2232   4.081   1.074   1.546
  445SOL     OW 2233   1.494   5.866   1.966
  445SOL    HW1 2234   1.568   5.808   1.931
  445SOL    HW2 2235   1.448   5.819   2.041
  446SOL     OW 2236   5.441   0.213   1.521
  446SOL    HW1 2237   5.368   0.281   1.519
  446SOL    HW2 2238   5.501   0.227   1.441
  447SOL     OW 2239   6.309   4.719   0.589
  447SOL    HW1 2240   6.232   4.660   0.614
  447SOL    HW2 2241   6.391   4.689   0.638
  448SOL     OW 2242   2.714   6.816   3.187
  448SOL    HW1 2243   2.671   6.891   3.136
  448SOL    HW2 2244   2.647   6.776   3.250
  449SOL     OW 2245   1.699   3.791   5.142
  449SOL    HW1 2246   1.736   3.773   5.233
  449SOL    HW2 2247   1.699   3.889   5.124
  450SOL     OW 2248   0.603   5.094   3.577
  450SOL    HW1 2249   0.624   5.091   3.675
  450SOL    HW2 2250   0.654   5.022   3.530
  451SOL     OW 2251   0.769   2.043   2.582
  451SOL    HW1 2252   0.829   1.976   2.539
  451SOL    HW2 2253   0.755   2.019   2.678
  452SOL     OW 2254   4.903   5.487   2.032
  452SOL    HW1 2255   4.944   5.495   1.941
  452SOL    HW2 2256   4.805   5.473   2.023
  453SOL     OW 2257   3.503   0.473   6.327
  453SOL    HW1 2258   3.489   0.550   6.264
  453SOL    HW2 2259   3.431   0.405   6.313
  454SOL     OW 2260   6.629   3.477   6.467
  454SOL    HW1 2261   6.672   3.393   6.500
  454SOL    HW2 2262   6.654   3.493   6.372
  455SOL     OW 2263   6.113   4.505   6.561
  455SOL    HW1 2264   6.131   4.563   6.640
  455SOL    HW2 2265   6.180   4.524   6.489
  456SOL     OW 2266   2.957   1.039   2.402
  456SOL    HW1 2267   2.881   0.974   2.394
  456SOL    HW2 2268   2.925   1.124   2.444
  457SOL     OW 2269   2.737   0.417   0.061
  457SOL    HW1 2270   2.733   0.333   0.006
  457SOL    HW2 2271   2.666   0.413   0.131
  458SOL     OW 2272   3.207   1.208   3.409
  458SOL    HW1 2273   3.112   1.199   3.380
  458SOL    HW2 2274   3.259   1.256   3.337
  459SOL     OW 2275   3.484   0.091   3.844
  459SOL    HW1 2276   3.499   0.190   3.844
  459SOL    HW2 2277   3.553   0.048   3.903
  460SOL     OW 2278   1.247   1.331   5.941
  460SOL    HW1 2279   1.179   1.356   5.872
  460SOL    HW2 2280   1.264   1.233   5.936
  461SOL     OW 2281   0.950   5.008   5.787
  461SOL    HW1 2282   0.863   4.978   5.828
  461SOL    HW2 2283   0.937   5.021   5.689
  462SOL     OW 2284   3.031   3.845   5.191
  462SOL    HW1 2285   3.017   3.876   5.097
  462SOL    HW2 2286   3.126   3.862   5.217
  463SOL     OW 2287   5.355   6.706   2.701
  463SOL    HW1 2288   5.407   6.739   2.622
  463SOL    HW2 2289   5.401   6.625   2.739
  464SOL     OW 2290   3.896   5.341   6.058
  464SOL    HW1 2291   3.810   5.320   6.104
  464SOL    HW2 2292   3.890   5.432   6.016
  465SOL     OW 2293   0.771   3.592   1.258
  465SOL    HW1 2294   0.791   3.649   1.178
  465SOL    HW2 2295   0.718   3.645   1.324
  466SOL     OW 2296   4.074   5.316   4.768
  466SOL    HW1 2297   4.092   5.384   4.697
  466SOL    HW2 2298   4.160   5.280   4.803
  467SOL     OW 2299   6.557   0.008   1.585
  467SOL    HW1 2300   6.572   0.086   1.647
  467SOL    HW2 2301   6.644   7.005   1.544
  468SOL     OW 2302   3.049   0.183   6.195
  468SOL    HW1 2303   2.967   0.188   6.139
  468SOL    HW2 2304   3.091   0.093   6.186
  469SOL     OW 2305   3.128   4.753   5.836
  469SOL    HW1 2306   3.070   4.683   5.794
  469SOL    HW2 2307   3.175   4.805   5.765
  470SOL     OW 2308   2.150   5.089   2.933
  470SOL    HW1 2309   2.131   4.998   2.896
  470SOL    HW2 2310   2.151   5.085   3.033
  471SOL     OW 2311   1.711   2.339   4.290
  471SOL    HW1 2312   1.759   2.363   4.206
  471SOL    HW2 2313   1.778   2.329   4.364
  472SOL     OW 2314   5.869   3.665   6.337
  472SOL    HW1 2315   5.817   3.727   6.397
  472SOL    HW2 2316   5.830   3.573   6.343
  473SOL     OW 2317   6.727   2.835   1.884
  473SOL    HW1 2318   6.718   2.787   1.972
  473SOL    HW2 2319   6.797   2.790   1.829
  474SOL     OW 2320   5.083   6.084   3.762
  474SOL    HW1 2321   5.004   6.146   3.756
  474SOL    HW2 2322   5.058   6.003   3.815
  475SOL     OW 2323   6.076   1.733   0.616
  475SOL    HW1 2324   5.997   1.701   0.668
  475SOL    HW2 2325   6.087   1.832   0.629
  476SOL     OW 2326   0.950   4.816   1.480
  476SOL    HW1 2327   0.902   4.862   1.405
  476SOL    HW2 2328   1.044   4.796   1.453
  477SOL     OW 2329   1.778   4.679   3.530
  477SOL    HW1 2330   1.866   4.711   3.493
  477SOL    HW2 2331   1.733   4.754   3.579
  478SOL     OW 2332   5.190   5.817   2.154
  478SOL    HW1 2333   5.167   5.775   2.066
  478SOL    HW2 2334   5.217   5.746   2.220
  479SOL     OW 2335   3.266   4.117   3.903
  479SOL    HW1 2336   3.210   4.142   3.982
  479SOL    HW2 2337   3.216   4.054   3.844
  480SOL     OW 2338   2.149   0.921   2.869
  480SOL    HW1 2339   2.104   0.832   2.859
  480SOL    HW2 2340   2.086   0.993   2.844
  481SOL     OW 2341   0.120   7.017   0.637
  481SOL    HW1 2342   0.118   0.055   0.558
  481SOL    HW2 2343   0.210   7.022   0.681
  482SOL     OW 2344   4.134   5.239   1.390
  482SOL    HW1 2345   4.045   5.198   1.409
  482SOL    HW2 2346   4.170   5.201   1.304
  483SOL     OW 2347   5.332   1.755   3.897
  483SOL    HW1 2348   5.419   1.804   3.891
  483SOL    HW2 2349   5.319   1.700   3.815
  484SOL     OW 2350   2.133   4.913   4.826
  484SOL    HW1 2351   2.210   4.879   4.772
  484SOL    HW2 2352   2.108   5.005   4.794
  485SOL     OW 2353   5.534   3.229   1.791
  485SOL    HW1 2354   5.488   3.196   1.873
  485SOL    HW2 2355   5.483   3.199   1.710
  486SOL     OW 2356   6.163   6.356   6.506
  486SOL    HW1 2357   6.245   6.408   6.483
  486SOL    HW2 2358   6.091   6.419   6.536
  487SOL     OW 2359   6.693   6.996   5.709
  487SOL    HW1 2360   6.739   0.053   5.748
  487SOL    HW2 2361   6.726   6.913   5.754
  488SOL     OW 2362   1.938   6.196   2.902
  488SOL    HW1 2363   1.987   6.224   2.985
  488SOL    HW2 2364   1.862   6.259   2.886
  489SOL     OW 2365   1.206   5.940   6.562
  489SOL    HW1 2366   1.121   5.910   6.604
  489SOL    HW2 2367   1.253   5.860   6.522
  490SOL     OW 2368   1.136   4.074   4.697
  490SOL    HW1 2369   1.175   4.166   4.690
  490SOL    HW2 2370   1.047   4.073   4.652
  491SOL     OW 2371   0.495   2.714   0.984
  491SOL    HW1 2372   0.503   2.810   1.008
  491SOL    HW2 2373   0.576   2.665   1.016
  492SOL     OW 2374   1.506   2.312   5.904
  492SOL    HW1 2375   1.509   2.336   6.001
  492SOL    HW2 2376   1.566   2.373   5.853
  493SOL     OW 2377   2.459   5.692   4.887
  493SOL    HW1 2378   2.471   5.784   4.849
  493SOL    HW2 2379   2.536   5.670   4.946
  494SOL     OW 2380   2.341   6.703   5.135
  494SOL    HW1 2381   2.283   6.640   5.084
  494SOL    HW2 2382   2.378   6.772   5.073
  495SOL     OW 2383   3.996   4.151   5.961
  495SOL    HW1 2384   3.910   4.144   5.912
  495SOL    HW2 2385   4.072   4.137   5.897
  496SOL     OW 2386   4.758   1.363   3.285
  496SOL    HW1 2387   4.834   1.407   3.332
  496SOL    HW2 2388   4.793   1.294   3.222
  497SOL     OW 2389   4.111   2.102   0.126
  497SOL    HW1 2390   4.172   2.042   0.179
  497SOL    HW2 2391   4.161   2.138   0.047
  498SOL     OW 2392   0.882   6.830   1.602
  498SOL    HW1 2393   0.861   6.849   1.506
  498SOL    HW2 2394   0.940   6.903   1.638
  499SOL     OW 2395   2.993   6.249   6.804
  499SOL    HW1 2396   3.089   6.262   6.779
  499SOL    HW2 2397   2.986   6.226   6.901
  500SOL     OW 2398   6.108   2.019   0.612
  500SOL    HW1 2399   6.065   1.998   0.524
  500SOL    HW2 2400   6.191   2.072   0.596
  501SOL     OW 2401   0.907   1.233   4.164
  501SOL    HW1 2402   0.998   1.191   4.168
  501SOL    HW2 2403   0.880   1.242   4.068
  502SOL     OW 2404   2.119   5.000   6.586
  502SOL    HW1 2405   2.075   4.975   6.672
  502SOL    HW2 2406   2.216   4.979   6.590
  503SOL     OW 2407   3.820   4.916   0.020
  503SOL    HW1 2408   3.867   4.847   0.076
  503SOL    HW2 2409   3.818   4.886   6.948
  504SOL     OW 2410   5.933   6.601   1.366
  504SOL    HW1 2411   5.937   6.682   1.425
  504SOL    HW2 2412   5.997   6.532   1.401
  505SOL     OW 2413   4.375   6.211   4.849
  505SOL    HW1 2414   4.321   6.266   4.786
  505SOL    HW2 2415   4.413   6.270   4.920
  506SOL     OW 2416   4.265   5.019   2.498
  506SOL    HW1 2417   4.247   4.926   2.464
  506SOL    HW2 2418   4.181   5.072   2.498
  507SOL     OW 2419   2.768   0.952   0.539
  507SOL    HW1 2420   2.795   0.862   0.574
  507SOL    HW2 2421   2.830   0.979   0.465
  508SOL     OW 2422   6.945   4.636   3.409
  508SOL    HW1 2423   6.915   4.697   3.335
  508SOL    HW2 2424   6.899   4.548   3.400
  509SOL     OW 2425   4.548   6.977   6.470
  509SOL    HW1 2426   4.627   6.923   6.442
  509SOL    HW2 2427   4.530   0.025   6.402
  510SOL     OW 2428   6.631   4.105   0.451
  510SOL    HW1 2429   6.534   4.106   0.425
  510SOL    HW2 2430   6.687   4.127   0.371
  511SOL     OW 2431   0.759   2.059   0.633
  511SOL    HW1 2432   0.758   2.118   0.553
  511SOL    HW2 2433   0.765   1.964   0.604
  512SOL     OW 2434   0.277   2.281   5.176
  512SOL    HW1 2435   0.223   2.362   5.201
  512SOL    HW2 2436   0.327   2.248   5.256
  513SOL     OW 2437   5.407   1.136   3.247
  513SOL    HW1 2438   5.333   1.097   3.302
  513SOL    HW2 2439   5.451   1.064   3.194
  514SOL     OW 2440   6.342   0.016   4.621
  514SOL    HW1 2441   6.340   6.939   4.619
  514SOL    HW2 2442   6.405   0.049   4.551
  515SOL     OW 2443   3.931   0.611   5.657
  515SOL    HW1 2444   3.955   0.625   5.561
  515SOL    HW2 2445   4.003   0.557   5.701
  516SOL     OW 2446   2.255   6.116   1.615
  516SOL    HW1 2447   2.310   6.200   1.610
  516SOL    HW2 2448   2.305   6.040   1.574
  517SOL     OW 2449   3.570   5.669   0.927
  517SOL    HW1 2450   3.511   5.702   0.854
  517SOL    HW2 2451   3.621   5.746   0.966
  518SOL     OW 2452   2.052   3.273   3.866
  518SOL    HW1 2453   2.000   3.358   3.878
  518SOL    HW2 2454   2.149   3.292   3.883
  519SOL     OW 2455   0.303   0.248   2.687
  519SOL    HW1 2456   0.226   0.286   2.636
  519SOL    HW2 2457   0.328   0.312   2.760
  520SOL     OW 2458   1.073   3.589   0.668
  520SOL    HW1 2459   1.082   3.491   0.649
  520SOL    HW2 2460   1.032   3.635   0.589
  521SOL     OW 2461   6.350   6.549   5.073
  521SOL    HW1 2462   6.336   6.466   5.126
  521SOL    HW2 2463   6.321   6.628   5.127
  522SOL     OW 2464   3.625   4.020   1.648
  522SOL    HW1 2465   3.704   4.008   1.588
  522SOL    HW2 2466   3.645   3.981   1.738
  523SOL     OW 2467   1.050   0.180   1.204
  523SOL    HW1 2468   1.031   0.183   1.302
  523SOL    HW2 2469   1.127   0.118   1.187
  524SOL     OW 2470   7.014   2.205   1.943
  524SOL    HW1 2471   0.085   2.190   1.913
  524SOL    HW2 2472   6.954   2.216   1.863
  525SOL     OW 2473   1.302   3.157   5.546
  525SOL    HW1 2474   1.246   3.134   5.626
  525SOL    HW2 2475   1.397   3.171   5.575
  526SOL     OW 2476   3.139   6.820   4.465
  526SOL    HW1 2477   3.142   6.731   4.420
  526SOL    HW2 2478   3.057   6.869   4.437
  527SOL     OW 2479   0.438   0.847   0.695
  527SOL    HW1 2480   0.458   0.891   0.783
  527SOL    HW2 2481   0.505   0.776   0.677
  528SOL     OW 2482   6.677   3.412   4.137
  528SOL    HW1 2483   6.582   3.416   4.168
  528SOL    HW2 2484   6.722   3.332   4.177
  529SOL     OW 2485   1.600   1.136   0.161
  529SOL    HW1 2486   1.657   1.161   0.239
  529SOL    HW2 2487   1.655   1.139   0.077
  530SOL     OW 2488   4.253   3.954   0.909
  530SOL    HW1 2489   4.306   4.036   0.933
  530SOL    HW2 2490   4.249   3.945   0.809
  531SOL     OW 2491   1.143   0.809   1.028
  531SOL    HW1 2492   1.107   0.716   1.034
  531SOL    HW2 2493   1.160   0.844   1.120
  532SOL     OW 2494   1.815   2.353   0.266
  532SOL    HW1 2495   1.831   2.420   0.339
  532SOL    HW2 2496   1.895   2.350   0.206
  533SOL     OW 2497   3.947   0.529   4.274
  533SOL    HW1 2498   3.913   0.610   4.322
  533SOL    HW2 2499   3.932   0.448   4.330
  534SOL     OW 2500   1.726   4.860   1.161
  534SOL    HW1 2501   1.723   4.770   1.205
  534SOL    HW2 2502   1.642   4.910   1.182
  535SOL     OW 2503   5.400   3.622   3.659
  535SOL    HW1 2504   5.307   3.590   3.679
  535SOL    HW2 2505   5.406   3.720   3.674
  536SOL     OW 2506   6.914   6.728   2.110
  536SOL    HW1 2507   6.837   6.677   2.148
  536SOL    HW2 2508   6.998   6.674   2.118
  537SOL     OW 2509   4.038   1.522   4.372
  537SOL    HW1 2510   4.015   1.513   4.469
  537SOL    HW2 2511   4.136   1.505   4.360
  538SOL     OW 2512   2.937   4.917   5.545
  538SOL    HW1 2513   2.854   4.915   5.490
  538SOL    HW2 2514   2.931   4.992   5.611
  539SOL     OW 2515   1.424   0.119   0.408
  539SOL    HW1 2516   1.355   0.191   0.402
  539SOL    HW2 2517   1.427   0.069   0.322
  540SOL     OW 2518   0.895   0.279   4.327
  540SOL    HW1 2519   0.974   0.340   4.338
  540SOL    HW2 2520   0.890   0.218   4.407
  541SOL     OW 2521   4.467   5.521   4.578
  541SOL    HW1 2522   4.495   5.488   4.669
  541SOL    HW2 2523   4.526   5.480   4.509
  542SOL     OW 2524   3.343   0.511   5.615
  542SOL    HW1 2525   3.412   0.577   5.645
  542SOL    HW2 2526   3.350   0.499   5.516
  543SOL     OW 2527   6.108   2.195   4.364
  543SOL    HW1 2528   6.185   2.255   4.385
  543SOL    HW2 2529   6.068   2.160   4.450
  544SOL     OW 2530   1.501   4.125   1.398
  544SOL    HW1 2531   1.571   4.195   1.411
  544SOL    HW2 2532   1.542   4.042   1.361
  545SOL     OW 2533   5.683   1.379   1.167
  545SOL    HW1 2534   5.741   1.298   1.154
  545SOL    HW2 2535   5.647   1.378   1.261
  546SOL     OW 2536   0.321   4.319   2.660
  546SOL    HW1 2537   0.405   4.277   2.627
  546SOL    HW2 2538   0.253   4.248   2.678
  547SOL     OW 2539   4.485   1.147   6.007
  547SOL    HW1 2540   4.525   1.189   6.089
  547SOL    HW2 2541   4.390   1.177   5.998
  548SOL     OW 2542   3.480   2.342   6.780
  548SOL    HW1 2543   3.381   2.329   6.788
  548SOL    HW2 2544   3.527   2.280   6.843
  549SOL     OW 2545   6.246   1.547   1.387
  549SOL    HW1 2546   6.321   1.567   1.323
  549SOL    HW2 2547   6.159   1.547   1.337
  550SOL     OW 2548   7.017   5.263   3.402
  550SOL    HW1 2549   6.935   5.232   3.451
  550SOL    HW2 2550   7.002   5.253   3.304
  551SOL     OW 2551   6.487   0.685   0.557
  551SOL    HW1 2552   6.507   0.622   0.482
  551SOL    HW2 2553   6.413   0.649   0.613
  552SOL     OW 2554   6.186   5.108   5.369
  552SOL    HW1 2555   6.133   5.024   5.357
  552SOL    HW2 2556   6.200   5.126   5.467
  553SOL     OW 2557   3.010   0.925   6.207
  553SOL    HW1 2558   2.968   0.999   6.259
  553SOL    HW2 2559   3.058   0.963   6.128
  554SOL     OW 2560   5.868   6.239   1.083
  554SOL    HW1 2561   5.961   6.230   1.046
  554SOL    HW2 2562   5.843   6.336   1.085
  555SOL     OW 2563   1.404   3.927   5.721
  555SOL    HW1 2564   1.410   3.841   5.772
  555SOL    HW2 2565   1.309   3.956   5.717
  556SOL     OW 2566   5.290   0.365   4.250
  556SOL    HW1 2567   5.275   0.347   4.347
  556SOL    HW2 2568   5.369   0.425   4.239
  557SOL     OW 2569   6.511   4.452   6.706
  557SOL    HW1 2570   6.586   4.398   6.744
  557SOL    HW2 2571   6.449   4.479   6.780
  558SOL     OW 2572   2.970   3.791   2.268
  558SOL    HW1 2573   2.924   3.872   2.231
  558SOL    HW2 2574   3.055   3.776   2.219
  559SOL     OW 2575   6.202   6.694   5.610
  559SOL    HW1 2576   6.168   6.734   5.695
  559SOL    HW2 2577   6.126   6.655   5.558
  560SOL     OW 2578   6.473   3.275   3.017
  560SOL    HW1 2579   6.410   3.257   3.092
  560SOL    HW2 2580   6.470   3.199   2.951
  561SOL     OW 2581   0.791   3.153   6.756
  561SOL    HW1 2582   0.730   3.190   6.825
  561SOL    HW2 2583   0.877   3.204   6.757
  562SOL     OW 2584   3.896   0.303   5.541
  562SOL    HW1 2585   3.809   0.254   5.543
  562SOL    HW2 2586   3.916   0.331   5.447
  563SOL     OW 2587   2.207   1.605   4.204
  563SOL    HW1 2588   2.189   1.634   4.298
  563SOL    HW2 2589   2.121   1.600   4.154
  564SOL     OW 2590   6.866   2.154   5.336
  564SOL    HW1 2591   6.778   2.194   5.363
  564SOL    HW2 2592   6.933   2.169   5.409
  565SOL     OW 2593   4.097   3.340   3.347
  565SOL    HW1 2594   4.117   3.388   3.432
  565SOL    HW2 2595   4.116   3.401   3.269
  566SOL     OW 2596   3.426   6.650   2.985
  566SOL    HW1 2597   3.475   6.667   2.899
  566SOL    HW2 2598   3.487   6.671   3.062
  567SOL     OW 2599   2.160   3.213   6.519
  567SOL    HW1 2600   2.180   3.115   6.520
  567SOL    HW2 2601   2.065   3.227   6.491
  568SOL     OW 2602   6.745   6.440   0.819
  568SOL    HW1 2603   6.675   6.503   0.786
  568SOL    HW2 2604   6.765   6.373   0.748
  569SOL     OW 2605   6.445   2.220   0.629
  569SOL    HW1 2606   6.500   2.298   0.656
  569SOL    HW2 2607   6.441   2.154   0.704
  570SOL     OW 2608   2.551   0.829   5.749
  570SOL    HW1 2609   2.591   0.919   5.730
  570SOL    HW2 2610   2.535   0.781   5.662
  571SOL     OW 2611   2.217   5.046   2.078
  571SOL    HW1 2612   2.165   5.130   2.091
  571SOL    HW2 2613   2.240   5.007   2.168
  572SOL     OW 2614   2.812   0.050   4.078
  572SOL    HW1 2615   2.726   0.100   4.069
  572SOL    HW2 2616   2.796   6.976   4.060
  573SOL     OW 2617   0.214   1.044   5.482
  573SOL    HW1 2618   0.145   1.037   5.554
  573SOL    HW2 2619   0.242   1.140   5.474
  574SOL     OW 2620   2.533   2.030   5.619
  574SOL    HW1 2621   2.482   2.116   5.611
  574SOL    HW2 2622   2.618   2.037   5.568
  575SOL     OW 2623   3.160   3.299   0.452
  575SOL    HW1 2624   3.157   3.398   0.464
  575SOL    HW2 2625   3.250   3.272   0.420
  576SOL     OW 2626   2.118   2.971   2.682
  576SOL    HW1 2627   2.120   3.011   2.590
  576SOL    HW2 2628   2.118   3.043   2.750
  577SOL     OW 2629   0.965   1.425   2.177
  577SOL    HW1 2630   0.937   1.399   2.269
  577SOL    HW2 2631   0.911   1.375   2.110
  578SOL     OW 2632   2.250   6.465   6.621
  578SOL    HW1 2633   2.270   6.553   6.663
  578SOL    HW2 2634   2.231   6.398   6.693
  579SOL     OW 2635   2.449   4.933   1.990
  579SOL    HW1 2636   2.354   4.949   2.019
  579SOL    HW2 2637   2.460   4.838   1.962
  580SOL     OW 2638   4.309   5.061   4.575
  580SOL    HW1 2639   4.283   4.980   4.628
  580SOL    HW2 2640   4.321   5.139   4.638
  581SOL     OW 2641   1.826   2.594   4.515
  581SOL    HW1 2642   1.854   2.596   4.419
  581SOL    HW2 2643   1.907   2.601   4.574
  582SOL     OW 2644   5.929   5.657   3.544
  582SOL    HW1 2645   5.966   5.711   3.620
  582SOL    HW2 2646   5.873   5.715   3.486
  583SOL     OW 2647   3.538   5.213   5.759
  583SOL    HW1 2648   3.515   5.263   5.843
  583SOL    HW2 2649   3.625   5.165   5.771
  584SOL     OW 2650   4.288   0.846   5.774
  584SOL    HW1 2651   4.296   0.919   5.842
  584SOL    HW2 2652   4.192   0.816   5.769
  585SOL     OW 2653   3.075   6.922   1.827
  585SOL    HW1 2654   3.096   7.019   1.820
  585SOL    HW2 2655   3.138   6.879   1.892
  586SOL     OW 2656   4.562   0.338   1.043
  586SOL    HW1 2657   4.488   0.387   0.998
  586SOL    HW2 2658   4.534   0.311   1.135
  587SOL     OW 2659   5.069   1.914   2.183
  587SOL    HW1 2660   4.997   1.944   2.120
  587SOL    HW2 2661   5.071   1.814   2.187
  588SOL     OW 2662   0.907   5.677   2.275
  588SOL    HW1 2663   0.833   5.710   2.216
  588SOL    HW2 2664   0.869   5.628   2.353
  589SOL     OW 2665   3.547   6.137   1.139
  589SOL    HW1 2666   3.611   6.212   1.155
  589SOL    HW2 2667   3.460   6.156   1.185
  590SOL     OW 2668   4.553   1.638   0.243
  590SOL    HW1 2669   4.564   1.595   0.332
  590SOL    HW2 2670   4.481   1.708   0.247
  591SOL     OW 2671   3.903   5.938   4.707
  591SOL    HW1 2672   3.952   5.852   4.716
  591SOL    HW2 2673   3.887   5.958   4.610
  592SOL     OW 2674   4.286   2.303   3.748
  592SOL    HW1 2675   4.276   2.302   3.848
  592SOL    HW2 2676   4.196   2.293   3.706
  593SOL     OW 2677   3.344   1.265   5.959
  593SOL    HW1 2678   3.325   1.350   5.909
  593SOL    HW2 2679   3.409   1.284   6.033
  594SOL     OW 2680   5.776   1.692   2.070
  594SOL    HW1 2681   5.716   1.626   2.114
  594SOL    HW2 2682   5.867   1.653   2.058
  595SOL     OW 2683   5.175   6.036   2.465
  595SOL    HW1 2684   5.096   5.980   2.491
  595SOL    HW2 2685   5.203   6.092   2.543
  596SOL     OW 2686   6.541   4.667   4.262
  596SOL    HW1 2687   6.582   4.712   4.182
  596SOL    HW2 2688   6.447   4.640   4.241
  597SOL     OW 2689   2.873   0.469   6.272
  597SOL    HW1 2690   2.935   0.548   6.270
  597SOL    HW2 2691   2.913   0.396   6.326
  598SOL     OW 2692   3.054   3.181   4.159
  598SOL    HW1 2693   3.110   3.115   4.209
  598SOL    HW2 2694   3.025   3.253   4.221
  599SOL     OW 2695   1.410   5.850   1.655
  599SOL    HW1 2696   1.485   5.823   1.716
  599SOL    HW2 2697   1.382   5.943   1.676
  600SOL     OW 2698   0.020   3.898   4.805
  600SOL    HW1 2699   0.108   3.904   4.853
  600SOL    HW2 2700   0.035   3.916   4.707
  601SOL     OW 2701   1.602   0.254   4.848
  601SOL    HW1 2702   1.683   0.310   4.830
  601SOL    HW2 2703   1.608   0.169   4.796
  602SOL     OW 2704   2.755   6.499   3.913
  602SOL    HW1 2705   2.784   6.525   4.005
  602SOL    HW2 2706   2.713   6.408   3.916
  603SOL     OW 2707   1.479   1.060   5.464
  603SOL    HW1 2708   1.402   1.082   5.403
  603SOL    HW2 2709   1.564   1.094   5.424
  604SOL     OW 2710   6.554   2.724   1.374
  604SOL    HW1 2711   6.480   2.789   1.392
  604SOL    HW2 2712   6.570   2.668   1.455
  605SOL     OW 2713   0.191   5.611   2.507
  605SOL    HW1 2714   0.120   5.674   2.540
  605SOL    HW2 2715   0.189   5.610   2.407
  606SOL     OW 2716   3.830   6.824   4.924
  606SOL    HW1 2717   3.885   6.893   4.971
  606SOL    HW2 2718   3.846   6.829   4.826
  607SOL     OW 2719   0.859   4.528   6.352
  607SOL    HW1 2720   0.887   4.571   6.266
  607SOL    HW2 2721   0.896   4.435   6.356
  608SOL     OW 2722   2.950   1.184   5.357
  608SOL    HW1 2723   2.883   1.259   5.355
  608SOL    HW2 2724   2.951   1.139   5.267
  609SOL     OW 2725   3.665   2.795   1.811
  609SOL    HW1 2726   3.679   2.736   1.891
  609SOL    HW2 2727   3.746   2.790   1.752
  610SOL     OW 2728   4.904   3.450   0.490
  610SOL    HW1 2729   4.999   3.421   0.482
  610SOL    HW2 2730   4.897   3.547   0.467
  611SOL     OW 2731   3.973   0.216   2.620
  611SOL    HW1 2732   3.875   0.236   2.631
  611SOL    HW2 2733   4.022   0.247   2.702
  612SOL     OW 2734   3.850   4.632   5.984
  612SOL    HW1 2735   3.930   4.597   6.033
  612SOL    HW2 2736   3.786   4.557   5.967
  613SOL     OW 2737   4.342   5.278   5.383
  613SOL    HW1 2738   4.298   5.366   5.368
  613SOL    HW2 2739   4.332   5.251   5.479
  614SOL     OW 2740   4.362   5.244   5.953
  614SOL    HW1 2741   4.371   5.277   6.047
  614SOL    HW2 2742   4.277   5.278   5.913
  615SOL     OW 2743   0.548   5.297   1.539
  615SOL    HW1 2744   0.642   5.309   1.572
  615SOL    HW2 2745   0.505   5.386   1.530
  616SOL     OW 2746   5.814   3.511   2.946
  616SOL    HW1 2747   5.825   3.484   3.042
  616SOL    HW2 2748   5.905   3.516   2.903
  617SOL     OW 2749   2.605   5.388   6.302
  617SOL    HW1 2750   2.683   5.435   6.344
  617SOL    HW2 2751   2.582   5.433   6.216
  618SOL     OW 2752   1.590   0.909   2.389
  618SOL    HW1 2753   1.594   0.901   2.489
  618SOL    HW2 2754   1.495   0.916   2.360
  619SOL     OW 2755   1.203   1.102   6.599
  619SOL    HW1 2756   1.159   1.131   6.514
  619SOL    HW2 2757   1.218   1.004   6.598
  620SOL     OW 2758   4.899   3.719   0.378
  620SOL    HW1 2759   4.834   3.775   0.327
  620SOL    HW2 2760   4.986   3.768   0.385
  621SOL     OW 2761   0.211   4.769   1.873
  621SOL    HW1 2762   0.288   4.829   1.893
  621SOL    HW2 2763   0.130   4.803   1.921
  622SOL     OW 2764   1.795   1.578   0.143
  622SOL    HW1 2765   1.861   1.530   0.086
  622SOL    HW2 2766   1.707   1.582   0.097
  623SOL     OW 2767   0.507   4.494   6.748
  623SOL    HW1 2768   0.467   4.464   6.662
  623SOL    HW2 2769   0.601   4.459   6.755
  624SOL     OW 2770   1.017   2.818   3.147
  624SOL    HW1 2771   1.037   2.733   3.097
  624SOL    HW2 2772   0.977   2.885   3.084
  625SOL     OW 2773   2.534   1.816   1.993
  625SOL    HW1 2774   2.570   1.735   2.040
  625SOL    HW2 2775   2.440   1.833   2.023
  626SOL     OW 2776   2.764   6.284   4.537
  626SOL    HW1 2777   2.815   6.345   4.477
  626SOL    HW2 2778   2.828   6.229   4.591
  627SOL     OW 2779   5.548   0.755   0.383
  627SOL    HW1 2780   5.505   0.733   0.470
  627SOL    HW2 2781   5.480   0.752   0.310
  628SOL     OW 2782   4.917   3.989   3.665
  628SOL    HW1 2783   4.925   3.897   3.704
  628SOL    HW2 2784   4.906   3.983   3.566
  629SOL     OW 2785   0.865   0.396   1.169
  629SOL    HW1 2786   0.773   0.359   1.182
  629SOL    HW2 2787   0.930   0.320   1.157
  630SOL     OW 2788   4.192   1.839   1.021
  630SOL    HW1 2789   4.125   1.883   1.081
  630SOL    HW2 2790   4.244   1.909   0.972
  631SOL     OW 2791   2.094   0.280   5.389
  631SOL    HW1 2792   2.179   0.271   5.337
  631SOL    HW2 2793   2.033   0.344   5.343
  632SOL     OW 2794   1.976   1.197   0.797
  632SOL    HW1 2795   1.978   1.247   0.711
  632SOL    HW2 2796   1.904   1.234   0.856
  633SOL     OW 2797   2.657   0.057   6.168
  633SOL    HW1 2798   2.665   0.127   6.238
  633SOL    HW2 2799   2.683   6.991   6.206
  634SOL     OW 2800   3.641   5.787   0.592
  634SOL    HW1 2801   3.643   5.810   0.495
  634SOL    HW2 2802   3.546   5.783   0.624
  635SOL     OW 2803   3.288   0.224   2.436
  635SOL    HW1 2804   3.387   0.209   2.434
  635SOL    HW2 2805   3.251   0.218   2.344
  636SOL     OW 2806   5.277   5.238   0.311
  636SOL    HW1 2807   5.230   5.188   0.238
  636SOL    HW2 2808   5.366   5.196   0.328
  637SOL     OW 2809   4.368   4.604   0.956
  637SOL    HW1 2810   4.399   4.694   0.987
  637SOL    HW2 2811   4.438   4.536   0.978
  638SOL     OW 2812   4.840   1.533   2.479
  638SOL    HW1 2813   4.755   1.485   2.500
  638SOL    HW2 2814   4.827   1.591   2.398
  639SOL     OW 2815   4.396   4.680   2.017
  639SOL    HW1 2816   4.449   4.622   2.078
  639SOL    HW2 2817   4.389   4.637   1.927
  640SOL     OW 2818   2.996   4.235   5.246
  640SOL    HW1 2819   3.073   4.225   5.310
  640SOL    HW2 2820   2.987   4.331   5.220
  641SOL     OW 2821   0.066   6.179   4.940
  641SOL    HW1 2822   0.057   6.115   5.016
  641SOL    HW2 2823   7.008   6.236   4.934
  642SOL     OW 2824   0.754   5.212   4.682
  642SOL    HW1 2825   0.807   5.127   4.673
  642SOL    HW2 2826   0.768   5.250   4.774
  643SOL     OW 2827   6.097   5.596   5.578
  643SOL    HW1 2828   6.044   5.613   5.495
  643SOL    HW2 2829   6.045   5.628   5.658
  644SOL     OW 2830   1.171   6.527   2.456
  644SOL    HW1 2831   1.085   6.497   2.415
  644SOL    HW2 2832   1.165   6.624   2.478
  645SOL     OW 2833   5.777   2.855   3.556
  645SOL    HW1 2834   5.873   2.830   3.564
  645SOL    HW2 2835   5.724   2.775   3.528
  646SOL     OW 2836   2.100   1.723   4.430
  646SOL    HW1 2837   2.134   1.812   4.398
  646SOL    HW2 2838   2.008   1.734   4.466
  647SOL     OW 2839   6.223   3.460   0.473
  647SOL    HW1 2840   6.123   3.459   0.479
  647SOL    HW2 2841   6.251   3.412   0.390
  648SOL     OW 2842   6.118   3.750   1.732
  648SOL    HW1 2843   6.126   3.803   1.817
  648SOL    HW2 2844   6.104   3.654   1.755
  649SOL     OW 2845   4.145   4.512   0.813
  649SOL    HW1 2846   4.227   4.552   0.854
  649SOL    HW2 2847   4.170   4.424   0.770
  650SOL     OW 2848   4.753   4.746   0.655
  650SOL    HW1 2849   4.765   4.736   0.556
  650SOL    HW2 2850   4.842   4.752   0.700
  651SOL     OW 2851   0.895   6.242   6.767
  651SOL    HW1 2852   0.914   6.314   6.834
  651SOL    HW2 2853   0.969   6.175   6.769
  652SOL     OW 2854   3.815   1.462   2.252
  652SOL    HW1 2855   3.755   1.461   2.171
  652SOL    HW2 2856   3.770   1.512   2.326
  653SOL     OW 2857   3.688   4.867   3.761
  653SOL    HW1 2858   3.668   4.878   3.858
  653SOL    HW2 2859   3.787   4.859   3.748
  654SOL     OW 2860   6.695   4.656   0.166
  654SOL    HW1 2861   6.623   4.586   0.164
  654SOL    HW2 2862   6.746   4.653   0.080
  655SOL     OW 2863   0.637   0.644   1.352
  655SOL    HW1 2864   0.584   0.723   1.381
  655SOL    HW2 2865   0.613   0.619   1.259
  656SOL     OW 2866   3.119   6.419   2.160
  656SOL    HW1 2867   3.023   6.435   2.139
  656SOL    HW2 2868   3.127   6.362   2.242
  657SOL     OW 2869   3.463   1.576   6.929
  657SOL    HW1 2870   3.433   1.667   6.902
  657SOL    HW2 2871   3.500   1.528   6.849
  658SOL     OW 2872   3.143   4.076   6.235
  658SOL    HW1 2873   3.047   4.049   6.243
  658SOL    HW2 2874   3.174   4.061   6.141
  659SOL     OW 2875   2.442   6.950   6.796
  659SOL    HW1 2876   2.417   7.011   6.721
  659SOL    HW2 2877   2.526   6.901   6.772
  660SOL     OW 2878   3.513   5.180   2.529
  660SOL    HW1 2879   3.501   5.082   2.539
  660SOL    HW2 2880   3.474   5.211   2.443
  661SOL     OW 2881   4.883   5.537   2.776
  661SOL    HW1 2882   4.914   5.453   2.731
  661SOL    HW2 2883   4.917   5.539   2.870
  662SOL     OW 2884   3.406   1.246   6.861
  662SOL    HW1 2885   3.311   1.263   6.834
  662SOL    HW2 2886   3.464   1.315   6.818
  663SOL     OW 2887   2.355   4.474   5.183
  663SOL    HW1 2888   2.448   4.470   5.219
  663SOL    HW2 2889   2.336   4.391   5.129
  664SOL     OW 2890   6.287   0.823   6.705
  664SOL    HW1 2891   6.205   0.858   6.750
  664SOL    HW2 2892   6.345   0.778   6.773
  665SOL     OW 2893   2.083   5.765   3.094
  665SOL    HW1 2894   2.134   5.797   3.014
  665SOL    HW2 2895   2.011   5.703   3.065
  666SOL     OW 2896   4.283   0.794   1.904
  666SOL    HW1 2897   4.202   0.740   1.881
  666SOL    HW2 2898   4.361   0.734   1.919
  667SOL     OW 2899   0.726   6.615   2.605
  667SOL    HW1 2900   0.643   6.562   2.623
  667SOL    HW2 2901   0.793   6.596   2.677
  668SOL     OW 2902   5.501   3.744   6.768
  668SOL    HW1 2903   5.570   3.688   6.722
  668SOL    HW2 2904   5.425   3.761   6.706
  669SOL     OW 2905   5.094   1.626   3.154
  669SOL    HW1 2906   5.076   1.535   3.117
  669SOL    HW2 2907   5.057   1.695   3.092
  670SOL     OW 2908   2.079   2.223   3.538
  670SOL    HW1 2909   2.076   2.132   3.498
  670SOL    HW2 2910   2.011   2.230   3.612
  671SOL     OW 2911   2.693   6.488   1.515
  671SOL    HW1 2912   2.715   6.437   1.432
  671SOL    HW2 2913   2.667   6.424   1.587
  672SOL     OW 2914   0.957   7.009   2.497
  672SOL    HW1 2915   1.017   0.063   2.517
  672SOL    HW2 2916   0.992   6.927   2.543
  673SOL     OW 2917   5.099   6.943   0.718
  673SOL    HW1 2918   5.177   6.926   0.658
  673SOL    HW2 2919   5.127   6.930   0.813
  674SOL     OW 2920   0.297   0.572   4.944
  674SOL    HW1 2921   0.360   0.550   4.870
  674SOL    HW2 2922   0.280   0.670   4.946
  675SOL     OW 2923   6.294   3.216   2.513
  675SOL    HW1 2924   6.262   3.310   2.497
  675SOL    HW2 2925   6.233   3.171   2.578
  676SOL     OW 2926   2.077   5.931   5.644
  676SOL    HW1 2927   2.177   5.925   5.637
  676SOL    HW2 2928   2.048   5.891   5.731
  677SOL     OW 2929   4.600   1.028   0.845
  677SOL    HW1 2930   4.585   1.120   0.807
  677SOL    HW2 2931   4.594   0.961   0.772
  678SOL     OW 2932   1.737   4.467   5.303
  678SOL    HW1 2933   1.693   4.547   5.261
  678SOL    HW2 2934   1.836   4.483   5.309
  679SOL     OW 2935   5.072   1.968   5.381
  679SOL    HW1 2936   5.018   1.895   5.339
  679SOL    HW2 2937   5.129   1.931   5.453
  680SOL     OW 2938   4.551   6.726   3.993
  680SOL    HW1 2939   4.481   6.656   3.982
  680SOL    HW2 2940   4.624   6.710   3.927
  681SOL     OW 2941   4.913   5.253   2.157
  681SOL    HW1 2942   4.916   5.347   2.125
  681SOL    HW2 2943   4.857   5.198   2.095
  682SOL     OW 2944   0.695   0.899   3.424
  682SOL    HW1 2945   0.775   0.937   3.377
  682SOL    HW2 2946   0.720   0.876   3.518
  683SOL     OW 2947   4.074   3.546   1.154
  683SOL    HW1 2948   4.172   3.564   1.169
  683SOL    HW2 2949   4.029   3.533   1.243
  684SOL     OW 2950   6.325   0.318   5.759
  684SOL    HW1 2951   6.366   0.390   5.815
  684SOL    HW2 2952   6.356   0.229   5.792
  685SOL     OW 2953   3.753   0.315   3.003
  685SOL    HW1 2954   3.715   0.356   3.086
  685SOL    HW2 2955   3.692   0.332   2.926
  686SOL     OW 2956   4.155   0.975   4.821
  686SOL    HW1 2957   4.186   0.992   4.728
  686SOL    HW2 2958   4.131   0.878   4.831
  687SOL     OW 2959   1.534   1.653   4.299
  687SOL    HW1 2960   1.532   1.738   4.352
  687SOL    HW2 2961   1.581   1.670   4.212
  688SOL     OW 2962   6.095   1.329   6.802
  688SOL    HW1 2963   6.114   1.269   6.723
  688SOL    HW2 2964   6.125   1.284   6.886
  689SOL     OW 2965   1.500   5.326   5.663
  689SOL    HW1 2966   1.530   5.249   5.607
  689SOL    HW2 2967   1.571   5.350   5.729
  690SOL     OW 2968   5.645   3.547   2.443
  690SOL    HW1 2969   5.591   3.630   2.430
  690SOL    HW2 2970   5.589   3.477   2.488
  691SOL     OW 2971   4.523   1.538   6.760
  691SOL    HW1 2972   4.512   1.597   6.841
  691SOL    HW2 2973   4.441   1.481   6.749
  692SOL     OW 2974   2.767   1.267   4.591
  692SOL    HW1 2975   2.786   1.249   4.688
  692SOL    HW2 2976   2.759   1.180   4.543
  693SOL     OW 2977   5.319   6.177   3.836
  693SOL    HW1 2978   5.393   6.109   3.842
  693SOL    HW2 2979   5.233   6.130   3.819
  694SOL     OW 2980   4.235   5.522   5.059
  694SOL    HW1 2981   4.148   5.571   5.051
  694SOL    HW2 2982   4.306   5.573   5.011
  695SOL     OW 2983   3.389   6.928   4.411
  695SOL    HW1 2984   3.448   6.941   4.490
  695SOL    HW2 2985   3.297   6.903   4.442
  696SOL     OW 2986   4.730   4.601   3.136
  696SOL    HW1 2987   4.654   4.650   3.178
  696SOL    HW2 2988   4.762   4.652   3.056
  697SOL     OW 2989   0.204   5.166   2.534
  697SOL    HW1 2990   0.249   5.255   2.537
  697SOL    HW2 2991   0.119   5.174   2.483
  698SOL     OW 2992   5.502   0.244   1.265
  698SOL    HW1 2993   5.549   0.315   1.213
  698SOL    HW2 2994   5.409   0.233   1.229
  699SOL     OW 2995   2.123   2.263   1.149
  699SOL    HW1 2996   2.191   2.208   1.102
  699SOL    HW2 2997   2.031   2.234   1.123
  700SOL     OW 2998   3.802   6.756   2.536
  700SOL    HW1 2999   3.805   6.799   2.446
  700SOL    HW2 3000   3.878   6.790   2.591
  701SOL     OW 3001   6.160   5.064   1.143
  701SOL    HW1 3002   6.165   5.145   1.084
  701SOL    HW2 3003   6.190   4.984   1.091
  702SOL     OW 3004   2.810   0.996   3.958
  702SOL    HW1 3005   2.860   0.913   3.932
  702SOL    HW2 3006   2.807   1.002   4.058
  703SOL     OW 3007   3.066   2.661   6.128
  703SOL    HW1 3008   3.103   2.700   6.044
  703SOL    HW2 3009   3.130   2.594   6.165
  704SOL     OW 3010   1.356   2.690   6.008
  704SOL    HW1 3011   1.270   2.671   6.055
  704SOL    HW2 3012   1.431   2.688   6.074
  705SOL     OW 3013   0.328   6.180   4.611
  705SOL    HW1 3014   0.268   6.103   4.590
  705SOL    HW2 3015   0.282   6.244   4.673
  706SOL     OW 3016   4.615   1.167   5.135
  706SOL    HW1 3017   4.543   1.163   5.067
  706SOL    HW2 3018   4.610   1.087   5.195
  707SOL     OW 3019   3.377   4.922   3.438
  707SOL    HW1 3020   3.366   4.889   3.344
  707SOL    HW2 3021   3.472   4.909   3.466
  708SOL     OW 3022   3.303   0.572   3.435
  708SOL    HW1 3023   3.297   0.503   3.507
  708SOL    HW2 3024   3.380   0.633   3.453
  709SOL     OW 3025   2.198   0.229   1.503
  709SOL    HW1 3026   2.104   0.208   1.530
  709SOL    HW2 3027   2.196   0.294   1.427
  710SOL     OW 3028   4.818   2.878   1.771
  710SOL    HW1 3029   4.890   2.887   1.840
  710SOL    HW2 3030   4.752   2.952   1.783
  711SOL     OW 3031   6.908   2.454   5.730
  711SOL    HW1 3032   6.935   2.467   5.635
  711SOL    HW2 3033   6.981   2.408   5.780
  712SOL     OW 3034   5.135   3.043   0.352
  712SOL    HW1 3035   5.217   3.092   0.379
  712SOL    HW2 3036   5.083   3.016   0.433
  713SOL     OW 3037   3.957   2.653   5.381
  713SOL    HW1 3038   4.023   2.599   5.328
  713SOL    HW2 3039   3.937   2.738   5.332
  714SOL     OW 3040   5.259   5.004   3.330
  714SOL    HW1 3041   5.194   5.080   3.338
  714SOL    HW2 3042   5.341   5.036   3.283
  715SOL     OW 3043   6.361   5.430   5.693
  715SOL    HW1 3044   6.336   5.474   5.779
  715SOL    HW2 3045   6.298   5.459   5.621
  716SOL     OW 3046   1.921   1.331   2.491
  716SOL    HW1 3047   1.973   1.368   2.568
  716SOL    HW2 3048   1.975   1.258   2.448
  717SOL     OW 3049   5.391   5.055   3.863
  717SOL    HW1 3050   5.315   5.039   3.799
  717SOL    HW2 3051   5.472   5.085   3.813
  718SOL     OW 3052   5.350   1.970   4.357
  718SOL    HW1 3053   5.335   1.898   4.424
  718SOL    HW2 3054   5.440   2.012   4.373
  719SOL     OW 3055   5.629   0.130   3.293
  719SOL    HW1 3056   5.628   0.154   3.391
  719SOL    HW2 3057   5.717   0.089   3.270
  720SOL     OW 3058   2.024   1.039   7.014
  720SOL    HW1 3059   2.047   0.973   6.942
  720SOL    HW2 3060   2.029   0.994   0.080
  721SOL     OW 3061   6.947   2.432   2.605
  721SOL    HW1 3062   6.895   2.350   2.583
  721SOL    HW2 3063   6.990   2.469   2.522
  722SOL     OW 3064   4.420   6.583   0.141
  722SOL    HW1 3065   4.382   6.637   0.216
  722SOL    HW2 3066   4.349   6.564   0.074
  723SOL     OW 3067   2.377   5.644   3.858
  723SOL    HW1 3068   2.416   5.716   3.915
  723SOL    HW2 3069   2.330   5.577   3.916
  724SOL     OW 3070   1.054   0.910   3.606
  724SOL    HW1 3071   1.090   0.910   3.699
  724SOL    HW2 3072   1.092   0.988   3.555
  725SOL     OW 3073   1.570   3.958   2.250
  725SOL    HW1 3074   1.482   3.920   2.280
  725SOL    HW2 3075   1.633   3.962   2.327
  726SOL     OW 3076   2.148   4.127   0.642
  726SOL    HW1 3077   2.219   4.190   0.612
  726SOL    HW2 3078   2.191   4.049   0.689
  727SOL     OW 3079   4.297   5.262   5.111
  727SOL    HW1 3080   4.299   5.267   5.211
  727SOL    HW2 3081   4.273   5.352   5.074
  728SOL     OW 3082   6.890   3.072   4.217
  728SOL    HW1 3083   6.845   2.983   4.230
  728SOL    HW2 3084   6.839   3.142   4.267
  729SOL     OW 3085   0.352   3.979   1.497
  729SOL    HW1 3086   0.351   3.972   1.397
  729SOL    HW2 3087   0.409   3.906   1.534
  730SOL     OW 3088   5.095   0.410   3.531
  730SOL    HW1 3089   5.170   0.363   3.485
  730SOL    HW2 3090   5.129   0.494   3.573
  731SOL     OW 3091   4.283   4.301   6.170
  731SOL    HW1 3092   4.372   4.311   6.215
  731SOL    HW2 3093   4.213   4.345   6.226
  732SOL     OW 3094   4.927   1.546   3.384
  732SOL    HW1 3095   5.015   1.544   3.431
  732SOL    HW2 3096   4.938   1.589   3.294
  733SOL     OW 3097   6.272   6.446   3.420
  733SOL    HW1 3098   6.369   6.451   3.447
  733SOL    HW2 3099   6.256   6.364   3.367
  734SOL     OW 3100   5.504   6.167   2.754
  734SOL    HW1 3101   5.566   6.243   2.737
  734SOL    HW2 3102   5.533   6.088   2.699
  735SOL     OW 3103   4.888   0.565   2.066
  735SOL    HW1 3104   4.893   0.665   2.069
  735SOL    HW2 3105   4.947   0.532   1.992
  736SOL     OW 3106   1.297   1.488   4.304
  736SOL    HW1 3107   1.367   1.557   4.284
  736SOL    HW2 3108   1.320   1.440   4.388
  737SOL     OW 3109   5.292   1.450   6.641
  737SOL    HW1 3110   5.392   1.457   6.652
  737SOL    HW2 3111   5.268   1.355   6.622
  738SOL     OW 3112   2.858   4.434   1.179
  738SOL    HW1 3113   2.789   4.415   1.109
  738SOL    HW2 3114   2.903   4.521   1.159
  739SOL     OW 3115   2.928   6.768   4.930
  739SOL    HW1 3116   2.962   6.782   4.837
  739SOL    HW2 3117   2.943   6.673   4.957
  740SOL     OW 3118   5.430   2.877   3.263
  740SOL    HW1 3119   5.476   2.867   3.175
  740SOL    HW2 3120   5.462   2.806   3.326
  741SOL     OW 3121   2.954   0.477   3.249
  741SOL    HW1 3122   3.054   0.476   3.247
  741SOL    HW2 3123   2.920   0.395   3.203
  742SOL     OW 3124   1.948   0.113   1.551
  742SOL    HW1 3125   1.976   0.071   1.465
  742SOL    HW2 3126   1.851   0.138   1.546
  743SOL     OW 3127   0.894   6.347   3.500
  743SOL    HW1 3128   0.933   6.380   3.586
  743SOL    HW2 3129   0.962   6.358   3.427
  744SOL     OW 3130   4.745   1.221   0.318
  744SOL    HW1 3131   4.673   1.280   0.283
  744SOL    HW2 3132   4.717   1.125   0.309
  745SOL     OW 3133   2.853   6.198   5.150
  745SOL    HW1 3134   2.776   6.156   5.198
  745SOL    HW2 3135   2.820   6.269   5.088
  746SOL     OW 3136   5.983   4.482   5.740
  746SOL    HW1 3137   5.920   4.550   5.778
  746SOL    HW2 3138   6.062   4.528   5.701
  747SOL     OW 3139   5.587   5.794   3.160
  747SOL    HW1 3140   5.523   5.727   3.199
  747SOL    HW2 3141   5.572   5.883   3.204
  748SOL     OW 3142   5.447   5.395   2.215
  748SOL    HW1 3143   5.433   5.296   2.202
  748SOL    HW2 3144   5.369   5.433   2.265
  749SOL     OW 3145   5.390   4.044   3.333
  749SOL    HW1 3146   5.348   4.135   3.333
  749SOL    HW2 3147   5.461   4.040   3.263
  750SOL     OW 3148   2.558   1.970   1.759
  750SOL    HW1 3149   2.546   1.908   1.837
  750SOL    HW2 3150   2.551   2.065   1.791
  751SOL     OW 3151   4.943   0.261   0.007
  751SOL    HW1 3152   4.911   0.215   0.090
  751SOL    HW2 3153   4.925   0.202   6.950
  752SOL     OW 3154   3.350   2.629   5.551
  752SOL    HW1 3155   3.413   2.706   5.537
  752SOL    HW2 3156   3.271   2.640   5.490
  753SOL     OW 3157   4.038   3.951   5.065
  753SOL    HW1 3158   3.970   3.991   5.003
  753SOL    HW2 3159   4.125   3.998   5.052
  754SOL     OW 3160   5.463   0.622   6.670
  754SOL    HW1 3161   5.541   0.663   6.623
  754SOL    HW2 3162   5.388   0.688   6.675
  755SOL     OW 3163   4.005   4.545   5.374
  755SOL    HW1 3164   4.054   4.459   5.383
  755SOL    HW2 3165   3.991   4.585   5.465
  756SOL     OW 3166   2.089   4.799   6.149
  756SOL    HW1 3167   2.109   4.705   6.120
  756SOL    HW2 3168   2.029   4.798   6.228
  757SOL     OW 3169   2.493   6.989   2.677
  757SOL    HW1 3170   2.557   6.965   2.750
  757SOL    HW2 3171   2.453   0.056   2.695
  758SOL     OW 3172   3.164   1.919   3.951
  758SOL    HW1 3173   3.179   1.905   4.049
  758SOL    HW2 3174   3.085   1.978   3.937
  759SOL     OW 3175   0.375   2.938   4.436
  759SOL    HW1 3176   0.355   2.960   4.532
  759SOL    HW2 3177   0.376   3.022   4.382
  760SOL     OW 3178   6.672   6.182   3.738
  760SOL    HW1 3179   6.581   6.143   3.743
  760SOL    HW2 3180   6.735   6.116   3.698
  761SOL     OW 3181   4.521   3.760   5.643
  761SOL    HW1 3182   4.453   3.832   5.631
  761SOL    HW2 3183   4.564   3.740   5.555
  762SOL     OW 3184   3.196   5.688   4.624
  762SOL    HW1 3185   3.102   5.724   4.625
  762SOL    HW2 3186   3.198   5.601   4.575
  763SOL     OW 3187   5.563   0.493   6.899
  763SOL    HW1 3188   5.525   0.526   6.813
  763SOL    HW2 3189   5.543   0.396   6.910
  764SOL     OW 3190   5.318   6.754   5.113
  764SOL    HW1 3191   5.351   6.805   5.033
  764SOL    HW2 3192   5.223   6.779   5.132
  765SOL     OW 3193   0.171   6.740   0.692
  765SOL    HW1 3194   0.133   6.760   0.783
  765SOL    HW2 3195   0.122   6.793   0.623
  766SOL     OW 3196   1.666   2.134   5.383
  766SOL    HW1 3197   1.736   2.089   5.437
  766SOL    HW2 3198   1.579   2.087   5.395
  767SOL     OW 3199   0.633   6.880   4.214
  767SOL    HW1 3200   0.665   6.943   4.143
  767SOL    HW2 3201   0.614   6.791   4.174
  768SOL     OW 3202   2.616   5.370   2.203
  768SOL    HW1 3203   2.685   5.426   2.248
  768SOL    HW2 3204   2.653   5.331   2.119
  769SOL     OW 3205   2.847   2.041   5.192
  769SOL    HW1 3206   2.842   2.030   5.093
  769SOL    HW2 3207   2.941   2.062   5.219
  770SOL     OW 3208   1.881   4.820   5.003
  770SOL    HW1 3209   1.824   4.901   4.994
  770SOL    HW2 3210   1.943   4.815   4.924
  771SOL     OW 3211   1.112   5.873   3.301
  771SOL    HW1 3212   1.164   5.895   3.218
  771SOL    HW2 3213   1.023   5.835   3.275
  772SOL     OW 3214   5.500   4.405   0.390
  772SOL    HW1 3215   5.549   4.488   0.362
  772SOL    HW2 3216   5.402   4.416   0.371
  773SOL     OW 3217   0.394   3.716   3.798
  773SOL    HW1 3218   0.370   3.664   3.716
  773SOL    HW2 3219   0.465   3.782   3.776
  774SOL     OW 3220   2.397   0.355   3.212
  774SOL    HW1 3221   2.396   0.396   3.121
  774SOL    HW2 3222   2.427   0.422   3.279
  775SOL     OW 3223   2.056   4.377   3.414
  775SOL    HW1 3224   1.993   4.351   3.487
  775SOL    HW2 3225   2.125   4.306   3.402
  776SOL     OW 3226   2.410   5.686   6.674
  776SOL    HW1 3227   2.454   5.675   6.584
  776SOL    HW2 3228   2.335   5.620   6.683
  777SOL     OW 3229   1.532   3.605   0.142
  777SOL    HW1 3230   1.521   3.677   0.074
  777SOL    HW2 3231   1.543   3.517   0.096
  778SOL     OW 3232   2.971   0.028   1.511
  778SOL    HW1 3233   2.969   6.951   1.516
  778SOL    HW2 3234   2.877   0.062   1.501
  779SOL     OW 3235   0.337   1.675   3.150
  779SOL    HW1 3236   0.268   1.705   3.084
  779SOL    HW2 3237   0.353   1.748   3.217
  780SOL     OW 3238   0.941   1.637   5.191
  780SOL    HW1 3239   0.963   1.632   5.288
  780SOL    HW2 3240   0.924   1.732   5.165
  781SOL     OW 3241   0.744   3.994   1.071
  781SOL    HW1 3242   0.735   4.094   1.075
  781SOL    HW2 3243   0.704   3.960   0.986
  782SOL     OW 3244   1.733   3.316   5.763
  782SOL    HW1 3245   1.823   3.318   5.807
  782SOL    HW2 3246   1.735   3.251   5.687
  783SOL     OW 3247   5.893   4.854   6.669
  783SOL    HW1 3248   5.832   4.929   6.644
  783SOL    HW2 3249   5.868   4.819   6.760
  784SOL     OW 3250   2.924   6.620   0.387
  784SOL    HW1 3251   2.947   6.716   0.368
  784SOL    HW2 3252   2.997   6.578   0.440
  785SOL     OW 3253   1.231   6.633   4.526
  785SOL    HW1 3254   1.165   6.640   4.451
  785SOL    HW2 3255   1.193   6.579   4.600
  786SOL     OW 3256   0.014   1.303   3.402
  786SOL    HW1 3257   6.977   1.340   3.473
  786SOL    HW2 3258   0.103   1.349   3.407
  787SOL     OW 3259   2.777   0.130   0.727
  787SOL    HW1 3260   2.860   0.082   0.756
  787SOL    HW2 3261   2.801   0.222   0.695
  788SOL     OW 3262   3.841   2.918   1.361
  788SOL    HW1 3263   3.803   2.832   1.326
  788SOL    HW2 3264   3.767   2.984   1.375
  789SOL     OW 3265   4.365   5.433   1.480
  789SOL    HW1 3266   4.410   5.438   1.569
  789SOL    HW2 3267   4.362   5.339   1.449
  790SOL     OW 3268   0.835   2.927   2.944
  790SOL    HW1 3269   0.802   2.870   2.869
  790SOL    HW2 3270   0.869   3.014   2.908
  791SOL     OW 3271   3.244   4.907   5.011
  791SOL    HW1 3272   3.165   4.968   5.023
  791SOL    HW2 3273   3.214   4.821   4.972
  792SOL     OW 3274   0.855   0.902   1.335
  792SOL    HW1 3275   0.882   0.836   1.405
  792SOL    HW2 3276   0.863   0.995   1.371
  793SOL     OW 3277   3.172   6.167   3.998
  793SOL    HW1 3278   3.258   6.216   4.010
  793SOL    HW2 3279   3.190   6.078   3.958
  794SOL     OW 3280   3.293   3.618   3.422
  794SOL    HW1 3281   3.228   3.661   3.485
  794SOL    HW2 3282   3.246   3.547   3.370
  795SOL     OW 3283   3.960   6.838   6.094
  795SOL    HW1 3284   4.056   6.865   6.103
  795SOL    HW2 3285   3.955   6.741   6.068
  796SOL     OW 3286   0.824   3.283   6.498
  796SOL    HW1 3287   0.872   3.211   6.447
  796SOL    HW2 3288   0.786   3.245   6.582
  797SOL     OW 3289   5.075   6.578   0.862
  797SOL    HW1 3290   5.107   6.548   0.772
  797SOL    HW2 3291   5.027   6.502   0.906
  798SOL     OW 3292   3.831   6.716   0.625
  798SOL    HW1 3293   3.816   6.771   0.542
  798SOL    HW2 3294   3.842   6.777   0.703
  799SOL     OW 3295   1.392   2.093   6.173
  799SOL    HW1 3296   1.311   2.150   6.187
  799SOL    HW2 3297   1.376   2.003   6.214
  800SOL     OW 3298   6.231   2.630   1.643
  800SOL    HW1 3299   6.213   2.617   1.740
  800SOL    HW2 3300   6.247   2.541   1.600
  801SOL     OW 3301   2.164   5.437   5.767
  801SOL    HW1 3302   2.176   5.418   5.669
  801SOL    HW2 3303   2.075   5.481   5.782
  802SOL     OW 3304   5.790   2.757   6.839
  802SOL    HW1 3305   5.801   2.729   6.934
  802SOL    HW2 3306   5.715   2.824   6.833
  803SOL     OW 3307   2.460   1.556   5.449
  803SOL    HW1 3308   2.546   1.605   5.436
  803SOL    HW2 3309   2.433   1.511   5.364
  804SOL     OW 3310   6.166   0.939   2.253
  804SOL    HW1 3311   6.110   0.912   2.331
  804SOL    HW2 3312   6.185   1.037   2.256
  805SOL     OW 3313   3.706   0.517   3.742
  805SOL    HW1 3314   3.686   0.615   3.739
  805SOL    HW2 3315   3.707   0.481   3.649
  806SOL     OW 3316   2.072   5.975   5.221
  806SOL    HW1 3317   2.163   5.938   5.206
  806SOL    HW2 3318   2.039   5.947   5.311
  807SOL     OW 3319   0.720   5.817   5.811
  807SOL    HW1 3320   0.708   5.847   5.905
  807SOL    HW2 3321   0.653   5.745   5.790
  808SOL     OW 3322   5.454   2.819   0.307
  808SOL    HW1 3323   5.461   2.907   0.259
  808SOL    HW2 3324   5.546   2.779   0.316
  809SOL     OW 3325   1.981   4.556   0.191
  809SOL    HW1 3326   1.902   4.502   0.160
  809SOL    HW2 3327   2.065   4.519   0.151
  810SOL     OW 3328   3.536   3.654   0.207
  810SOL    HW1 3329   3.632   3.681   0.206
  810SOL    HW2 3330   3.525   3.566   0.160
  811SOL     OW 3331   5.139   4.763   3.929
  811SOL    HW1 3332   5.220   4.809   3.966
  811SOL    HW2 3333   5.097   4.706   4.000
  812SOL     OW 3334   0.722   2.822   1.865
  812SOL    HW1 3335   0.802   2.768   1.839
  812SOL    HW2 3336   0.639   2.768   1.853
  813SOL     OW 3337   0.963   1.737   4.872
  813SOL    HW1 3338   0.959   1.792   4.789
  813SOL    HW2 3339   1.052   1.691   4.877
  814SOL     OW 3340   1.085   5.208   3.229
  814SOL    HW1 3341   1.095   5.265   3.311
  814SOL    HW2 3342   1.050   5.118   3.255
  815SOL     OW 3343   4.638   1.661   3.749
  815SOL    HW1 3344   4.728   1.617   3.747
  815SOL    HW2 3345   4.602   1.666   3.656
  816SOL     OW 3346   5.437   4.185   6.954
  816SOL    HW1 3347   5.501   4.254   6.921
  816SOL    HW2 3348   5.374   4.159   6.880
  817SOL     OW 3349   1.045   4.618   6.811
  817SOL    HW1 3350   0.967   4.579   6.761
  817SOL    HW2 3351   1.061   4.565   6.894
  818SOL     OW 3352   6.374   2.363   4.400
  818SOL    HW1 3353   6.409   2.279   4.358
  818SOL    HW2 3354   6.403   2.442   4.345
  819SOL     OW 3355   5.148   2.824   2.410
  819SOL    HW1 3356   5.093   2.792   2.332
  819SOL    HW2 3357   5.176   2.919   2.393
  820SOL     OW 3358   2.125   1.893   5.273
  820SOL    HW1 3359   2.034   1.905   5.233
  820SOL    HW2 3360   2.189   1.955   5.228
  821SOL     OW 3361   5.917   3.730   5.166
  821SOL    HW1 3362   5.817   3.736   5.171
  821SOL    HW2 3363   5.942   3.668   5.091
  822SOL     OW 3364   0.531   4.306   3.223
  822SOL    HW1 3365   0.478   4.247   3.284
  822SOL    HW2 3366   0.615   4.259   3.196
  823SOL     OW 3367   0.769   3.774   5.536
  823SOL    HW1 3368   0.722   3.863   5.543
  823SOL    HW2 3369   0.746   3.718   5.615
  824SOL     OW 3370   5.873   1.600   5.739
  824SOL    HW1 3371   5.953   1.619   5.682
  824SOL    HW2 3372   5.822   1.523   5.700
  825SOL     OW 3373   7.023   5.523   1.274
  825SOL    HW1 3374   6.944   5.579   1.247
  825SOL    HW2 3375   0.034   5.554   1.363
  826SOL     OW 3376   3.780   1.257   5.525
  826SOL    HW1 3377   3.765   1.289   5.619
  826SOL    HW2 3378   3.844   1.319   5.479
  827SOL     OW 3379   3.572   4.135   4.504
  827SOL    HW1 3380   3.513   4.116   4.426
  827SOL    HW2 3381   3.587   4.233   4.512
  828SOL     OW 3382   6.484   5.806   5.290
  828SOL    HW1 3383   6.453   5.749   5.367
  828SOL    HW2 3384   6.545   5.877   5.324
  829SOL     OW 3385   3.370   3.007   2.785
  829SOL    HW1 3386   3.356   3.106   2.792
  829SOL    HW2 3387   3.392   2.983   2.691
  830SOL     OW 3388   6.755   4.760   0.407
  830SOL    HW1 3389   6.711   4.690   0.463
  830SOL    HW2 3390   6.744   4.737   0.310
  831SOL     OW 3391   5.281   6.455   1.367
  831SOL    HW1 3392   5.221   6.392   1.416
  831SOL    HW2 3393   5.297   6.420   1.274
  832SOL     OW 3394   3.062   2.156   4.782
  832SOL    HW1 3395   3.006   2.234   4.754
  832SOL    HW2 3396   3.095   2.170   4.876
  833SOL     OW 3397   2.146   3.109   6.194
  833SOL    HW1 3398   2.137   3.010   6.185
  833SOL    HW2 3399   2.148   3.150   6.103
  834SOL     OW 3400   5.181   3.745   6.754
  834SOL    HW1 3401   5.214   3.762   6.847
  834SOL    HW2 3402   5.193   3.648   6.731
  835SOL     OW 3403   0.948   6.863   4.592
  835SOL    HW1 3404   0.956   6.830   4.498
  835SOL    HW2 3405   0.861   6.910   4.603
  836SOL     OW 3406   3.505   1.181   4.588
  836SOL    HW1 3407   3.589   1.234   4.604
  836SOL    HW2 3408   3.491   1.117   4.664
  837SOL     OW 3409   1.378   0.811   0.818
  837SOL    HW1 3410   1.382   0.911   0.815
  837SOL    HW2 3411   1.354   0.782   0.911
  838SOL     OW 3412   2.183   5.896   3.302
  838SOL    HW1 3413   2.173   5.832   3.378
  838SOL    HW2 3414   2.149   5.855   3.218
  839SOL     OW 3415   1.236   2.319   0.250
  839SOL    HW1 3416   1.313   2.353   0.304
  839SOL    HW2 3417   1.185   2.251   0.303
  840SOL     OW 3418   5.302   5.714   6.954
  840SOL    HW1 3419   5.306   5.790   6.890
  840SOL    HW2 3420   5.217   5.720   7.007
  841SOL     OW 3421   3.885   4.913   6.009
  841SOL    HW1 3422   3.881   4.817   5.979
  841SOL    HW2 3423   3.882   4.916   6.109
  842SOL     OW 3424   3.501   0.140   6.783
  842SOL    HW1 3425   3.539   0.176   6.698
  842SOL    HW2 3426   3.406   0.167   6.791
  843SOL     OW 3427   1.433   1.471   2.426
  843SOL    HW1 3428   1.348   1.420   2.427
  843SOL    HW2 3429   1.464   1.485   2.520
  844SOL     OW 3430   6.166   0.096   1.405
  844SOL    HW1 3431   6.190   0.134   1.315
  844SOL    HW2 3432   6.178   7.020   1.404
  845SOL     OW 3433   3.415   1.552   2.481
  845SOL    HW1 3434   3.373   1.630   2.527
  845SOL    HW2 3435   3.378   1.544   2.388
  846SOL     OW 3436   2.697   2.467   0.336
  846SOL    HW1 3437   2.716   2.369   0.348
  846SOL    HW2 3438   2.604   2.487   0.366
  847SOL     OW 3439   2.506   4.778   1.407
  847SOL    HW1 3440   2.482   4.704   1.345
  847SOL    HW2 3441   2.509   4.743   1.501
  848SOL     OW 3442   6.770   5.534   6.858
  848SOL    HW1 3443   6.676   5.558   6.832
  848SOL    HW2 3444   6.790   5.440   6.830
  849SOL     OW 3445   6.158   3.794   6.957
  849SOL    HW1 3446   6.244   3.744   6.968
  849SOL    HW2 3447   6.151   3.864   0.005
  850SOL     OW 3448   0.682   0.728   5.582
  850SOL    HW1 3449   0.672   0.629   5.579
  850SOL    HW2 3450   0.601   0.768   5.626
  851SOL     OW 3451   6.849   3.129   6.063
  851SOL    HW1 3452   6.899   3.111   5.978
  851SOL    HW2 3453   6.757   3.090   6.057
  852SOL     OW 3454   0.488   4.050   2.334
  852SOL    HW1 3455   0.427   4.108   2.279
  852SOL    HW2 3456   0.475   3.955   2.309
  853SOL     OW 3457   2.609   4.249   6.852
  853SOL    HW1 3458   2.553   4.182   6.804
  853SOL    HW2 3459   2.635   4.214   6.942
  854SOL     OW 3460   5.305   6.324   6.674
  854SOL    HW1 3461   5.256   6.243   6.707
  854SOL    HW2 3462   5.360   6.298   6.595
  855SOL     OW 3463   6.326   0.928   0.114
  855SOL    HW1 3464   6.376   0.982   0.182
  855SOL    HW2 3465   6.303   0.839   0.153
  856SOL     OW 3466   2.028   6.111   0.184
  856SOL    HW1 3467   2.112   6.063   0.209
  856SOL    HW2 3468   1.968   6.050   0.131
  857SOL     OW 3469   6.134   5.113   4.889
  857SOL    HW1 3470   6.160   5.090   4.795
  857SOL    HW2 3471   6.096   5.032   4.934
  858SOL     OW 3472   3.831   3.694   0.372
  858SOL    HW1 3473   3.755   3.651   0.422
  858SOL    HW2 3474   3.817   3.793   0.370
  859SOL     OW 3475   4.097   6.538   5.464
  859SOL    HW1 3476   4.171   6.604   5.476
  859SOL    HW2 3477   4.097   6.474   5.541
  860SOL     OW 3478   5.876   3.215   5.876
  860SOL    HW1 3479   5.841   3.282   5.811
  860SOL    HW2 3480   5.975   3.228   5.888
  861SOL     OW 3481   2.523   6.106   2.381
  861SOL    HW1 3482   2.481   6.147   2.463
  861SOL    HW2 3483   2.525   6.174   2.308
  862SOL     OW 3484   1.304   4.571   3.683
  862SOL    HW1 3485   1.361   4.628   3.624
  862SOL    HW2 3486   1.208   4.583   3.659
  863SOL     OW 3487   6.781   0.889   6.675
  863SOL    HW1 3488   6.695   0.916   6.633
  863SOL    HW2 3489   6.856   0.906   6.612
  864SOL     OW 3490   5.662   0.286   4.858
  864SOL    HW1 3491   5.726   0.344   4.908
  864SOL    HW2 3492   5.706   0.248   4.777
  865SOL     OW 3493   2.322   6.330   4.591
  865SOL    HW1 3494   2.325   6.331   4.491
  865SOL    HW2 3495   2.235   6.292   4.621
  866SOL     OW 3496   2.743   6.209   2.053
  866SOL    HW1 3497   2.780   6.119   2.076
  866SOL    HW2 3498   2.817   6.274   2.037
  867SOL     OW 3499   6.135   1.772   0.175
  867SOL    HW1 3500   6.103   1.819   0.093
  867SOL    HW2 3501   6.059   1.763   0.240
  868SOL     OW 3502   0.183   2.636   2.009
  868SOL    HW1 3503   0.160   2.668   2.101
  868SOL    HW2 3504   0.216   2.714   1.955
  869SOL     OW 3505   6.735   3.991   3.650
  869SOL    HW1 3506   6.722   3.897   3.619
  869SOL    HW2 3507   6.716   3.997   3.747
  870SOL     OW 3508   3.498   5.297   1.440
  870SOL    HW1 3509   3.428   5.308   1.509
  870SOL    HW2 3510   3.493   5.205   1.400
  871SOL     OW 3511   4.425   1.933   3.372
  871SOL    HW1 3512   4.333   1.960   3.403
  871SOL    HW2 3513   4.491   2.004   3.397
  872SOL     OW 3514   0.115   3.017   4.264
  872SOL    HW1 3515   0.018   3.038   4.250
  872SOL    HW2 3516   0.136   2.928   4.223
  873SOL     OW 3517   4.695   6.435   6.229
  873SOL    HW1 3518   4.756   6.513   6.220
  873SOL    HW2 3519   4.727   6.361   6.170
  874SOL     OW 3520   5.056   4.256   0.486
  874SOL    HW1 3521   4.997   4.337   0.475
  874SOL    HW2 3522   5.007   4.187   0.540
  875SOL     OW 3523   4.917   5.600   0.410
  875SOL    HW1 3524   4.840   5.538   0.423
  875SOL    HW2 3525   4.905   5.681   0.467
  876SOL     OW 3526   0.316   5.890   1.911
  876SOL    HW1 3527   0.322   5.826   1.834
  876SOL    HW2 3528   0.404   5.933   1.926
  877SOL     OW 3529   2.737   4.401   6.634
  877SOL    HW1 3530   2.812   4.461   6.661
  877SOL    HW2 3531   2.706   4.349   6.713
  878SOL     OW 3532   3.914   6.783   4.647
  878SOL    HW1 3533   3.907   6.821   4.554
  878SOL    HW2 3534   3.931   6.685   4.642
  879SOL     OW 3535   5.905   0.457   0.610
  879SOL    HW1 3536   5.810   0.447   0.582
  879SOL    HW2 3537   5.911   0.520   0.687
  880SOL     OW 3538   2.931   3.616   3.160
  880SOL    HW1 3539   2.864   3.645   3.091
  880SOL    HW2 3540   2.927   3.517   3.170
  881SOL     OW 3541   4.601   2.285   6.196
  881SOL    HW1 3542   4.546   2.358   6.237
  881SOL    HW2 3543   4.566   2.196   6.226
  882SOL     OW 3544   0.785   3.486   4.429
  882SOL    HW1 3545   0.878   3.517   4.446
  882SOL    HW2 3546   0.732   3.491   4.514
  883SOL     OW 3547   3.153   0.398   2.592
  883SOL    HW1 3548   3.215   0.331   2.552
  883SOL    HW2 3549   3.059   0.364   2.588
  884SOL     OW 3550   4.627   2.566   5.041
  884SOL    HW1 3551   4.667   2.526   4.958
  884SOL    HW2 3552   4.696   2.618   5.089
  885SOL     OW 3553   3.236   1.395   6.290
  885SOL    HW1 3554   3.149   1.407   6.241
  885SOL    HW2 3555   3.304   1.458   6.252
  886SOL     OW 3556   2.947   0.942   0.289
  886SOL    HW1 3557   3.039   0.912   0.314
  886SOL    HW2 3558   2.894   0.864   0.255
  887SOL     OW 3559   4.213   0.884   3.799
  887SOL    HW1 3560   4.177   0.973   3.773
  887SOL    HW2 3561   4.168   0.852   3.882
  888SOL     OW 3562   0.363   0.626   3.251
  888SOL    HW1 3563   0.294   0.577   3.304
  888SOL    HW2 3564   0.442   0.567   3.235
  889SOL     OW 3565   0.896   4.019   6.902
  889SOL    HW1 3566   0.995   4.021   6.891
  889SOL    HW2 3567   0.856   3.957   6.835
  890SOL     OW 3568   2.243   5.904   3.608
  890SOL    HW1 3569   2.207   5.813   3.588
  890SOL    HW2 3570   2.170   5.971   3.600
  891SOL     OW 3571   5.658   5.767   0.856
  891SOL    HW1 3572   5.628   5.844   0.800
  891SOL    HW2 3573   5.747   5.735   0.823
  892SOL     OW 3574   2.491   4.141   5.700
  892SOL    HW1 3575   2.467   4.222   5.647
  892SOL    HW2 3576   2.502   4.063   5.639
  893SOL     OW 3577   2.684   6.407   2.759
  893SOL    HW1 3578   2.677   6.448   2.668
  893SOL    HW2 3579   2.593   6.384   2.793
  894SOL     OW 3580   1.371   4.190   1.730
  894SOL    HW1 3581   1.355   4.195   1.631
  894SOL    HW2 3582   1.434   4.114   1.750
  895SOL     OW 3583   0.360   6.069   3.251
  895SOL    HW1 3584   0.396   5.975   3.253
  895SOL    HW2 3585   0.386   6.113   3.165
  896SOL     OW 3586   6.336   6.143   6.317
  896SOL    HW1 3587   6.379   6.055   6.337
  896SOL    HW2 3588   6.375   6.213   6.378
  897SOL     OW 3589   5.377   1.042   0.080
  897SOL    HW1 3590   5.419   0.965   0.030
  897SOL    HW2 3591   5.316   1.006   0.150
  898SOL     OW 3592   3.354   5.360   3.252
  898SOL    HW1 3593   3.294   5.281   3.264
  898SOL    HW2 3594   3.416   5.367   3.330
  899SOL     OW 3595   0.824   4.943   6.190
  899SOL    HW1 3596   0.762   4.894   6.251
  899SOL    HW2 3597   0.773   5.007   6.134
  900SOL     OW 3598   6.025   6.796   0.405
  900SOL    HW1 3599   5.970   6.720   0.370
  900SOL    HW2 3600   6.048   6.858   0.330
  901SOL     OW 3601   2.086   1.180   2.328
  901SOL    HW1 3602   2.146   1.102   2.313
  901SOL    HW2 3603   1.995   1.161   2.292
  902SOL     OW 3604   6.014   3.896   1.214
  902SOL    HW1 3605   6.102   3.869   1.174
  902SOL    HW2 3606   6.023   3.901   1.313
  903SOL     OW 3607   6.912   1.828   0.536
  903SOL    HW1 3608   6.837   1.822   0.602
  903SOL    HW2 3609   6.984   1.887   0.573
  904SOL     OW 3610   3.328   2.048   3.758
  904SOL    HW1 3611   3.289   2.095   3.680
  904SOL    HW2 3612   3.257   1.994   3.803
  905SOL     OW 3613   5.843   2.684   0.076
  905SOL    HW1 3614   5.849   2.760   0.141
  905SOL    HW2 3615   5.905   2.611   0.104
  906SOL     OW 3616   0.298   2.704   5.256
  906SOL    HW1 3617   0.240   2.632   5.217
  906SOL    HW2 3618   0.271   2.720   5.351
  907SOL     OW 3619   4.935   3.609   0.128
  907SOL    HW1 3620   4.968   3.515   0.131
  907SOL    HW2 3621   4.897   3.633   0.217
  908SOL     OW 3622   2.723   4.696   2.235
  908SOL    HW1 3623   2.786   4.653   2.170
  908SOL    HW2 3624   2.658   4.754   2.186
  909SOL     OW 3625   4.441   4.895   6.134
  909SOL    HW1 3626   4.493   4.810   6.143
  909SOL    HW2 3627   4.501   4.968   6.101
  910SOL     OW 3628   2.746   2.764   1.704
  910SOL    HW1 3629   2.651   2.753   1.732
  910SOL    HW2 3630   2.797   2.681   1.725
  911SOL     OW 3631   1.675   5.772   6.083
  911SOL    HW1 3632   1.660   5.837   6.009
  911SOL    HW2 3633   1.759   5.794   6.131
  912SOL     OW 3634   4.978   2.825   3.557
  912SOL    HW1 3635   4.950   2.847   3.650
  912SOL    HW2 3636   4.969   2.906   3.499
  913SOL     OW 3637   5.138   6.582   3.322
  913SOL    HW1 3638   5.097   6.524   3.391
  913SOL    HW2 3639   5.066   6.626   3.268
  914SOL     OW 3640   2.667   0.276   6.603
  914SOL    HW1 3641   2.659   0.363   6.554
  914SOL    HW2 3642   2.595   0.270   6.672
  915SOL     OW 3643   5.892   5.598   0.801
  915SOL    HW1 3644   5.981   5.643   0.791
  915SOL    HW2 3645   5.852   5.582   0.711
  916SOL     OW 3646   1.057   2.298   2.561
  916SOL    HW1 3647   1.112   2.284   2.480
  916SOL    HW2 3648   0.974   2.349   2.537
  917SOL     OW 3649   0.455   0.536   0.706
  917SOL    HW1 3650   0.400   0.457   0.735
  917SOL    HW2 3651   0.551   0.509   0.701
  918SOL     OW 3652   1.612   6.298   0.870
  918SOL    HW1 3653   1.689   6.256   0.918
  918SOL    HW2 3654   1.579   6.376   0.922
  919SOL     OW 3655   5.735   1.628   3.568
  919SOL    HW1 3656   5.723   1.727   3.562
  919SOL    HW2 3657   5.668   1.583   3.510
  920SOL     OW 3658   2.698   5.037   2.057
  920SOL    HW1 3659   2.784   5.001   2.021
  920SOL    HW2 3660   2.621   4.986   2.018
  921SOL     OW 3661   5.055   5.569   4.398
  921SOL    HW1 3662   5.144   5.614   4.398
  921SOL    HW2 3663   5.030   5.543   4.304
  922SOL     OW 3664   3.844   3.588   3.922
  922SOL    HW1 3665   3.835   3.590   4.022
  922SOL    HW2 3666   3.793   3.510   3.886
  923SOL     OW 3667   2.070   2.817   5.711
  923SOL    HW1 3668   2.017   2.741   5.673
  923SOL    HW2 3669   2.126   2.858   5.638
  924SOL     OW 3670   6.872   3.687   2.469
  924SOL    HW1 3671   6.800   3.628   2.507
  924SOL    HW2 3672   6.835   3.738   2.392
  925SOL     OW 3673   6.013   1.568   0.403
  925SOL    HW1 3674   5.957   1.520   0.471
  925SOL    HW2 3675   6.031   1.661   0.434
  926SOL     OW 3676   0.712   1.252   2.115
  926SOL    HW1 3677   0.650   1.178   2.087
  926SOL    HW2 3678   0.749   1.296   2.034
  927SOL     OW 3679   5.735   3.799   3.550
  927SOL    HW1 3680   5.652   3.841   3.585
  927SOL    HW2 3681   5.803   3.793   3.623
  928SOL     OW 3682   3.486   6.292   6.615
  928SOL    HW1 3683   3.490   6.328   6.522
  928SOL    HW2 3684   3.464   6.366   6.679
  929SOL     OW 3685   6.709   1.278   5.634
  929SOL    HW1 3686   6.621   1.239   5.659
  929SOL    HW2 3687   6.695   1.354   5.571
  930SOL     OW 3688   5.031   5.193   6.654
  930SOL    HW1 3689   4.962   5.265   6.647
  930SOL    HW2 3690   4.987   5.104   6.650
  931SOL     OW 3691   6.670   2.711   3.003
  931SOL    HW1 3692   6.610   2.666   3.069
  931SOL    HW2 3693   6.624   2.714   2.914
  932SOL     OW 3694   4.225   0.580   3.762
  932SOL    HW1 3695   4.252   0.676   3.753
  932SOL    HW2 3696   4.170   0.569   3.845
  933SOL     OW 3697   1.342   5.080   2.700
  933SOL    HW1 3698   1.373   5.010   2.635
  933SOL    HW2 3699   1.244   5.070   2.716
  934SOL     OW 3700   1.697   5.344   6.528
  934SOL    HW1 3701   1.728   5.368   6.436
  934SOL    HW2 3702   1.762   5.280   6.570
  935SOL     OW 3703   5.372   3.538   3.379
  935SOL    HW1 3704   5.277   3.565   3.367
  935SOL    HW2 3705   5.406   3.572   3.467
  936SOL     OW 3706   1.639   0.560   0.078
  936SOL    HW1 3707   1.581   0.482   0.055
  936SOL    HW2 3708   1.627   0.632   0.010
  937SOL     OW 3709   5.095   1.015   5.565
  937SOL    HW1 3710   5.159   0.942   5.538
  937SOL    HW2 3711   5.115   1.098   5.513
  938SOL     OW 3712   5.939   5.539   4.569
  938SOL    HW1 3713   5.867   5.601   4.601
  938SOL    HW2 3714   5.899   5.452   4.542
  939SOL     OW 3715   0.392   6.856   4.849
  939SOL    HW1 3716   0.487   6.831   4.831
  939SOL    HW2 3717   0.390   6.932   4.915
  940SOL     OW 3718   2.274   5.126   0.475
  940SOL    HW1 3719   2.275   5.093   0.569
  940SOL    HW2 3720   2.235   5.218   0.472
  941SOL     OW 3721   3.695   0.294   6.555
  941SOL    HW1 3722   3.746   0.247   6.627
  941SOL    HW2 3723   3.642   0.227   6.502
  942SOL     OW 3724   0.085   5.563   0.547
  942SOL    HW1 3725   0.156   5.627   0.576
  942SOL    HW2 3726   0.006   5.572   0.608
  943SOL     OW 3727   3.048   4.943   3.107
  943SOL    HW1 3728   2.993   4.898   3.177
  943SOL    HW2 3729   2.994   4.949   3.022
  944SOL     OW 3730   0.862   6.484   4.514
  944SOL    HW1 3731   0.816   6.398   4.491
  944SOL    HW2 3732   0.795   6.558   4.516
  945SOL     OW 3733   0.794   5.300   6.337
  945SOL    HW1 3734   0.826   5.369   6.401
  945SOL    HW2 3735   0.864   5.285   6.267
  946SOL     OW 3736   4.935   3.746   3.759
  946SOL    HW1 3737   4.884   3.728   3.844
  946SOL    HW2 3738   4.963   3.659   3.718
  947SOL     OW 3739   3.853   4.032   4.623
  947SOL    HW1 3740   3.893   3.975   4.552
  947SOL    HW2 3741   3.753   4.031   4.614
  948SOL     OW 3742   4.884   1.188   2.660
  948SOL    HW1 3743   4.972   1.229   2.686
  948SOL    HW2 3744   4.818   1.202   2.733
  949SOL     OW 3745   3.175   6.442   6.688
  949SOL    HW1 3746   3.140   6.452   6.595
  949SOL    HW2 3747   3.255   6.382   6.687
  950SOL     OW 3748   0.337   6.332   2.187
  950SOL    HW1 3749   0.414   6.278   2.221
  950SOL    HW2 3750   0.262   6.328   2.253
  951SOL     OW 3751   1.830   0.053   3.322
  951SOL    HW1 3752   1.831   0.014   3.230
  951SOL    HW2 3753   1.809   7.005   3.388
  952SOL     OW 3754   3.240   1.541   1.835
  952SOL    HW1 3755   3.303   1.588   1.773
  952SOL    HW2 3756   3.234   1.590   1.922
  953SOL     OW 3757   6.546   4.984   5.151
  953SOL    HW1 3758   6.578   5.035   5.230
  953SOL    HW2 3759   6.622   4.973   5.086
  954SOL     OW 3760   4.984   5.645   2.421
  954SOL    HW1 3761   5.025   5.666   2.510
  954SOL    HW2 3762   4.941   5.727   2.384
  955SOL     OW 3763   1.495   4.411   0.111
  955SOL    HW1 3764   1.472   4.344   0.041
  955SOL    HW2 3765   1.411   4.455   0.144
  956SOL     OW 3766   6.196   0.827   1.825
  956SOL    HW1 3767   6.256   0.850   1.748
  956SOL    HW2 3768   6.214   0.733   1.854
  957SOL     OW 3769   6.322   2.844   3.850
  957SOL    HW1 3770   6.365   2.899   3.922
  957SOL    HW2 3771   6.279   2.764   3.891
  958SOL     OW 3772   5.004   0.265   1.967
  958SOL    HW1 3773   4.917   0.251   1.920
  958SOL    HW2 3774   5.077   0.217   1.918
  959SOL     OW 3775   3.849   6.871   4.399
  959SOL    HW1 3776   3.838   6.942   4.330
  959SOL    HW2 3777   3.796   6.791   4.373
  960SOL     OW 3778   0.825   0.330   0.321
  960SOL    HW1 3779   0.771   0.328   0.237
  960SOL    HW2 3780   0.767   0.302   0.398
  961SOL     OW 3781   3.227   6.407   2.663
  961SOL    HW1 3782   3.136   6.369   2.681
  961SOL    HW2 3783   3.220   6.476   2.591
  962SOL     OW 3784   6.597   0.318   4.681
  962SOL    HW1 3785   6.498   0.327   4.683
  962SOL    HW2 3786   6.627   0.287   4.591
  963SOL     OW 3787   4.616   2.949   1.043
  963SOL    HW1 3788   4.639   2.864   1.092
  963SOL    HW2 3789   4.519   2.947   1.017
  964SOL     OW 3790   4.605   4.381   5.183
  964SOL    HW1 3791   4.686   4.353   5.235
  964SOL    HW2 3792   4.614   4.352   5.088
  965SOL     OW 3793   5.782   2.584   3.800
  965SOL    HW1 3794   5.875   2.615   3.783
  965SOL    HW2 3795   5.773   2.552   3.894
  966SOL     OW 3796   4.974   2.038   4.076
  966SOL    HW1 3797   4.979   2.134   4.105
  966SOL    HW2 3798   4.977   2.034   3.976
  967SOL     OW 3799   5.497   4.065   6.425
  967SOL    HW1 3800   5.517   4.025   6.514
  967SOL    HW2 3801   5.432   4.140   6.436
  968SOL     OW 3802   3.522   0.620   1.394
  968SOL    HW1 3803   3.526   0.637   1.296
  968SOL    HW2 3804   3.569   0.693   1.443
  969SOL     OW 3805   3.669   4.164   5.818
  969SOL    HW1 3806   3.661   4.134   5.723
  969SOL    HW2 3807   3.582   4.150   5.866
  970SOL     OW 3808   5.820   0.284   6.089
  970SOL    HW1 3809   5.875   0.257   6.010
  970SOL    HW2 3810   5.724   0.290   6.063
  971SOL     OW 3811   5.593   3.961   2.804
  971SOL    HW1 3812   5.617   4.046   2.850
  971SOL    HW2 3813   5.660   3.891   2.826
  972SOL     OW 3814   0.212   2.789   0.962
  972SOL    HW1 3815   0.306   2.755   0.950
  972SOL    HW2 3816   0.171   2.806   0.872
  973SOL     OW 3817   0.053   3.483   5.851
  973SOL    HW1 3818   0.143   3.513   5.885
  973SOL    HW2 3819   0.060   3.459   5.755
  974SOL     OW 3820   6.893   5.438   4.228
  974SOL    HW1 3821   6.944   5.521   4.250
  974SOL    HW2 3822   6.952   5.375   4.177
  975SOL     OW 3823   2.392   6.499   2.049
  975SOL    HW1 3824   2.342   6.559   2.112
  975SOL    HW2 3825   2.378   6.530   1.955
  976SOL     OW 3826   6.694   3.752   2.234
  976SOL    HW1 3827   6.704   3.847   2.265
  976SOL    HW2 3828   6.622   3.747   2.164
  977SOL     OW 3829   0.105   1.351   2.532
  977SOL    HW1 3830   0.093   1.434   2.587
  977SOL    HW2 3831   0.038   1.282   2.560
  978SOL     OW 3832   5.527   2.580   1.992
  978SOL    HW1 3833   5.556   2.640   2.066
  978SOL    HW2 3834   5.532   2.484   2.022
  979SOL     OW 3835   6.570   3.791   7.010
  979SOL    HW1 3836   6.641   3.856   0.014
  979SOL    HW2 3837   6.519   3.827   6.932
  980SOL     OW 3838   3.597   1.805   5.168
  980SOL    HW1 3839   3.679   1.841   5.124
  980SOL    HW2 3840   3.542   1.880   5.204
  981SOL     OW 3841   6.679   6.648   5.511
  981SOL    HW1 3842   6.739   6.663   5.432
  981SOL    HW2 3843   6.619   6.570   5.494
  982SOL     OW 3844   6.946   1.334   4.944
  982SOL    HW1 3845   6.943   1.403   5.016
  982SOL    HW2 3846   6.913   1.372   4.858
  983SOL     OW 3847   0.178   4.274   4.345
  983SOL    HW1 3848   0.238   4.351   4.368
  983SOL    HW2 3849   0.234   4.193   4.325
  984SOL     OW 3850   1.682   1.867   3.058
  984SOL    HW1 3851   1.687   1.804   2.980
  984SOL    HW2 3852   1.769   1.914   3.069
  985SOL     OW 3853   6.581   4.001   4.418
  985SOL    HW1 3854   6.634   3.917   4.406
  985SOL    HW2 3855   6.585   4.030   4.513
  986SOL     OW 3856   5.421   4.749   1.158
  986SOL    HW1 3857   5.512   4.763   1.116
  986SOL    HW2 3858   5.415   4.656   1.193
  987SOL     OW 3859   5.590   5.156   3.699
  987SOL    HW1 3860   5.661   5.093   3.668
  987SOL    HW2 3861   5.552   5.205   3.620
  988SOL     OW 3862   3.113   4.175   1.521
  988SOL    HW1 3863   3.073   4.132   1.602
  988SOL    HW2 3864   3.145   4.267   1.543
  989SOL     OW 3865   0.271   1.057   1.160
  989SOL    HW1 3866   0.181   1.092   1.185
  989SOL    HW2 3867   0.342   1.110   1.208
  990SOL     OW 3868   4.277   0.020   3.488
  990SOL    HW1 3869   4.364   0.063   3.464
  990SOL    HW2 3870   4.220   0.085   3.537
  991SOL     OW 3871   6.872   4.660   3.979
  991SOL    HW1 3872   6.885   4.594   3.905
  991SOL    HW2 3873   6.902   4.619   4.065
  992SOL     OW 3874   0.281   2.491   1.256
  992SOL    HW1 3875   0.237   2.454   1.338
  992SOL    HW2 3876   0.357   2.550   1.283
  993SOL     OW 3877   1.992   5.447   0.738
  993SOL    HW1 3878   1.951   5.538   0.732
  993SOL    HW2 3879   2.017   5.428   0.833
  994SOL     OW 3880   2.988   6.888   0.345
  994SOL    HW1 3881   3.034   6.904   0.257
  994SOL    HW2 3882   2.931   6.966   0.367
  995SOL     OW 3883   5.814   2.963   5.765
  995SOL    HW1 3884   5.882   2.936   5.696
  995SOL    HW2 3885   5.831   3.058   5.792
  996SOL     OW 3886   4.004   6.048   5.813
  996SOL    HW1 3887   4.041   6.128   5.860
  996SOL    HW2 3888   3.973   6.075   5.722
  997SOL     OW 3889   1.916   5.583   4.105
  997SOL    HW1 3890   1.898   5.595   4.007
  997SOL    HW2 3891   1.877   5.496   4.136
  998SOL     OW 3892   6.031   0.033   6.272
  998SOL    HW1 3893   6.090   0.013   6.350
  998SOL    HW2 3894   5.952   0.085   6.304
  999SOL     OW 3895   4.826   3.915   1.999
  999SOL    HW1 3896   4.871   3.897   2.086
  999SOL    HW2 3897   4.815   3.830   1.948
 1000SOL     OW 3898   3.994   1.790   1.522
 1000SOL    HW1 3899   3.952   1.794   1.613
 1000SOL    HW2 3900   3.922   1.781   1.453
 1001SOL     OW 3901   2.773   6.497   2.206
 1001SOL    HW1 3902   2.706   6.569   2.223
 1001SOL    HW2 3903   2.782   6.481   2.108
 1002SOL     OW 3904   5.503   2.874   1.366
 1002SOL    HW1 3905   5.488   2.958   1.314
 1002SOL    HW2 3906   5.566   2.814   1.315
 1003SOL     OW 3907   0.412   6.817   2.746
 1003SOL    HW1 3908   0.438   6.910   2.721
 1003SOL    HW2 3909   0.396   6.763   2.663
 1004SOL     OW 3910   5.264   1.186   3.649
 1004SOL    HW1 3911   5.359   1.171   3.676
 1004SOL    HW2 3912   5.218   1.241   3.719
 1005SOL     OW 3913   1.394   4.609   3.926
 1005SOL    HW1 3914   1.422   4.703   3.943
 1005SOL    HW2 3915   1.357   4.602   3.834
 1006SOL     OW 3916   2.349   3.480   0.962
 1006SOL    HW1 3917   2.391   3.487   0.872
 1006SOL    HW2 3918   2.377   3.558   1.018
 1007SOL     OW 3919   4.634   1.499   6.233
 1007SOL    HW1 3920   4.599   1.581   6.189
 1007SOL    HW2 3921   4.694   1.524   6.309
 1008SOL     OW 3922   0.386   4.724   4.803
 1008SOL    HW1 3923   0.388   4.730   4.703
 1008SOL    HW2 3924   0.479   4.727   4.839
 1009SOL     OW 3925   6.478   4.963   5.902
 1009SOL    HW1 3926   6.407   4.975   5.972
 1009SOL    HW2 3927   6.488   5.048   5.850
 1010SOL     OW 3928   2.313   3.326   1.394
 1010SOL    HW1 3929   2.264   3.413   1.388
 1010SOL    HW2 3930   2.316   3.284   1.304
 1011SOL     OW 3931   0.072   4.971   2.998
 1011SOL    HW1 3932   0.083   4.887   2.945
 1011SOL    HW2 3933   0.061   5.049   2.936
 1012SOL     OW 3934   5.419   0.236   2.387
 1012SOL    HW1 3935   5.395   0.314   2.445
 1012SOL    HW2 3936   5.515   0.213   2.400
 1013SOL     OW 3937   6.506   0.977   6.594
 1013SOL    HW1 3938   6.541   1.055   6.647
 1013SOL    HW2 3939   6.426   0.939   6.641
 1014SOL     OW 3940   1.452   5.038   4.726
 1014SOL    HW1 3941   1.504   5.086   4.656
 1014SOL    HW2 3942   1.471   5.078   4.816
 1015SOL     OW 3943   3.495   6.485   6.819
 1015SOL    HW1 3944   3.527   6.580   6.828
 1015SOL    HW2 3945   3.427   6.466   6.890
 1016SOL     OW 3946   5.461   4.059   1.752
 1016SOL    HW1 3947   5.439   4.104   1.665
 1016SOL    HW2 3948   5.525   3.984   1.735
 1017SOL     OW 3949   2.348   1.566   2.895
 1017SOL    HW1 3950   2.414   1.495   2.869
 1017SOL    HW2 3951   2.311   1.545   2.985
 1018SOL     OW 3952   0.369   4.977   3.549
 1018SOL    HW1 3953   0.313   5.032   3.488
 1018SOL    HW2 3954   0.454   5.026   3.570
 1019SOL     OW 3955   0.250   5.098   0.907
 1019SOL    HW1 3956   0.287   5.104   0.815
 1019SOL    HW2 3957   0.184   5.172   0.921
 1020SOL     OW 3958   0.021   6.897   0.845
 1020SOL    HW1 3959   0.050   6.944   0.762
 1020SOL    HW2 3960   6.945   6.905   0.856
 1021SOL     OW 3961   6.258   6.060   1.401
 1021SOL    HW1 3962   6.213   5.978   1.438
 1021SOL    HW2 3963   6.215   6.141   1.440
 1022SOL     OW 3964   2.437   6.665   6.310
 1022SOL    HW1 3965   2.402   6.612   6.233
 1022SOL    HW2 3966   2.443   6.606   6.391
 1023SOL     OW 3967   0.672   1.969   3.367
 1023SOL    HW1 3968   0.606   2.023   3.313
 1023SOL    HW2 3969   0.649   1.872   3.359
 1024SOL     OW 3970   1.351   1.947   5.135
 1024SOL    HW1 3971   1.293   1.941   5.053
 1024SOL    HW2 3972   1.373   2.043   5.153
 1025SOL     OW 3973   4.578   3.621   0.089
 1025SOL    HW1 3974   4.640   3.582   0.021
 1025SOL    HW2 3975   4.605   3.590   0.180
 1026SOL     OW 3976   2.743   2.851   1.293
 1026SOL    HW1 3977   2.786   2.887   1.376
 1026SOL    HW2 3978   2.646   2.833   1.311
 1027SOL     OW 3979   0.419   6.349   0.988
 1027SOL    HW1 3980   0.507   6.398   0.993
 1027SOL    HW2 3981   0.405   6.297   1.072
 1028SOL     OW 3982   0.701   6.080   2.746
 1028SOL    HW1 3983   0.788   6.099   2.793
 1028SOL    HW2 3984   0.703   5.986   2.711
 1029SOL     OW 3985   1.292   1.484   6.162
 1029SOL    HW1 3986   1.286   1.425   6.081
 1029SOL    HW2 3987   1.373   1.541   6.155
 1030SOL     OW 3988   3.121   3.568   1.541
 1030SOL    HW1 3989   3.160   3.476   1.532
 1030SOL    HW2 3990   3.032   3.562   1.586
 1031SOL     OW 3991   3.210   3.289   1.530
 1031SOL    HW1 3992   3.142   3.249   1.469
 1031SOL    HW2 3993   3.229   3.225   1.605
 1032SOL     OW 3994   1.896   1.477   6.267
 1032SOL    HW1 3995   1.839   1.413   6.217
 1032SOL    HW2 3996   1.898   1.565   6.219
 1033SOL     OW 3997   0.752   6.311   2.058
 1033SOL    HW1 3998   0.818   6.386   2.062
 1033SOL    HW2 3999   0.796   6.229   2.022
 1034SOL     OW 4000   3.318   6.860   4.908
 1034SOL    HW1 4001   3.246   6.902   4.963
 1034SOL    HW2 4002   3.406   6.869   4.955
 1035SOL     OW 4003   0.624   1.826   5.691
 1035SOL    HW1 4004   0.595   1.766   5.616
 1035SOL    HW2 4005   0.652   1.914   5.653
 1036SOL     OW 4006   4.880   1.426   0.896
 1036SOL    HW1 4007   4.932   1.382   0.969
 1036SOL    HW2 4008   4.783   1.426   0.918
 1037SOL     OW 4009   1.305   2.484   2.972
 1037SOL    HW1 4010   1.373   2.520   2.908
 1037SOL    HW2 4011   1.342   2.403   3.018
 1038SOL     OW 4012   2.871   0.033   0.063
 1038SOL    HW1 4013   2.877   0.102   0.135
 1038SOL    HW2 4014   2.952   0.038   0.004
 1039SOL     OW 4015   3.549   3.226   3.633
 1039SOL    HW1 4016   3.578   3.133   3.653
 1039SOL    HW2 4017   3.483   3.225   3.557
 1040SOL     OW 4018   4.130   1.135   2.826
 1040SOL    HW1 4019   4.104   1.063   2.762
 1040SOL    HW2 4020   4.228   1.155   2.816
 1041SOL     OW 4021   6.832   6.353   5.963
 1041SOL    HW1 4022   6.742   6.394   5.946
 1041SOL    HW2 4023   6.839   6.328   6.060
 1042SOL     OW 4024   5.102   4.670   2.228
 1042SOL    HW1 4025   5.066   4.730   2.156
 1042SOL    HW2 4026   5.191   4.635   2.201
 1043SOL     OW 4027   3.686   1.413   3.942
 1043SOL    HW1 4028   3.598   1.419   3.987
 1043SOL    HW2 4029   3.751   1.474   3.987
 1044SOL     OW 4030   5.663   5.308   1.616
 1044SOL    HW1 4031   5.614   5.334   1.533
 1044SOL    HW2 4032   5.708   5.220   1.602
 1045SOL     OW 4033   2.443   0.554   3.868
 1045SOL    HW1 4034   2.497   0.484   3.821
 1045SOL    HW2 4035   2.498   0.636   3.881
 1046SOL     OW 4036   3.054   1.343   0.751
 1046SOL    HW1 4037   3.007   1.311   0.669
 1046SOL    HW2 4038   3.086   1.264   0.804
 1047SOL     OW 4039   3.635   6.709   2.800
 1047SOL    HW1 4040   3.699   6.748   2.866
 1047SOL    HW2 4041   3.655   6.744   2.709
 1048SOL     OW 4042   1.585   6.157   2.095
 1048SOL    HW1 4043   1.565   6.233   2.033
 1048SOL    HW2 4044   1.580   6.071   2.044
 1049SOL     OW 4045   3.991   6.614   5.182
 1049SOL    HW1 4046   3.995   6.670   5.264
 1049SOL    HW2 4047   3.899   6.577   5.171
 1050SOL     OW 4048   3.092   5.374   3.812
 1050SOL    HW1 4049   3.024   5.304   3.789
 1050SOL    HW2 4050   3.167   5.369   3.746
 1051SOL     OW 4051   0.377   0.363   0.408
 1051SOL    HW1 4052   0.376   0.362   0.308
 1051SOL    HW2 4053   0.352   0.455   0.440
 1052SOL     OW 4054   3.680   0.560   6.642
 1052SOL    HW1 4055   3.629   0.475   6.635
 1052SOL    HW2 4056   3.692   0.584   6.739
 1053SOL     OW 4057   5.952   3.272   2.564
 1053SOL    HW1 4058   6.013   3.203   2.603
 1053SOL    HW2 4059   5.986   3.298   2.474
 1054SOL     OW 4060   3.220   4.381   6.974
 1054SOL    HW1 4061   3.131   4.424   6.959
 1054SOL    HW2 4062   3.249   4.335   6.890
 1055SOL     OW 4063   4.659   5.870   6.580
 1055SOL    HW1 4064   4.706   5.935   6.639
 1055SOL    HW2 4065   4.575   5.839   6.624
 1056SOL     OW 4066   2.575   3.978   6.781
 1056SOL    HW1 4067   2.645   3.915   6.747
 1056SOL    HW2 4068   2.516   3.930   6.846
 1057SOL     OW 4069   3.386   1.729   1.327
 1057SOL    HW1 4070   3.405   1.804   1.264
 1057SOL    HW2 4071   3.288   1.715   1.336
 1058SOL     OW 4072   2.667   1.976   2.754
 1058SOL    HW1 4073   2.629   1.901   2.700
 1058SOL    HW2 4074   2.743   2.018   2.703
 1059SOL     OW 4075   2.499   6.023   1.488
 1059SOL    HW1 4076   2.531   6.030   1.583
 1059SOL    HW2 4077   2.564   6.070   1.428
 1060SOL     OW 4078   6.502   6.285   5.666
 1060SOL    HW1 4079   6.596   6.263   5.692
 1060SOL    HW2 4080   6.502   6.365   5.606
 1061SOL     OW 4081   6.801   3.913   0.083
 1061SOL    HW1 4082   6.870   3.983   0.064
 1061SOL    HW2 4083   6.819   3.871   0.171
 1062SOL     OW 4084   3.656   6.339   5.533
 1062SOL    HW1 4085   3.734   6.371   5.478
 1062SOL    HW2 4086   3.582   6.310   5.472
 1063SOL     OW 4087   1.522   6.091   6.000
 1063SOL    HW1 4088   1.617   6.120   5.991
 1063SOL    HW2 4089   1.487   6.120   6.090
 1064SOL     OW 4090   0.928   4.648   1.029
 1064SOL    HW1 4091   0.983   4.655   0.946
 1064SOL    HW2 4092   0.957   4.717   1.094
 1065SOL     OW 4093   4.380   0.361   4.447
 1065SOL    HW1 4094   4.317   0.291   4.412
 1065SOL    HW2 4095   4.469   0.349   4.403
 1066SOL     OW 4096   4.672   0.163   2.138
 1066SOL    HW1 4097   4.738   0.174   2.213
 1066SOL    HW2 4098   4.587   0.124   2.173
 1067SOL     OW 4099   2.594   0.869   0.355
 1067SOL    HW1 4100   2.646   0.911   0.430
 1067SOL    HW2 4101   2.499   0.856   0.384
 1068SOL     OW 4102   6.147   3.028   1.283
 1068SOL    HW1 4103   6.204   3.111   1.281
 1068SOL    HW2 4104   6.192   2.959   1.341
 1069SOL     OW 4105   6.636   3.920   1.997
 1069SOL    HW1 4106   6.638   3.978   1.915
 1069SOL    HW2 4107   6.717   3.938   2.052
 1070SOL     OW 4108   1.058   0.712   2.317
 1070SOL    HW1 4109   0.992   0.768   2.268
 1070SOL    HW2 4110   1.022   0.619   2.329
 1071SOL     OW 4111   6.832   2.592   5.262
 1071SOL    HW1 4112   6.836   2.682   5.305
 1071SOL    HW2 4113   6.822   2.602   5.163
 1072SOL     OW 4114   3.097   1.160   2.703
 1072SOL    HW1 4115   3.120   1.064   2.693
 1072SOL    HW2 4116   3.170   1.217   2.666
 1073SOL     OW 4117   5.122   1.379   3.512
 1073SOL    HW1 4118   5.191   1.386   3.440
 1073SOL    HW2 4119   5.152   1.313   3.581
 1074SOL     OW 4120   3.099   4.948   2.264
 1074SOL    HW1 4121   3.199   4.944   2.266
 1074SOL    HW2 4122   3.066   4.899   2.183
 1075SOL     OW 4123   5.966   2.905   5.297
 1075SOL    HW1 4124   5.928   2.813   5.292
 1075SOL    HW2 4125   5.919   2.963   5.230
 1076SOL     OW 4126   2.137   3.857   4.903
 1076SOL    HW1 4127   2.213   3.922   4.908
 1076SOL    HW2 4128   2.151   3.795   4.826
 1077SOL     OW 4129   6.818   7.017   0.177
 1077SOL    HW1 4130   6.879   0.071   0.159
 1077SOL    HW2 4131   6.723   0.026   0.175
 1078SOL     OW 4132   6.562   5.796   3.951
 1078SOL    HW1 4133   6.561   5.817   4.048
 1078SOL    HW2 4134   6.655   5.774   3.922
 1079SOL     OW 4135   0.993   5.956   2.436
 1079SOL    HW1 4136   1.054   6.011   2.494
 1079SOL    HW2 4137   1.048   5.899   2.375
 1080SOL     OW 4138   1.892   4.929   5.939
 1080SOL    HW1 4139   1.964   4.882   5.991
 1080SOL    HW2 4140   1.803   4.889   5.963
 1081SOL     OW 4141   6.136   5.811   4.522
 1081SOL    HW1 4142   6.221   5.781   4.566
 1081SOL    HW2 4143   6.064   5.743   4.537
 1082SOL     OW 4144   5.585   0.028   6.249
 1082SOL    HW1 4145   5.518   6.977   6.243
 1082SOL    HW2 4146   5.589   0.076   6.161
 1083SOL     OW 4147   5.423   4.478   0.828
 1083SOL    HW1 4148   5.520   4.474   0.803
 1083SOL    HW2 4149   5.371   4.418   0.767
 1084SOL     OW 4150   0.394   0.024   6.487
 1084SOL    HW1 4151   0.481   0.055   6.525
 1084SOL    HW2 4152   0.342   0.103   6.453
 1085SOL     OW 4153   2.028   4.240   3.991
 1085SOL    HW1 4154   2.011   4.173   4.064
 1085SOL    HW2 4155   2.126   4.246   3.974
 1086SOL     OW 4156   6.253   4.499   0.201
 1086SOL    HW1 4157   6.165   4.458   0.226
 1086SOL    HW2 4158   6.260   4.590   0.242
 1087SOL     OW 4159   2.052   0.571   5.309
 1087SOL    HW1 4160   1.957   0.598   5.296
 1087SOL    HW2 4161   2.091   0.621   5.387
 1088SOL     OW 4162   6.939   4.904   3.535
 1088SOL    HW1 4163   6.923   4.808   3.511
 1088SOL    HW2 4164   7.019   4.911   3.595
 1089SOL     OW 4165   6.364   4.185   4.873
 1089SOL    HW1 4166   6.455   4.180   4.915
 1089SOL    HW2 4167   6.316   4.099   4.888
 1090SOL     OW 4168   5.092   1.483   4.556
 1090SOL    HW1 4169   5.184   1.517   4.578
 1090SOL    HW2 4170   5.061   1.524   4.470
 1091SOL     OW 4171   2.273   2.854   3.328
 1091SOL    HW1 4172   2.281   2.809   3.239
 1091SOL    HW2 4173   2.307   2.793   3.399
 1092SOL     OW 4174   0.869   5.024   0.496
 1092SOL    HW1 4175   0.869   5.014   0.596
 1092SOL    HW2 4176   0.791   5.082   0.469
 1093SOL     OW 4177   2.581   0.122   1.303
 1093SOL    HW1 4178   2.571   0.037   1.251
 1093SOL    HW2 4179   2.569   0.103   1.400
 1094SOL     OW 4180   1.297   0.341   2.973
 1094SOL    HW1 4181   1.295   0.298   2.882
 1094SOL    HW2 4182   1.310   0.439   2.964
 1095SOL     OW 4183   7.002   3.448   0.384
 1095SOL    HW1 4184   0.062   3.393   0.397
 1095SOL    HW2 4185   0.002   3.545   0.395
 1096SOL     OW 4186   3.134   5.688   1.558
 1096SOL    HW1 4187   3.214   5.699   1.499
 1096SOL    HW2 4188   3.161   5.641   1.642
 1097SOL     OW 4189   2.554   5.071   3.732
 1097SOL    HW1 4190   2.577   5.153   3.783
 1097SOL    HW2 4191   2.495   5.012   3.788
 1098SOL     OW 4192   6.340   4.961   0.367
 1098SOL    HW1 4193   6.328   4.944   0.465
 1098SOL    HW2 4194   6.251   4.956   0.322
 1099SOL     OW 4195   4.567   0.941   6.412
 1099SOL    HW1 4196   4.510   1.020   6.392
 1099SOL    HW2 4197   4.520   0.858   6.382
 1100SOL     OW 4198   3.416   1.301   3.780
 1100SOL    HW1 4199   3.405   1.350   3.866
 1100SOL    HW2 4200   3.330   1.257   3.755
 1101SOL     OW 4201   6.329   2.909   5.904
 1101SOL    HW1 4202   6.316   2.892   6.001
 1101SOL    HW2 4203   6.405   2.854   5.870
 1102SOL     OW 4204   2.410   0.912   4.294
 1102SOL    HW1 4205   2.408   0.917   4.194
 1102SOL    HW2 4206   2.325   0.871   4.328
 1103SOL     OW 4207   3.327   0.638   6.717
 1103SOL    HW1 4208   3.343   0.715   6.656
 1103SOL    HW2 4209   3.235   0.645   6.757
 1104SOL     OW 4210   0.226   3.454   3.637
 1104SOL    HW1 4211   0.281   3.379   3.603
 1104SOL    HW2 4212   0.201   3.437   3.732
 1105SOL     OW 4213   5.205   1.114   4.879
 1105SOL    HW1 4214   5.174   1.043   4.816
 1105SOL    HW2 4215   5.302   1.102   4.899
 1106SOL     OW 4216   0.529   1.519   0.628
 1106SOL    HW1 4217   0.501   1.527   0.724
 1106SOL    HW2 4218   0.486   1.592   0.575
 1107SOL     OW 4219   0.676   0.583   0.318
 1107SOL    HW1 4220   0.680   0.646   0.241
 1107SOL    HW2 4221   0.754   0.521   0.315
 1108SOL     OW 4222   2.904   6.576   4.142
 1108SOL    HW1 4223   2.987   6.550   4.093
 1108SOL    HW2 4224   2.877   6.668   4.116
 1109SOL     OW 4225   5.328   1.602   4.709
 1109SOL    HW1 4226   5.321   1.608   4.809
 1109SOL    HW2 4227   5.424   1.590   4.684
 1110SOL     OW 4228   3.452   0.739   2.221
 1110SOL    HW1 4229   3.447   0.713   2.318
 1110SOL    HW2 4230   3.376   0.801   2.200
 1111SOL     OW 4231   4.896   3.458   6.212
 1111SOL    HW1 4232   4.852   3.458   6.122
 1111SOL    HW2 4233   4.856   3.530   6.269
 1112SOL     OW 4234   5.183   0.425   2.124
 1112SOL    HW1 4235   5.114   0.365   2.083
 1112SOL    HW2 4236   5.259   0.370   2.159
 1113SOL     OW 4237   6.078   4.442   2.592
 1113SOL    HW1 4238   6.000   4.435   2.655
 1113SOL    HW2 4239   6.072   4.528   2.542
 1114SOL     OW 4240   4.518   3.160   5.715
 1114SOL    HW1 4241   4.534   3.208   5.629
 1114SOL    HW2 4242   4.420   3.156   5.734
 1115SOL     OW 4243   3.129   4.164   5.752
 1115SOL    HW1 4244   3.197   4.237   5.745
 1115SOL    HW2 4245   3.095   4.141   5.661
 1116SOL     OW 4246   5.105   0.158   6.077
 1116SOL    HW1 4247   5.048   0.237   6.055
 1116SOL    HW2 4248   5.153   0.175   6.163
 1117SOL     OW 4249   1.155   2.887   1.702
 1117SOL    HW1 4250   1.118   2.963   1.649
 1117SOL    HW2 4251   1.080   2.830   1.736
 1118SOL     OW 4252   3.065   4.894   6.922
 1118SOL    HW1 4253   3.054   4.879   6.824
 1118SOL    HW2 4254   3.160   4.916   6.943
 1119SOL     OW 4255   4.034   5.263   3.812
 1119SOL    HW1 4256   3.943   5.234   3.842
 1119SOL    HW2 4257   4.036   5.268   3.712
 1120SOL     OW 4258   6.941   5.270   0.958
 1120SOL    HW1 4259   6.928   5.223   0.870
 1120SOL    HW2 4260   6.928   5.206   1.033
 1121SOL     OW 4261   0.147   4.981   4.517
 1121SOL    HW1 4262   0.072   5.033   4.476
 1121SOL    HW2 4263   0.152   5.003   4.615
 1122SOL     OW 4264   5.575   2.641   1.731
 1122SOL    HW1 4265   5.541   2.626   1.824
 1122SOL    HW2 4266   5.587   2.739   1.716
 1123SOL     OW 4267   4.079   2.165   3.297
 1123SOL    HW1 4268   4.114   2.094   3.358
 1123SOL    HW2 4269   3.980   2.171   3.307
 1124SOL     OW 4270   2.147   3.195   4.918
 1124SOL    HW1 4271   2.223   3.137   4.946
 1124SOL    HW2 4272   2.170   3.291   4.936
 1125SOL     OW 4273   0.973   4.171   3.847
 1125SOL    HW1 4274   1.015   4.084   3.871
 1125SOL    HW2 4275   1.044   4.241   3.836
 1126SOL     OW 4276   3.715   5.151   5.321
 1126SOL    HW1 4277   3.761   5.232   5.284
 1126SOL    HW2 4278   3.735   5.144   5.419
 1127SOL     OW 4279   5.776   6.598   3.017
 1127SOL    HW1 4280   5.818   6.576   3.105
 1127SOL    HW2 4281   5.743   6.693   3.019
 1128SOL     OW 4282   6.244   2.020   3.544
 1128SOL    HW1 4283   6.200   2.074   3.472
 1128SOL    HW2 4284   6.261   1.927   3.510
 1129SOL     OW 4285   1.879   0.568   1.195
 1129SOL    HW1 4286   1.878   0.540   1.099
 1129SOL    HW2 4287   1.937   0.649   1.205
 1130SOL     OW 4288   1.929   5.570   2.982
 1130SOL    HW1 4289   1.981   5.563   2.896
 1130SOL    HW2 4290   1.966   5.505   3.048
 1131SOL     OW 4291   1.581   6.607   4.494
 1131SOL    HW1 4292   1.675   6.630   4.516
 1131SOL    HW2 4293   1.519   6.659   4.552
 1132SOL     OW 4294   3.558   1.543   2.857
 1132SOL    HW1 4295   3.577   1.587   2.770
 1132SOL    HW2 4296   3.528   1.611   2.924
 1133SOL     OW 4297   1.238   6.573   4.849
 1133SOL    HW1 4298   1.253   6.563   4.947
 1133SOL    HW2 4299   1.225   6.483   4.808
 1134SOL     OW 4300   4.612   0.335   1.522
 1134SOL    HW1 4301   4.571   0.279   1.594
 1134SOL    HW2 4302   4.711   0.320   1.521
 1135SOL     OW 4303   2.442   6.117   3.903
 1135SOL    HW1 4304   2.362   6.067   3.937
 1135SOL    HW2 4305   2.478   6.071   3.822
 1136SOL     OW 4306   2.909   5.734   2.124
 1136SOL    HW1 4307   2.979   5.663   2.114
 1136SOL    HW2 4308   2.825   5.704   2.080
 1137SOL     OW 4309   0.419   5.454   6.087
 1137SOL    HW1 4310   0.505   5.460   6.036
 1137SOL    HW2 4311   0.347   5.421   6.026
 1138SOL     OW 4312   1.893   3.056   4.939
 1138SOL    HW1 4313   1.890   2.987   4.867
 1138SOL    HW2 4314   1.977   3.109   4.931
 1139SOL     OW 4315   2.886   5.087   4.208
 1139SOL    HW1 4316   2.959   5.034   4.250
 1139SOL    HW2 4317   2.922   5.174   4.174
 1140SOL     OW 4318   1.416   1.341   1.863
 1140SOL    HW1 4319   1.318   1.324   1.854
 1140SOL    HW2 4320   1.442   1.334   1.959
 1141SOL     OW 4321   6.123   4.628   6.096
 1141SOL    HW1 4322   6.190   4.580   6.152
 1141SOL    HW2 4323   6.158   4.637   6.003
 1142SOL     OW 4324   2.693   6.874   2.879
 1142SOL    HW1 4325   2.761   6.855   2.809
 1142SOL    HW2 4326   2.677   6.792   2.934
 1143SOL     OW 4327   0.770   3.481   1.864
 1143SOL    HW1 4328   0.820   3.548   1.920
 1143SOL    HW2 4329   0.699   3.438   1.919
 1144SOL     OW 4330   5.582   4.331   2.293
 1144SOL    HW1 4331   5.619   4.271   2.363
 1144SOL    HW2 4332   5.531   4.277   2.226
 1145SOL     OW 4333   0.721   1.879   0.055
 1145SOL    HW1 4334   0.646   1.884   7.012
 1145SOL    HW2 4335   0.701   1.808   0.122
 1146SOL     OW 4336   0.649   1.077   1.594
 1146SOL    HW1 4337   0.571   1.138   1.611
 1146SOL    HW2 4338   0.618   0.996   1.545
 1147SOL     OW 4339   3.291   6.785   0.888
 1147SOL    HW1 4340   3.261   6.772   0.983
 1147SOL    HW2 4341   3.330   6.877   0.878
 1148SOL     OW 4342   3.689   5.611   2.553
 1148SOL    HW1 4343   3.652   5.683   2.495
 1148SOL    HW2 4344   3.615   5.555   2.589
 1149SOL     OW 4345   5.134   2.169   1.380
 1149SOL    HW1 4346   5.171   2.231   1.450
 1149SOL    HW2 4347   5.099   2.222   1.304
 1150SOL     OW 4348   1.429   4.236   6.919
 1150SOL    HW1 4349   1.341   4.281   6.903
 1150SOL    HW2 4350   1.496   4.268   6.852
 1151SOL     OW 4351   6.294   5.415   3.653
 1151SOL    HW1 4352   6.384   5.459   3.657
 1151SOL    HW2 4353   6.279   5.361   3.736
 1152SOL     OW 4354   4.927   6.837   6.683
 1152SOL    HW1 4355   4.957   6.746   6.710
 1152SOL    HW2 4356   5.005   6.900   6.682
 1153SOL     OW 4357   6.362   0.503   1.186
 1153SOL    HW1 4358   6.383   0.548   1.100
 1153SOL    HW2 4359   6.304   0.423   1.169
 1154SOL     OW 4360   1.603   3.292   2.159
 1154SOL    HW1 4361   1.684   3.241   2.133
 1154SOL    HW2 4362   1.559   3.247   2.237
 1155SOL     OW 4363   2.703   6.499   4.717
 1155SOL    HW1 4364   2.746   6.423   4.667
 1155SOL    HW2 4365   2.725   6.490   4.814
 1156SOL     OW 4366   4.161   1.934   4.550
 1156SOL    HW1 4367   4.135   1.847   4.592
 1156SOL    HW2 4368   4.259   1.948   4.560
 1157SOL     OW 4369   3.668   0.529   5.782
 1157SOL    HW1 4370   3.745   0.579   5.740
 1157SOL    HW2 4371   3.701   0.477   5.861
 1158SOL     OW 4372   5.875   6.348   2.952
 1158SOL    HW1 4373   5.803   6.286   2.984
 1158SOL    HW2 4374   5.846   6.443   2.964
 1159SOL     OW 4375   6.633   6.310   2.529
 1159SOL    HW1 4376   6.614   6.398   2.574
 1159SOL    HW2 4377   6.552   6.252   2.534
 1160SOL     OW 4378   4.386   0.736   0.477
 1160SOL    HW1 4379   4.412   0.640   0.465
 1160SOL    HW2 4380   4.311   0.758   0.416
 1161SOL     OW 4381   0.720   5.410   6.874
 1161SOL    HW1 4382   0.737   5.508   6.859
 1161SOL    HW2 4383   0.795   5.372   6.928
 1162SOL     OW 4384   1.920   2.960   5.209
 1162SOL    HW1 4385   1.906   3.011   5.124
 1162SOL    HW2 4386   2.005   2.990   5.252
 1163SOL     OW 4387   5.963   4.281   1.792
 1163SOL    HW1 4388   5.936   4.371   1.759
 1163SOL    HW2 4389   5.883   4.222   1.800
 1164SOL     OW 4390   5.023   1.671   4.368
 1164SOL    HW1 4391   4.990   1.632   4.282
 1164SOL    HW2 4392   5.067   1.759   4.350
 1165SOL     OW 4393   3.823   6.186   3.584
 1165SOL    HW1 4394   3.913   6.213   3.615
 1165SOL    HW2 4395   3.763   6.266   3.582
 1166SOL     OW 4396   2.520   6.271   6.552
 1166SOL    HW1 4397   2.506   6.283   6.454
 1166SOL    HW2 4398   2.613   6.297   6.576
 1167SOL     OW 4399   5.285   4.861   2.446
 1167SOL    HW1 4400   5.233   4.884   2.528
 1167SOL    HW2 4401   5.234   4.792   2.393
 1168SOL     OW 4402   5.985   2.284   3.041
 1168SOL    HW1 4403   6.021   2.263   2.950
 1168SOL    HW2 4404   5.892   2.321   3.032
 1169SOL     OW 4405   5.677   0.616   4.746
 1169SOL    HW1 4406   5.587   0.654   4.769
 1169SOL    HW2 4407   5.718   0.575   4.828
 1170SOL     OW 4408   4.951   6.936   3.558
 1170SOL    HW1 4409   4.929   6.923   3.655
 1170SOL    HW2 4410   4.930   0.007   3.532
 1171SOL     OW 4411   1.371   0.527   1.415
 1171SOL    HW1 4412   1.334   0.500   1.326
 1171SOL    HW2 4413   1.457   0.576   1.402
 1172SOL     OW 4414   6.726   3.709   6.582
 1172SOL    HW1 4415   6.805   3.714   6.644
 1172SOL    HW2 4416   6.693   3.615   6.579
 1173SOL     OW 4417   3.057   1.609   1.236
 1173SOL    HW1 4418   3.133   1.638   1.177
 1173SOL    HW2 4419   3.011   1.531   1.194
 1174SOL     OW 4420   3.795   3.833   0.852
 1174SOL    HW1 4421   3.820   3.740   0.825
 1174SOL    HW2 4422   3.825   3.849   0.947
 1175SOL     OW 4423   3.584   3.392   5.001
 1175SOL    HW1 4424   3.648   3.421   4.930
 1175SOL    HW2 4425   3.501   3.357   4.958
 1176SOL     OW 4426   5.540   3.918   6.199
 1176SOL    HW1 4427   5.540   3.989   6.270
 1176SOL    HW2 4428   5.534   3.828   6.243
 1177SOL     OW 4429   6.629   2.348   4.706
 1177SOL    HW1 4430   6.650   2.310   4.796
 1177SOL    HW2 4431   6.535   2.381   4.705
 1178SOL     OW 4432   3.005   4.651   0.459
 1178SOL    HW1 4433   3.098   4.655   0.497
 1178SOL    HW2 4434   3.003   4.703   0.374
 1179SOL     OW 4435   2.715   5.166   0.441
 1179SOL    HW1 4436   2.747   5.255   0.473
 1179SOL    HW2 4437   2.762   5.093   0.491
 1180SOL     OW 4438   2.760   5.695   0.810
 1180SOL    HW1 4439   2.665   5.722   0.795
 1180SOL    HW2 4440   2.819   5.745   0.747
 1181SOL     OW 4441   0.357   5.493   6.356
 1181SOL    HW1 4442   0.374   5.485   6.258
 1181SOL    HW2 4443   0.306   5.577   6.374
 1182SOL     OW 4444   3.584   5.157   2.820
 1182SOL    HW1 4445   3.567   5.243   2.867
 1182SOL    HW2 4446   3.553   5.163   2.725
 1183SOL     OW 4447   2.026   3.934   6.394
 1183SOL    HW1 4448   1.966   3.930   6.314
 1183SOL    HW2 4449   2.108   3.879   6.377
 1184SOL     OW 4450   1.613   0.310   5.130
 1184SOL    HW1 4451   1.623   0.409   5.122
 1184SOL    HW2 4452   1.587   0.272   5.041
 1185SOL     OW 4453   6.627   1.246   6.693
 1185SOL    HW1 4454   6.713   1.287   6.664
 1185SOL    HW2 4455   6.637   1.208   6.785
 1186SOL     OW 4456   4.758   5.869   4.482
 1186SOL    HW1 4457   4.706   5.952   4.505
 1186SOL    HW2 4458   4.801   5.833   4.564
 1187SOL     OW 4459   6.451   0.073   5.827
 1187SOL    HW1 4460   6.410   0.001   5.883
 1187SOL    HW2 4461   6.547   0.050   5.809
 1188SOL     OW 4462   3.026   6.463   4.945
 1188SOL    HW1 4463   3.100   6.443   4.882
 1188SOL    HW2 4464   3.061   6.514   5.023
 1189SOL     OW 4465   6.492   3.529   2.962
 1189SOL    HW1 4466   6.471   3.432   2.973
 1189SOL    HW2 4467   6.538   3.563   3.044
 1190SOL     OW 4468   2.070   6.534   2.953
 1190SOL    HW1 4469   2.098   6.603   3.020
 1190SOL    HW2 4470   2.085   6.443   2.990
 1191SOL     OW 4471   4.284   5.462   3.171
 1191SOL    HW1 4472   4.211   5.530   3.180
 1191SOL    HW2 4473   4.247   5.380   3.128
 1192SOL     OW 4474   3.991   5.711   2.910
 1192SOL    HW1 4475   4.043   5.792   2.935
 1192SOL    HW2 4476   3.961   5.664   2.993
 1193SOL     OW 4477   5.803   4.697   4.300
 1193SOL    HW1 4478   5.833   4.672   4.392
 1193SOL    HW2 4479   5.807   4.797   4.290
 1194SOL     OW 4480   5.314   0.735   1.388
 1194SOL    HW1 4481   5.217   0.742   1.368
 1194SOL    HW2 4482   5.337   0.796   1.465
 1195SOL     OW 4483   6.046   3.904   1.962
 1195SOL    HW1 4484   6.130   3.921   2.012
 1195SOL    HW2 4485   5.973   3.962   1.998
 1196SOL     OW 4486   6.568   6.405   3.835
 1196SOL    HW1 4487   6.612   6.316   3.830
 1196SOL    HW2 4488   6.616   6.463   3.902
 1197SOL     OW 4489   3.439   0.403   6.994
 1197SOL    HW1 4490   3.389   0.362   6.917
 1197SOL    HW2 4491   3.450   0.335   0.044
 1198SOL     OW 4492   1.509   1.893   0.810
 1198SOL    HW1 4493   1.520   1.888   0.711
 1198SOL    HW2 4494   1.525   1.802   0.850
 1199SOL     OW 4495   5.057   5.155   1.249
 1199SOL    HW1 4496   5.107   5.234   1.214
 1199SOL    HW2 4497   5.120   5.094   1.297
 1200SOL     OW 4498   3.329   3.283   2.845
 1200SOL    HW1 4499   3.396   3.356   2.858
 1200SOL    HW2 4500   3.242   3.323   2.819
 1201SOL     OW 4501   1.301   1.412   5.030
 1201SOL    HW1 4502   1.225   1.434   5.092
 1201SOL    HW2 4503   1.320   1.314   5.034
 1202SOL     OW 4504   0.877   5.224   6.746
 1202SOL    HW1 4505   0.887   5.231   6.845
 1202SOL    HW2 4506   0.780   5.215   6.724
 1203SOL     OW 4507   4.894   5.941   6.029
 1203SOL    HW1 4508   4.972   6.002   6.016
 1203SOL    HW2 4509   4.861   5.909   5.941
 1204SOL     OW 4510   2.370   0.796   1.557
 1204SOL    HW1 4511   2.346   0.738   1.480
 1204SOL    HW2 4512   2.411   0.739   1.629
 1205SOL     OW 4513   5.097   4.027   1.668
 1205SOL    HW1 4514   5.009   4.068   1.644
 1205SOL    HW2 4515   5.170   4.078   1.622
 1206SOL     OW 4516   2.971   3.393   4.581
 1206SOL    HW1 4517   2.937   3.486   4.590
 1206SOL    HW2 4518   2.946   3.340   4.661
 1207SOL     OW 4519   2.539   6.902   1.590
 1207SOL    HW1 4520   2.475   6.831   1.560
 1207SOL    HW2 4521   2.631   6.862   1.596
 1208SOL     OW 4522   3.634   3.587   0.534
 1208SOL    HW1 4523   3.534   3.581   0.524
 1208SOL    HW2 4524   3.670   3.497   0.560
 1209SOL     OW 4525   3.297   0.248   5.466
 1209SOL    HW1 4526   3.280   0.331   5.413
 1209SOL    HW2 4527   3.232   0.244   5.543
 1210SOL     OW 4528   2.886   6.746   3.495
 1210SOL    HW1 4529   2.923   6.838   3.479
 1210SOL    HW2 4530   2.796   6.739   3.451
 1211SOL     OW 4531   0.978   3.902   1.138
 1211SOL    HW1 4532   1.026   3.869   1.057
 1211SOL    HW2 4533   0.890   3.941   1.112
 1212SOL     OW 4534   0.269   0.111   6.920
 1212SOL    HW1 4535   0.344   0.052   6.889
 1212SOL    HW2 4536   0.300   0.207   6.920
 1213SOL     OW 4537   5.793   2.816   0.565
 1213SOL    HW1 4538   5.891   2.795   0.564
 1213SOL    HW2 4539   5.780   2.915   0.560
 1214SOL     OW 4540   7.021   1.936   1.220
 1214SOL    HW1 4541   6.976   2.018   1.185
 1214SOL    HW2 4542   0.097   1.944   1.207
 1215SOL     OW 4543   1.391   4.808   4.575
 1215SOL    HW1 4544   1.404   4.875   4.647
 1215SOL    HW2 4545   1.440   4.837   4.493
 1216SOL     OW 4546   4.451   0.506   6.633
 1216SOL    HW1 4547   4.451   0.409   6.607
 1216SOL    HW2 4548   4.494   0.559   6.560
 1217SOL     OW 4549   2.276   4.798   0.581
 1217SOL    HW1 4550   2.311   4.705   0.585
 1217SOL    HW2 4551   2.334   4.858   0.636
 1218SOL     OW 4552   1.428   4.871   3.996
 1218SOL    HW1 4553   1.339   4.906   3.967
 1218SOL    HW2 4554   1.481   4.946   4.036
 1219SOL     OW 4555   4.595   6.322   1.695
 1219SOL    HW1 4556   4.608   6.228   1.665
 1219SOL    HW2 4557   4.525   6.366   1.637
 1220SOL     OW 4558   1.220   5.167   2.980
 1220SOL    HW1 4559   1.158   5.109   2.926
 1220SOL    HW2 4560   1.175   5.194   3.065
 1221SOL     OW 4561   5.963   2.855   5.576
 1221SOL    HW1 4562   6.051   2.888   5.609
 1221SOL    HW2 4563   5.957   2.868   5.477
 1222SOL     OW 4564   6.370   6.455   6.819
 1222SOL    HW1 4565   6.438   6.519   6.783
 1222SOL    HW2 4566   6.337   6.397   6.746
 1223SOL     OW 4567   3.559   0.321   0.703
 1223SOL    HW1 4568   3.476   0.376   0.704
 1223SOL    HW2 4569   3.568   0.272   0.790
 1224SOL     OW 4570   2.385   0.750   0.985
 1224SOL    HW1 4571   2.320   0.679   1.014
 1224SOL    HW2 4572   2.344   0.805   0.913
 1225SOL     OW 4573   3.262   3.791   6.260
 1225SOL    HW1 4574   3.295   3.878   6.223
 1225SOL    HW2 4575   3.203   3.747   6.193
 1226SOL     OW 4576   2.252   4.904   1.361
 1226SOL    HW1 4577   2.337   4.852   1.367
 1226SOL    HW2 4578   2.175   4.844   1.383
 1227SOL     OW 4579   6.908   3.794   6.829
 1227SOL    HW1 4580   6.819   3.787   6.873
 1227SOL    HW2 4581   6.942   3.888   6.838
 1228SOL     OW 4582   3.324   2.489   6.206
 1228SOL    HW1 4583   3.417   2.524   6.194
 1228SOL    HW2 4584   3.310   2.410   6.147
 1229SOL     OW 4585   4.083   4.739   6.571
 1229SOL    HW1 4586   4.039   4.711   6.486
 1229SOL    HW2 4587   4.101   4.837   6.569
 1230SOL     OW 4588   4.280   6.601   3.476
 1230SOL    HW1 4589   4.291   6.531   3.405
 1230SOL    HW2 4590   4.275   6.691   3.433
 1231SOL     OW 4591   2.108   3.488   4.948
 1231SOL    HW1 4592   2.022   3.490   5.000
 1231SOL    HW2 4593   2.184   3.510   5.008
 1232SOL     OW 4594   1.459   2.561   5.284
 1232SOL    HW1 4595   1.439   2.520   5.373
 1232SOL    HW2 4596   1.493   2.490   5.221
 1233SOL     OW 4597   0.850   2.562   5.796
 1233SOL    HW1 4598   0.807   2.643   5.835
 1233SOL    HW2 4599   0.945   2.583   5.771
 1234SOL     OW 4600   6.164   4.399   4.896
 1234SOL    HW1 4601   6.235   4.328   4.905
 1234SOL    HW2 4602   6.198   4.473   4.838
 1235SOL     OW 4603   6.489   5.933   3.281
 1235SOL    HW1 4604   6.578   5.892   3.259
 1235SOL    HW2 4605   6.454   5.894   3.366
 1236SOL     OW 4606   5.287   0.808   6.586
 1236SOL    HW1 4607   5.277   0.888   6.646
 1236SOL    HW2 4608   5.304   0.838   6.492
 1237SOL     OW 4609   2.744   4.639   6.786
 1237SOL    HW1 4610   2.657   4.590   6.790
 1237SOL    HW2 4611   2.784   4.630   6.695
 1238SOL     OW 4612   1.825   1.488   0.908
 1238SOL    HW1 4613   1.763   1.428   0.959
 1238SOL    HW2 4614   1.780   1.575   0.888
 1239SOL     OW 4615   6.994   6.033   6.628
 1239SOL    HW1 4616   6.903   6.020   6.668
 1239SOL    HW2 4617   0.009   5.944   6.602
 1240SOL     OW 4618   5.371   6.055   2.077
 1240SOL    HW1 4619   5.280   6.095   2.090
 1240SOL    HW2 4620   5.370   5.959   2.105
 1241SOL     OW 4621   6.510   3.674   4.587
 1241SOL    HW1 4622   6.582   3.711   4.528
 1241SOL    HW2 4623   6.487   3.740   4.658
 1242SOL     OW 4624   1.800   3.589   0.557
 1242SOL    HW1 4625   1.767   3.682   0.576
 1242SOL    HW2 4626   1.822   3.581   0.460
 1243SOL     OW 4627   2.176   5.418   5.454
 1243SOL    HW1 4628   2.079   5.396   5.456
 1243SOL    HW2 4629   2.190   5.502   5.401
 1244SOL     OW 4630   0.552   1.125   3.466
 1244SOL    HW1 4631   0.600   1.185   3.403
 1244SOL    HW2 4632   0.596   1.035   3.469
 1245SOL     OW 4633   2.916   4.048   0.046
 1245SOL    HW1 4634   2.892   3.951   0.046
 1245SOL    HW2 4635   2.933   4.079   6.975
 1246SOL     OW 4636   2.477   6.578   1.756
 1246SOL    HW1 4637   2.523   6.490   1.747
 1246SOL    HW2 4638   2.445   6.609   1.666
 1247SOL     OW 4639   2.205   6.838   6.135
 1247SOL    HW1 4640   2.226   6.916   6.076
 1247SOL    HW2 4641   2.199   6.869   6.230
 1248SOL     OW 4642   1.766   5.681   3.174
 1248SOL    HW1 4643   1.776   5.776   3.201
 1248SOL    HW2 4644   1.812   5.666   3.086
 1249SOL     OW 4645   5.838   3.365   3.267
 1249SOL    HW1 4646   5.765   3.318   3.316
 1249SOL    HW2 4647   5.854   3.455   3.309
 1250SOL     OW 4648   1.203   4.943   3.852
 1250SOL    HW1 4649   1.104   4.938   3.866
 1250SOL    HW2 4650   1.225   4.918   3.758
 1251SOL     OW 4651   3.838   0.743   4.418
 1251SOL    HW1 4652   3.829   0.839   4.391
 1251SOL    HW2 4653   3.826   0.735   4.517
 1252SOL     OW 4654   2.940   4.101   5.565
 1252SOL    HW1 4655   2.963   4.008   5.594
 1252SOL    HW2 4656   2.961   4.112   5.468
 1253SOL     OW 4657   3.824   5.138   2.089
 1253SOL    HW1 4658   3.753   5.076   2.124
 1253SOL    HW2 4659   3.817   5.226   2.135
 1254SOL     OW 4660   6.072   1.971   2.832
 1254SOL    HW1 4661   6.042   1.949   2.925
 1254SOL    HW2 4662   6.172   1.972   2.829
 1255SOL     OW 4663   0.161   0.003   5.643
 1255SOL    HW1 4664   0.116   7.014   5.731
 1255SOL    HW2 4665   0.193   6.937   5.609
 1256SOL     OW 4666   6.297   6.795   3.333
 1256SOL    HW1 4667   6.240   6.753   3.404
 1256SOL    HW2 4668   6.319   6.727   3.264
 1257SOL     OW 4669   6.841   0.780   3.662
 1257SOL    HW1 4670   6.888   0.733   3.588
 1257SOL    HW2 4671   6.878   0.873   3.670
 1258SOL     OW 4672   0.775   6.909   3.139
 1258SOL    HW1 4673   0.725   6.893   3.054
 1258SOL    HW2 4674   0.848   6.975   3.122
 1259SOL     OW 4675   4.042   1.883   4.966
 1259SOL    HW1 4676   4.136   1.913   4.951
 1259SOL    HW2 4677   3.980   1.960   4.952
 1260SOL     OW 4678   0.962   1.111   0.027
 1260SOL    HW1 4679   1.041   1.069   7.005
 1260SOL    HW2 4680   0.994   1.176   0.096
 1261SOL     OW 4681   0.362   5.456   0.387
 1261SOL    HW1 4682   0.381   5.368   0.344
 1261SOL    HW2 4683   0.285   5.500   0.341
 1262SOL     OW 4684   5.453   5.820   1.804
 1262SOL    HW1 4685   5.483   5.746   1.864
 1262SOL    HW2 4686   5.484   5.907   1.841
 1263SOL     OW 4687   1.393   2.413   3.830
 1263SOL    HW1 4688   1.312   2.437   3.883
 1263SOL    HW2 4689   1.473   2.409   3.890
 1264SOL     OW 4690   0.857   2.618   5.178
 1264SOL    HW1 4691   0.917   2.562   5.235
 1264SOL    HW2 4692   0.763   2.612   5.212
 1265SOL     OW 4693   6.080   6.241   5.145
 1265SOL    HW1 4694   6.109   6.224   5.051
 1265SOL    HW2 4695   6.005   6.308   5.146
 1266SOL     OW 4696   1.690   0.600   4.746
 1266SOL    HW1 4697   1.657   0.689   4.778
 1266SOL    HW2 4698   1.613   0.544   4.717
 1267SOL     OW 4699   4.535   0.182   2.451
 1267SOL    HW1 4700   4.535   0.271   2.405
 1267SOL    HW2 4701   4.623   0.137   2.436
 1268SOL     OW 4702   4.165   2.382   5.440
 1268SOL    HW1 4703   4.256   2.349   5.417
 1268SOL    HW2 4704   4.128   2.436   5.364
 1269SOL     OW 4705   6.146   2.316   3.973
 1269SOL    HW1 4706   6.055   2.289   3.940
 1269SOL    HW2 4707   6.210   2.241   3.958
 1270SOL     OW 4708   0.748   4.828   2.848
 1270SOL    HW1 4709   0.666   4.874   2.814
 1270SOL    HW2 4710   0.725   4.777   2.931
 1271SOL     OW 4711   1.173   1.215   1.765
 1271SOL    HW1 4712   1.103   1.176   1.706
 1271SOL    HW2 4713   1.188   1.157   1.844
 1272SOL     OW 4714   6.800   4.225   0.238
 1272SOL    HW1 4715   6.874   4.252   0.176
 1272SOL    HW2 4716   6.802   4.283   0.319
 1273SOL     OW 4717   1.645   4.219   5.401
 1273SOL    HW1 4718   1.740   4.196   5.379
 1273SOL    HW2 4719   1.619   4.303   5.354
 1274SOL     OW 4720   0.605   4.904   2.462
 1274SOL    HW1 4721   0.653   4.987   2.490
 1274SOL    HW2 4722   0.507   4.921   2.462
 1275SOL     OW 4723   3.093   0.401   2.930
 1275SOL    HW1 4724   3.124   0.470   2.865
 1275SOL    HW2 4725   3.124   0.425   3.022
 1276SOL     OW 4726   5.200   4.308   3.926
 1276SOL    HW1 4727   5.295   4.278   3.939
 1276SOL    HW2 4728   5.140   4.229   3.924
 1277SOL     OW 4729   0.476   5.878   0.422
 1277SOL    HW1 4730   0.477   5.917   0.514
 1277SOL    HW2 4731   0.523   5.939   0.359
 1278SOL     OW 4732   1.661   6.152   2.609
 1278SOL    HW1 4733   1.592   6.198   2.665
 1278SOL    HW2 4734   1.642   6.168   2.512
 1279SOL     OW 4735   2.532   2.033   6.752
 1279SOL    HW1 4736   2.548   2.032   6.653
 1279SOL    HW2 4737   2.506   2.125   6.781
 1280SOL     OW 4738   2.861   1.572   3.414
 1280SOL    HW1 4739   2.959   1.557   3.432
 1280SOL    HW2 4740   2.820   1.486   3.384
 1281SOL     OW 4741   4.064   5.792   4.252
 1281SOL    HW1 4742   4.040   5.762   4.159
 1281SOL    HW2 4743   4.154   5.835   4.250
 1282SOL     OW 4744   0.093   2.525   1.071
 1282SOL    HW1 4745   0.146   2.496   1.151
 1282SOL    HW2 4746   0.113   2.621   1.050
 1283SOL     OW 4747   6.700   3.024   5.087
 1283SOL    HW1 4748   6.741   3.015   4.997
 1283SOL    HW2 4749   6.630   3.095   5.085
 1284SOL     OW 4750   4.053   1.871   1.247
 1284SOL    HW1 4751   4.122   1.798   1.251
 1284SOL    HW2 4752   3.965   1.834   1.275
 1285SOL     OW 4753   3.613   1.523   4.691
 1285SOL    HW1 4754   3.540   1.565   4.745
 1285SOL    HW2 4755   3.639   1.585   4.617
 1286SOL     OW 4756   4.566   2.267   1.847
 1286SOL    HW1 4757   4.515   2.216   1.779
 1286SOL    HW2 4758   4.592   2.207   1.923
 1287SOL     OW 4759   6.569   4.525   4.916
 1287SOL    HW1 4760   6.580   4.437   4.961
 1287SOL    HW2 4761   6.578   4.598   4.984
 1288SOL     OW 4762   4.510   4.257   6.325
 1288SOL    HW1 4763   4.500   4.339   6.382
 1288SOL    HW2 4764   4.607   4.238   6.311
 1289SOL     OW 4765   7.009   0.164   1.588
 1289SOL    HW1 4766   6.916   0.127   1.598
 1289SOL    HW2 4767   7.018   0.246   1.644
 1290SOL     OW 4768   1.362   0.051   6.772
 1290SOL    HW1 4769   1.308   0.041   6.855
 1290SOL    HW2 4770   1.371   6.985   6.727
 1291SOL     OW 4771   6.526   5.336   2.971
 1291SOL    HW1 4772   6.598   5.404   2.984
 1291SOL    HW2 4773   6.550   5.253   3.021
 1292SOL     OW 4774   1.276   6.055   2.329
 1292SOL    HW1 4775   1.219   5.986   2.284
 1292SOL    HW2 4776   1.238   6.145   2.312
 1293SOL     OW 4777   3.137   1.232   6.799
 1293SOL    HW1 4778   3.110   1.320   6.840
 1293SOL    HW2 4779   3.064   1.202   6.737
 1294SOL     OW 4780   2.031   3.889   5.455
 1294SOL    HW1 4781   2.072   3.881   5.364
 1294SOL    HW2 4782   2.103   3.889   5.524
 1295SOL     OW 4783   6.564   3.967   0.952
 1295SOL    HW1 4784   6.529   3.986   1.044
 1295SOL    HW2 4785   6.494   3.918   0.899
 1296SOL     OW 4786   5.541   6.522   5.481
 1296SOL    HW1 4787   5.540   6.431   5.440
 1296SOL    HW2 4788   5.604   6.523   5.559
 1297SOL     OW 4789   0.430   0.459   2.197
 1297SOL    HW1 4790   0.475   0.372   2.221
 1297SOL    HW2 4791   0.336   0.441   2.171
 1298SOL     OW 4792   5.708   5.432   2.234
 1298SOL    HW1 4793   5.742   5.397   2.146
 1298SOL    HW2 4794   5.609   5.423   2.237
 1299SOL     OW 4795   1.873   3.497   4.515
 1299SOL    HW1 4796   1.856   3.568   4.583
 1299SOL    HW2 4797   1.808   3.506   4.439
 1300SOL     OW 4798   1.249   4.695   1.724
 1300SOL    HW1 4799   1.202   4.607   1.709
 1300SOL    HW2 4800   1.183   4.769   1.716
 1301SOL     OW 4801   1.021   0.758   1.911
 1301SOL    HW1 4802   1.006   0.816   1.991
 1301SOL    HW2 4803   1.112   0.776   1.874
 1302SOL     OW 4804   5.481   6.269   5.382
 1302SOL    HW1 4805   5.499   6.319   5.297
 1302SOL    HW2 4806   5.523   6.178   5.376
 1303SOL     OW 4807   4.177   6.729   1.529
 1303SOL    HW1 4808   4.235   6.710   1.450
 1303SOL    HW2 4809   4.095   6.779   1.500
 1304SOL     OW 4810   0.454   1.181   1.305
 1304SOL    HW1 4811   0.528   1.120   1.276
 1304SOL    HW2 4812   0.479   1.225   1.391
 1305SOL     OW 4813   5.306   4.230   0.160
 1305SOL    HW1 4814   5.354   4.183   0.235
 1305SOL    HW2 4815   5.355   4.215   0.075
 1306SOL     OW 4816   2.009   5.651   4.695
 1306SOL    HW1 4817   1.943   5.603   4.753
 1306SOL    HW2 4818   1.962   5.724   4.645
 1307SOL     OW 4819   2.182   2.519   4.240
 1307SOL    HW1 4820   2.272   2.540   4.279
 1307SOL    HW2 4821   2.173   2.564   4.152
 1308SOL     OW 4822   6.871   5.275   6.108
 1308SOL    HW1 4823   6.970   5.266   6.109
 1308SOL    HW2 4824   6.834   5.253   6.198
 1309SOL     OW 4825   5.225   4.517   6.435
 1309SOL    HW1 4826   5.314   4.549   6.468
 1309SOL    HW2 4827   5.171   4.596   6.406
 1310SOL     OW 4828   1.146   4.300   4.197
 1310SOL    HW1 4829   1.198   4.369   4.247
 1310SOL    HW2 4830   1.207   4.250   4.136
 1311SOL     OW 4831   6.648   5.722   0.426
 1311SOL    HW1 4832   6.631   5.743   0.522
 1311SOL    HW2 4833   6.589   5.647   0.398
 1312SOL     OW 4834   1.915   0.575   5.894
 1312SOL    HW1 4835   1.968   0.508   5.841
 1312SOL    HW2 4836   1.861   0.527   5.963
 1313SOL     OW 4837   6.419   5.254   3.340
 1313SOL    HW1 4838   6.487   5.301   3.396
 1313SOL    HW2 4839   6.465   5.199   3.271
 1314SOL     OW 4840   2.511   1.777   4.992
 1314SOL    HW1 4841   2.560   1.813   5.071
 1314SOL    HW2 4842   2.481   1.853   4.934
 1315SOL     OW 4843   5.923   0.947   4.688
 1315SOL    HW1 4844   5.940   1.030   4.742
 1315SOL    HW2 4845   5.825   0.938   4.670
 1316SOL     OW 4846   4.376   0.762   4.955
 1316SOL    HW1 4847   4.466   0.798   4.930
 1316SOL    HW2 4848   4.355   0.790   5.049
 1317SOL     OW 4849   2.679   3.065   5.572
 1317SOL    HW1 4850   2.667   2.986   5.512
 1317SOL    HW2 4851   2.724   3.139   5.522
 1318SOL     OW 4852   1.962   2.526   6.841
 1318SOL    HW1 4853   1.916   2.438   6.855
 1318SOL    HW2 4854   1.900   2.600   6.867
 1319SOL     OW 4855   6.959   6.519   1.005
 1319SOL    HW1 4856   6.891   6.469   0.952
 1319SOL    HW2 4857   0.028   6.492   0.977
 1320SOL     OW 4858   3.155   2.863   5.933
 1320SOL    HW1 4859   3.107   2.948   5.952
 1320SOL    HW2 4860   3.245   2.864   5.976
 1321SOL     OW 4861   5.749   2.317   6.823
 1321SOL    HW1 4862   5.732   2.259   6.743
 1321SOL    HW2 4863   5.662   2.349   6.860
 1322SOL     OW 4864   3.418   1.516   0.177
 1322SOL    HW1 4865   3.444   1.500   0.081
 1322SOL    HW2 4866   3.371   1.435   0.212
 1323SOL     OW 4867   3.812   0.341   0.264
 1323SOL    HW1 4868   3.816   0.337   0.164
 1323SOL    HW2 4869   3.717   0.338   0.295
 1324SOL     OW 4870   0.802   3.473   0.068
 1324SOL    HW1 4871   0.893   3.478   0.110
 1324SOL    HW2 4872   0.808   3.418   7.007
 1325SOL     OW 4873   2.593   5.430   6.716
 1325SOL    HW1 4874   2.568   5.525   6.737
 1325SOL    HW2 4875   2.540   5.398   6.638
 1326SOL     OW 4876   4.882   3.804   4.024
 1326SOL    HW1 4877   4.878   3.738   4.099
 1326SOL    HW2 4878   4.824   3.882   4.046
 1327SOL     OW 4879   0.230   6.607   1.210
 1327SOL    HW1 4880   0.228   6.578   1.114
 1327SOL    HW2 4881   0.317   6.580   1.251
 1328SOL     OW 4882   0.809   3.470   5.848
 1328SOL    HW1 4883   0.902   3.493   5.820
 1328SOL    HW2 4884   0.786   3.379   5.814
 1329SOL     OW 4885   0.491   2.739   3.146
 1329SOL    HW1 4886   0.427   2.711   3.218
 1329SOL    HW2 4887   0.575   2.773   3.188
 1330SOL     OW 4888   6.382   2.761   1.118
 1330SOL    HW1 4889   6.409   2.666   1.105
 1330SOL    HW2 4890   6.464   2.819   1.121
 1331SOL     OW 4891   4.519   1.724   2.918
 1331SOL    HW1 4892   4.557   1.815   2.937
 1331SOL    HW2 4893   4.440   1.708   2.977
 1332SOL     OW 4894   1.520   0.249   0.685
 1332SOL    HW1 4895   1.421   0.253   0.672
 1332SOL    HW2 4896   1.540   0.210   0.774
 1333SOL     OW 4897   3.308   4.151   3.096
 1333SOL    HW1 4898   3.362   4.155   3.180
 1333SOL    HW2 4899   3.356   4.198   3.023
 1334SOL     OW 4900   6.951   2.057   2.186
 1334SOL    HW1 4901   6.886   1.990   2.150
 1334SOL    HW2 4902   7.005   2.095   2.111
 1335SOL     OW 4903   1.777   4.000   2.047
 1335SOL    HW1 4904   1.869   3.965   2.062
 1335SOL    HW2 4905   1.719   3.978   2.126
 1336SOL     OW 4906   3.363   0.473   5.301
 1336SOL    HW1 4907   3.363   0.411   5.223
 1336SOL    HW2 4908   3.421   0.552   5.280
 1337SOL     OW 4909   6.346   1.505   3.839
 1337SOL    HW1 4910   6.266   1.551   3.877
 1337SOL    HW2 4911   6.355   1.526   3.742
 1338SOL     OW 4912   5.738   3.545   4.769
 1338SOL    HW1 4913   5.812   3.519   4.707
 1338SOL    HW2 4914   5.697   3.463   4.808
 1339SOL     OW 4915   0.330   0.406   6.726
 1339SOL    HW1 4916   0.234   0.385   6.708
 1339SOL    HW2 4917   0.336   0.475   6.797
 1340SOL     OW 4918   5.271   1.973   2.017
 1340SOL    HW1 4919   5.200   1.980   2.087
 1340SOL    HW2 4920   5.241   1.912   1.945
 1341SOL     OW 4921   4.921   6.504   6.466
 1341SOL    HW1 4922   5.009   6.527   6.507
 1341SOL    HW2 4923   4.927   6.516   6.366
 1342SOL     OW 4924   3.134   6.272   1.160
 1342SOL    HW1 4925   3.188   6.267   1.244
 1342SOL    HW2 4926   3.164   6.350   1.106
 1343SOL     OW 4927   5.713   5.558   2.748
 1343SOL    HW1 4928   5.641   5.615   2.788
 1343SOL    HW2 4929   5.673   5.497   2.679
 1344SOL     OW 4930   0.248   6.810   4.615
 1344SOL    HW1 4931   0.223   6.714   4.622
 1344SOL    HW2 4932   0.300   6.837   4.696
 1345SOL     OW 4933   0.434   5.547   2.081
 1345SOL    HW1 4934   0.433   5.635   2.128
 1345SOL    HW2 4935   0.483   5.556   1.994
 1346SOL     OW 4936   2.457   5.187   6.206
 1346SOL    HW1 4937   2.502   5.118   6.150
 1346SOL    HW2 4938   2.527   5.240   6.256
 1347SOL     OW 4939   1.653   0.213   0.072
 1347SOL    HW1 4940   1.738   0.251   0.109
 1347SOL    HW2 4941   1.578   0.276   0.090
 1348SOL     OW 4942   0.094   5.917   5.454
 1348SOL    HW1 4943   0.044   5.985   5.400
 1348SOL    HW2 4944   0.041   5.894   5.536
 1349SOL     OW 4945   5.417   3.642   3.999
 1349SOL    HW1 4946   5.402   3.547   4.028
 1349SOL    HW2 4947   5.329   3.688   3.988
 1350SOL     OW 4948   2.994   3.789   0.517
 1350SOL    HW1 4949   3.004   3.871   0.461
 1350SOL    HW2 4950   2.897   3.777   0.542
 1351SOL     OW 4951   6.807   3.017   4.855
 1351SOL    HW1 4952   6.905   3.036   4.866
 1351SOL    HW2 4953   6.788   3.001   4.758
 1352SOL     OW 4954   0.046   0.036   2.510
 1352SOL    HW1 4955   0.115   0.108   2.514
 1352SOL    HW2 4956   0.077   6.979   2.562
 1353SOL     OW 4957   0.836   1.145   1.106
 1353SOL    HW1 4958   0.802   1.223   1.158
 1353SOL    HW2 4959   0.771   1.069   1.114
 1354SOL     OW 4960   5.917   4.354   2.135
 1354SOL    HW1 4961   5.857   4.279   2.108
 1354SOL    HW2 4962   6.012   4.328   2.117
 1355SOL     OW 4963   6.362   3.453   4.607
 1355SOL    HW1 4964   6.413   3.539   4.605
 1355SOL    HW2 4965   6.405   3.390   4.670
 1356SOL     OW 4966   3.507   3.485   1.459
 1356SOL    HW1 4967   3.528   3.558   1.394
 1356SOL    HW2 4968   3.508   3.522   1.552
 1357SOL     OW 4969   6.620   2.831   5.290
 1357SOL    HW1 4970   6.644   2.863   5.199
 1357SOL    HW2 4971   6.564   2.899   5.336
 1358SOL     OW 4972   1.499   6.637   0.096
 1358SOL    HW1 4973   1.547   6.725   0.099
 1358SOL    HW2 4974   1.472   6.611   0.189
 1359SOL     OW 4975   6.367   4.204   1.966
 1359SOL    HW1 4976   6.315   4.151   1.899
 1359SOL    HW2 4977   6.454   4.234   1.926
 1360SOL     OW 4978   2.723   2.489   6.435
 1360SOL    HW1 4979   2.709   2.562   6.368
 1360SOL    HW2 4980   2.799   2.431   6.406
 1361SOL     OW 4981   6.991   4.560   4.217
 1361SOL    HW1 4982   6.917   4.526   4.275
 1361SOL    HW2 4983   0.014   4.636   4.263
 1362SOL     OW 4984   3.501   3.073   3.005
 1362SOL    HW1 4985   3.457   3.053   2.918
 1362SOL    HW2 4986   3.433   3.071   3.078
 1363SOL     OW 4987   0.416   5.507   5.373
 1363SOL    HW1 4988   0.372   5.432   5.324
 1363SOL    HW2 4989   0.346   5.562   5.419
 1364SOL     OW 4990   4.381   4.308   0.791
 1364SOL    HW1 4991   4.402   4.316   0.888
 1364SOL    HW2 4992   4.463   4.279   0.741
 1365SOL     OW 4993   0.703   3.719   0.037
 1365SOL    HW1 4994   0.703   3.725   6.960
 1365SOL    HW2 4995   0.747   3.633   0.065
 1366SOL     OW 4996   2.004   6.994   4.890
 1366SOL    HW1 4997   1.943   6.915   4.890
 1366SOL    HW2 4998   1.956   0.052   4.925
 1367SOL     OW 4999   2.378   1.082   2.527
 1367SOL    HW1 5000   2.423   1.171   2.530
 1367SOL    HW2 5001   2.341   1.066   2.435
 1368SOL     OW 5002   6.139   6.687   4.574
 1368SOL    HW1 5003   6.096   6.615   4.520
 1368SOL    HW2 5004   6.227   6.655   4.610
 1369SOL     OW 5005   1.043   0.665   3.246
 1369SOL    HW1 5006   0.951   0.638   3.275
 1369SOL    HW2 5007   1.110   0.598   3.277
 1370SOL     OW 5008   2.983   1.037   1.515
 1370SOL    HW1 5009   2.886   1.022   1.494
 1370SOL    HW2 5010   3.014   0.968   1.580
 1371SOL     OW 5011   3.590   0.780   5.982
 1371SOL    HW1 5012   3.569   0.872   5.948
 1371SOL    HW2 5013   3.593   0.716   5.905
 1372SOL     OW 5014   3.236   1.849   2.281
 1372SOL    HW1 5015   3.178   1.912   2.334
 1372SOL    HW2 5016   3.332   1.877   2.292
 1373SOL     OW 5017   0.805   6.283   0.692
 1373SOL    HW1 5018   0.724   6.242   0.733
 1373SOL    HW2 5019   0.862   6.211   0.651
 1374SOL     OW 5020   4.552   2.381   0.500
 1374SOL    HW1 5021   4.588   2.345   0.586
 1374SOL    HW2 5022   4.509   2.470   0.516
 1375SOL     OW 5023   0.552   4.269   5.914
 1375SOL    HW1 5024   0.643   4.300   5.943
 1375SOL    HW2 5025   0.554   4.171   5.896
 1376SOL     OW 5026   4.866   2.335   2.649
 1376SOL    HW1 5027   4.875   2.432   2.628
 1376SOL    HW2 5028   4.799   2.293   2.587
 1377SOL     OW 5029   6.968   5.643   4.654
 1377SOL    HW1 5030   6.948   5.648   4.752
 1377SOL    HW2 5031   6.894   5.596   4.607
 1378SOL     OW 5032   1.363   2.080   0.974
 1378SOL    HW1 5033   1.395   2.175   0.979
 1378SOL    HW2 5034   1.436   2.022   0.938
 1379SOL     OW 5035   3.994   6.253   2.096
 1379SOL    HW1 5036   3.919   6.302   2.141
 1379SOL    HW2 5037   4.001   6.161   2.134
 1380SOL     OW 5038   6.301   6.482   2.339
 1380SOL    HW1 5039   6.389   6.511   2.376
 1380SOL    HW2 5040   6.303   6.489   2.239
 1381SOL     OW 5041   5.991   1.576   1.235
 1381SOL    HW1 5042   5.936   1.579   1.152
 1381SOL    HW2 5043   5.930   1.582   1.315
 1382SOL     OW 5044   5.495   4.590   6.527
 1382SOL    HW1 5045   5.518   4.663   6.592
 1382SOL    HW2 5046   5.543   4.507   6.552
 1383SOL     OW 5047   2.819   0.431   0.585
 1383SOL    HW1 5048   2.727   0.444   0.550
 1383SOL    HW2 5049   2.849   0.514   0.633
 1384SOL     OW 5050   3.329   2.058   2.972
 1384SOL    HW1 5051   3.235   2.088   2.958
 1384SOL    HW2 5052   3.336   1.960   2.952
 1385SOL     OW 5053   6.583   3.181   2.518
 1385SOL    HW1 5054   6.600   3.099   2.462
 1385SOL    HW2 5055   6.487   3.184   2.544
 1386SOL     OW 5056   2.242   2.273   4.418
 1386SOL    HW1 5057   2.268   2.365   4.389
 1386SOL    HW2 5058   2.288   2.251   4.504
 1387SOL     OW 5059   2.456   0.394   4.990
 1387SOL    HW1 5060   2.406   0.425   4.909
 1387SOL    HW2 5061   2.552   0.420   4.982
 1388SOL     OW 5062   6.365   0.977   4.557
 1388SOL    HW1 5063   6.391   1.032   4.636
 1388SOL    HW2 5064   6.368   0.880   4.581
 1389SOL     OW 5065   6.335   0.390   4.553
 1389SOL    HW1 5066   6.243   0.383   4.592
 1389SOL    HW2 5067   6.340   0.332   4.472
 1390SOL     OW 5068   4.530   2.541   2.706
 1390SOL    HW1 5069   4.580   2.622   2.735
 1390SOL    HW2 5070   4.488   2.497   2.785
 1391SOL     OW 5071   5.228   0.778   4.879
 1391SOL    HW1 5072   5.254   0.778   4.975
 1391SOL    HW2 5073   5.177   0.694   4.859
 1392SOL     OW 5074   4.603   5.403   6.355
 1392SOL    HW1 5075   4.586   5.410   6.256
 1392SOL    HW2 5076   4.656   5.483   6.385
 1393SOL     OW 5077   5.999   0.496   6.965
 1393SOL    HW1 5078   5.972   0.515   6.871
 1393SOL    HW2 5079   6.092   0.529   6.980
 1394SOL     OW 5080   4.152   6.786   3.903
 1394SOL    HW1 5081   4.166   6.765   3.999
 1394SOL    HW2 5082   4.240   6.787   3.855
 1395SOL     OW 5083   1.181   5.348   1.901
 1395SOL    HW1 5084   1.240   5.399   1.965
 1395SOL    HW2 5085   1.219   5.355   1.809
 1396SOL     OW 5086   1.978   1.662   3.960
 1396SOL    HW1 5087   1.965   1.600   3.882
 1396SOL    HW2 5088   2.054   1.724   3.941
 1397SOL     OW 5089   0.112   5.320   4.778
 1397SOL    HW1 5090   0.039   5.342   4.842
 1397SOL    HW2 5091   0.086   5.349   4.686
 1398SOL     OW 5092   0.466   0.187   0.594
 1398SOL    HW1 5093   0.413   0.212   0.675
 1398SOL    HW2 5094   0.436   0.243   0.517
 1399SOL     OW 5095   4.346   0.254   0.611
 1399SOL    HW1 5096   4.400   0.332   0.580
 1399SOL    HW2 5097   4.324   0.196   0.532
 1400SOL     OW 5098   6.816   0.118   4.733
 1400SOL    HW1 5099   6.871   0.161   4.805
 1400SOL    HW2 5100   6.750   0.184   4.697
 1401SOL     OW 5101   5.671   0.068   3.589
 1401SOL    HW1 5102   5.643   0.099   3.679
 1401SOL    HW2 5103   5.768   0.088   3.574
 1402SOL     OW 5104   6.934   4.840   2.260
 1402SOL    HW1 5105   6.882   4.912   2.306
 1402SOL    HW2 5106   7.005   4.881   2.202
 1403SOL     OW 5107   3.230   3.120   6.572
 1403SOL    HW1 5108   3.189   3.113   6.663
 1403SOL    HW2 5109   3.161   3.107   6.502
 1404SOL     OW 5110   4.335   6.747   0.335
 1404SOL    HW1 5111   4.353   6.781   0.428
 1404SOL    HW2 5112   4.258   6.684   0.337
 1405SOL     OW 5113   1.395   3.818   1.196
 1405SOL    HW1 5114   1.345   3.817   1.283
 1405SOL    HW2 5115   1.361   3.745   1.137
 1406SOL     OW 5116   2.228   2.988   0.648
 1406SOL    HW1 5117   2.163   3.013   0.577
 1406SOL    HW2 5118   2.184   2.991   0.737
 1407SOL     OW 5119   0.586   3.220   1.452
 1407SOL    HW1 5120   0.556   3.274   1.373
 1407SOL    HW2 5121   0.532   3.137   1.459
 1408SOL     OW 5122   5.796   6.570   1.114
 1408SOL    HW1 5123   5.827   6.604   1.203
 1408SOL    HW2 5124   5.713   6.619   1.088
 1409SOL     OW 5125   6.555   1.770   5.953
 1409SOL    HW1 5126   6.463   1.790   5.918
 1409SOL    HW2 5127   6.579   1.675   5.931
 1410SOL     OW 5128   4.023   0.737   6.031
 1410SOL    HW1 5129   4.041   0.648   5.989
 1410SOL    HW2 5130   4.107   0.770   6.076
 1411SOL     OW 5131   3.316   5.351   0.070
 1411SOL    HW1 5132   3.232   5.391   0.104
 1411SOL    HW2 5133   3.311   5.343   6.993
 1412SOL     OW 5134   2.058   3.169   0.039
 1412SOL    HW1 5135   2.134   3.199   0.097
 1412SOL    HW2 5136   2.073   3.200   6.968
 1413SOL     OW 5137   1.001   1.367   5.074
 1413SOL    HW1 5138   1.003   1.372   4.974
 1413SOL    HW2 5139   0.966   1.452   5.112
 1414SOL     OW 5140   0.911   4.035   2.556
 1414SOL    HW1 5141   1.003   4.031   2.593
 1414SOL    HW2 5142   0.896   4.126   2.516
 1415SOL     OW 5143   2.134   2.048   4.363
 1415SOL    HW1 5144   2.185   2.134   4.371
 1415SOL    HW2 5145   2.148   2.010   4.271
 1416SOL     OW 5146   4.514   0.843   4.547
 1416SOL    HW1 5147   4.596   0.891   4.578
 1416SOL    HW2 5148   4.439   0.908   4.533
 1417SOL     OW 5149   3.537   3.547   5.837
 1417SOL    HW1 5150   3.443   3.542   5.802
 1417SOL    HW2 5151   3.538   3.597   5.923
 1418SOL     OW 5152   3.703   4.427   5.868
 1418SOL    HW1 5153   3.710   4.447   5.770
 1418SOL    HW2 5154   3.706   4.328   5.882
 1419SOL     OW 5155   1.669   5.240   2.390
 1419SOL    HW1 5156   1.618   5.208   2.310
 1419SOL    HW2 5157   1.727   5.317   2.363
 1420SOL     OW 5158   2.729   6.589   2.967
 1420SOL    HW1 5159   2.704   6.510   2.912
 1420SOL    HW2 5160   2.826   6.583   2.992
 1421SOL     OW 5161   1.241   4.648   5.712
 1421SOL    HW1 5162   1.231   4.711   5.635
 1421SOL    HW2 5163   1.334   4.653   5.747
 1422SOL     OW 5164   2.285   3.424   5.956
 1422SOL    HW1 5165   2.374   3.389   5.927
 1422SOL    HW2 5166   2.285   3.524   5.950
 1423SOL     OW 5167   4.537   0.592   4.729
 1423SOL    HW1 5168   4.440   0.587   4.751
 1423SOL    HW2 5169   4.554   0.666   4.665
 1424SOL     OW 5170   6.172   3.051   0.344
 1424SOL    HW1 5171   6.231   3.130   0.328
 1424SOL    HW2 5172   6.181   2.986   0.268
 1425SOL     OW 5173   5.124   6.718   3.591
 1425SOL    HW1 5174   5.060   6.795   3.592
 1425SOL    HW2 5175   5.131   6.682   3.497
 1426SOL     OW 5176   3.004   2.048   0.217
 1426SOL    HW1 5177   3.004   2.130   0.273
 1426SOL    HW2 5178   3.019   2.073   0.121
 1427SOL     OW 5179   1.813   0.202   3.994
 1427SOL    HW1 5180   1.843   0.112   4.028
 1427SOL    HW2 5181   1.729   0.229   4.040
 1428SOL     OW 5182   0.952   3.124   4.030
 1428SOL    HW1 5183   0.909   3.148   3.943
 1428SOL    HW2 5184   0.911   3.178   4.103
 1429SOL     OW 5185   6.479   1.060   1.636
 1429SOL    HW1 5186   6.499   0.963   1.626
 1429SOL    HW2 5187   6.413   1.088   1.567
 1430SOL     OW 5188   2.065   3.580   4.255
 1430SOL    HW1 5189   2.103   3.498   4.212
 1430SOL    HW2 5190   2.114   3.599   4.340
 1431SOL     OW 5191   2.624   1.116   6.641
 1431SOL    HW1 5192   2.575   1.185   6.588
 1431SOL    HW2 5193   2.559   1.053   6.682
 1432SOL     OW 5194   3.244   0.884   2.117
 1432SOL    HW1 5195   3.150   0.914   2.129
 1432SOL    HW2 5196   3.292   0.948   2.057
 1433SOL     OW 5197   2.578   0.170   4.048
 1433SOL    HW1 5198   2.490   0.203   4.082
 1433SOL    HW2 5199   2.630   0.247   4.011
 1434SOL     OW 5200   0.044   3.178   0.663
 1434SOL    HW1 5201   0.096   3.227   0.593
 1434SOL    HW2 5202   0.013   3.242   0.733
 1435SOL     OW 5203   1.904   6.728   4.190
 1435SOL    HW1 5204   1.935   6.754   4.282
 1435SOL    HW2 5205   1.940   6.638   4.167
 1436SOL     OW 5206   5.390   1.513   0.031
 1436SOL    HW1 5207   5.403   1.612   0.027
 1436SOL    HW2 5208   5.292   1.493   0.044
 1437SOL     OW 5209   3.914   0.324   6.346
 1437SOL    HW1 5210   3.886   0.384   6.271
 1437SOL    HW2 5211   3.850   0.336   6.422
 1438SOL     OW 5212   2.709   0.689   1.890
 1438SOL    HW1 5213   2.749   0.606   1.930
 1438SOL    HW2 5214   2.695   0.757   1.963
 1439SOL     OW 5215   0.125   4.561   0.117
 1439SOL    HW1 5216   0.205   4.570   0.059
 1439SOL    HW2 5217   0.055   4.626   0.088
 1440SOL     OW 5218   3.551   3.442   2.914
 1440SOL    HW1 5219   3.558   3.448   3.014
 1440SOL    HW2 5220   3.622   3.380   2.880
 1441SOL     OW 5221   6.582   3.076   3.904
 1441SOL    HW1 5222   6.514   3.045   3.971
 1441SOL    HW2 5223   6.593   3.175   3.913
 1442SOL     OW 5224   6.005   6.376   6.823
 1442SOL    HW1 5225   6.042   6.390   6.915
 1442SOL    HW2 5226   5.981   6.280   6.811
 1443SOL     OW 5227   1.065   2.859   3.400
 1443SOL    HW1 5228   1.053   2.857   3.300
 1443SOL    HW2 5229   1.048   2.768   3.437
 1444SOL     OW 5230   5.128   1.015   4.330
 1444SOL    HW1 5231   5.094   1.107   4.351
 1444SOL    HW2 5232   5.054   0.949   4.339
 1445SOL     OW 5233   6.078   2.398   1.065
 1445SOL    HW1 5234   5.989   2.362   1.094
 1445SOL    HW2 5235   6.125   2.328   1.010
 1446SOL     OW 5236   4.473   0.803   1.372
 1446SOL    HW1 5237   4.462   0.762   1.281
 1446SOL    HW2 5238   4.462   0.902   1.365
 1447SOL     OW 5239   5.526   1.056   5.681
 1447SOL    HW1 5240   5.617   1.093   5.669
 1447SOL    HW2 5241   5.496   1.011   5.597
 1448SOL     OW 5242   5.300   0.190   6.729
 1448SOL    HW1 5243   5.371   0.251   6.692
 1448SOL    HW2 5244   5.294   0.201   6.828
 1449SOL     OW 5245   4.730   5.635   1.118
 1449SOL    HW1 5246   4.795   5.682   1.059
 1449SOL    HW2 5247   4.646   5.689   1.124
 1450SOL     OW 5248   5.483   2.614   3.802
 1450SOL    HW1 5249   5.456   2.530   3.755
 1450SOL    HW2 5250   5.578   2.636   3.778
 1451SOL     OW 5251   1.612   6.868   2.717
 1451SOL    HW1 5252   1.568   6.812   2.647
 1451SOL    HW2 5253   1.681   6.814   2.764
 1452SOL     OW 5254   4.443   0.905   5.183
 1452SOL    HW1 5255   4.378   0.955   5.240
 1452SOL    HW2 5256   4.536   0.925   5.214
 1453SOL     OW 5257   4.691   4.697   4.119
 1453SOL    HW1 5258   4.752   4.775   4.133
 1453SOL    HW2 5259   4.713   4.624   4.184
 1454SOL     OW 5260   4.296   3.839   1.335
 1454SOL    HW1 5261   4.311   3.747   1.298
 1454SOL    HW2 5262   4.372   3.898   1.309
 1455SOL     OW 5263   1.884   2.607   1.462
 1455SOL    HW1 5264   1.871   2.559   1.549
 1455SOL    HW2 5265   1.970   2.658   1.465
 1456SOL     OW 5266   6.669   5.527   4.075
 1456SOL    HW1 5267   6.621   5.609   4.042
 1456SOL    HW2 5268   6.749   5.555   4.128
 1457SOL     OW 5269   1.888   6.919   3.106
 1457SOL    HW1 5270   1.816   6.858   3.138
 1457SOL    HW2 5271   1.897   6.911   3.007
 1458SOL     OW 5272   6.479   5.668   6.764
 1458SOL    HW1 5273   6.514   5.658   6.671
 1458SOL    HW2 5274   6.384   5.701   6.761
 1459SOL     OW 5275   2.402   0.201   0.853
 1459SOL    HW1 5276   2.436   0.109   0.837
 1459SOL    HW2 5277   2.478   0.263   0.871
 1460SOL     OW 5278   0.563   6.580   0.080
 1460SOL    HW1 5279   0.580   6.558   7.007
 1460SOL    HW2 5280   0.630   6.648   0.112
 1461SOL     OW 5281   5.179   5.103   1.540
 1461SOL    HW1 5282   5.093   5.074   1.582
 1461SOL    HW2 5283   5.216   5.026   1.486
 1462SOL     OW 5284   5.020   0.613   6.054
 1462SOL    HW1 5285   5.003   0.603   5.956
 1462SOL    HW2 5286   5.117   0.601   6.073
 1463SOL     OW 5287   0.464   1.089   5.305
 1463SOL    HW1 5288   0.455   0.995   5.273
 1463SOL    HW2 5289   0.441   1.152   5.231
 1464SOL     OW 5290   0.146   6.380   1.380
 1464SOL    HW1 5291   0.186   6.445   1.316
 1464SOL    HW2 5292   0.203   6.375   1.462
 1465SOL     OW 5293   0.734   7.017   4.565
 1465SOL    HW1 5294   0.646   6.973   4.554
 1465SOL    HW2 5295   0.722   0.093   4.572
 1466SOL     OW 5296   5.820   5.335   4.077
 1466SOL    HW1 5297   5.734   5.337   4.026
 1466SOL    HW2 5298   5.848   5.240   4.092
 1467SOL     OW 5299   6.967   3.473   3.162
 1467SOL    HW1 5300   6.916   3.425   3.092
 1467SOL    HW2 5301   6.997   3.409   3.233
 1468SOL     OW 5302   5.229   6.214   2.675
 1468SOL    HW1 5303   5.323   6.218   2.709
 1468SOL    HW2 5304   5.170   6.270   2.733
 1469SOL     OW 5305   0.355   0.985   2.918
 1469SOL    HW1 5306   0.318   1.030   2.999
 1469SOL    HW2 5307   0.353   0.886   2.931
 1470SOL     OW 5308   0.144   0.895   3.251
 1470SOL    HW1 5309   0.223   0.860   3.201
 1470SOL    HW2 5310   0.171   0.924   3.342
 1471SOL     OW 5311   6.689   0.276   6.888
 1471SOL    HW1 5312   6.731   0.195   6.847
 1471SOL    HW2 5313   6.596   0.288   6.850
 1472SOL     OW 5314   4.533   0.007   5.158
 1472SOL    HW1 5315   4.494   0.076   5.220
 1472SOL    HW2 5316   4.607   0.048   5.105
 1473SOL     OW 5317   5.865   4.193   4.055
 1473SOL    HW1 5318   5.785   4.253   4.056
 1473SOL    HW2 5319   5.856   4.126   4.129
 1474SOL     OW 5320   4.838   5.146   3.277
 1474SOL    HW1 5321   4.757   5.202   3.257
 1474SOL    HW2 5322   4.917   5.206   3.292
 1475SOL     OW 5323   6.927   0.824   2.911
 1475SOL    HW1 5324   6.944   0.846   2.815
 1475SOL    HW2 5325   6.914   0.908   2.963
 1476SOL     OW 5326   6.234   2.182   1.637
 1476SOL    HW1 5327   6.232   2.087   1.605
 1476SOL    HW2 5328   6.328   2.216   1.637
 1477SOL     OW 5329   2.985   6.495   3.061
 1477SOL    HW1 5330   3.077   6.456   3.057
 1477SOL    HW2 5331   2.991   6.591   3.089
 1478SOL     OW 5332   6.774   4.469   1.827
 1478SOL    HW1 5333   6.816   4.552   1.863
 1478SOL    HW2 5334   6.757   4.480   1.730
 1479SOL     OW 5335   1.792   5.580   0.396
 1479SOL    HW1 5336   1.794   5.651   0.326
 1479SOL    HW2 5337   1.832   5.496   0.358
 1480SOL     OW 5338   2.974   0.763   6.981
 1480SOL    HW1 5339   2.935   0.768   0.050
 1480SOL    HW2 5340   3.002   0.855   6.952
 1481SOL     OW 5341   6.523   2.394   6.280
 1481SOL    HW1 5342   6.602   2.411   6.221
 1481SOL    HW2 5343   6.531   2.447   6.364
 1482SOL     OW 5344   5.671   0.568   6.432
 1482SOL    HW1 5345   5.660   0.619   6.346
 1482SOL    HW2 5346   5.704   0.476   6.412
 1483SOL     OW 5347   6.179   2.409   6.482
 1483SOL    HW1 5348   6.086   2.374   6.486
 1483SOL    HW2 5349   6.178   2.509   6.485
 1484SOL     OW 5350   6.158   6.214   2.658
 1484SOL    HW1 5351   6.080   6.167   2.698
 1484SOL    HW2 5352   6.173   6.300   2.706
 1485SOL     OW 5353   5.558   3.015   4.035
 1485SOL    HW1 5354   5.604   2.926   4.037
 1485SOL    HW2 5355   5.484   3.013   3.967
 1486SOL     OW 5356   4.774   2.203   2.420
 1486SOL    HW1 5357   4.873   2.191   2.417
 1486SOL    HW2 5358   4.747   2.279   2.362
 1487SOL     OW 5359   6.316   1.230   5.488
 1487SOL    HW1 5360   6.308   1.187   5.398
 1487SOL    HW2 5361   6.355   1.322   5.478
 1488SOL     OW 5362   3.739   1.845   2.815
 1488SOL    HW1 5363   3.779   1.811   2.730
 1488SOL    HW2 5364   3.796   1.815   2.892
 1489SOL     OW 5365   3.819   5.318   4.679
 1489SOL    HW1 5366   3.781   5.227   4.697
 1489SOL    HW2 5367   3.914   5.320   4.708
 1490SOL     OW 5368   1.965   2.771   0.558
 1490SOL    HW1 5369   2.058   2.764   0.523
 1490SOL    HW2 5370   1.967   2.770   0.658
 1491SOL     OW 5371   0.117   2.542   5.154
 1491SOL    HW1 5372   0.140   2.542   5.057
 1491SOL    HW2 5373   0.018   2.550   5.165
 1492SOL     OW 5374   5.176   2.794   2.674
 1492SOL    HW1 5375   5.162   2.800   2.575
 1492SOL    HW2 5376   5.099   2.745   2.715
 1493SOL     OW 5377   5.218   0.528   5.040
 1493SOL    HW1 5378   5.245   0.477   5.121
 1493SOL    HW2 5379   5.120   0.549   5.045
 1494SOL     OW 5380   4.756   2.944   4.935
 1494SOL    HW1 5381   4.666   2.979   4.909
 1494SOL    HW2 5382   4.746   2.855   4.980
 1495SOL     OW 5383   2.116   3.166   2.896
 1495SOL    HW1 5384   2.029   3.205   2.925
 1495SOL    HW2 5385   2.151   3.105   2.967
 1496SOL     OW 5386   0.762   0.973   2.915
 1496SOL    HW1 5387   0.724   0.881   2.910
 1496SOL    HW2 5388   0.744   1.022   2.830
 1497SOL     OW 5389   5.150   4.492   5.381
 1497SOL    HW1 5390   5.246   4.471   5.359
 1497SOL    HW2 5391   5.093   4.475   5.300
 1498SOL     OW 5392   2.442   6.401   0.733
 1498SOL    HW1 5393   2.504   6.403   0.655
 1498SOL    HW2 5394   2.473   6.466   0.802
 1499SOL     OW 5395   0.554   4.665   5.273
 1499SOL    HW1 5396   0.614   4.586   5.287
 1499SOL    HW2 5397   0.609   4.744   5.245
 1500SOL     OW 5398   4.608   6.668   5.622
 1500SOL    HW1 5399   4.542   6.655   5.696
 1500SOL    HW2 5400   4.681   6.729   5.653
 1501SOL     OW 5401   4.170   6.897   6.352
 1501SOL    HW1 5402   4.073   6.885   6.373
 1501SOL    HW2 5403   4.224   6.871   6.432
 1502SOL     OW 5404   6.426   6.113   0.385
 1502SOL    HW1 5405   6.524   6.106   0.404
 1502SOL    HW2 5406   6.374   6.069   0.458
 1503SOL     OW 5407   2.969   3.565   5.729
 1503SOL    HW1 5408   2.957   3.514   5.814
 1503SOL    HW2 5409   3.027   3.513   5.667
 1504SOL     OW 5410   2.844   5.907   4.479
 1504SOL    HW1 5411   2.906   5.910   4.400
 1504SOL    HW2 5412   2.751   5.929   4.449
 1505SOL     OW 5413   4.633   5.342   1.041
 1505SOL    HW1 5414   4.706   5.313   0.980
 1505SOL    HW2 5415   4.657   5.429   1.083
 1506SOL     OW 5416   0.518   6.365   3.048
 1506SOL    HW1 5417   0.593   6.325   3.101
 1506SOL    HW2 5418   0.549   6.384   2.955
 1507SOL     OW 5419   1.966   1.218   5.981
 1507SOL    HW1 5420   1.891   1.173   5.933
 1507SOL    HW2 5421   2.025   1.149   6.023
 1508SOL     OW 5422   4.882   6.980   0.387
 1508SOL    HW1 5423   4.829   6.992   0.303
 1508SOL    HW2 5424   4.866   6.888   0.423
 1509SOL     OW 5425   5.368   1.887   0.224
 1509SOL    HW1 5426   5.275   1.850   0.226
 1509SOL    HW2 5427   5.419   1.845   0.148
 1510SOL     OW 5428   0.233   1.382   4.035
 1510SOL    HW1 5429   0.245   1.463   3.978
 1510SOL    HW2 5430   0.193   1.308   3.981
 1511SOL     OW 5431   2.391   2.661   0.930
 1511SOL    HW1 5432   2.350   2.577   0.966
 1511SOL    HW2 5433   2.442   2.640   0.846
 1512SOL     OW 5434   6.194   0.623   2.434
 1512SOL    HW1 5435   6.188   0.535   2.481
 1512SOL    HW2 5436   6.116   0.680   2.460
 1513SOL     OW 5437   3.664   1.475   1.991
 1513SOL    HW1 5438   3.637   1.381   1.974
 1513SOL    HW2 5439   3.609   1.537   1.934
 1514SOL     OW 5440   5.335   1.550   5.358
 1514SOL    HW1 5441   5.354   1.470   5.415
 1514SOL    HW2 5442   5.417   1.574   5.306
 1515SOL     OW 5443   6.680   4.725   4.751
 1515SOL    HW1 5444   6.645   4.656   4.814
 1515SOL    HW2 5445   6.626   4.722   4.666
 1516SOL     OW 5446   0.778   1.741   1.086
 1516SOL    HW1 5447   0.753   1.782   1.174
 1516SOL    HW2 5448   0.845   1.668   1.102
 1517SOL     OW 5449   3.846   5.326   3.310
 1517SOL    HW1 5450   3.775   5.270   3.352
 1517SOL    HW2 5451   3.812   5.364   3.223
 1518SOL     OW 5452   1.242   4.996   1.267
 1518SOL    HW1 5453   1.274   5.009   1.361
 1518SOL    HW2 5454   1.290   4.918   1.226
 1519SOL     OW 5455   6.938   4.680   0.782
 1519SOL    HW1 5456   6.887   4.756   0.823
 1519SOL    HW2 5457   6.968   4.705   0.690
 1520SOL     OW 5458   1.388   3.464   3.460
 1520SOL    HW1 5459   1.416   3.549   3.415
 1520SOL    HW2 5460   1.434   3.455   3.548
 1521SOL     OW 5461   2.318   4.351   5.948
 1521SOL    HW1 5462   2.407   4.309   5.966
 1521SOL    HW2 5463   2.252   4.279   5.925
 1522SOL     OW 5464   6.625   2.294   6.815
 1522SOL    HW1 5465   6.573   2.308   6.731
 1522SOL    HW2 5466   6.568   2.247   6.882
 1523SOL     OW 5467   6.690   1.749   0.861
 1523SOL    HW1 5468   6.737   1.672   0.819
 1523SOL    HW2 5469   6.620   1.784   0.798
 1524SOL     OW 5470   6.723   1.120   2.738
 1524SOL    HW1 5471   6.697   1.052   2.807
 1524SOL    HW2 5472   6.659   1.197   2.743
 1525SOL     OW 5473   4.313   1.867   6.016
 1525SOL    HW1 5474   4.307   1.788   5.954
 1525SOL    HW2 5475   4.242   1.932   5.992
 1526SOL     OW 5476   6.806   1.952   1.593
 1526SOL    HW1 5477   6.844   1.891   1.662
 1526SOL    HW2 5478   6.808   1.907   1.504
 1527SOL     OW 5479   3.007   1.600   5.563
 1527SOL    HW1 5480   2.940   1.607   5.637
 1527SOL    HW2 5481   3.088   1.654   5.586
 1528SOL     OW 5482   5.010   6.368   3.429
 1528SOL    HW1 5483   5.015   6.271   3.449
 1528SOL    HW2 5484   4.917   6.401   3.446
 1529SOL     OW 5485   3.005   0.364   5.696
 1529SOL    HW1 5486   2.961   0.410   5.773
 1529SOL    HW2 5487   2.936   0.342   5.627
 1530SOL     OW 5488   3.573   6.677   1.340
 1530SOL    HW1 5489   3.603   6.771   1.324
 1530SOL    HW2 5490   3.652   6.620   1.364
 1531SOL     OW 5491   6.795   6.932   4.552
 1531SOL    HW1 5492   6.796   6.987   4.635
 1531SOL    HW2 5493   6.846   6.847   4.567
 1532SOL     OW 5494   2.900   1.781   5.036
 1532SOL    HW1 5495   2.916   1.834   4.953
 1532SOL    HW2 5496   2.983   1.778   5.091
 1533SOL     OW 5497   5.869   3.151   6.723
 1533SOL    HW1 5498   5.788   3.209   6.729
 1533SOL    HW2 5499   5.842   3.055   6.733
 1534SOL     OW 5500   0.625   6.441   1.462
 1534SOL    HW1 5501   0.661   6.383   1.389
 1534SOL    HW2 5502   0.701   6.485   1.510
 1535SOL     OW 5503   5.259   5.221   4.450
 1535SOL    HW1 5504   5.198   5.261   4.518
 1535SOL    HW2 5505   5.260   5.279   4.368
 1536SOL     OW 5506   2.512   5.843   3.999
 1536SOL    HW1 5507   2.455   5.844   4.081
 1536SOL    HW2 5508   2.598   5.892   4.017
 1537SOL     OW 5509   2.349   5.308   4.609
 1537SOL    HW1 5510   2.309   5.356   4.686
 1537SOL    HW2 5511   2.432   5.356   4.579
 1538SOL     OW 5512   2.383   5.287   6.541
 1538SOL    HW1 5513   2.385   5.194   6.579
 1538SOL    HW2 5514   2.391   5.282   6.442
 1539SOL     OW 5515   3.054   4.862   1.794
 1539SOL    HW1 5516   3.152   4.885   1.799
 1539SOL    HW2 5517   3.042   4.777   1.743
 1540SOL     OW 5518   0.215   6.669   4.970
 1540SOL    HW1 5519   0.292   6.714   4.926
 1540SOL    HW2 5520   0.237   6.651   5.066
 1541SOL     OW 5521   5.396   2.405   1.389
 1541SOL    HW1 5522   5.384   2.499   1.422
 1541SOL    HW2 5523   5.392   2.342   1.466
 1542SOL     OW 5524   0.813   6.530   0.793
 1542SOL    HW1 5525   0.902   6.571   0.810
 1542SOL    HW2 5526   0.825   6.440   0.750
 1543SOL     OW 5527   3.134   3.923   4.425
 1543SOL    HW1 5528   3.222   3.908   4.381
 1543SOL    HW2 5529   3.140   4.001   4.487
 1544SOL     OW 5530   3.548   3.965   2.842
 1544SOL    HW1 5531   3.639   3.996   2.872
 1544SOL    HW2 5532   3.485   4.042   2.841
 1545SOL     OW 5533   6.068   0.708   4.802
 1545SOL    HW1 5534   6.032   0.789   4.754
 1545SOL    HW2 5535   6.151   0.733   4.852
 1546SOL     OW 5536   0.665   6.609   6.010
 1546SOL    HW1 5537   0.581   6.649   6.046
 1546SOL    HW2 5538   0.644   6.521   5.967
 1547SOL     OW 5539   3.734   5.802   6.810
 1547SOL    HW1 5540   3.798   5.873   6.838
 1547SOL    HW2 5541   3.760   5.715   6.853
 1548SOL     OW 5542   5.909   4.144   4.588
 1548SOL    HW1 5543   5.827   4.171   4.638
 1548SOL    HW2 5544   5.953   4.226   4.549
 1549SOL     OW 5545   6.768   1.502   1.645
 1549SOL    HW1 5546   6.770   1.527   1.548
 1549SOL    HW2 5547   6.693   1.437   1.661
 1550SOL     OW 5548   2.860   5.594   4.486
 1550SOL    HW1 5549   2.877   5.682   4.442
 1550SOL    HW2 5550   2.910   5.522   4.438
 1551SOL     OW 5551   1.337   3.185   0.572
 1551SOL    HW1 5552   1.348   3.089   0.599
 1551SOL    HW2 5553   1.413   3.239   0.608
 1552SOL     OW 5554   0.714   0.486   0.774
 1552SOL    HW1 5555   0.781   0.542   0.725
 1552SOL    HW2 5556   0.747   0.392   0.780
 1553SOL     OW 5557   5.877   1.202   6.435
 1553SOL    HW1 5558   5.938   1.252   6.373
 1553SOL    HW2 5559   5.783   1.215   6.405
 1554SOL     OW 5560   3.321   1.742   0.826
 1554SOL    HW1 5561   3.402   1.738   0.768
 1554SOL    HW2 5562   3.240   1.761   0.771
 1555SOL     OW 5563   4.573   1.296   5.655
 1555SOL    HW1 5564   4.490   1.349   5.672
 1555SOL    HW2 5565   4.653   1.350   5.682
 1556SOL     OW 5566   3.796   1.899   0.432
 1556SOL    HW1 5567   3.832   1.986   0.399
 1556SOL    HW2 5568   3.696   1.901   0.429
 1557SOL     OW 5569   1.846   2.949   0.421
 1557SOL    HW1 5570   1.746   2.942   0.420
 1557SOL    HW2 5571   1.883   2.873   0.475
 1558SOL     OW 5572   5.553   2.795   6.273
 1558SOL    HW1 5573   5.511   2.709   6.243
 1558SOL    HW2 5574   5.578   2.849   6.192
 1559SOL     OW 5575   2.354   5.110   3.540
 1559SOL    HW1 5576   2.319   5.052   3.614
 1559SOL    HW2 5577   2.431   5.163   3.573
 1560SOL     OW 5578   3.960   1.725   0.894
 1560SOL    HW1 5579   4.052   1.760   0.914
 1560SOL    HW2 5580   3.960   1.625   0.903
 1561SOL     OW 5581   6.233   6.006   0.944
 1561SOL    HW1 5582   6.294   6.079   0.974
 1561SOL    HW2 5583   6.256   5.921   0.992
 1562SOL     OW 5584   3.771   6.692   2.092
 1562SOL    HW1 5585   3.704   6.708   2.020
 1562SOL    HW2 5586   3.800   6.596   2.090
 1563SOL     OW 5587   3.527   2.115   4.400
 1563SOL    HW1 5588   3.492   2.170   4.477
 1563SOL    HW2 5589   3.620   2.144   4.380
 1564SOL     OW 5590   1.266   2.219   3.506
 1564SOL    HW1 5591   1.291   2.310   3.474
 1564SOL    HW2 5592   1.207   2.227   3.586
 1565SOL     OW 5593   3.763   1.412   4.331
 1565SOL    HW1 5594   3.848   1.423   4.383
 1565SOL    HW2 5595   3.761   1.478   4.256
 1566SOL     OW 5596   4.765   4.951   3.439
 1566SOL    HW1 5597   4.787   4.991   3.350
 1566SOL    HW2 5598   4.738   5.023   3.503
 1567SOL     OW 5599   5.327   0.524   4.767
 1567SOL    HW1 5600   5.312   0.572   4.853
 1567SOL    HW2 5601   5.357   0.431   4.785
 1568SOL     OW 5602   2.641   5.006   1.652
 1568SOL    HW1 5603   2.714   5.032   1.714
 1568SOL    HW2 5604   2.679   4.989   1.561
 1569SOL     OW 5605   3.293   0.215   3.011
 1569SOL    HW1 5606   3.221   0.265   2.963
 1569SOL    HW2 5607   3.282   0.227   3.110
 1570SOL     OW 5608   3.161   5.954   6.156
 1570SOL    HW1 5609   3.248   6.002   6.164
 1570SOL    HW2 5610   3.168   5.883   6.086
 1571SOL     OW 5611   0.703   2.572   4.377
 1571SOL    HW1 5612   0.615   2.618   4.364
 1571SOL    HW2 5613   0.730   2.527   4.292
 1572SOL     OW 5614   2.039   4.954   1.843
 1572SOL    HW1 5615   2.097   4.977   1.922
 1572SOL    HW2 5616   2.072   4.871   1.799
 1573SOL     OW 5617   5.776   5.869   0.479
 1573SOL    HW1 5618   5.728   5.921   0.549
 1573SOL    HW2 5619   5.791   5.775   0.511
 1574SOL     OW 5620   6.618   3.730   3.583
 1574SOL    HW1 5621   6.519   3.743   3.575
 1574SOL    HW2 5622   6.639   3.632   3.574
 1575SOL     OW 5623   6.889   1.777   0.256
 1575SOL    HW1 5624   6.852   1.853   0.203
 1575SOL    HW2 5625   6.890   1.802   0.353
 1576SOL     OW 5626   0.944   0.492   1.980
 1576SOL    HW1 5627   0.908   0.499   2.073
 1576SOL    HW2 5628   0.976   0.582   1.951
 1577SOL     OW 5629   3.810   5.113   5.574
 1577SOL    HW1 5630   3.852   5.194   5.614
 1577SOL    HW2 5631   3.783   5.050   5.646
 1578SOL     OW 5632   4.932   1.367   1.329
 1578SOL    HW1 5633   4.978   1.374   1.417
 1578SOL    HW2 5634   4.835   1.391   1.339
 1579SOL     OW 5635   1.846   2.895   1.130
 1579SOL    HW1 5636   1.908   2.818   1.116
 1579SOL    HW2 5637   1.872   2.945   1.212
 1580SOL     OW 5638   3.305   3.571   2.515
 1580SOL    HW1 5639   3.205   3.573   2.510
 1580SOL    HW2 5640   3.334   3.581   2.610
 1581SOL     OW 5641   5.974   4.366   6.073
 1581SOL    HW1 5642   5.994   4.461   6.048
 1581SOL    HW2 5643   5.878   4.346   6.051
 1582SOL     OW 5644   4.338   6.661   5.482
 1582SOL    HW1 5645   4.419   6.630   5.434
 1582SOL    HW2 5646   4.339   6.761   5.488
 1583SOL     OW 5647   1.314   5.482   5.090
 1583SOL    HW1 5648   1.221   5.519   5.087
 1583SOL    HW2 5649   1.340   5.450   4.999
 1584SOL     OW 5650   0.268   4.825   0.635
 1584SOL    HW1 5651   0.170   4.837   0.618
 1584SOL    HW2 5652   0.317   4.826   0.548
 1585SOL     OW 5653   3.966   6.387   3.296
 1585SOL    HW1 5654   3.970   6.421   3.390
 1585SOL    HW2 5655   3.937   6.291   3.297
 1586SOL     OW 5656   3.268   5.252   3.607
 1586SOL    HW1 5657   3.328   5.206   3.672
 1586SOL    HW2 5658   3.324   5.308   3.545
 1587SOL     OW 5659   2.546   5.985   6.328
 1587SOL    HW1 5660   2.604   5.960   6.406
 1587SOL    HW2 5661   2.454   6.005   6.361
 1588SOL     OW 5662   6.009   1.600   3.602
 1588SOL    HW1 5663   5.920   1.590   3.558
 1588SOL    HW2 5664   6.055   1.511   3.606
 1589SOL     OW 5665   6.081   4.447   4.079
 1589SOL    HW1 5666   6.022   4.377   4.040
 1589SOL    HW2 5667   6.158   4.404   4.126
 1590SOL     OW 5668   6.158   2.565   3.334
 1590SOL    HW1 5669   6.121   2.652   3.367
 1590SOL    HW2 5670   6.145   2.560   3.234
 1591SOL     OW 5671   1.602   6.936   2.028
 1591SOL    HW1 5672   1.574   6.866   2.094
 1591SOL    HW2 5673   1.537   7.012   2.031
 1592SOL     OW 5674   0.185   4.201   6.294
 1592SOL    HW1 5675   0.238   4.132   6.245
 1592SOL    HW2 5676   0.106   4.158   6.337
 1593SOL     OW 5677   3.188   0.803   0.332
 1593SOL    HW1 5678   3.268   0.803   0.393
 1593SOL    HW2 5679   3.207   0.745   0.253
 1594SOL     OW 5680   6.457   6.898   2.528
 1594SOL    HW1 5681   6.381   6.872   2.588
 1594SOL    HW2 5682   6.441   6.989   2.491
 1595SOL     OW 5683   0.398   4.008   0.138
 1595SOL    HW1 5684   0.453   4.037   0.060
 1595SOL    HW2 5685   0.444   3.933   0.186
 1596SOL     OW 5686   4.448   4.642   2.937
 1596SOL    HW1 5687   4.546   4.621   2.934
 1596SOL    HW2 5688   4.403   4.603   2.856
 1597SOL     OW 5689   3.778   6.372   6.741
 1597SOL    HW1 5690   3.839   6.372   6.820
 1597SOL    HW2 5691   3.683   6.384   6.773
 1598SOL     OW 5692   1.908   5.017   0.348
 1598SOL    HW1 5693   1.903   4.921   0.322
 1598SOL    HW2 5694   1.866   5.030   0.438
 1599SOL     OW 5695   4.631   5.625   3.496
 1599SOL    HW1 5696   4.607   5.593   3.587
 1599SOL    HW2 5697   4.585   5.570   3.427
 1600SOL     OW 5698   4.777   6.846   2.239
 1600SOL    HW1 5699   4.856   6.854   2.179
 1600SOL    HW2 5700   4.722   6.929   2.234
 1601SOL     OW 5701   6.970   6.531   4.348
 1601SOL    HW1 5702   6.974   6.629   4.366
 1601SOL    HW2 5703   6.876   6.500   4.356
 1602SOL     OW 5704   3.474   5.124   4.022
 1602SOL    HW1 5705   3.465   5.176   3.937
 1602SOL    HW2 5706   3.492   5.187   4.098
 1603SOL     OW 5707   3.224   5.183   2.906
 1603SOL    HW1 5708   3.224   5.254   2.976
 1603SOL    HW2 5709   3.215   5.225   2.816
 1604SOL     OW 5710   4.297   5.207   1.937
 1604SOL    HW1 5711   4.225   5.143   1.963
 1604SOL    HW2 5712   4.330   5.255   2.018
 1605SOL     OW 5713   4.790   5.926   0.991
 1605SOL    HW1 5714   4.699   5.950   0.959
 1605SOL    HW2 5715   4.818   5.988   1.064
 1606SOL     OW 5716   3.349   6.172   4.754
 1606SOL    HW1 5717   3.419   6.158   4.824
 1606SOL    HW2 5718   3.392   6.203   4.669
 1607SOL     OW 5719   4.518   6.169   2.999
 1607SOL    HW1 5720   4.568   6.117   3.067
 1607SOL    HW2 5721   4.580   6.234   2.953
 1608SOL     OW 5722   5.838   0.992   3.169
 1608SOL    HW1 5723   5.883   1.071   3.127
 1608SOL    HW2 5724   5.881   0.908   3.138
 1609SOL     OW 5725   2.668   6.799   0.062
 1609SOL    HW1 5726   2.636   6.857   0.138
 1609SOL    HW2 5727   2.746   6.843   0.018
 1610SOL     OW 5728   5.445   0.353   0.864
 1610SOL    HW1 5729   5.376   0.299   0.816
 1610SOL    HW2 5730   5.405   0.391   0.947
 1611SOL     OW 5731   1.040   4.198   1.653
 1611SOL    HW1 5732   0.999   4.107   1.654
 1611SOL    HW2 5733   1.095   4.209   1.571
 1612SOL     OW 5734   3.796   0.186   1.931
 1612SOL    HW1 5735   3.853   0.228   1.860
 1612SOL    HW2 5736   3.793   0.247   2.010
 1613SOL     OW 5737   6.623   5.366   2.402
 1613SOL    HW1 5738   6.608   5.464   2.419
 1613SOL    HW2 5739   6.721   5.345   2.411
 1614SOL     OW 5740   6.780   1.871   6.107
 1614SOL    HW1 5741   6.776   1.971   6.115
 1614SOL    HW2 5742   6.690   1.837   6.079
 1615SOL     OW 5743   1.319   4.616   6.102
 1615SOL    HW1 5744   1.265   4.693   6.068
 1615SOL    HW2 5745   1.325   4.621   6.202
 1616SOL     OW 5746   1.987   1.532   4.710
 1616SOL    HW1 5747   1.926   1.589   4.656
 1616SOL    HW2 5748   2.027   1.460   4.652
 1617SOL     OW 5749   5.492   6.059   3.199
 1617SOL    HW1 5750   5.533   6.119   3.267
 1617SOL    HW2 5751   5.549   6.056   3.117
 1618SOL     OW 5752   2.831   5.274   2.797
 1618SOL    HW1 5753   2.734   5.257   2.782
 1618SOL    HW2 5754   2.869   5.203   2.857
 1619SOL     OW 5755   1.205   4.752   6.625
 1619SOL    HW1 5756   1.281   4.786   6.680
 1619SOL    HW2 5757   1.158   4.679   6.675
 1620SOL     OW 5758   3.609   5.351   6.180
 1620SOL    HW1 5759   3.552   5.381   6.103
 1620SOL    HW2 5760   3.627   5.429   6.240
 1621SOL     OW 5761   5.179   5.927   1.295
 1621SOL    HW1 5762   5.140   6.003   1.243
 1621SOL    HW2 5763   5.135   5.842   1.267
 1622SOL     OW 5764   0.844   4.751   4.268
 1622SOL    HW1 5765   0.920   4.693   4.239
 1622SOL    HW2 5766   0.831   4.824   4.200
 1623SOL     OW 5767   0.498   2.225   4.096
 1623SOL    HW1 5768   0.567   2.265   4.035
 1623SOL    HW2 5769   0.544   2.180   4.173
 1624SOL     OW 5770   4.272   1.605   0.929
 1624SOL    HW1 5771   4.233   1.685   0.974
 1624SOL    HW2 5772   4.358   1.630   0.884
 1625SOL     OW 5773   0.771   5.811   0.658
 1625SOL    HW1 5774   0.772   5.758   0.743
 1625SOL    HW2 5775   0.690   5.868   0.656
 1626SOL     OW 5776   2.921   1.991   1.318
 1626SOL    HW1 5777   2.928   1.976   1.220
 1626SOL    HW2 5778   3.008   2.023   1.354
 1627SOL     OW 5779   4.245   1.571   4.686
 1627SOL    HW1 5780   4.211   1.477   4.696
 1627SOL    HW2 5781   4.300   1.578   4.603
 1628SOL     OW 5782   5.294   6.884   0.528
 1628SOL    HW1 5783   5.383   6.863   0.569
 1628SOL    HW2 5784   5.297   6.867   0.430
 1629SOL     OW 5785   1.897   0.534   3.395
 1629SOL    HW1 5786   1.945   0.447   3.408
 1629SOL    HW2 5787   1.910   0.592   3.475
 1630SOL     OW 5788   0.112   3.719   0.098
 1630SOL    HW1 5789   0.184   3.666   0.144
 1630SOL    HW2 5790   0.095   3.682   0.007
 1631SOL     OW 5791   6.747   3.491   0.315
 1631SOL    HW1 5792   6.709   3.536   0.395
 1631SOL    HW2 5793   6.836   3.451   0.338
 1632SOL     OW 5794   6.637   5.181   2.701
 1632SOL    HW1 5795   6.571   5.255   2.690
 1632SOL    HW2 5796   6.693   5.173   2.619
 1633SOL     OW 5797   5.180   3.253   3.804
 1633SOL    HW1 5798   5.172   3.314   3.883
 1633SOL    HW2 5799   5.139   3.164   3.827
 1634SOL     OW 5800   6.085   0.912   4.481
 1634SOL    HW1 5801   6.019   0.931   4.553
 1634SOL    HW2 5802   6.171   0.960   4.502
 1635SOL     OW 5803   3.535   5.870   3.932
 1635SOL    HW1 5804   3.437   5.883   3.915
 1635SOL    HW2 5805   3.547   5.816   4.015
 1636SOL     OW 5806   5.815   6.640   1.681
 1636SOL    HW1 5807   5.878   6.625   1.757
 1636SOL    HW2 5808   5.731   6.682   1.715
 1637SOL     OW 5809   0.541   0.184   1.875
 1637SOL    HW1 5810   0.616   0.227   1.825
 1637SOL    HW2 5811   0.454   0.224   1.846
 1638SOL     OW 5812   6.139   3.190   1.698
 1638SOL    HW1 5813   6.224   3.140   1.711
 1638SOL    HW2 5814   6.069   3.129   1.660
 1639SOL     OW 5815   5.342   2.635   2.395
 1639SOL    HW1 5816   5.342   2.580   2.312
 1639SOL    HW2 5817   5.278   2.711   2.385
 1640SOL     OW 5818   6.156   0.252   6.472
 1640SOL    HW1 5819   6.116   0.174   6.520
 1640SOL    HW2 5820   6.129   0.337   6.517
 1641SOL     OW 5821   6.494   2.589   3.152
 1641SOL    HW1 5822   6.519   2.526   3.225
 1641SOL    HW2 5823   6.454   2.537   3.076
 1642SOL     OW 5824   6.279   2.367   5.589
 1642SOL    HW1 5825   6.286   2.448   5.646
 1642SOL    HW2 5826   6.261   2.394   5.494
 1643SOL     OW 5827   2.632   5.970   3.362
 1643SOL    HW1 5828   2.578   5.953   3.444
 1643SOL    HW2 5829   2.626   6.067   3.338
 1644SOL     OW 5830   6.128   2.828   1.524
 1644SOL    HW1 5831   6.156   2.749   1.579
 1644SOL    HW2 5832   6.069   2.887   1.578
 1645SOL     OW 5833   2.246   1.019   5.826
 1645SOL    HW1 5834   2.217   1.007   5.921
 1645SOL    HW2 5835   2.342   1.047   5.824
 1646SOL     OW 5836   1.348   5.633   1.104
 1646SOL    HW1 5837   1.370   5.596   1.194
 1646SOL    HW2 5838   1.325   5.730   1.111
 1647SOL     OW 5839   6.026   2.763   3.944
 1647SOL    HW1 5840   5.940   2.806   3.916
 1647SOL    HW2 5841   6.066   2.815   4.020
 1648SOL     OW 5842   5.428   6.081   1.174
 1648SOL    HW1 5843   5.360   6.025   1.127
 1648SOL    HW2 5844   5.469   6.029   1.249
 1649SOL     OW 5845   3.781   0.443   3.474
 1649SOL    HW1 5846   3.876   0.471   3.486
 1649SOL    HW2 5847   3.760   0.436   3.376
 1650SOL     OW 5848   3.045   4.224   6.528
 1650SOL    HW1 5849   2.960   4.176   6.546
 1650SOL    HW2 5850   3.029   4.296   6.460
 1651SOL     OW 5851   1.089   2.896   3.686
 1651SOL    HW1 5852   1.092   2.886   3.586
 1651SOL    HW2 5853   1.181   2.912   3.721
 1652SOL     OW 5854   0.759   2.454   1.355
 1652SOL    HW1 5855   0.680   2.441   1.296
 1652SOL    HW2 5856   0.817   2.373   1.352
 1653SOL     OW 5857   0.195   4.494   3.324
 1653SOL    HW1 5858   0.202   4.449   3.413
 1653SOL    HW2 5859   0.175   4.591   3.338
 1654SOL     OW 5860   0.557   3.106   2.116
 1654SOL    HW1 5861   0.535   3.117   2.019
 1654SOL    HW2 5862   0.656   3.095   2.126
 1655SOL     OW 5863   0.127   6.567   4.700
 1655SOL    HW1 5864   0.109   6.487   4.643
 1655SOL    HW2 5865   0.197   6.544   4.768
 1656SOL     OW 5866   1.862   4.546   3.284
 1656SOL    HW1 5867   1.813   4.609   3.344
 1656SOL    HW2 5868   1.938   4.505   3.335
 1657SOL     OW 5869   1.285   6.629   5.517
 1657SOL    HW1 5870   1.337   6.702   5.560
 1657SOL    HW2 5871   1.207   6.605   5.575
 1658SOL     OW 5872   6.454   0.101   6.583
 1658SOL    HW1 5873   6.468   0.009   6.618
 1658SOL    HW2 5874   6.432   0.098   6.486
 1659SOL     OW 5875   4.632   6.568   6.514
 1659SOL    HW1 5876   4.723   6.581   6.476
 1659SOL    HW2 5877   4.578   6.509   6.452
 1660SOL     OW 5878   2.598   0.191   2.385
 1660SOL    HW1 5879   2.584   0.290   2.381
 1660SOL    HW2 5880   2.641   0.166   2.471
 1661SOL     OW 5881   4.080   4.807   2.423
 1661SOL    HW1 5882   4.112   4.784   2.331
 1661SOL    HW2 5883   3.985   4.840   2.419
 1662SOL     OW 5884   0.177   1.226   4.716
 1662SOL    HW1 5885   0.175   1.309   4.772
 1662SOL    HW2 5886   0.085   1.186   4.713
 1663SOL     OW 5887   4.450   4.727   0.714
 1663SOL    HW1 5888   4.409   4.696   0.800
 1663SOL    HW2 5889   4.550   4.723   0.722
 1664SOL     OW 5890   1.240   0.215   5.694
 1664SOL    HW1 5891   1.191   0.159   5.628
 1664SOL    HW2 5892   1.294   0.284   5.646
 1665SOL     OW 5893   2.361   3.930   0.402
 1665SOL    HW1 5894   2.321   3.849   0.360
 1665SOL    HW2 5895   2.434   3.904   0.464
 1666SOL     OW 5896   5.710   6.588   6.232
 1666SOL    HW1 5897   5.696   6.652   6.307
 1666SOL    HW2 5898   5.769   6.513   6.263
 1667SOL     OW 5899   1.017   6.200   1.147
 1667SOL    HW1 5900   1.080   6.156   1.211
 1667SOL    HW2 5901   1.029   6.162   1.056
 1668SOL     OW 5902   5.395   4.539   3.159
 1668SOL    HW1 5903   5.321   4.593   3.197
 1668SOL    HW2 5904   5.429   4.582   3.075
 1669SOL     OW 5905   6.537   3.283   5.470
 1669SOL    HW1 5906   6.547   3.364   5.412
 1669SOL    HW2 5907   6.500   3.310   5.559
 1670SOL     OW 5908   2.057   5.187   5.993
 1670SOL    HW1 5909   2.088   5.227   6.079
 1670SOL    HW2 5910   2.048   5.088   6.004
 1671SOL     OW 5911   6.145   2.028   1.124
 1671SOL    HW1 5912   6.153   1.929   1.135
 1671SOL    HW2 5913   6.090   2.066   1.198
 1672SOL     OW 5914   0.787   3.903   0.252
 1672SOL    HW1 5915   0.702   3.859   0.225
 1672SOL    HW2 5916   0.854   3.896   0.178
 1673SOL     OW 5917   2.050   1.515   4.971
 1673SOL    HW1 5918   2.074   1.596   5.024
 1673SOL    HW2 5919   2.018   1.542   4.880
 1674SOL     OW 5920   4.895   2.094   3.048
 1674SOL    HW1 5921   4.992   2.069   3.048
 1674SOL    HW2 5922   4.878   2.161   3.120
 1675SOL     OW 5923   5.441   0.829   1.160
 1675SOL    HW1 5924   5.513   0.898   1.169
 1675SOL    HW2 5925   5.396   0.817   1.249
 1676SOL     OW 5926   1.501   1.834   2.689
 1676SOL    HW1 5927   1.429   1.781   2.733
 1676SOL    HW2 5928   1.590   1.799   2.719
 1677SOL     OW 5929   4.126   3.666   3.062
 1677SOL    HW1 5930   4.113   3.689   3.159
 1677SOL    HW2 5931   4.163   3.573   3.055
 1678SOL     OW 5932   1.112   6.982   0.956
 1678SOL    HW1 5933   1.012   6.982   0.950
 1678SOL    HW2 5934   1.150   6.998   0.864
 1679SOL     OW 5935   1.267   2.561   5.755
 1679SOL    HW1 5936   1.222   2.482   5.794
 1679SOL    HW2 5937   1.329   2.602   5.822
 1680SOL     OW 5938   4.990   2.343   4.036
 1680SOL    HW1 5939   5.047   2.342   4.118
 1680SOL    HW2 5940   4.943   2.431   4.030
 1681SOL     OW 5941   2.281   6.041   4.276
 1681SOL    HW1 5942   2.246   5.970   4.336
 1681SOL    HW2 5943   2.223   6.048   4.195
 1682SOL     OW 5944   2.967   0.465   4.861
 1682SOL    HW1 5945   2.973   0.434   4.955
 1682SOL    HW2 5946   3.012   0.399   4.801
 1683SOL     OW 5947   5.794   5.050   2.627
 1683SOL    HW1 5948   5.801   5.046   2.528
 1683SOL    HW2 5949   5.858   5.118   2.663
 1684SOL     OW 5950   2.577   4.653   1.976
 1684SOL    HW1 5951   2.538   4.590   1.909
 1684SOL    HW2 5952   2.677   4.646   1.974
 1685SOL     OW 5953   0.135   1.138   5.031
 1685SOL    HW1 5954   0.117   1.103   5.123
 1685SOL    HW2 5955   0.065   1.204   5.006
 1686SOL     OW 5956   4.994   5.782   2.704
 1686SOL    HW1 5957   4.945   5.703   2.740
 1686SOL    HW2 5958   4.933   5.862   2.706
 1687SOL     OW 5959   5.835   3.812   2.781
 1687SOL    HW1 5960   5.844   3.720   2.742
 1687SOL    HW2 5961   5.904   3.871   2.740
 1688SOL     OW 5962   2.189   1.458   3.705
 1688SOL    HW1 5963   2.276   1.428   3.665
 1688SOL    HW2 5964   2.201   1.549   3.745
 1689SOL     OW 5965   4.673   1.004   1.609
 1689SOL    HW1 5966   4.676   1.097   1.645
 1689SOL    HW2 5967   4.578   0.979   1.589
 1690SOL     OW 5968   1.055   4.595   4.155
 1690SOL    HW1 5969   1.053   4.497   4.173
 1690SOL    HW2 5970   1.147   4.630   4.172
 1691SOL     OW 5971   4.676   3.035   5.308
 1691SOL    HW1 5972   4.762   3.000   5.345
 1691SOL    HW2 5973   4.610   2.960   5.303
 1692SOL     OW 5974   5.469   5.257   1.411
 1692SOL    HW1 5975   5.454   5.257   1.313
 1692SOL    HW2 5976   5.384   5.279   1.459
 1693SOL     OW 5977   5.297   6.839   5.468
 1693SOL    HW1 5978   5.351   6.805   5.391
 1693SOL    HW2 5979   5.293   6.769   5.540
 1694SOL     OW 5980   4.959   1.275   5.193
 1694SOL    HW1 5981   5.046   1.300   5.238
 1694SOL    HW2 5982   4.883   1.295   5.255
 1695SOL     OW 5983   3.828   0.641   6.417
 1695SOL    HW1 5984   3.776   0.590   6.486
 1695SOL    HW2 5985   3.807   0.605   6.326
 1696SOL     OW 5986   4.947   5.983   0.438
 1696SOL    HW1 5987   4.890   5.915   0.484
 1696SOL    HW2 5988   4.889   6.051   0.394
 1697SOL     OW 5989   5.679   2.412   2.346
 1697SOL    HW1 5990   5.611   2.396   2.417
 1697SOL    HW2 5991   5.746   2.338   2.347
 1698SOL     OW 5992   3.992   1.197   1.470
 1698SOL    HW1 5993   3.919   1.146   1.425
 1698SOL    HW2 5994   3.961   1.228   1.560
 1699SOL     OW 5995   2.487   0.211   6.891
 1699SOL    HW1 5996   2.445   0.299   6.869
 1699SOL    HW2 5997   2.426   0.137   6.862
 1700SOL     OW 5998   6.515   2.720   2.538
 1700SOL    HW1 5999   6.419   2.692   2.534
 1700SOL    HW2 6000   6.573   2.640   2.523
 1701SOL     OW 6001   0.630   5.983   4.388
 1701SOL    HW1 6002   0.538   5.989   4.349
 1701SOL    HW2 6003   0.626   5.998   4.487
 1702SOL     OW 6004   2.069   2.478   6.103
 1702SOL    HW1 6005   2.129   2.478   6.183
 1702SOL    HW2 6006   1.989   2.421   6.121
 1703SOL     OW 6007   3.446   2.050   0.650
 1703SOL    HW1 6008   3.386   2.060   0.729
 1703SOL    HW2 6009   3.394   2.013   0.573
 1704SOL     OW 6010   2.631   2.362   1.207
 1704SOL    HW1 6011   2.604   2.267   1.222
 1704SOL    HW2 6012   2.714   2.365   1.151
 1705SOL     OW 6013   4.114   2.188   0.504
 1705SOL    HW1 6014   4.028   2.194   0.453
 1705SOL    HW2 6015   4.095   2.179   0.601
 1706SOL     OW 6016   4.259   2.164   6.650
 1706SOL    HW1 6017   4.218   2.162   6.742
 1706SOL    HW2 6018   4.358   2.151   6.657
 1707SOL     OW 6019   4.615   2.084   2.074
 1707SOL    HW1 6020   4.617   2.087   2.174
 1707SOL    HW2 6021   4.554   2.011   2.044
 1708SOL     OW 6022   3.432   4.990   1.540
 1708SOL    HW1 6023   3.502   4.965   1.607
 1708SOL    HW2 6024   3.376   4.909   1.519
 1709SOL     OW 6025   4.696   5.410   0.677
 1709SOL    HW1 6026   4.615   5.466   0.697
 1709SOL    HW2 6027   4.778   5.465   0.688
 1710SOL     OW 6028   4.173   5.204   3.117
 1710SOL    HW1 6029   4.209   5.126   3.065
 1710SOL    HW2 6030   4.098   5.174   3.176
 1711SOL     OW 6031   4.092   4.440   6.299
 1711SOL    HW1 6032   4.007   4.393   6.323
 1711SOL    HW2 6033   4.074   4.538   6.291
 1712SOL     OW 6034   6.844   1.668   3.242
 1712SOL    HW1 6035   6.916   1.736   3.233
 1712SOL    HW2 6036   6.826   1.626   3.153
 1713SOL     OW 6037   4.167   0.581   3.126
 1713SOL    HW1 6038   4.192   0.677   3.114
 1713SOL    HW2 6039   4.170   0.558   3.223
 1714SOL     OW 6040   4.078   3.234   0.433
 1714SOL    HW1 6041   4.104   3.287   0.513
 1714SOL    HW2 6042   4.071   3.294   0.353
 1715SOL     OW 6043   2.021   6.894   2.834
 1715SOL    HW1 6044   1.954   6.823   2.812
 1715SOL    HW2 6045   2.097   6.890   2.769
 1716SOL     OW 6046   5.079   0.650   3.727
 1716SOL    HW1 6047   5.067   0.602   3.814
 1716SOL    HW2 6048   5.145   0.724   3.738
 1717SOL     OW 6049   3.381   6.096   5.639
 1717SOL    HW1 6050   3.464   6.123   5.689
 1717SOL    HW2 6051   3.340   6.177   5.597
 1718SOL     OW 6052   1.512   3.113   1.865
 1718SOL    HW1 6053   1.427   3.143   1.822
 1718SOL    HW2 6054   1.497   3.026   1.910
 1719SOL     OW 6055   1.347   5.407   2.118
 1719SOL    HW1 6056   1.445   5.425   2.108
 1719SOL    HW2 6057   1.323   5.409   2.215
 1720SOL     OW 6058   7.005   3.071   5.792
 1720SOL    HW1 6059   0.068   3.117   5.814
 1720SOL    HW2 6060   6.986   3.082   5.694
 1721SOL     OW 6061   1.494   1.947   0.506
 1721SOL    HW1 6062   1.519   1.981   0.416
 1721SOL    HW2 6063   1.418   2.000   0.542
 1722SOL     OW 6064   2.536   2.445   3.268
 1722SOL    HW1 6065   2.508   2.515   3.333
 1722SOL    HW2 6066   2.629   2.414   3.290
 1723SOL     OW 6067   5.096   2.997   0.071
 1723SOL    HW1 6068   5.118   3.011   0.167
 1723SOL    HW2 6069   5.158   3.050   0.014
 1724SOL     OW 6070   6.584   2.120   1.339
 1724SOL    HW1 6071   6.514   2.180   1.301
 1724SOL    HW2 6072   6.629   2.165   1.416
 1725SOL     OW 6073   1.393   6.029   6.925
 1725SOL    HW1 6074   1.298   6.017   6.954
 1725SOL    HW2 6075   1.454   5.980   6.988
 1726SOL     OW 6076   5.551   4.310   3.119
 1726SOL    HW1 6077   5.499   4.232   3.084
 1726SOL    HW2 6078   5.489   4.384   3.143
 1727SOL     OW 6079   3.126   3.703   3.647
 1727SOL    HW1 6080   3.178   3.644   3.708
 1727SOL    HW2 6081   3.037   3.662   3.628
 1728SOL     OW 6082   4.583   2.174   4.185
 1728SOL    HW1 6083   4.509   2.197   4.249
 1728SOL    HW2 6084   4.554   2.196   4.092
 1729SOL     OW 6085   1.583   3.710   2.600
 1729SOL    HW1 6086   1.545   3.793   2.641
 1729SOL    HW2 6087   1.651   3.671   2.662
 1730SOL     OW 6088   2.520   4.722   5.247
 1730SOL    HW1 6089   2.570   4.808   5.246
 1730SOL    HW2 6090   2.439   4.731   5.305
 1731SOL     OW 6091   5.993   4.608   3.664
 1731SOL    HW1 6092   5.912   4.575   3.712
 1731SOL    HW2 6093   5.965   4.657   3.582
 1732SOL     OW 6094   1.870   3.870   5.760
 1732SOL    HW1 6095   1.783   3.820   5.763
 1732SOL    HW2 6096   1.931   3.826   5.695
 1733SOL     OW 6097   2.661   3.877   6.473
 1733SOL    HW1 6098   2.587   3.945   6.476
 1733SOL    HW2 6099   2.645   3.809   6.544
 1734SOL     OW 6100   0.085   2.582   1.634
 1734SOL    HW1 6101   0.096   2.665   1.578
 1734SOL    HW2 6102   0.174   2.537   1.644
 1735SOL     OW 6103   3.719   4.962   5.798
 1735SOL    HW1 6104   3.749   4.900   5.725
 1735SOL    HW2 6105   3.766   4.938   5.883
 1736SOL     OW 6106   4.807   3.158   0.955
 1736SOL    HW1 6107   4.737   3.089   0.977
 1736SOL    HW2 6108   4.808   3.174   0.856
 1737SOL     OW 6109   4.738   1.680   5.622
 1737SOL    HW1 6110   4.776   1.623   5.549
 1737SOL    HW2 6111   4.746   1.776   5.596
 1738SOL     OW 6112   1.685   3.397   4.330
 1738SOL    HW1 6113   1.667   3.300   4.320
 1738SOL    HW2 6114   1.745   3.428   4.256
 1739SOL     OW 6115   5.900   0.423   3.791
 1739SOL    HW1 6116   5.817   0.428   3.847
 1739SOL    HW2 6117   5.967   0.489   3.826
 1740SOL     OW 6118   6.260   2.730   4.708
 1740SOL    HW1 6119   6.337   2.791   4.686
 1740SOL    HW2 6120   6.177   2.765   4.665
 1741SOL     OW 6121   0.946   1.873   4.654
 1741SOL    HW1 6122   1.013   1.889   4.580
 1741SOL    HW2 6123   0.854   1.869   4.615
 1742SOL     OW 6124   5.814   6.636   5.941
 1742SOL    HW1 6125   5.777   6.625   6.034
 1742SOL    HW2 6126   5.913   6.624   5.943
 1743SOL     OW 6127   1.606   0.973   2.649
 1743SOL    HW1 6128   1.643   1.053   2.601
 1743SOL    HW2 6129   1.506   0.978   2.650
 1744SOL     OW 6130   3.858   1.859   4.511
 1744SOL    HW1 6131   3.844   1.948   4.553
 1744SOL    HW2 6132   3.932   1.811   4.558
 1745SOL     OW 6133   6.390   6.831   1.700
 1745SOL    HW1 6134   6.440   6.747   1.678
 1745SOL    HW2 6135   6.422   6.905   1.642
 1746SOL     OW 6136   2.242   4.620   3.812
 1746SOL    HW1 6137   2.220   4.636   3.715
 1746SOL    HW2 6138   2.160   4.592   3.861
 1747SOL     OW 6139   4.365   6.991   2.473
 1747SOL    HW1 6140   4.422   0.051   2.469
 1747SOL    HW2 6141   4.380   6.945   2.560
 1748SOL     OW 6142   6.832   2.798   4.509
 1748SOL    HW1 6143   6.788   2.880   4.544
 1748SOL    HW2 6144   6.820   2.792   4.410
 1749SOL     OW 6145   1.633   4.571   0.933
 1749SOL    HW1 6146   1.719   4.620   0.916
 1749SOL    HW2 6147   1.653   4.483   0.974
 1750SOL     OW 6148   3.813   6.964   5.895
 1750SOL    HW1 6149   3.808   6.897   5.821
 1750SOL    HW2 6150   3.854   6.923   5.976
 1751SOL     OW 6151   5.036   2.943   5.388
 1751SOL    HW1 6152   5.006   3.028   5.432
 1751SOL    HW2 6153   4.981   2.866   5.423
 1752SOL     OW 6154   0.216   0.662   1.900
 1752SOL    HW1 6155   0.274   0.581   1.898
 1752SOL    HW2 6156   0.236   0.715   1.983
 1753SOL     OW 6157   6.055   1.520   1.628
 1753SOL    HW1 6158   6.142   1.518   1.579
 1753SOL    HW2 6159   6.058   1.591   1.699
 1754SOL     OW 6160   3.001   5.409   4.342
 1754SOL    HW1 6161   3.049   5.382   4.259
 1754SOL    HW2 6162   3.063   5.401   4.420
 1755SOL     OW 6163   6.618   6.555   4.909
 1755SOL    HW1 6164   6.560   6.570   4.989
 1755SOL    HW2 6165   6.584   6.610   4.833
 1756SOL     OW 6166   4.827   6.661   6.154
 1756SOL    HW1 6167   4.786   6.749   6.175
 1756SOL    HW2 6168   4.845   6.655   6.056
 1757SOL     OW 6169   2.278   4.859   5.347
 1757SOL    HW1 6170   2.331   4.941   5.323
 1757SOL    HW2 6171   2.181   4.876   5.330
 1758SOL     OW 6172   1.790   6.234   4.596
 1758SOL    HW1 6173   1.753   6.263   4.508
 1758SOL    HW2 6174   1.739   6.276   4.670
 1759SOL     OW 6175   1.997   6.887   0.401
 1759SOL    HW1 6176   2.066   6.840   0.346
 1759SOL    HW2 6177   1.914   6.831   0.406
 1760SOL     OW 6178   6.747   0.799   4.645
 1760SOL    HW1 6179   6.672   0.847   4.691
 1760SOL    HW2 6180   6.777   0.722   4.701
 1761SOL     OW 6181   6.100   1.581   2.345
 1761SOL    HW1 6182   6.029   1.523   2.385
 1761SOL    HW2 6183   6.160   1.616   2.418
 1762SOL     OW 6184   0.477   1.772   5.932
 1762SOL    HW1 6185   0.524   1.821   5.858
 1762SOL    HW2 6186   0.520   1.683   5.945
 1763SOL     OW 6187   0.550   3.984   3.944
 1763SOL    HW1 6188   0.537   3.906   4.004
 1763SOL    HW2 6189   0.574   3.952   3.852
 1764SOL     OW 6190   0.949   5.664   2.853
 1764SOL    HW1 6191   1.009   5.648   2.932
 1764SOL    HW2 6192   1.004   5.666   2.770
 1765SOL     OW 6193   5.720   3.355   2.048
 1765SOL    HW1 6194   5.759   3.383   1.960
 1765SOL    HW2 6195   5.623   3.380   2.051
 1766SOL     OW 6196   4.565   4.499   3.808
 1766SOL    HW1 6197   4.649   4.522   3.759
 1766SOL    HW2 6198   4.497   4.572   3.794
 1767SOL     OW 6199   0.857   4.282   2.471
 1767SOL    HW1 6200   0.937   4.341   2.471
 1767SOL    HW2 6201   0.781   4.329   2.516
 1768SOL     OW 6202   5.151   6.443   2.150
 1768SOL    HW1 6203   5.195   6.407   2.068
 1768SOL    HW2 6204   5.070   6.496   2.124
 1769SOL     OW 6205   5.295   0.436   0.230
 1769SOL    HW1 6206   5.290   0.452   0.329
 1769SOL    HW2 6207   5.265   0.343   0.210
 1770SOL     OW 6208   2.181   5.579   0.064
 1770SOL    HW1 6209   2.174   5.631   7.002
 1770SOL    HW2 6210   2.167   5.639   0.142
 1771SOL     OW 6211   1.349   2.939   5.850
 1771SOL    HW1 6212   1.347   2.876   5.928
 1771SOL    HW2 6213   1.414   2.904   5.782
 1772SOL     OW 6214   2.114   4.660   3.124
 1772SOL    HW1 6215   2.182   4.601   3.168
 1772SOL    HW2 6216   2.045   4.687   3.192
 1773SOL     OW 6217   1.144   6.667   6.260
 1773SOL    HW1 6218   1.090   6.739   6.304
 1773SOL    HW2 6219   1.147   6.587   6.321
 1774SOL     OW 6220   4.907   5.542   0.756
 1774SOL    HW1 6221   4.986   5.497   0.714
 1774SOL    HW2 6222   4.930   5.638   0.775
 1775SOL     OW 6223   2.239   5.479   6.677
 1775SOL    HW1 6224   2.234   5.417   6.755
 1775SOL    HW2 6225   2.294   5.438   6.605
 1776SOL     OW 6226   4.912   1.985   5.756
 1776SOL    HW1 6227   4.939   2.051   5.686
 1776SOL    HW2 6228   4.823   2.011   5.794
 1777SOL     OW 6229   4.905   6.225   6.357
 1777SOL    HW1 6230   4.994   6.215   6.312
 1777SOL    HW2 6231   4.907   6.304   6.418
 1778SOL     OW 6232   5.345   6.926   4.112
 1778SOL    HW1 6233   5.346   6.906   4.210
 1778SOL    HW2 6234   5.324   6.842   4.062
 1779SOL     OW 6235   5.795   5.901   4.383
 1779SOL    HW1 6236   5.716   5.889   4.322
 1779SOL    HW2 6237   5.873   5.936   4.330
 1780SOL     OW 6238   2.483   5.925   4.745
 1780SOL    HW1 6239   2.433   5.870   4.678
 1780SOL    HW2 6240   2.488   6.019   4.713
 1781SOL     OW 6241   4.149   0.776   4.061
 1781SOL    HW1 6242   4.063   0.819   4.089
 1781SOL    HW2 6243   4.138   0.677   4.058
 1782SOL     OW 6244   0.563   1.554   2.813
 1782SOL    HW1 6245   0.597   1.580   2.903
 1782SOL    HW2 6246   0.510   1.470   2.819
 1783SOL     OW 6247   2.150   3.947   6.663
 1783SOL    HW1 6248   2.106   3.922   6.577
 1783SOL    HW2 6249   2.188   4.039   6.656
 1784SOL     OW 6250   2.517   0.365   1.605
 1784SOL    HW1 6251   2.491   0.403   1.517
 1784SOL    HW2 6252   2.500   0.267   1.606
 1785SOL     OW 6253   1.428   6.769   4.668
 1785SOL    HW1 6254   1.355   6.746   4.603
 1785SOL    HW2 6255   1.404   6.735   4.759
 1786SOL     OW 6256   1.135   6.701   0.758
 1786SOL    HW1 6257   1.229   6.719   0.727
 1786SOL    HW2 6258   1.071   6.734   0.688
 1787SOL     OW 6259   2.843   3.733   6.131
 1787SOL    HW1 6260   2.940   3.743   6.107
 1787SOL    HW2 6261   2.787   3.751   6.050
 1788SOL     OW 6262   4.804   3.776   1.236
 1788SOL    HW1 6263   4.835   3.703   1.297
 1788SOL    HW2 6264   4.879   3.841   1.221
 1789SOL     OW 6265   5.595   3.835   1.662
 1789SOL    HW1 6266   5.649   3.794   1.735
 1789SOL    HW2 6267   5.620   3.793   1.574
 1790SOL     OW 6268   2.415   2.333   4.629
 1790SOL    HW1 6269   2.355   2.307   4.705
 1790SOL    HW2 6270   2.455   2.423   4.647
 1791SOL     OW 6271   5.068   6.951   3.172
 1791SOL    HW1 6272   5.160   6.950   3.210
 1791SOL    HW2 6273   5.042   0.022   3.149
 1792SOL     OW 6274   6.980   1.301   5.303
 1792SOL    HW1 6275   6.881   1.296   5.295
 1792SOL    HW2 6276   7.015   1.215   5.341
 1793SOL     OW 6277   0.042   1.054   5.723
 1793SOL    HW1 6278   7.019   1.143   5.716
 1793SOL    HW2 6279   0.086   1.045   5.812
 1794SOL     OW 6280   1.103   0.180   6.649
 1794SOL    HW1 6281   1.170   0.233   6.598
 1794SOL    HW2 6282   1.150   0.117   6.710
 1795SOL     OW 6283   6.017   4.366   1.465
 1795SOL    HW1 6284   6.063   4.446   1.504
 1795SOL    HW2 6285   6.085   4.302   1.429
 1796SOL     OW 6286   0.547   0.412   6.877
 1796SOL    HW1 6287   0.487   0.395   6.798
 1796SOL    HW2 6288   0.637   0.440   6.845
 1797SOL     OW 6289   1.666   5.514   5.846
 1797SOL    HW1 6290   1.595   5.575   5.811
 1797SOL    HW2 6291   1.661   5.512   5.946
 1798SOL     OW 6292   2.979   3.352   5.120
 1798SOL    HW1 6293   3.078   3.355   5.128
 1798SOL    HW2 6294   2.941   3.444   5.129
 1799SOL     OW 6295   3.294   1.687   0.346
 1799SOL    HW1 6296   3.322   1.620   0.279
 1799SOL    HW2 6297   3.293   1.645   0.437
 1800SOL     OW 6298   6.300   3.640   4.987
 1800SOL    HW1 6299   6.236   3.635   5.063
 1800SOL    HW2 6300   6.250   3.657   4.902
 1801SOL     OW 6301   1.242   0.829   3.113
 1801SOL    HW1 6302   1.325   0.869   3.152
 1801SOL    HW2 6303   1.182   0.798   3.187
 1802SOL     OW 6304   0.086   4.642   3.631
 1802SOL    HW1 6305   0.036   4.587   3.698
 1802SOL    HW2 6306   0.039   4.637   3.543
 1803SOL     OW 6307   0.324   6.744   3.078
 1803SOL    HW1 6308   0.289   6.836   3.091
 1803SOL    HW2 6309   0.252   6.686   3.040
 1804SOL     OW 6310   2.050   3.321   5.844
 1804SOL    HW1 6311   2.090   3.351   5.758
 1804SOL    HW2 6312   2.107   3.354   5.920
 1805SOL     OW 6313   0.346   5.571   7.006
 1805SOL    HW1 6314   0.356   5.636   0.058
 1805SOL    HW2 6315   0.310   5.618   6.925
 1806SOL     OW 6316   6.901   1.805   1.812
 1806SOL    HW1 6317   6.907   1.725   1.753
 1806SOL    HW2 6318   6.977   1.805   1.877
 1807SOL     OW 6319   0.311   2.455   2.680
 1807SOL    HW1 6320   0.273   2.454   2.588
 1807SOL    HW2 6321   0.388   2.518   2.684
 1808SOL     OW 6322   4.850   2.399   6.146
 1808SOL    HW1 6323   4.913   2.374   6.219
 1808SOL    HW2 6324   4.757   2.371   6.171
 1809SOL     OW 6325   4.664   0.652   5.375
 1809SOL    HW1 6326   4.625   0.743   5.360
 1809SOL    HW2 6327   4.612   0.605   5.447
 1810SOL     OW 6328   0.428   0.469   4.165
 1810SOL    HW1 6329   0.333   0.499   4.155
 1810SOL    HW2 6330   0.444   0.439   4.260
 1811SOL     OW 6331   4.020   5.558   1.718
 1811SOL    HW1 6332   3.967   5.495   1.775
 1811SOL    HW2 6333   4.098   5.594   1.771
 1812SOL     OW 6334   4.753   6.161   6.133
 1812SOL    HW1 6335   4.784   6.073   6.098
 1812SOL    HW2 6336   4.797   6.179   6.221
 1813SOL     OW 6337   4.731   4.472   2.374
 1813SOL    HW1 6338   4.799   4.544   2.388
 1813SOL    HW2 6339   4.777   4.385   2.360
 1814SOL     OW 6340   6.697   6.248   0.593
 1814SOL    HW1 6341   6.598   6.254   0.607
 1814SOL    HW2 6342   6.726   6.153   0.601
 1815SOL     OW 6343   5.686   6.536   1.413
 1815SOL    HW1 6344   5.785   6.537   1.396
 1815SOL    HW2 6345   5.645   6.458   1.367
 1816SOL     OW 6346   3.894   4.760   5.206
 1816SOL    HW1 6347   3.811   4.786   5.255
 1816SOL    HW2 6348   3.923   4.669   5.234
 1817SOL     OW 6349   0.160   1.660   3.436
 1817SOL    HW1 6350   0.126   1.724   3.367
 1817SOL    HW2 6351   0.135   1.692   3.527
 1818SOL     OW 6352   2.371   1.017   0.200
 1818SOL    HW1 6353   2.454   0.966   0.178
 1818SOL    HW2 6354   2.361   1.094   0.136
 1819SOL     OW 6355   1.881   4.900   3.274
 1819SOL    HW1 6356   1.868   4.999   3.279
 1819SOL    HW2 6357   1.867   4.870   3.180
 1820SOL     OW 6358   3.455   6.867   5.398
 1820SOL    HW1 6359   3.480   6.873   5.494
 1820SOL    HW2 6360   3.396   6.945   5.374
 1821SOL     OW 6361   3.481   2.141   2.749
 1821SOL    HW1 6362   3.426   2.131   2.832
 1821SOL    HW2 6363   3.578   2.138   2.773
 1822SOL     OW 6364   0.056   3.083   2.627
 1822SOL    HW1 6365   0.013   3.174   2.622
 1822SOL    HW2 6366   0.105   3.074   2.713
 1823SOL     OW 6367   4.294   5.979   2.192
 1823SOL    HW1 6368   4.380   5.944   2.154
 1823SOL    HW2 6369   4.243   6.028   2.120
 1824SOL     OW 6370   4.391   3.021   1.696
 1824SOL    HW1 6371   4.403   3.112   1.655
 1824SOL    HW2 6372   4.454   3.011   1.773
 1825SOL     OW 6373   1.232   1.954   4.875
 1825SOL    HW1 6374   1.227   2.028   4.807
 1825SOL    HW2 6375   1.305   1.891   4.849
 1826SOL     OW 6376   3.841   2.425   1.647
 1826SOL    HW1 6377   3.782   2.389   1.719
 1826SOL    HW2 6378   3.926   2.372   1.644
 1827SOL     OW 6379   5.808   5.235   0.638
 1827SOL    HW1 6380   5.891   5.285   0.666
 1827SOL    HW2 6381   5.751   5.294   0.582
 1828SOL     OW 6382   1.454   3.215   4.825
 1828SOL    HW1 6383   1.380   3.264   4.870
 1828SOL    HW2 6384   1.534   3.215   4.885
 1829SOL     OW 6385   4.177   0.687   2.625
 1829SOL    HW1 6386   4.084   0.661   2.650
 1829SOL    HW2 6387   4.229   0.606   2.598
 1830SOL     OW 6388   5.516   0.029   5.487
 1830SOL    HW1 6389   5.443   6.996   5.525
 1830SOL    HW2 6390   5.561   7.003   5.413
 1831SOL     OW 6391   3.715   4.774   0.739
 1831SOL    HW1 6392   3.699   4.684   0.697
 1831SOL    HW2 6393   3.696   4.846   0.672
 1832SOL     OW 6394   2.578   3.285   0.340
 1832SOL    HW1 6395   2.506   3.338   0.295
 1832SOL    HW2 6396   2.662   3.291   0.285
 1833SOL     OW 6397   6.077   1.001   0.009
 1833SOL    HW1 6398   6.084   1.099   0.024
 1833SOL    HW2 6399   6.151   0.954   0.058
 1834SOL     OW 6400   0.669   2.899   5.294
 1834SOL    HW1 6401   0.764   2.930   5.300
 1834SOL    HW2 6402   0.609   2.978   5.285
 1835SOL     OW 6403   0.348   6.637   1.626
 1835SOL    HW1 6404   0.405   6.714   1.654
 1835SOL    HW2 6405   0.273   6.670   1.569
 1836SOL     OW 6406   4.932   2.460   2.312
 1836SOL    HW1 6407   4.976   2.377   2.345
 1836SOL    HW2 6408   4.840   2.439   2.280
 1837SOL     OW 6409   2.990   2.401   5.898
 1837SOL    HW1 6410   3.046   2.451   5.832
 1837SOL    HW2 6411   2.914   2.459   5.929
 1838SOL     OW 6412   5.383   0.715   0.625
 1838SOL    HW1 6413   5.345   0.638   0.574
 1838SOL    HW2 6414   5.359   0.707   0.722
 1839SOL     OW 6415   0.002   0.688   0.036
 1839SOL    HW1 6416   0.030   0.768   0.089
 1839SOL    HW2 6417   6.934   0.703   7.020
 1840SOL     OW 6418   4.437   6.199   3.552
 1840SOL    HW1 6419   4.433   6.289   3.594
 1840SOL    HW2 6420   4.499   6.141   3.604
 1841SOL     OW 6421   2.293   0.632   2.523
 1841SOL    HW1 6422   2.349   0.551   2.506
 1841SOL    HW2 6423   2.347   0.701   2.571
 1842SOL     OW 6424   1.326   5.595   0.665
 1842SOL    HW1 6425   1.374   5.593   0.752
 1842SOL    HW2 6426   1.337   5.506   0.619
 1843SOL     OW 6427   2.691   1.151   5.245
 1843SOL    HW1 6428   2.678   1.228   5.308
 1843SOL    HW2 6429   2.656   1.175   5.155
 1844SOL     OW 6430   6.128   2.421   6.175
 1844SOL    HW1 6431   6.129   2.339   6.117
 1844SOL    HW2 6432   6.091   2.397   6.265
 1845SOL     OW 6433   1.458   1.865   3.475
 1845SOL    HW1 6434   1.466   1.844   3.377
 1845SOL    HW2 6435   1.462   1.963   3.489
 1846SOL     OW 6436   3.896   1.546   1.813
 1846SOL    HW1 6437   3.863   1.637   1.787
 1846SOL    HW2 6438   3.832   1.504   1.876
 1847SOL     OW 6439   1.681   5.777   5.085
 1847SOL    HW1 6440   1.717   5.695   5.129
 1847SOL    HW2 6441   1.642   5.838   5.154
 1848SOL     OW 6442   3.332   6.230   3.061
 1848SOL    HW1 6443   3.409   6.241   3.124
 1848SOL    HW2 6444   3.285   6.317   3.050
 1849SOL     OW 6445   4.977   2.710   2.209
 1849SOL    HW1 6446   4.984   2.718   2.109
 1849SOL    HW2 6447   4.966   2.614   2.233
 1850SOL     OW 6448   4.665   1.386   1.192
 1850SOL    HW1 6449   4.613   1.396   1.107
 1850SOL    HW2 6450   4.684   1.289   1.208
 1851SOL     OW 6451   0.872   4.478   4.949
 1851SOL    HW1 6452   0.786   4.511   4.909
 1851SOL    HW2 6453   0.884   4.382   4.925
 1852SOL     OW 6454   0.193   0.341   3.095
 1852SOL    HW1 6455   0.170   0.293   3.010
 1852SOL    HW2 6456   0.119   0.404   3.119
 1853SOL     OW 6457   0.253   2.645   5.516
 1853SOL    HW1 6458   0.289   2.704   5.588
 1853SOL    HW2 6459   0.153   2.651   5.515
 1854SOL     OW 6460   0.840   0.220   3.420
 1854SOL    HW1 6461   0.845   0.167   3.336
 1854SOL    HW2 6462   0.932   0.245   3.450
 1855SOL     OW 6463   4.769   2.918   4.190
 1855SOL    HW1 6464   4.691   2.866   4.156
 1855SOL    HW2 6465   4.743   2.965   4.275
 1856SOL     OW 6466   3.405   2.390   0.826
 1856SOL    HW1 6467   3.469   2.334   0.879
 1856SOL    HW2 6468   3.452   2.427   0.746
 1857SOL     OW 6469   4.270   1.606   7.018
 1857SOL    HW1 6470   4.291   1.533   0.060
 1857SOL    HW2 6471   4.216   1.569   6.942
 1858SOL     OW 6472   4.599   2.544   3.888
 1858SOL    HW1 6473   4.669   2.478   3.860
 1858SOL    HW2 6474   4.558   2.515   3.974
 1859SOL     OW 6475   6.972   1.346   4.118
 1859SOL    HW1 6476   6.965   1.340   4.018
 1859SOL    HW2 6477   0.021   1.412   4.142
 1860SOL     OW 6478   1.689   1.403   5.622
 1860SOL    HW1 6479   1.644   1.399   5.711
 1860SOL    HW2 6480   1.738   1.318   5.604
 1861SOL     OW 6481   6.984   6.728   3.639
 1861SOL    HW1 6482   6.970   6.709   3.542
 1861SOL    HW2 6483   0.007   6.651   3.682
 1862SOL     OW 6484   2.992   5.945   5.797
 1862SOL    HW1 6485   3.090   5.940   5.815
 1862SOL    HW2 6486   2.946   5.866   5.837
 1863SOL     OW 6487   0.102   2.829   0.707
 1863SOL    HW1 6488   0.098   2.730   0.696
 1863SOL    HW2 6489   0.062   2.874   0.626
 1864SOL     OW 6490   4.078   5.475   2.211
 1864SOL    HW1 6491   4.172   5.440   2.211
 1864SOL    HW2 6492   4.057   5.515   2.301
 1865SOL     OW 6493   6.124   1.662   5.574
 1865SOL    HW1 6494   6.097   1.752   5.611
 1865SOL    HW2 6495   6.215   1.639   5.606
 1866SOL     OW 6496   0.924   5.375   3.611
 1866SOL    HW1 6497   0.931   5.298   3.675
 1866SOL    HW2 6498   0.876   5.345   3.529
 1867SOL     OW 6499   1.674   2.664   1.275
 1867SOL    HW1 6500   1.743   2.653   1.346
 1867SOL    HW2 6501   1.630   2.753   1.285
 1868SOL     OW 6502   5.747   3.434   6.355
 1868SOL    HW1 6503   5.698   3.374   6.292
 1868SOL    HW2 6504   5.803   3.379   6.417
 1869SOL     OW 6505   3.919   0.920   4.109
 1869SOL    HW1 6506   3.842   0.859   4.127
 1869SOL    HW2 6507   3.891   0.990   4.043
 1870SOL     OW 6508   6.701   5.973   4.905
 1870SOL    HW1 6509   6.762   5.960   4.826
 1870SOL    HW2 6510   6.680   5.884   4.945
 1871SOL     OW 6511   0.210   6.861   0.001
 1871SOL    HW1 6512   0.234   6.786   0.063
 1871SOL    HW2 6513   0.210   6.828   6.929
 1872SOL     OW 6514   2.932   2.530   1.700
 1872SOL    HW1 6515   2.911   2.505   1.794
 1872SOL    HW2 6516   3.031   2.533   1.687
 1873SOL     OW 6517   6.319   1.618   0.759
 1873SOL    HW1 6518   6.383   1.579   0.693
 1873SOL    HW2 6519   6.225   1.593   0.734
 1874SOL     OW 6520   0.656   5.221   0.442
 1874SOL    HW1 6521   0.580   5.233   0.377
 1874SOL    HW2 6522   0.658   5.299   0.505
 1875SOL     OW 6523   6.772   5.172   0.220
 1875SOL    HW1 6524   6.721   5.255   0.198
 1875SOL    HW2 6525   6.740   5.135   0.307
 1876SOL     OW 6526   0.277   5.790   0.626
 1876SOL    HW1 6527   0.218   5.871   0.627
 1876SOL    HW2 6528   0.329   5.788   0.541
 1877SOL     OW 6529   0.826   1.360   2.899
 1877SOL    HW1 6530   0.743   1.310   2.873
 1877SOL    HW2 6531   0.836   1.441   2.840
 1878SOL     OW 6532   6.181   3.608   3.754
 1878SOL    HW1 6533   6.127   3.637   3.833
 1878SOL    HW2 6534   6.120   3.572   3.683
 1879SOL     OW 6535   4.839   5.722   4.703
 1879SOL    HW1 6536   4.835   5.725   4.803
 1879SOL    HW2 6537   4.861   5.629   4.673
 1880SOL     OW 6538   6.865   1.890   4.197
 1880SOL    HW1 6539   6.821   1.839   4.123
 1880SOL    HW2 6540   6.872   1.831   4.278
 1881SOL     OW 6541   1.883   1.442   4.202
 1881SOL    HW1 6542   1.922   1.408   4.116
 1881SOL    HW2 6543   1.807   1.503   4.182
 1882SOL     OW 6544   1.718   5.536   0.092
 1882SOL    HW1 6545   1.786   5.482   0.142
 1882SOL    HW2 6546   1.632   5.537   0.143
 1883SOL     OW 6547   1.574   2.746   3.065
 1883SOL    HW1 6548   1.664   2.776   3.097
 1883SOL    HW2 6549   1.511   2.741   3.143
 1884SOL     OW 6550   3.630   1.256   0.004
 1884SOL    HW1 6551   3.617   1.246   0.102
 1884SOL    HW2 6552   3.546   1.228   6.979
 1885SOL     OW 6553   0.466   2.076   1.225
 1885SOL    HW1 6554   0.502   2.125   1.146
 1885SOL    HW2 6555   0.503   2.117   1.309
 1886SOL     OW 6556   2.889   2.526   5.512
 1886SOL    HW1 6557   2.874   2.556   5.606
 1886SOL    HW2 6558   2.954   2.449   5.511
 1887SOL     OW 6559   0.793   6.521   5.614
 1887SOL    HW1 6560   0.733   6.525   5.694
 1887SOL    HW2 6561   0.851   6.440   5.620
 1888SOL     OW 6562   2.005   2.118   5.824
 1888SOL    HW1 6563   2.030   2.037   5.771
 1888SOL    HW2 6564   2.073   2.189   5.811
 1889SOL     OW 6565   3.333   2.796   0.275
 1889SOL    HW1 6566   3.253   2.841   0.237
 1889SOL    HW2 6567   3.306   2.739   0.352
 1890SOL     OW 6568   6.287   5.843   6.541
 1890SOL    HW1 6569   6.223   5.766   6.538
 1890SOL    HW2 6570   6.240   5.924   6.577
 1891SOL     OW 6571   5.725   3.970   5.986
 1891SOL    HW1 6572   5.648   3.972   6.049
 1891SOL    HW2 6573   5.810   3.958   6.037
 1892SOL     OW 6574   3.793   6.441   1.733
 1892SOL    HW1 6575   3.892   6.429   1.729
 1892SOL    HW2 6576   3.756   6.387   1.808
 1893SOL     OW 6577   3.163   1.878   5.139
 1893SOL    HW1 6578   3.225   1.956   5.121
 1893SOL    HW2 6579   3.105   1.899   5.217
 1894SOL     OW 6580   4.407   3.488   0.600
 1894SOL    HW1 6581   4.467   3.408   0.593
 1894SOL    HW2 6582   4.408   3.522   0.694
 1895SOL     OW 6583   4.957   0.965   2.937
 1895SOL    HW1 6584   4.990   0.905   3.010
 1895SOL    HW2 6585   4.920   1.049   2.977
 1896SOL     OW 6586   6.201   1.533   5.975
 1896SOL    HW1 6587   6.254   1.617   5.966
 1896SOL    HW2 6588   6.104   1.556   5.981
 1897SOL     OW 6589   5.817   4.972   3.679
 1897SOL    HW1 6590   5.818   4.914   3.598
 1897SOL    HW2 6591   5.863   4.925   3.755
 1898SOL     OW 6592   6.027   6.204   0.178
 1898SOL    HW1 6593   6.099   6.264   0.144
 1898SOL    HW2 6594   6.066   6.115   0.202
 1899SOL     OW 6595   0.900   2.251   3.494
 1899SOL    HW1 6596   0.839   2.193   3.549
 1899SOL    HW2 6597   0.971   2.290   3.553
 1900SOL     OW 6598   2.338   6.532   1.143
 1900SOL    HW1 6599   2.391   6.595   1.200
 1900SOL    HW2 6600   2.242   6.533   1.172
 1901SOL     OW 6601   1.512   1.557   6.568
 1901SOL    HW1 6602   1.416   1.536   6.585
 1901SOL    HW2 6603   1.519   1.619   6.490
 1902SOL     OW 6604   1.821   2.462   5.308
 1902SOL    HW1 6605   1.825   2.418   5.398
 1902SOL    HW2 6606   1.776   2.402   5.243
 1903SOL     OW 6607   6.718   4.065   3.959
 1903SOL    HW1 6608   6.710   4.144   4.021
 1903SOL    HW2 6609   6.636   4.009   3.967
 1904SOL     OW 6610   1.042   6.791   4.834
 1904SOL    HW1 6611   1.118   6.726   4.826
 1904SOL    HW2 6612   1.004   6.809   4.744
 1905SOL     OW 6613   6.492   3.017   4.347
 1905SOL    HW1 6614   6.466   3.113   4.354
 1905SOL    HW2 6615   6.571   3.000   4.407
 1906SOL     OW 6616   2.448   0.075   0.529
 1906SOL    HW1 6617   2.408   0.060   0.439
 1906SOL    HW2 6618   2.523   0.009   0.544
 1907SOL     OW 6619   3.548   5.945   3.278
 1907SOL    HW1 6620   3.528   5.875   3.210
 1907SOL    HW2 6621   3.643   5.973   3.271
 1908SOL     OW 6622   5.057   1.023   6.478
 1908SOL    HW1 6623   5.006   1.021   6.393
 1908SOL    HW2 6624   5.025   0.950   6.539
 1909SOL     OW 6625   4.201   4.802   4.269
 1909SOL    HW1 6626   4.255   4.758   4.341
 1909SOL    HW2 6627   4.158   4.884   4.307
 1910SOL     OW 6628   4.863   2.145   5.233
 1910SOL    HW1 6629   4.948   2.103   5.265
 1910SOL    HW2 6630   4.798   2.149   5.309
 1911SOL     OW 6631   0.163   3.728   6.219
 1911SOL    HW1 6632   0.194   3.633   6.228
 1911SOL    HW2 6633   0.071   3.736   6.256
 1912SOL     OW 6634   3.575   5.835   3.527
 1912SOL    HW1 6635   3.536   5.866   3.440
 1912SOL    HW2 6636   3.504   5.790   3.581
 1913SOL     OW 6637   1.408   4.254   5.266
 1913SOL    HW1 6638   1.372   4.264   5.174
 1913SOL    HW2 6639   1.490   4.196   5.264
 1914SOL     OW 6640   4.283   1.250   5.243
 1914SOL    HW1 6641   4.184   1.259   5.253
 1914SOL    HW2 6642   4.303   1.190   5.166
 1915SOL     OW 6643   3.660   0.335   5.122
 1915SOL    HW1 6644   3.595   0.395   5.075
 1915SOL    HW2 6645   3.665   0.360   5.218
 1916SOL     OW 6646   4.401   6.448   1.530
 1916SOL    HW1 6647   4.323   6.423   1.472
 1916SOL    HW2 6648   4.370   6.512   1.600
 1917SOL     OW 6649   3.415   3.123   3.952
 1917SOL    HW1 6650   3.394   3.148   3.858
 1917SOL    HW2 6651   3.357   3.047   3.981
 1918SOL     OW 6652   5.856   6.726   3.990
 1918SOL    HW1 6653   5.845   6.823   3.969
 1918SOL    HW2 6654   5.777   6.676   3.957
 1919SOL     OW 6655   6.270   6.595   2.079
 1919SOL    HW1 6656   6.316   6.683   2.066
 1919SOL    HW2 6657   6.276   6.541   1.995
 1920SOL     OW 6658   6.918   5.931   4.262
 1920SOL    HW1 6659   6.926   5.833   4.278
 1920SOL    HW2 6660   6.863   5.948   4.180
 1921SOL     OW 6661   0.589   6.816   6.300
 1921SOL    HW1 6662   0.612   6.819   6.398
 1921SOL    HW2 6663   0.525   6.741   6.284
 1922SOL     OW 6664   3.434   4.352   1.063
 1922SOL    HW1 6665   3.362   4.286   1.042
 1922SOL    HW2 6666   3.395   4.444   1.064
 1923SOL     OW 6667   2.134   2.252   0.780
 1923SOL    HW1 6668   2.194   2.192   0.727
 1923SOL    HW2 6669   2.187   2.331   0.811
 1924SOL     OW 6670   1.053   4.030   1.968
 1924SOL    HW1 6671   1.149   4.056   1.980
 1924SOL    HW2 6672   1.026   4.046   1.873
 1925SOL     OW 6673   3.506   4.267   0.550
 1925SOL    HW1 6674   3.426   4.221   0.589
 1925SOL    HW2 6675   3.489   4.287   0.454
 1926SOL     OW 6676   0.624   0.162   3.605
 1926SOL    HW1 6677   0.616   0.201   3.513
 1926SOL    HW2 6678   0.718   0.172   3.637
 1927SOL     OW 6679   4.002   3.653   6.991
 1927SOL    HW1 6680   4.033   3.662   0.063
 1927SOL    HW2 6681   4.026   3.562   6.956
 1928SOL     OW 6682   6.455   4.601   5.432
 1928SOL    HW1 6683   6.537   4.556   5.467
 1928SOL    HW2 6684   6.450   4.694   5.467
 1929SOL     OW 6685   1.454   6.997   2.944
 1929SOL    HW1 6686   1.474   6.937   2.866
 1929SOL    HW2 6687   1.357   6.992   2.965
 1930SOL     OW 6688   5.634   4.626   0.304
 1930SOL    HW1 6689   5.718   4.588   0.265
 1930SOL    HW2 6690   5.597   4.696   0.243
 1931SOL     OW 6691   1.052   2.450   5.318
 1931SOL    HW1 6692   1.072   2.527   5.378
 1931SOL    HW2 6693   1.107   2.458   5.234
 1932SOL     OW 6694   5.726   3.131   2.204
 1932SOL    HW1 6695   5.729   3.213   2.147
 1932SOL    HW2 6696   5.817   3.111   2.239
 1933SOL     OW 6697   2.978   4.415   1.451
 1933SOL    HW1 6698   2.927   4.434   1.367
 1933SOL    HW2 6699   2.914   4.401   1.527
 1934SOL     OW 6700   0.591   6.066   4.654
 1934SOL    HW1 6701   0.502   6.112   4.652
 1934SOL    HW2 6702   0.635   6.082   4.742
 1935SOL     OW 6703   2.170   0.492   3.901
 1935SOL    HW1 6704   2.248   0.554   3.888
 1935SOL    HW2 6705   2.090   0.530   3.855
 1936SOL     OW 6706   6.584   5.648   5.829
 1936SOL    HW1 6707   6.645   5.575   5.862
 1936SOL    HW2 6708   6.589   5.653   5.729
 1937SOL     OW 6709   4.064   0.192   2.174
 1937SOL    HW1 6710   4.081   0.198   2.272
 1937SOL    HW2 6711   3.991   0.254   2.148
 1938SOL     OW 6712   4.958   0.400   3.930
 1938SOL    HW1 6713   5.001   0.334   3.869
 1938SOL    HW2 6714   5.025   0.435   3.995
 1939SOL     OW 6715   2.075   0.326   3.483
 1939SOL    HW1 6716   2.050   0.274   3.564
 1939SOL    HW2 6717   2.091   0.263   3.407
 1940SOL     OW 6718   6.971   5.297   0.053
 1940SOL    HW1 6719   6.912   5.236   0.106
 1940SOL    HW2 6720   6.959   5.391   0.083
 1941SOL     OW 6721   4.998   4.715   3.044
 1941SOL    HW1 6722   5.011   4.744   3.138
 1941SOL    HW2 6723   4.901   4.713   3.022
 1942SOL     OW 6724   5.840   5.662   3.221
 1942SOL    HW1 6725   5.882   5.753   3.218
 1942SOL    HW2 6726   5.741   5.671   3.216
 1943SOL     OW 6727   2.103   5.293   2.121
 1943SOL    HW1 6728   2.185   5.302   2.178
 1943SOL    HW2 6729   2.103   5.363   2.050
 1944SOL     OW 6730   6.709   1.054   1.443
 1944SOL    HW1 6731   6.739   0.960   1.428
 1944SOL    HW2 6732   6.645   1.057   1.520
 1945SOL     OW 6733   3.382   5.305   4.246
 1945SOL    HW1 6734   3.380   5.219   4.297
 1945SOL    HW2 6735   3.375   5.382   4.309
 1946SOL     OW 6736   1.246   0.590   0.136
 1946SOL    HW1 6737   1.168   0.652   0.128
 1946SOL    HW2 6738   1.297   0.610   0.219
 1947SOL     OW 6739   5.797   5.770   4.639
 1947SOL    HW1 6740   5.716   5.711   4.637
 1947SOL    HW2 6741   5.812   5.809   4.548
 1948SOL     OW 6742   5.837   4.500   5.207
 1948SOL    HW1 6743   5.768   4.431   5.226
 1948SOL    HW2 6744   5.821   4.580   5.264
 1949SOL     OW 6745   5.080   4.155   6.508
 1949SOL    HW1 6746   5.047   4.244   6.539
 1949SOL    HW2 6747   5.080   4.091   6.585
 1950SOL     OW 6748   3.026   4.015   0.297
 1950SOL    HW1 6749   3.107   4.070   0.273
 1950SOL    HW2 6750   2.957   4.026   0.226
 1951SOL     OW 6751   7.001   2.296   0.270
 1951SOL    HW1 6752   6.979   2.368   0.336
 1951SOL    HW2 6753   6.917   2.249   0.243
 1952SOL     OW 6754   3.848   1.774   5.811
 1952SOL    HW1 6755   3.927   1.793   5.752
 1952SOL    HW2 6756   3.814   1.682   5.793
 1953SOL     OW 6757   0.381   3.415   5.582
 1953SOL    HW1 6758   0.392   3.513   5.560
 1953SOL    HW2 6759   0.396   3.401   5.679
 1954SOL     OW 6760   3.384   2.097   4.037
 1954SOL    HW1 6761   3.303   2.123   4.091
 1954SOL    HW2 6762   3.358   2.091   3.940
 1955SOL     OW 6763   6.877   6.353   2.918
 1955SOL    HW1 6764   6.905   6.268   2.873
 1955SOL    HW2 6765   6.778   6.351   2.933
 1956SOL     OW 6766   5.864   5.716   2.587
 1956SOL    HW1 6767   5.800   5.661   2.640
 1956SOL    HW2 6768   5.869   5.681   2.493
 1957SOL     OW 6769   0.986   0.028   5.007
 1957SOL    HW1 6770   0.898   7.022   5.046
 1957SOL    HW2 6771   1.010   6.990   4.931
 1958SOL     OW 6772   5.598   3.797   5.550
 1958SOL    HW1 6773   5.624   3.706   5.579
 1958SOL    HW2 6774   5.669   3.863   5.576
 1959SOL     OW 6775   1.454   2.027   6.792
 1959SOL    HW1 6776   1.371   2.013   6.845
 1959SOL    HW2 6777   1.489   1.939   6.760
 1960SOL     OW 6778   5.665   6.085   1.029
 1960SOL    HW1 6779   5.587   6.077   1.092
 1960SOL    HW2 6780   5.733   6.146   1.069
 1961SOL     OW 6781   5.470   4.580   4.097
 1961SOL    HW1 6782   5.461   4.617   4.004
 1961SOL    HW2 6783   5.557   4.532   4.105
 1962SOL     OW 6784   0.091   6.611   3.009
 1962SOL    HW1 6785   0.035   6.614   3.092
 1962SOL    HW2 6786   0.032   6.615   2.929
 1963SOL     OW 6787   1.582   0.470   2.901
 1963SOL    HW1 6788   1.500   0.517   2.932
 1963SOL    HW2 6789   1.571   0.371   2.911
 1964SOL     OW 6790   5.731   3.304   2.745
 1964SOL    HW1 6791   5.791   3.323   2.667
 1964SOL    HW2 6792   5.739   3.378   2.812
 1965SOL     OW 6793   2.063   4.847   3.460
 1965SOL    HW1 6794   1.991   4.872   3.394
 1965SOL    HW2 6795   2.152   4.867   3.421
 1966SOL     OW 6796   6.679   5.369   5.928
 1966SOL    HW1 6797   6.650   5.291   5.872
 1966SOL    HW2 6798   6.750   5.339   5.992
 1967SOL     OW 6799   5.045   2.015   4.842
 1967SOL    HW1 6800   4.985   2.095   4.844
 1967SOL    HW2 6801   5.014   1.952   4.770
 1968SOL     OW 6802   2.849   5.737   6.366
 1968SOL    HW1 6803   2.802   5.769   6.284
 1968SOL    HW2 6804   2.906   5.811   6.403
 1969SOL     OW 6805   6.740   2.597   1.226
 1969SOL    HW1 6806   6.666   2.627   1.287
 1969SOL    HW2 6807   6.701   2.544   1.150
 1970SOL     OW 6808   1.802   0.299   3.727
 1970SOL    HW1 6809   1.740   0.241   3.675
 1970SOL    HW2 6810   1.815   0.261   3.819
 1971SOL     OW 6811   0.232   6.025   6.747
 1971SOL    HW1 6812   0.252   6.100   6.810
 1971SOL    HW2 6813   0.147   6.044   6.699
 1972SOL     OW 6814   0.507   5.212   4.056
 1972SOL    HW1 6815   0.596   5.207   4.103
 1972SOL    HW2 6816   0.448   5.139   4.089
 1973SOL     OW 6817   2.984   3.054   0.826
 1973SOL    HW1 6818   2.902   3.047   0.770
 1973SOL    HW2 6819   3.049   2.983   0.799
 1974SOL     OW 6820   5.493   0.577   4.284
 1974SOL    HW1 6821   5.497   0.650   4.217
 1974SOL    HW2 6822   5.541   0.605   4.368
 1975SOL     OW 6823   3.651   0.424   3.222
 1975SOL    HW1 6824   3.610   0.515   3.221
 1975SOL    HW2 6825   3.592   0.361   3.271
 1976SOL     OW 6826   0.605   5.499   0.505
 1976SOL    HW1 6827   0.676   5.559   0.467
 1976SOL    HW2 6828   0.517   5.521   0.462
 1977SOL     OW 6829   1.380   2.662   4.977
 1977SOL    HW1 6830   1.466   2.710   4.993
 1977SOL    HW2 6831   1.316   2.724   4.932
 1978SOL     OW 6832   6.644   1.530   4.970
 1978SOL    HW1 6833   6.657   1.596   5.044
 1978SOL    HW2 6834   6.726   1.529   4.912
 1979SOL     OW 6835   5.846   4.766   3.464
 1979SOL    HW1 6836   5.767   4.705   3.454
 1979SOL    HW2 6837   5.875   4.798   3.374
 1980SOL     OW 6838   4.247   0.404   1.698
 1980SOL    HW1 6839   4.303   0.399   1.781
 1980SOL    HW2 6840   4.207   0.496   1.691
 1981SOL     OW 6841   4.672   3.289   1.684
 1981SOL    HW1 6842   4.703   3.200   1.717
 1981SOL    HW2 6843   4.585   3.278   1.635
 1982SOL     OW 6844   5.468   6.255   4.840
 1982SOL    HW1 6845   5.485   6.347   4.803
 1982SOL    HW2 6846   5.552   6.201   4.834
 1983SOL     OW 6847   0.572   3.581   3.211
 1983SOL    HW1 6848   0.477   3.610   3.226
 1983SOL    HW2 6849   0.596   3.593   3.114
 1984SOL     OW 6850   4.119   0.215   5.678
 1984SOL    HW1 6851   4.076   0.260   5.600
 1984SOL    HW2 6852   4.051   0.203   5.751
 1985SOL     OW 6853   1.211   0.871   1.324
 1985SOL    HW1 6854   1.154   0.806   1.374
 1985SOL    HW2 6855   1.175   0.964   1.336
 1986SOL     OW 6856   1.512   1.411   5.829
 1986SOL    HW1 6857   1.555   1.441   5.914
 1986SOL    HW2 6858   1.417   1.386   5.847
 1987SOL     OW 6859   2.721   3.364   6.979
 1987SOL    HW1 6860   2.775   3.334   0.035
 1987SOL    HW2 6861   2.744   3.308   6.900
 1988SOL     OW 6862   4.059   3.601   0.664
 1988SOL    HW1 6863   4.130   3.644   0.609
 1988SOL    HW2 6864   4.071   3.627   0.760
 1989SOL     OW 6865   2.228   0.446   4.471
 1989SOL    HW1 6866   2.146   0.456   4.414
 1989SOL    HW2 6867   2.309   0.457   4.414
 1990SOL     OW 6868   3.076   0.872   1.740
 1990SOL    HW1 6869   3.043   0.786   1.780
 1990SOL    HW2 6870   3.164   0.856   1.695
 1991SOL     OW 6871   3.228   5.455   4.496
 1991SOL    HW1 6872   3.250   5.398   4.576
 1991SOL    HW2 6873   3.313   5.488   4.455
 1992SOL     OW 6874   2.057   6.817   5.228
 1992SOL    HW1 6875   2.032   6.784   5.137
 1992SOL    HW2 6876   2.104   6.905   5.220
 1993SOL     OW 6877   4.110   3.362   5.094
 1993SOL    HW1 6878   4.037   3.421   5.128
 1993SOL    HW2 6879   4.176   3.418   5.043
 1994SOL     OW 6880   6.469   2.188   2.110
 1994SOL    HW1 6881   6.482   2.109   2.051
 1994SOL    HW2 6882   6.413   2.257   2.063
 1995SOL     OW 6883   5.304   2.193   1.807
 1995SOL    HW1 6884   5.308   2.110   1.862
 1995SOL    HW2 6885   5.288   2.272   1.867
 1996SOL     OW 6886   3.551   4.549   0.413
 1996SOL    HW1 6887   3.456   4.571   0.435
 1996SOL    HW2 6888   3.580   4.603   0.334
 1997SOL     OW 6889   5.308   0.621   3.496
 1997SOL    HW1 6890   5.380   0.580   3.439
 1997SOL    HW2 6891   5.336   0.618   3.592
 1998SOL     OW 6892   2.865   4.766   5.277
 1998SOL    HW1 6893   2.948   4.819   5.260
 1998SOL    HW2 6894   2.883   4.669   5.261
 1999SOL     OW 6895   2.315   1.002   1.709
 1999SOL    HW1 6896   2.339   0.922   1.654
 1999SOL    HW2 6897   2.243   1.054   1.663
 2000SOL     OW 6898   3.936   1.483   4.612
 2000SOL    HW1 6899   3.955   1.576   4.644
 2000SOL    HW2 6900   3.918   1.424   4.691
 2001SOL     OW 6901   2.999   2.036   1.047
 2001SOL    HW1 6902   2.982   1.971   0.973
 2001SOL    HW2 6903   3.096   2.061   1.048
 2002SOL     OW 6904   1.875   5.265   5.212
 2002SOL    HW1 6905   1.959   5.226   5.174
 2002SOL    HW2 6906   1.882   5.266   5.312
 2003SOL     OW 6907   5.996   5.993   4.205
 2003SOL    HW1 6908   5.958   5.958   4.120
 2003SOL    HW2 6909   6.006   6.092   4.200
 2004SOL     OW 6910   2.858   0.838   5.391
 2004SOL    HW1 6911   2.775   0.872   5.349
 2004SOL    HW2 6912   2.895   0.907   5.454
 2005SOL     OW 6913   2.734   6.036   5.893
 2005SOL    HW1 6914   2.757   6.073   5.982
 2005SOL    HW2 6915   2.817   6.006   5.846
 2006SOL     OW 6916   4.079   4.905   3.977
 2006SOL    HW1 6917   4.156   4.947   3.929
 2006SOL    HW2 6918   4.113   4.830   4.033
 2007SOL     OW 6919   5.564   5.943   0.669
 2007SOL    HW1 6920   5.513   5.894   0.599
 2007SOL    HW2 6921   5.528   6.036   0.677
 2008SOL     OW 6922   0.402   5.894   4.261
 2008SOL    HW1 6923   0.382   5.909   4.165
 2008SOL    HW2 6924   0.428   5.798   4.276
 2009SOL     OW 6925   0.077   6.948   2.153
 2009SOL    HW1 6926   0.167   6.906   2.160
 2009SOL    HW2 6927   0.006   6.877   2.159
 2010SOL     OW 6928   1.379   0.844   0.402
 2010SOL    HW1 6929   1.355   0.919   0.340
 2010SOL    HW2 6930   1.451   0.789   0.361
 2011SOL     OW 6931   0.022   1.792   5.165
 2011SOL    HW1 6932   6.969   1.854   5.146
 2011SOL    HW2 6933   0.096   1.809   5.099
 2012SOL     OW 6934   1.117   3.870   0.911
 2012SOL    HW1 6935   1.181   3.946   0.917
 2012SOL    HW2 6936   1.167   3.786   0.890
 2013SOL     OW 6937   5.077   1.632   2.248
 2013SOL    HW1 6938   4.980   1.614   2.235
 2013SOL    HW2 6939   5.096   1.646   2.345
 2014SOL     OW 6940   2.000   5.519   2.728
 2014SOL    HW1 6941   1.987   5.591   2.659
 2014SOL    HW2 6942   1.938   5.443   2.708
 2015SOL     OW 6943   3.219   0.555   0.081
 2015SOL    HW1 6944   3.307   0.508   0.078
 2015SOL    HW2 6945   3.188   0.573   7.010
 2016SOL     OW 6946   0.413   5.030   4.478
 2016SOL    HW1 6947   0.434   4.981   4.393
 2016SOL    HW2 6948   0.323   5.004   4.511
 2017SOL     OW 6949   2.773   5.492   2.598
 2017SOL    HW1 6950   2.861   5.512   2.641
 2017SOL    HW2 6951   2.715   5.440   2.662
 2018SOL     OW 6952   0.502   5.705   5.680
 2018SOL    HW1 6953   0.449   5.620   5.682
 2018SOL    HW2 6954   0.522   5.729   5.585
 2019SOL     OW 6955   6.044   1.934   2.319
 2019SOL    HW1 6956   6.094   2.018   2.338
 2019SOL    HW2 6957   6.041   1.919   2.220
 2020SOL     OW 6958   3.272   5.974   2.987
 2020SOL    HW1 6959   3.310   6.062   3.017
 2020SOL    HW2 6960   3.198   5.991   2.922
 2021SOL     OW 6961   1.270   0.523   2.469
 2021SOL    HW1 6962   1.211   0.533   2.549
 2021SOL    HW2 6963   1.251   0.595   2.403
 2022SOL     OW 6964   1.807   3.928   1.646
 2022SOL    HW1 6965   1.729   3.990   1.659
 2022SOL    HW2 6966   1.872   3.968   1.582
 2023SOL     OW 6967   6.780   1.161   5.993
 2023SOL    HW1 6968   6.732   1.085   5.950
 2023SOL    HW2 6969   6.756   1.246   5.947
 2024SOL     OW 6970   5.660   1.145   3.889
 2024SOL    HW1 6971   5.564   1.141   3.861
 2024SOL    HW2 6972   5.691   1.240   3.889
 2025SOL     OW 6973   0.138   1.290   1.607
 2025SOL    HW1 6974   0.048   1.251   1.587
 2025SOL    HW2 6975   0.161   1.359   1.538
 2026SOL     OW 6976   1.603   1.543   5.418
 2026SOL    HW1 6977   1.631   1.491   5.498
 2026SOL    HW2 6978   1.683   1.563   5.361
 2027SOL     OW 6979   0.914   1.444   3.157
 2027SOL    HW1 6980   0.896   1.412   3.064
 2027SOL    HW2 6981   0.870   1.384   3.223
 2028SOL     OW 6982   4.134   3.231   0.051
 2028SOL    HW1 6983   4.167   3.159   0.112
 2028SOL    HW2 6984   4.035   3.225   0.044
 2029SOL     OW 6985   0.680   0.800   0.142
 2029SOL    HW1 6986   0.663   0.870   0.212
 2029SOL    HW2 6987   0.741   0.838   0.072
 2030SOL     OW 6988   1.770   1.222   3.536
 2030SOL    HW1 6989   1.823   1.164   3.597
 2030SOL    HW2 6990   1.731   1.299   3.588
 2031SOL     OW 6991   5.819   0.069   1.799
 2031SOL    HW1 6992   5.901   0.050   1.746
 2031SOL    HW2 6993   5.841   0.067   1.897
 2032SOL     OW 6994   5.019   0.029   1.373
 2032SOL    HW1 6995   5.107   0.025   1.422
 2032SOL    HW2 6996   5.006   6.968   1.322
 2033SOL     OW 6997   5.736   5.126   6.602
 2033SOL    HW1 6998   5.705   5.147   6.509
 2033SOL    HW2 6999   5.710   5.201   6.663
 2034SOL     OW 7000   2.245   7.013   2.958
 2034SOL    HW1 7001   2.213   0.077   2.997
 2034SOL    HW2 7002   2.166   6.958   2.932
 2035SOL     OW 7003   1.397   2.384   2.532
 2035SOL    HW1 7004   1.304   2.419   2.516
 2035SOL    HW2 7005   1.418   2.313   2.465
 2036SOL     OW 7006   1.698   4.499   0.416
 2036SOL    HW1 7007   1.726   4.428   0.351
 2036SOL    HW2 7008   1.775   4.559   0.435
 2037SOL     OW 7009   0.228   1.725   5.808
 2037SOL    HW1 7010   0.312   1.735   5.861
 2037SOL    HW2 7011   0.214   1.807   5.752
 2038SOL     OW 7012   0.526   0.763   4.238
 2038SOL    HW1 7013   0.611   0.814   4.239
 2038SOL    HW2 7014   0.545   0.665   4.249
 2039SOL     OW 7015   0.001   5.188   2.352
 2039SOL    HW1 7016   6.998   5.284   2.359
 2039SOL    HW2 7017   0.062   5.176   2.274
 2040SOL     OW 7018   4.068   3.248   4.249
 2040SOL    HW1 7019   3.988   3.188   4.254
 2040SOL    HW2 7020   4.125   3.220   4.172
 2041SOL     OW 7021   6.101   4.103   5.772
 2041SOL    HW1 7022   6.168   4.171   5.803
 2041SOL    HW2 7023   6.148   4.018   5.748
 2042SOL     OW 7024   4.410   5.404   7.002
 2042SOL    HW1 7025   4.406   5.310   6.966
 2042SOL    HW2 7026   4.476   5.457   6.949
 2043SOL     OW 7027   5.815   4.104   2.012
 2043SOL    HW1 7028   5.758   4.039   2.062
 2043SOL    HW2 7029   5.766   4.135   1.931
 2044SOL     OW 7030   6.509   6.740   2.007
 2044SOL    HW1 7031   6.542   6.833   2.027
 2044SOL    HW2 7032   6.511   6.724   1.909
 2045SOL     OW 7033   2.191   5.290   6.290
 2045SOL    HW1 7034   2.124   5.254   6.355
 2045SOL    HW2 7035   2.259   5.220   6.270
 2046SOL     OW 7036   6.558   6.978   4.907
 2046SOL    HW1 7037   6.594   6.968   5.000
 2046SOL    HW2 7038   6.509   0.042   4.899
 2047SOL     OW 7039   5.232   2.568   0.291
 2047SOL    HW1 7040   5.158   2.566   0.358
 2047SOL    HW2 7041   5.267   2.662   0.281
 2048SOL     OW 7042   4.943   6.990   5.896
 2048SOL    HW1 7043   5.032   0.009   5.877
 2048SOL    HW2 7044   4.895   0.020   5.966
 2049SOL     OW 7045   4.466   0.707   7.021
 2049SOL    HW1 7046   4.468   0.619   6.974
 2049SOL    HW2 7047   4.559   0.739   0.013
 2050SOL     OW 7048   5.794   2.915   3.828
 2050SOL    HW1 7049   5.797   3.015   3.832
 2050SOL    HW2 7050   5.806   2.885   3.734
 2051SOL     OW 7051   1.886   5.662   0.646
 2051SOL    HW1 7052   1.828   5.743   0.645
 2051SOL    HW2 7053   1.877   5.613   0.559
 2052SOL     OW 7054   0.828   3.134   0.475
 2052SOL    HW1 7055   0.880   3.087   0.546
 2052SOL    HW2 7056   0.888   3.157   0.399
 2053SOL     OW 7057   6.494   0.529   0.337
 2053SOL    HW1 7058   6.545   0.543   0.252
 2053SOL    HW2 7059   6.453   0.438   0.337
 2054SOL     OW 7060   5.792   2.309   0.472
 2054SOL    HW1 7061   5.819   2.390   0.523
 2054SOL    HW2 7062   5.737   2.249   0.530
 2055SOL     OW 7063   5.636   2.601   4.365
 2055SOL    HW1 7064   5.700   2.637   4.297
 2055SOL    HW2 7065   5.684   2.537   4.425
 2056SOL     OW 7066   2.453   0.592   3.332
 2056SOL    HW1 7067   2.400   0.566   3.413
 2056SOL    HW2 7068   2.549   0.567   3.345
 2057SOL     OW 7069   0.114   3.184   4.033
 2057SOL    HW1 7070   0.075   3.252   4.095
 2057SOL    HW2 7071   0.057   3.101   4.034
 2058SOL     OW 7072   6.825   1.839   2.080
 2058SOL    HW1 7073   6.854   1.797   1.994
 2058SOL    HW2 7074   6.729   1.817   2.097
 2059SOL     OW 7075   2.017   1.659   6.798
 2059SOL    HW1 7076   1.973   1.601   6.730
 2059SOL    HW2 7077   1.964   1.743   6.811
 2060SOL     OW 7078   6.952   4.971   2.685
 2060SOL    HW1 7079   6.995   5.046   2.734
 2060SOL    HW2 7080   6.983   4.884   2.723
 2061SOL     OW 7081   6.692   1.488   2.258
 2061SOL    HW1 7082   6.600   1.471   2.293
 2061SOL    HW2 7083   6.713   1.422   2.185
 2062SOL     OW 7084   4.974   0.178   3.198
 2062SOL    HW1 7085   4.880   0.189   3.166
 2062SOL    HW2 7086   5.017   0.267   3.208
 2063SOL     OW 7087   1.976   2.814   6.341
 2063SOL    HW1 7088   1.965   2.736   6.401
 2063SOL    HW2 7089   1.970   2.784   6.246
 2064SOL     OW 7090   1.074   2.735   0.053
 2064SOL    HW1 7091   0.977   2.743   0.076
 2064SOL    HW2 7092   1.122   2.686   0.126
 2065SOL     OW 7093   6.374   3.991   1.642
 2065SOL    HW1 7094   6.445   4.061   1.650
 2065SOL    HW2 7095   6.299   4.012   1.705
 2066SOL     OW 7096   0.486   0.296   4.683
 2066SOL    HW1 7097   0.526   0.281   4.593
 2066SOL    HW2 7098   0.417   0.226   4.701
 2067SOL     OW 7099   6.623   6.637   1.444
 2067SOL    HW1 7100   6.653   6.609   1.353
 2067SOL    HW2 7101   6.683   6.710   1.478
 2068SOL     OW 7102   1.627   1.860   5.106
 2068SOL    HW1 7103   1.622   1.762   5.084
 2068SOL    HW2 7104   1.542   1.889   5.150
 2069SOL     OW 7105   1.022   2.365   1.961
 2069SOL    HW1 7106   1.084   2.383   2.037
 2069SOL    HW2 7107   0.936   2.414   1.975
 2070SOL     OW 7108   1.173   1.607   2.595
 2070SOL    HW1 7109   1.203   1.636   2.685
 2070SOL    HW2 7110   1.207   1.670   2.526
 2071SOL     OW 7111   1.272   6.800   4.295
 2071SOL    HW1 7112   1.318   6.720   4.254
 2071SOL    HW2 7113   1.244   6.778   4.388
 2072SOL     OW 7114   5.116   5.661   1.886
 2072SOL    HW1 7115   5.144   5.574   1.928
 2072SOL    HW2 7116   5.130   5.656   1.787
 2073SOL     OW 7117   2.998   6.975   5.931
 2073SOL    HW1 7118   2.943   0.029   5.964
 2073SOL    HW2 7119   3.045   6.932   6.008
 2074SOL     OW 7120   5.844   1.207   1.347
 2074SOL    HW1 7121   5.851   1.291   1.400
 2074SOL    HW2 7122   5.786   1.141   1.397
 2075SOL     OW 7123   4.442   3.302   0.262
 2075SOL    HW1 7124   4.380   3.375   0.289
 2075SOL    HW2 7125   4.536   3.328   0.284
 2076SOL     OW 7126   5.652   6.826   1.379
 2076SOL    HW1 7127   5.604   6.826   1.291
 2076SOL    HW2 7128   5.677   6.732   1.403
 2077SOL     OW 7129   5.158   1.222   2.733
 2077SOL    HW1 7130   5.166   1.320   2.718
 2077SOL    HW2 7131   5.227   1.192   2.798
 2078SOL     OW 7132   3.369   4.641   6.418
 2078SOL    HW1 7133   3.277   4.643   6.378
 2078SOL    HW2 7134   3.364   4.662   6.515
 2079SOL     OW 7135   5.176   1.387   4.125
 2079SOL    HW1 7136   5.170   1.487   4.114
 2079SOL    HW2 7137   5.191   1.365   4.221
 2080SOL     OW 7138   2.843   2.332   4.717
 2080SOL    HW1 7139   2.800   2.369   4.636
 2080SOL    HW2 7140   2.786   2.350   4.797
 2081SOL     OW 7141   0.645   6.205   5.160
 2081SOL    HW1 7142   0.718   6.168   5.103
 2081SOL    HW2 7143   0.656   6.304   5.167
 2082SOL     OW 7144   5.907   0.841   1.300
 2082SOL    HW1 7145   5.966   0.922   1.302
 2082SOL    HW2 7146   5.961   0.760   1.278
 2083SOL     OW 7147   3.397   4.847   5.942
 2083SOL    HW1 7148   3.463   4.875   5.872
 2083SOL    HW2 7149   3.382   4.749   5.936
 2084SOL     OW 7150   0.035   2.727   2.983
 2084SOL    HW1 7151   6.992   2.773   3.044
 2084SOL    HW2 7152   7.009   2.665   2.922
 2085SOL     OW 7153   4.699   0.562   5.690
 2085SOL    HW1 7154   4.667   0.555   5.784
 2085SOL    HW2 7155   4.700   0.657   5.662
 2086SOL     OW 7156   2.759   5.305   0.202
 2086SOL    HW1 7157   2.737   5.222   0.254
 2086SOL    HW2 7158   2.744   5.385   0.260
 2087SOL     OW 7159   5.290   0.161   3.072
 2087SOL    HW1 7160   5.197   0.196   3.062
 2087SOL    HW2 7161   5.304   0.087   3.006
 2088SOL     OW 7162   3.640   0.204   0.922
 2088SOL    HW1 7163   3.561   0.142   0.924
 2088SOL    HW2 7164   3.705   0.176   0.992
 2089SOL     OW 7165   4.989   0.828   6.655
 2089SOL    HW1 7166   5.075   0.785   6.685
 2089SOL    HW2 7167   4.944   0.871   6.733
 2090SOL     OW 7168   3.569   3.936   4.902
 2090SOL    HW1 7169   3.492   3.896   4.953
 2090SOL    HW2 7170   3.607   3.867   4.840
 2091SOL     OW 7171   1.858   5.107   1.233
 2091SOL    HW1 7172   1.824   5.015   1.212
 2091SOL    HW2 7173   1.945   5.100   1.282
 2092SOL     OW 7174   6.428   6.203   1.043
 2092SOL    HW1 7175   6.457   6.170   1.133
 2092SOL    HW2 7176   6.488   6.277   1.014
 2093SOL     OW 7177   1.012   2.892   1.984
 2093SOL    HW1 7178   1.041   2.983   1.955
 2093SOL    HW2 7179   0.921   2.873   1.948
 2094SOL     OW 7180   6.061   0.290   2.078
 2094SOL    HW1 7181   6.042   0.193   2.090
 2094SOL    HW2 7182   6.075   0.309   1.981
 2095SOL     OW 7183   5.587   5.599   4.556
 2095SOL    HW1 7184   5.551   5.636   4.471
 2095SOL    HW2 7185   5.542   5.512   4.576
 2096SOL     OW 7186   4.771   4.097   2.675
 2096SOL    HW1 7187   4.778   4.168   2.605
 2096SOL    HW2 7188   4.726   4.135   2.756
 2097SOL     OW 7189   0.162   2.770   0.105
 2097SOL    HW1 7190   0.147   2.864   0.073
 2097SOL    HW2 7191   0.247   2.735   0.066
 2098SOL     OW 7192   4.250   0.158   4.298
 2098SOL    HW1 7193   4.322   0.167   4.228
 2098SOL    HW2 7194   4.270   0.079   4.356
 2099SOL     OW 7195   2.886   0.738   3.873
 2099SOL    HW1 7196   2.887   0.684   3.789
 2099SOL    HW2 7197   2.926   0.685   3.948
 2100SOL     OW 7198   5.018   4.191   6.046
 2100SOL    HW1 7199   5.014   4.108   6.101
 2100SOL    HW2 7200   5.014   4.271   6.106
 2101SOL     OW 7201   0.332   6.972   3.303
 2101SOL    HW1 7202   0.311   0.001   3.386
 2101SOL    HW2 7203   0.260   6.985   3.236
 2102SOL     OW 7204   6.719   5.250   3.244
 2102SOL    HW1 7205   6.723   5.223   3.148
 2102SOL    HW2 7206   6.753   5.175   3.301
 2103SOL     OW 7207   3.412   3.598   6.825
 2103SOL    HW1 7208   3.511   3.598   6.812
 2103SOL    HW2 7209   3.366   3.596   6.736
 2104SOL     OW 7210   1.604   3.152   5.537
 2104SOL    HW1 7211   1.626   3.173   5.442
 2104SOL    HW2 7212   1.637   3.061   5.560
 2105SOL     OW 7213   6.003   6.008   2.007
 2105SOL    HW1 7214   6.008   6.090   2.064
 2105SOL    HW2 7215   6.028   5.928   2.061
 2106SOL     OW 7216   4.849   5.386   6.640
 2106SOL    HW1 7217   4.895   5.474   6.653
 2106SOL    HW2 7218   4.751   5.402   6.627
 2107SOL     OW 7219   4.404   4.179   5.937
 2107SOL    HW1 7220   4.428   4.235   5.858
 2107SOL    HW2 7221   4.354   4.235   6.004
 2108SOL     OW 7222   6.235   5.177   5.629
 2108SOL    HW1 7223   6.301   5.239   5.670
 2108SOL    HW2 7224   6.161   5.160   5.694
 2109SOL     OW 7225   5.731   6.098   2.519
 2109SOL    HW1 7226   5.675   6.032   2.569
 2109SOL    HW2 7227   5.726   6.078   2.421
 2110SOL     OW 7228   2.656   4.156   6.237
 2110SOL    HW1 7229   2.626   4.243   6.274
 2110SOL    HW2 7230   2.695   4.170   6.146
 2111SOL     OW 7231   1.224   3.188   6.877
 2111SOL    HW1 7232   1.239   3.111   6.815
 2111SOL    HW2 7233   1.303   3.197   6.938
 2112SOL     OW 7234   4.885   2.957   1.471
 2112SOL    HW1 7235   4.864   2.918   1.561
 2112SOL    HW2 7236   4.964   2.909   1.432
 2113SOL     OW 7237   0.969   0.697   2.941
 2113SOL    HW1 7238   0.869   0.694   2.934
 2113SOL    HW2 7239   0.995   0.682   3.036
 2114SOL     OW 7240   1.867   4.003   0.022
 2114SOL    HW1 7241   1.895   3.956   6.961
 2114SOL    HW2 7242   1.767   4.008   0.025
 2115SOL     OW 7243   1.649   4.477   2.434
 2115SOL    HW1 7244   1.743   4.449   2.416
 2115SOL    HW2 7245   1.598   4.483   2.348
 2116SOL     OW 7246   0.437   4.503   3.664
 2116SOL    HW1 7247   0.354   4.455   3.694
 2116SOL    HW2 7248   0.413   4.574   3.598
 2117SOL     OW 7249   1.057   5.253   1.059
 2117SOL    HW1 7250   1.017   5.181   1.116
 2117SOL    HW2 7251   1.143   5.220   1.020
 2118SOL     OW 7252   0.501   3.791   2.237
 2118SOL    HW1 7253   0.525   3.712   2.293
 2118SOL    HW2 7254   0.525   3.773   2.142
 2119SOL     OW 7255   2.190   6.279   1.165
 2119SOL    HW1 7256   2.181   6.286   1.066
 2119SOL    HW2 7257   2.192   6.182   1.191
 2120SOL     OW 7258   6.365   4.802   2.114
 2120SOL    HW1 7259   6.294   4.736   2.091
 2120SOL    HW2 7260   6.435   4.758   2.171
 2121SOL     OW 7261   0.268   5.303   5.250
 2121SOL    HW1 7262   0.185   5.259   5.283
 2121SOL    HW2 7263   0.327   5.235   5.206
 2122SOL     OW 7264   4.606   4.384   4.660
 2122SOL    HW1 7265   4.643   4.458   4.605
 2122SOL    HW2 7266   4.519   4.413   4.700
 2123SOL     OW 7267   6.507   4.847   3.312
 2123SOL    HW1 7268   6.410   4.836   3.333
 2123SOL    HW2 7269   6.552   4.897   3.385
 2124SOL     OW 7270   1.894   2.149   1.073
 2124SOL    HW1 7271   1.819   2.150   1.007
 2124SOL    HW2 7272   1.898   2.059   1.117
 2125SOL     OW 7273   2.827   0.736   0.685
 2125SOL    HW1 7274   2.914   0.731   0.735
 2125SOL    HW2 7275   2.752   0.712   0.747
 2126SOL     OW 7276   3.059   0.687   6.352
 2126SOL    HW1 7277   3.051   0.666   6.449
 2126SOL    HW2 7278   3.063   0.786   6.340
 2127SOL     OW 7279   5.306   3.058   4.775
 2127SOL    HW1 7280   5.393   3.025   4.813
 2127SOL    HW2 7281   5.303   3.158   4.781
 2128SOL     OW 7282   0.667   4.581   4.450
 2128SOL    HW1 7283   0.712   4.613   4.367
 2128SOL    HW2 7284   0.725   4.513   4.495
 2129SOL     OW 7285   4.483   2.013   5.802
 2129SOL    HW1 7286   4.511   2.082   5.868
 2129SOL    HW2 7287   4.549   2.009   5.727
 2130SOL     OW 7288   4.665   6.558   2.189
 2130SOL    HW1 7289   4.609   6.502   2.250
 2130SOL    HW2 7290   4.650   6.654   2.210
 2131SOL     OW 7291   6.780   1.219   0.456
 2131SOL    HW1 7292   6.811   1.206   0.361
 2131SOL    HW2 7293   6.858   1.244   0.513
 2132SOL     OW 7294   2.191   2.832   0.387
 2132SOL    HW1 7295   2.217   2.916   0.339
 2132SOL    HW2 7296   2.273   2.790   0.427
 2133SOL     OW 7297   2.804   2.648   5.736
 2133SOL    HW1 7298   2.814   2.746   5.716
 2133SOL    HW2 7299   2.783   2.636   5.833
 2134SOL     OW 7300   0.492   0.738   1.094
 2134SOL    HW1 7301   0.514   0.650   1.052
 2134SOL    HW2 7302   0.398   0.763   1.071
 2135SOL     OW 7303   0.684   3.923   4.365
 2135SOL    HW1 7304   0.649   4.016   4.353
 2135SOL    HW2 7305   0.782   3.921   4.346
 2136SOL     OW 7306   2.208   5.903   1.807
 2136SOL    HW1 7307   2.224   5.972   1.736
 2136SOL    HW2 7308   2.176   5.948   1.890
 2137SOL     OW 7309   2.609   5.273   4.334
 2137SOL    HW1 7310   2.687   5.291   4.394
 2137SOL    HW2 7311   2.576   5.180   4.350
 2138SOL     OW 7312   5.669   1.523   2.380
 2138SOL    HW1 7313   5.743   1.466   2.414
 2138SOL    HW2 7314   5.631   1.483   2.297
 2139SOL     OW 7315   3.312   1.174   5.289
 2139SOL    HW1 7316   3.371   1.225   5.352
 2139SOL    HW2 7317   3.307   1.222   5.201
 2140SOL     OW 7318   2.364   1.472   5.204
 2140SOL    HW1 7319   2.308   1.538   5.153
 2140SOL    HW2 7320   2.304   1.404   5.247
 2141SOL     OW 7321   6.202   4.316   2.162
 2141SOL    HW1 7322   6.214   4.306   2.261
 2141SOL    HW2 7323   6.279   4.273   2.115
 2142SOL     OW 7324   1.942   2.161   3.763
 2142SOL    HW1 7325   1.855   2.112   3.759
 2142SOL    HW2 7326   2.016   2.096   3.776
 2143SOL     OW 7327   2.175   4.623   0.911
 2143SOL    HW1 7328   2.264   4.580   0.895
 2143SOL    HW2 7329   2.188   4.719   0.933
 2144SOL     OW 7330   6.638   5.936   4.477
 2144SOL    HW1 7331   6.555   5.962   4.526
 2144SOL    HW2 7332   6.716   5.935   4.541
 2145SOL     OW 7333   3.915   6.471   4.099
 2145SOL    HW1 7334   3.875   6.382   4.077
 2145SOL    HW2 7335   3.846   6.530   4.139
 2146SOL     OW 7336   2.306   3.006   1.011
 2146SOL    HW1 7337   2.356   2.919   1.019
 2146SOL    HW2 7338   2.213   2.989   0.978
 2147SOL     OW 7339   5.987   0.964   5.554
 2147SOL    HW1 7340   5.960   0.960   5.458
 2147SOL    HW2 7341   6.021   0.875   5.583
 2148SOL     OW 7342   6.888   3.370   6.951
 2148SOL    HW1 7343   6.967   3.366   7.012
 2148SOL    HW2 7344   6.833   3.450   6.972
 2149SOL     OW 7345   0.603   0.278   0.130
 2149SOL    HW1 7346   0.591   0.305   0.035
 2149SOL    HW2 7347   0.521   0.232   0.163
 2150SOL     OW 7348   2.563   3.470   1.411
 2150SOL    HW1 7349   2.487   3.408   1.398
 2150SOL    HW2 7350   2.544   3.530   1.489
 2151SOL     OW 7351   1.462   5.384   7.009
 2151SOL    HW1 7352   1.425   5.474   0.011
 2151SOL    HW2 7353   1.509   5.344   0.065
 2152SOL     OW 7354   4.227   6.048   3.758
 2152SOL    HW1 7355   4.177   6.001   3.686
 2152SOL    HW2 7356   4.316   6.003   3.772
 2153SOL     OW 7357   4.997   1.154   3.223
 2153SOL    HW1 7358   4.936   1.086   3.263
 2153SOL    HW2 7359   5.089   1.143   3.260
 2154SOL     OW 7360   3.120   6.639   2.840
 2154SOL    HW1 7361   3.214   6.613   2.862
 2154SOL    HW2 7362   3.072   6.559   2.802
 2155SOL     OW 7363   4.688   0.013   1.055
 2155SOL    HW1 7364   4.696   0.066   1.139
 2155SOL    HW2 7365   4.606   6.979   1.059
 2156SOL     OW 7366   5.623   1.578   4.369
 2156SOL    HW1 7367   5.570   1.535   4.442
 2156SOL    HW2 7368   5.675   1.655   4.406
 2157SOL     OW 7369   3.511   5.253   3.787
 2157SOL    HW1 7370   3.486   5.350   3.784
 2157SOL    HW2 7371   3.602   5.240   3.748
 2158SOL     OW 7372   2.946   1.232   0.130
 2158SOL    HW1 7373   2.886   1.224   0.051
 2158SOL    HW2 7374   2.965   1.141   0.167
 2159SOL     OW 7375   1.159   0.441   6.058
 2159SOL    HW1 7376   1.234   0.466   6.120
 2159SOL    HW2 7377   1.085   0.399   6.111
 2160SOL     OW 7378   5.382   6.190   0.460
 2160SOL    HW1 7379   5.361   6.150   0.370
 2160SOL    HW2 7380   5.479   6.180   0.479
 2161SOL     OW 7381   1.325   3.269   2.466
 2161SOL    HW1 7382   1.284   3.333   2.401
 2161SOL    HW2 7383   1.260   3.250   2.540
 2162SOL     OW 7384   1.825   0.311   2.933
 2162SOL    HW1 7385   1.729   0.285   2.942
 2162SOL    HW2 7386   1.878   0.233   2.899
 2163SOL     OW 7387   1.281   3.232   1.785
 2163SOL    HW1 7388   1.228   3.181   1.717
 2163SOL    HW2 7389   1.343   3.295   1.737
 2164SOL     OW 7390   1.914   2.876   2.852
 2164SOL    HW1 7391   1.887   2.851   2.759
 2164SOL    HW2 7392   2.013   2.866   2.863
 2165SOL     OW 7393   0.047   1.725   3.680
 2165SOL    HW1 7394   6.973   1.708   3.700
 2165SOL    HW2 7395   0.057   1.816   3.641
 2166SOL     OW 7396   6.906   4.078   3.445
 2166SOL    HW1 7397   6.995   4.033   3.444
 2166SOL    HW2 7398   6.860   4.058   3.531
 2167SOL     OW 7399   1.907   2.311   4.481
 2167SOL    HW1 7400   1.902   2.404   4.518
 2167SOL    HW2 7401   2.002   2.278   4.486
 2168SOL     OW 7402   1.437   1.793   3.186
 2168SOL    HW1 7403   1.350   1.833   3.158
 2168SOL    HW2 7404   1.507   1.812   3.117
 2169SOL     OW 7405   0.275   0.797   2.120
 2169SOL    HW1 7406   0.314   0.752   2.200
 2169SOL    HW2 7407   0.341   0.862   2.083
 2170SOL     OW 7408   1.024   4.197   5.933
 2170SOL    HW1 7409   0.934   4.222   5.968
 2170SOL    HW2 7410   1.061   4.272   5.878
 2171SOL     OW 7411   0.537   5.581   1.007
 2171SOL    HW1 7412   0.512   5.498   1.056
 2171SOL    HW2 7413   0.496   5.581   0.916
 2172SOL     OW 7414   0.547   1.722   4.969
 2172SOL    HW1 7415   0.541   1.668   4.886
 2172SOL    HW2 7416   0.545   1.819   4.946
 2173SOL     OW 7417   5.541   0.511   5.411
 2173SOL    HW1 7418   5.582   0.421   5.429
 2173SOL    HW2 7419   5.556   0.570   5.491
 2174SOL     OW 7420   0.068   5.979   5.143
 2174SOL    HW1 7421   7.005   5.937   5.174
 2174SOL    HW2 7422   0.145   5.929   5.181
 2175SOL     OW 7423   3.185   3.615   5.437
 2175SOL    HW1 7424   3.182   3.630   5.338
 2175SOL    HW2 7425   3.233   3.690   5.481
 2176SOL     OW 7426   5.499   2.307   1.047
 2176SOL    HW1 7427   5.403   2.335   1.042
 2176SOL    HW2 7428   5.557   2.387   1.034
 2177SOL     OW 7429   0.216   0.423   3.670
 2177SOL    HW1 7430   0.146   0.367   3.714
 2177SOL    HW2 7431   0.271   0.468   3.740
 2178SOL     OW 7432   1.248   1.962   2.883
 2178SOL    HW1 7433   1.218   2.049   2.844
 2178SOL    HW2 7434   1.209   1.951   2.974
 2179SOL     OW 7435   1.718   4.503   6.473
 2179SOL    HW1 7436   1.624   4.468   6.472
 2179SOL    HW2 7437   1.775   4.444   6.530
 2180SOL     OW 7438   0.837   5.206   1.615
 2180SOL    HW1 7439   0.870   5.112   1.628
 2180SOL    HW2 7440   0.871   5.264   1.689
 2181SOL     OW 7441   4.362   4.692   3.782
 2181SOL    HW1 7442   4.400   4.778   3.749
 2181SOL    HW2 7443   4.324   4.705   3.873
 2182SOL     OW 7444   0.105   5.447   2.878
 2182SOL    HW1 7445   0.085   5.545   2.880
 2182SOL    HW2 7446   0.191   5.432   2.828
 2183SOL     OW 7447   3.795   3.001   0.284
 2183SOL    HW1 7448   3.827   2.942   0.358
 2183SOL    HW2 7449   3.709   2.964   0.248
 2184SOL     OW 7450   6.678   0.538   0.093
 2184SOL    HW1 7451   6.723   0.450   0.108
 2184SOL    HW2 7452   6.710   0.578   0.008
 2185SOL     OW 7453   0.197   1.415   6.521
 2185SOL    HW1 7454   0.161   1.438   6.611
 2185SOL    HW2 7455   0.127   1.432   6.452
 2186SOL     OW 7456   6.709   5.472   4.641
 2186SOL    HW1 7457   6.800   5.447   4.671
 2186SOL    HW2 7458   6.675   5.404   4.576
 2187SOL     OW 7459   0.676   5.581   2.911
 2187SOL    HW1 7460   0.769   5.612   2.893
 2187SOL    HW2 7461   0.651   5.604   3.005
 2188SOL     OW 7462   1.881   0.513   0.927
 2188SOL    HW1 7463   1.969   0.519   0.880
 2188SOL    HW2 7464   1.807   0.513   0.859
 2189SOL     OW 7465   2.994   1.775   1.953
 2189SOL    HW1 7466   2.961   1.704   1.891
 2189SOL    HW2 7467   2.932   1.853   1.952
 2190SOL     OW 7468   6.704   4.411   2.431
 2190SOL    HW1 7469   6.793   4.366   2.429
 2190SOL    HW2 7470   6.684   4.440   2.525
 2191SOL     OW 7471   2.532   0.687   6.149
 2191SOL    HW1 7472   2.570   0.730   6.068
 2191SOL    HW2 7473   2.548   0.588   6.146
 2192SOL     OW 7474   4.739   1.198   2.412
 2192SOL    HW1 7475   4.697   1.274   2.460
 2192SOL    HW2 7476   4.827   1.176   2.454
 2193SOL     OW 7477   0.121   0.093   5.993
 2193SOL    HW1 7478   0.086   0.183   5.970
 2193SOL    HW2 7479   0.068   0.023   5.945
 2194SOL     OW 7480   0.975   4.630   5.773
 2194SOL    HW1 7481   0.913   4.698   5.733
 2194SOL    HW2 7482   1.069   4.650   5.743
 2195SOL     OW 7483   0.583   4.195   6.572
 2195SOL    HW1 7484   0.544   4.136   6.643
 2195SOL    HW2 7485   0.682   4.186   6.571
 2196SOL     OW 7486   2.683   6.040   5.293
 2196SOL    HW1 7487   2.598   6.083   5.264
 2196SOL    HW2 7488   2.676   6.013   5.388
 2197SOL     OW 7489   2.615   4.536   5.549
 2197SOL    HW1 7490   2.573   4.626   5.536
 2197SOL    HW2 7491   2.550   4.465   5.522
 2198SOL     OW 7492   0.508   0.414   6.516
 2198SOL    HW1 7493   0.430   0.429   6.577
 2198SOL    HW2 7494   0.479   0.428   6.421
 2199SOL     OW 7495   4.328   6.951   4.459
 2199SOL    HW1 7496   4.363   6.919   4.547
 2199SOL    HW2 7497   4.284   6.875   4.411
 2200SOL     OW 7498   2.911   1.409   4.138
 2200SOL    HW1 7499   2.956   1.424   4.227
 2200SOL    HW2 7500   2.813   1.421   4.148
 2201SOL     OW 7501   6.383   3.271   3.924
 2201SOL    HW1 7502   6.421   3.340   3.863
 2201SOL    HW2 7503   6.337   3.315   4.001
 2202SOL     OW 7504   3.812   5.394   2.171
 2202SOL    HW1 7505   3.908   5.368   2.177
 2202SOL    HW2 7506   3.803   5.492   2.189
 2203SOL     OW 7507   1.990   3.956   1.210
 2203SOL    HW1 7508   1.945   3.883   1.159
 2203SOL    HW2 7509   2.054   4.004   1.150
 2204SOL     OW 7510   4.541   3.157   1.209
 2204SOL    HW1 7511   4.569   3.092   1.138
 2204SOL    HW2 7512   4.561   3.119   1.299
 2205SOL     OW 7513   1.758   5.745   6.972
 2205SOL    HW1 7514   1.744   5.669   0.012
 2205SOL    HW2 7515   1.772   5.709   6.879
 2206SOL     OW 7516   2.581   3.073   6.425
 2206SOL    HW1 7517   2.542   3.108   6.340
 2206SOL    HW2 7518   2.626   3.148   6.474
 2207SOL     OW 7519   4.537   6.039   0.860
 2207SOL    HW1 7520   4.566   6.113   0.799
 2207SOL    HW2 7521   4.447   6.060   0.898
 2208SOL     OW 7522   0.890   5.901   3.654
 2208SOL    HW1 7523   0.915   5.815   3.610
 2208SOL    HW2 7524   0.926   5.903   3.747
 2209SOL     OW 7525   2.920   5.316   5.116
 2209SOL    HW1 7526   2.960   5.288   5.028
 2209SOL    HW2 7527   2.991   5.316   5.186
 2210SOL     OW 7528   5.596   6.316   1.299
 2210SOL    HW1 7529   5.559   6.280   1.385
 2210SOL    HW2 7530   5.520   6.339   1.238
 2211SOL     OW 7531   6.285   0.564   0.676
 2211SOL    HW1 7532   6.264   0.538   0.770
 2211SOL    HW2 7533   6.215   0.627   0.642
 2212SOL     OW 7534   2.755   6.008   6.563
 2212SOL    HW1 7535   2.839   5.955   6.551
 2212SOL    HW2 7536   2.778   6.103   6.583
 2213SOL     OW 7537   3.828   2.106   4.322
 2213SOL    HW1 7538   3.870   2.016   4.312
 2213SOL    HW2 7539   3.831   2.134   4.418
 2214SOL     OW 7540   4.250   3.130   5.486
 2214SOL    HW1 7541   4.184   3.188   5.437
 2214SOL    HW2 7542   4.206   3.092   5.567
 2215SOL     OW 7543   5.109   0.431   6.601
 2215SOL    HW1 7544   5.157   0.509   6.563
 2215SOL    HW2 7545   5.011   0.451   6.609
 2216SOL     OW 7546   0.306   6.560   6.628
 2216SOL    HW1 7547   0.333   6.464   6.625
 2216SOL    HW2 7548   0.386   6.617   6.608
 2217SOL     OW 7549   4.323   0.747   2.859
 2217SOL    HW1 7550   4.408   0.794   2.837
 2217SOL    HW2 7551   4.264   0.745   2.778
 2218SOL     OW 7552   0.360   4.903   5.862
 2218SOL    HW1 7553   0.264   4.880   5.875
 2218SOL    HW2 7554   0.403   4.918   5.951
 2219SOL     OW 7555   5.299   1.322   0.455
 2219SOL    HW1 7556   5.326   1.303   0.549
 2219SOL    HW2 7557   5.379   1.315   0.395
 2220SOL     OW 7558   1.106   6.535   5.690
 2220SOL    HW1 7559   1.052   6.549   5.607
 2220SOL    HW2 7560   1.129   6.438   5.699
 2221SOL     OW 7561   6.863   1.074   4.932
 2221SOL    HW1 7562   6.895   1.056   4.839
 2221SOL    HW2 7563   6.880   1.170   4.955
 2222SOL     OW 7564   5.366   6.352   1.134
 2222SOL    HW1 7565   5.384   6.383   1.041
 2222SOL    HW2 7566   5.379   6.252   1.139
 2223SOL     OW 7567   6.788   0.239   5.667
 2223SOL    HW1 7568   6.847   0.224   5.587
 2223SOL    HW2 7569   6.693   0.246   5.637
 2224SOL     OW 7570   5.347   4.223   1.559
 2224SOL    HW1 7571   5.418   4.181   1.502
 2224SOL    HW2 7572   5.372   4.319   1.577
 2225SOL     OW 7573   0.797   6.649   3.285
 2225SOL    HW1 7574   0.782   6.745   3.263
 2225SOL    HW2 7575   0.729   6.593   3.237
 2226SOL     OW 7576   2.672   5.458   0.856
 2226SOL    HW1 7577   2.634   5.460   0.948
 2226SOL    HW2 7578   2.717   5.545   0.836
 2227SOL     OW 7579   4.061   2.292   1.655
 2227SOL    HW1 7580   4.127   2.367   1.660
 2227SOL    HW2 7581   4.108   2.207   1.634
 2228SOL     OW 7582   4.929   4.860   0.213
 2228SOL    HW1 7583   4.900   4.809   0.294
 2228SOL    HW2 7584   4.865   4.841   0.138
 2229SOL     OW 7585   3.244   3.377   4.530
 2229SOL    HW1 7586   3.254   3.433   4.448
 2229SOL    HW2 7587   3.148   3.375   4.558
 2230SOL     OW 7588   5.448   6.557   0.384
 2230SOL    HW1 7589   5.484   6.468   0.356
 2230SOL    HW2 7590   5.493   6.587   0.468
 2231SOL     OW 7591   0.375   0.785   0.083
 2231SOL    HW1 7592   0.458   0.773   0.137
 2231SOL    HW2 7593   0.394   0.845   0.005
 2232SOL     OW 7594   1.428   0.405   5.826
 2232SOL    HW1 7595   1.421   0.421   5.728
 2232SOL    HW2 7596   1.387   0.481   5.875
 2233SOL     OW 7597   3.311   3.226   0.887
 2233SOL    HW1 7598   3.230   3.232   0.830
 2233SOL    HW2 7599   3.377   3.164   0.846
 2234SOL     OW 7600   3.961   1.781   0.172
 2234SOL    HW1 7601   3.992   1.738   0.256
 2234SOL    HW2 7602   3.861   1.775   0.167
 2235SOL     OW 7603   2.814   0.785   2.381
 2235SOL    HW1 7604   2.737   0.843   2.355
 2235SOL    HW2 7605   2.866   0.761   2.299
 2236SOL     OW 7606   1.930   4.123   5.671
 2236SOL    HW1 7607   1.955   4.114   5.575
 2236SOL    HW2 7608   1.922   4.033   5.713
 2237SOL     OW 7609   5.687   5.123   5.075
 2237SOL    HW1 7610   5.748   5.138   4.997
 2237SOL    HW2 7611   5.664   5.211   5.117
 2238SOL     OW 7612   4.973   4.619   2.461
 2238SOL    HW1 7613   5.026   4.639   2.378
 2238SOL    HW2 7614   5.000   4.529   2.496
 2239SOL     OW 7615   3.938   6.806   3.496
 2239SOL    HW1 7616   3.949   6.710   3.520
 2239SOL    HW2 7617   3.914   6.858   3.578
 2240SOL     OW 7618   4.971   5.986   3.060
 2240SOL    HW1 7619   5.025   6.042   3.123
 2240SOL    HW2 7620   5.000   5.891   3.068
 2241SOL     OW 7621   0.534   6.844   1.711
 2241SOL    HW1 7622   0.626   6.804   1.707
 2241SOL    HW2 7623   0.538   6.939   1.678
 2242SOL     OW 7624   5.006   3.110   3.137
 2242SOL    HW1 7625   5.084   3.055   3.168
 2242SOL    HW2 7626   4.968   3.162   3.213
 2243SOL     OW 7627   1.968   6.616   0.792
 2243SOL    HW1 7628   1.940   6.558   0.867
 2243SOL    HW2 7629   2.045   6.574   0.744
 2244SOL     OW 7630   2.547   0.728   0.753
 2244SOL    HW1 7631   2.524   0.817   0.713
 2244SOL    HW2 7632   2.489   0.711   0.832
 2245SOL     OW 7633   0.720   1.205   0.829
 2245SOL    HW1 7634   0.748   1.299   0.811
 2245SOL    HW2 7635   0.760   1.174   0.915
 2246SOL     OW 7636   2.465   0.711   4.789
 2246SOL    HW1 7637   2.510   0.770   4.722
 2246SOL    HW2 7638   2.534   0.655   4.836
 2247SOL     OW 7639   3.333   4.061   2.538
 2247SOL    HW1 7640   3.411   4.106   2.496
 2247SOL    HW2 7641   3.360   3.970   2.570
 2248SOL     OW 7642   5.570   4.651   5.125
 2248SOL    HW1 7643   5.572   4.559   5.165
 2248SOL    HW2 7644   5.477   4.688   5.133
 2249SOL     OW 7645   2.728   6.807   4.058
 2249SOL    HW1 7646   2.691   6.768   4.142
 2249SOL    HW2 7647   2.670   6.782   3.981
 2250SOL     OW 7648   4.111   3.828   5.900
 2250SOL    HW1 7649   4.012   3.843   5.911
 2250SOL    HW2 7650   4.127   3.737   5.863
 2251SOL     OW 7651   5.380   6.198   6.387
 2251SOL    HW1 7652   5.385   6.124   6.455
 2251SOL    HW2 7653   5.472   6.225   6.360
 2252SOL     OW 7654   5.335   1.493   2.817
 2252SOL    HW1 7655   5.243   1.533   2.816
 2252SOL    HW2 7656   5.402   1.564   2.838
 2253SOL     OW 7657   0.804   3.308   0.734
 2253SOL    HW1 7658   0.840   3.287   0.644
 2253SOL    HW2 7659   0.720   3.255   0.749
 2254SOL     OW 7660   3.764   4.062   2.625
 2254SOL    HW1 7661   3.789   4.080   2.720
 2254SOL    HW2 7662   3.829   3.999   2.584
 2255SOL     OW 7663   2.627   4.215   5.301
 2255SOL    HW1 7664   2.711   4.170   5.331
 2255SOL    HW2 7665   2.640   4.314   5.300
 2256SOL     OW 7666   5.119   6.160   2.186
 2256SOL    HW1 7667   5.134   6.258   2.171
 2256SOL    HW2 7668   5.140   6.138   2.282
 2257SOL     OW 7669   0.148   1.813   4.377
 2257SOL    HW1 7670   0.083   1.806   4.452
 2257SOL    HW2 7671   0.211   1.888   4.394
 2258SOL     OW 7672   2.066   6.757   4.745
 2258SOL    HW1 7673   2.101   6.845   4.778
 2258SOL    HW2 7674   1.986   6.731   4.798
 2259SOL     OW 7675   6.386   2.489   4.662
 2259SOL    HW1 7676   6.364   2.445   4.575
 2259SOL    HW2 7677   6.341   2.579   4.666
 2260SOL     OW 7678   0.970   3.928   1.682
 2260SOL    HW1 7679   0.875   3.899   1.690
 2260SOL    HW2 7680   1.003   3.913   1.589
 2261SOL     OW 7681   5.762   3.665   0.025
 2261SOL    HW1 7682   5.782   3.669   0.123
 2261SOL    HW2 7683   5.665   3.649   0.011
 2262SOL     OW 7684   6.742   0.423   4.038
 2262SOL    HW1 7685   6.675   0.460   4.102
 2262SOL    HW2 7686   6.834   0.448   4.067
 2263SOL     OW 7687   1.098   5.186   0.459
 2263SOL    HW1 7688   1.010   5.139   0.451
 2263SOL    HW2 7689   1.098   5.245   0.539
 2264SOL     OW 7690   2.183   6.743   6.411
 2264SOL    HW1 7691   2.267   6.720   6.362
 2264SOL    HW2 7692   2.198   6.734   6.510
 2265SOL     OW 7693   1.491   0.114   4.007
 2265SOL    HW1 7694   1.567   0.086   3.948
 2265SOL    HW2 7695   1.521   0.115   4.102
 2266SOL     OW 7696   5.154   1.598   6.428
 2266SOL    HW1 7697   5.143   1.585   6.330
 2266SOL    HW2 7698   5.223   1.533   6.462
 2267SOL     OW 7699   4.724   2.417   4.795
 2267SOL    HW1 7700   4.653   2.348   4.805
 2267SOL    HW2 7701   4.697   2.483   4.725
 2268SOL     OW 7702   6.428   4.233   6.392
 2268SOL    HW1 7703   6.344   4.182   6.375
 2268SOL    HW2 7704   6.405   4.329   6.411
 2269SOL     OW 7705   0.925   2.966   5.291
 2269SOL    HW1 7706   0.992   2.983   5.219
 2269SOL    HW2 7707   0.966   2.983   5.380
 2270SOL     OW 7708   4.240   3.051   5.756
 2270SOL    HW1 7709   4.282   2.960   5.762
 2270SOL    HW2 7710   4.155   3.053   5.809
 2271SOL     OW 7711   5.788   4.231   6.673
 2271SOL    HW1 7712   5.710   4.271   6.625
 2271SOL    HW2 7713   5.790   4.133   6.658
 2272SOL     OW 7714   6.319   0.846   6.192
 2272SOL    HW1 7715   6.390   0.913   6.215
 2272SOL    HW2 7716   6.272   0.817   6.275
 2273SOL     OW 7717   1.891   2.265   2.516
 2273SOL    HW1 7718   1.821   2.276   2.586
 2273SOL    HW2 7719   1.945   2.350   2.510
 2274SOL     OW 7720   0.715   1.413   0.143
 2274SOL    HW1 7721   0.786   1.343   0.145
 2274SOL    HW2 7722   0.627   1.370   0.122
 2275SOL     OW 7723   5.793   4.950   2.369
 2275SOL    HW1 7724   5.702   4.988   2.386
 2275SOL    HW2 7725   5.795   4.909   2.278
 2276SOL     OW 7726   1.385   1.250   1.121
 2276SOL    HW1 7727   1.423   1.338   1.094
 2276SOL    HW2 7728   1.430   1.218   1.205
 2277SOL     OW 7729   3.392   4.077   3.634
 2277SOL    HW1 7730   3.376   3.978   3.630
 2277SOL    HW2 7731   3.337   4.117   3.708
 2278SOL     OW 7732   0.720   3.205   3.846
 2278SOL    HW1 7733   0.640   3.162   3.803
 2278SOL    HW2 7734   0.798   3.201   3.784
 2279SOL     OW 7735   6.921   5.711   6.256
 2279SOL    HW1 7736   6.875   5.790   6.216
 2279SOL    HW2 7737   6.960   5.737   6.344
 2280SOL     OW 7738   5.237   0.804   5.437
 2280SOL    HW1 7739   5.149   0.767   5.406
 2280SOL    HW2 7740   5.289   0.731   5.482
 2281SOL     OW 7741   4.490   6.413   2.341
 2281SOL    HW1 7742   4.473   6.321   2.307
 2281SOL    HW2 7743   4.478   6.415   2.440
 2282SOL     OW 7744   4.738   5.122   5.492
 2282SOL    HW1 7745   4.645   5.092   5.511
 2282SOL    HW2 7746   4.784   5.055   5.434
 2283SOL     OW 7747   1.863   0.870   3.003
 2283SOL    HW1 7748   1.833   0.964   3.020
 2283SOL    HW2 7749   1.875   0.822   3.089
 2284SOL     OW 7750   0.669   3.147   6.089
 2284SOL    HW1 7751   0.659   3.109   6.181
 2284SOL    HW2 7752   0.762   3.181   6.077
 2285SOL     OW 7753   1.014   3.817   0.081
 2285SOL    HW1 7754   1.032   3.720   0.093
 2285SOL    HW2 7755   1.015   3.839   7.006
 2286SOL     OW 7756   5.346   6.960   3.249
 2286SOL    HW1 7757   5.395   6.887   3.202
 2286SOL    HW2 7758   5.320   0.009   3.184
 2287SOL     OW 7759   2.737   0.944   3.374
 2287SOL    HW1 7760   2.680   0.922   3.453
 2287SOL    HW2 7761   2.757   0.860   3.323
 2288SOL     OW 7762   0.077   5.177   3.667
 2288SOL    HW1 7763   0.172   5.186   3.696
 2288SOL    HW2 7764   0.070   5.197   3.569
 2289SOL     OW 7765   0.304   5.293   1.761
 2289SOL    HW1 7766   0.302   5.318   1.664
 2289SOL    HW2 7767   0.392   5.248   1.781
 2290SOL     OW 7768   1.023   4.172   1.226
 2290SOL    HW1 7769   1.038   4.078   1.194
 2290SOL    HW2 7770   0.960   4.219   1.164
 2291SOL     OW 7771   3.089   1.609   5.939
 2291SOL    HW1 7772   3.177   1.568   5.915
 2291SOL    HW2 7773   3.020   1.583   5.872
 2292SOL     OW 7774   1.560   0.825   4.812
 2292SOL    HW1 7775   1.590   0.914   4.846
 2292SOL    HW2 7776   1.465   0.831   4.782
 2293SOL     OW 7777   5.185   5.366   1.564
 2293SOL    HW1 7778   5.157   5.271   1.550
 2293SOL    HW2 7779   5.199   5.383   1.661
 2294SOL     OW 7780   4.085   0.022   6.749
 2294SOL    HW1 7781   4.150   0.084   6.705
 2294SOL    HW2 7782   4.092   0.031   6.849
 2295SOL     OW 7783   0.169   1.787   1.926
 2295SOL    HW1 7784   0.175   1.744   2.016
 2295SOL    HW2 7785   0.260   1.789   1.884
 2296SOL     OW 7786   3.167   1.098   0.607
 2296SOL    HW1 7787   3.207   1.009   0.584
 2296SOL    HW2 7788   3.131   1.140   0.524
 2297SOL     OW 7789   4.503   4.285   5.697
 2297SOL    HW1 7790   4.520   4.381   5.674
 2297SOL    HW2 7791   4.571   4.228   5.651
 2298SOL     OW 7792   3.545   2.425   1.268
 2298SOL    HW1 7793   3.633   2.401   1.308
 2298SOL    HW2 7794   3.554   2.431   1.168
 2299SOL     OW 7795   5.209   6.187   6.884
 2299SOL    HW1 7796   5.251   6.123   6.949
 2299SOL    HW2 7797   5.253   6.276   6.891
 2300SOL     OW 7798   1.794   5.390   1.422
 2300SOL    HW1 7799   1.774   5.294   1.440
 2300SOL    HW2 7800   1.869   5.420   1.481
 2301SOL     OW 7801   3.153   3.438   3.267
 2301SOL    HW1 7802   3.225   3.401   3.208
 2301SOL    HW2 7803   3.067   3.392   3.246
 2302SOL     OW 7804   3.805   5.869   2.638
 2302SOL    HW1 7805   3.896   5.869   2.597
 2302SOL    HW2 7806   3.765   5.778   2.633
 2303SOL     OW 7807   0.980   3.308   5.156
 2303SOL    HW1 7808   1.008   3.245   5.229
 2303SOL    HW2 7809   1.039   3.389   5.157
 2304SOL     OW 7810   2.685   0.163   3.518
 2304SOL    HW1 7811   2.723   0.182   3.427
 2304SOL    HW2 7812   2.757   0.172   3.586
 2305SOL     OW 7813   4.021   5.564   2.446
 2305SOL    HW1 7814   4.065   5.654   2.435
 2305SOL    HW2 7815   3.936   5.575   2.497
 2306SOL     OW 7816   1.971   4.647   1.977
 2306SOL    HW1 7817   2.009   4.691   2.059
 2306SOL    HW2 7818   2.041   4.593   1.932
 2307SOL     OW 7819   1.449   3.682   3.014
 2307SOL    HW1 7820   1.369   3.687   2.955
 2307SOL    HW2 7821   1.434   3.615   3.086
 2308SOL     OW 7822   0.979   0.704   6.708
 2308SOL    HW1 7823   0.909   0.642   6.744
 2308SOL    HW2 7824   0.983   0.697   6.609
 2309SOL     OW 7825   3.333   5.760   0.197
 2309SOL    HW1 7826   3.397   5.689   0.229
 2309SOL    HW2 7827   3.372   5.850   0.216
 2310SOL     OW 7828   6.065   6.978   1.818
 2310SOL    HW1 7829   6.076   6.879   1.816
 2310SOL    HW2 7830   6.130   7.020   1.755
 2311SOL     OW 7831   3.032   7.020   2.592
 2311SOL    HW1 7832   2.981   6.934   2.589
 2311SOL    HW2 7833   3.033   0.038   2.501
 2312SOL     OW 7834   3.570   0.069   2.751
 2312SOL    HW1 7835   3.588   0.098   2.657
 2312SOL    HW2 7836   3.655   0.034   2.791
 2313SOL     OW 7837   5.136   4.268   2.328
 2313SOL    HW1 7838   5.148   4.335   2.255
 2313SOL    HW2 7839   5.040   4.242   2.335
 2314SOL     OW 7840   6.001   0.383   3.539
 2314SOL    HW1 7841   5.944   0.385   3.621
 2314SOL    HW2 7842   6.043   0.473   3.526
 2315SOL     OW 7843   4.845   3.604   5.991
 2315SOL    HW1 7844   4.940   3.630   5.976
 2315SOL    HW2 7845   4.791   3.685   6.014
 2316SOL     OW 7846   2.964   0.913   5.850
 2316SOL    HW1 7847   3.028   0.970   5.902
 2316SOL    HW2 7848   3.014   0.855   5.786
 2317SOL     OW 7849   6.426   6.001   3.775
 2317SOL    HW1 7850   6.401   5.909   3.746
 2317SOL    HW2 7851   6.419   6.007   3.875
 2318SOL     OW 7852   2.161   3.731   4.476
 2318SOL    HW1 7853   2.188   3.827   4.485
 2318SOL    HW2 7854   2.152   3.690   4.566
 2319SOL     OW 7855   2.801   5.260   4.614
 2319SOL    HW1 7856   2.899   5.247   4.630
 2319SOL    HW2 7857   2.751   5.180   4.648
 2320SOL     OW 7858   0.933   2.853   5.657
 2320SOL    HW1 7859   0.838   2.846   5.628
 2320SOL    HW2 7860   0.982   2.770   5.630
 2321SOL     OW 7861   2.674   4.966   6.548
 2321SOL    HW1 7862   2.765   5.002   6.527
 2321SOL    HW2 7863   2.633   4.926   6.466
 2322SOL     OW 7864   1.929   3.790   2.171
 2322SOL    HW1 7865   1.958   3.724   2.101
 2322SOL    HW2 7866   1.865   3.745   2.234
 2323SOL     OW 7867   3.321   5.146   1.953
 2323SOL    HW1 7868   3.314   5.047   1.958
 2323SOL    HW2 7869   3.239   5.188   1.991
 2324SOL     OW 7870   6.938   5.884   1.936
 2324SOL    HW1 7871   6.878   5.916   1.863
 2324SOL    HW2 7872   6.965   5.789   1.920
 2325SOL     OW 7873   6.907   4.783   1.736
 2325SOL    HW1 7874   6.884   4.749   1.827
 2325SOL    HW2 7875   6.874   4.877   1.726
 2326SOL     OW 7876   1.635   6.004   6.547
 2326SOL    HW1 7877   1.666   5.925   6.599
 2326SOL    HW2 7878   1.554   6.043   6.590
 2327SOL     OW 7879   0.072   0.627   2.927
 2327SOL    HW1 7880   0.011   0.706   2.923
 2327SOL    HW2 7881   0.166   0.659   2.940
 2328SOL     OW 7882   1.606   1.610   2.279
 2328SOL    HW1 7883   1.595   1.707   2.298
 2328SOL    HW2 7884   1.537   1.558   2.330
 2329SOL     OW 7885   0.814   4.376   4.538
 2329SOL    HW1 7886   0.893   4.372   4.600
 2329SOL    HW2 7887   0.834   4.326   4.454
 2330SOL     OW 7888   0.017   2.977   0.487
 2330SOL    HW1 7889   6.951   2.972   0.442
 2330SOL    HW2 7890   0.013   3.043   0.562
 2331SOL     OW 7891   3.175   5.393   6.781
 2331SOL    HW1 7892   3.263   5.347   6.764
 2331SOL    HW2 7893   3.185   5.456   6.857
 2332SOL     OW 7894   5.871   7.015   5.696
 2332SOL    HW1 7895   5.780   6.980   5.718
 2332SOL    HW2 7896   5.910   0.037   5.777
 2333SOL     OW 7897   6.770   4.929   2.974
 2333SOL    HW1 7898   6.702   4.937   2.901
 2333SOL    HW2 7899   6.756   4.843   3.023
 2334SOL     OW 7900   1.259   1.413   6.620
 2334SOL    HW1 7901   1.246   1.314   6.617
 2334SOL    HW2 7902   1.227   1.448   6.708
 2335SOL     OW 7903   5.810   0.520   4.126
 2335SOL    HW1 7904   5.851   0.499   4.215
 2335SOL    HW2 7905   5.732   0.460   4.110
 2336SOL     OW 7906   2.839   1.926   3.888
 2336SOL    HW1 7907   2.744   1.900   3.903
 2336SOL    HW2 7908   2.860   1.921   3.790
 2337SOL     OW 7909   3.990   1.330   1.695
 2337SOL    HW1 7910   4.088   1.337   1.711
 2337SOL    HW2 7911   3.944   1.407   1.739
 2338SOL     OW 7912   0.951   3.894   4.307
 2338SOL    HW1 7913   1.030   3.949   4.334
 2338SOL    HW2 7914   0.982   3.813   4.256
 2339SOL     OW 7915   2.915   3.818   3.344
 2339SOL    HW1 7916   2.968   3.900   3.319
 2339SOL    HW2 7917   2.913   3.755   3.267
 2340SOL     OW 7918   0.544   4.712   0.103
 2340SOL    HW1 7919   0.640   4.734   0.089
 2340SOL    HW2 7920   0.535   4.639   0.171
 2341SOL     OW 7921   2.286   5.029   2.333
 2341SOL    HW1 7922   2.364   5.085   2.308
 2341SOL    HW2 7923   2.296   4.996   2.426
 2342SOL     OW 7924   2.115   6.855   4.408
 2342SOL    HW1 7925   2.193   6.793   4.401
 2342SOL    HW2 7926   2.121   6.906   4.494
 2343SOL     OW 7927   2.489   5.951   2.724
 2343SOL    HW1 7928   2.534   5.933   2.637
 2343SOL    HW2 7929   2.559   5.970   2.794
 2344SOL     OW 7930   6.905   5.584   0.168
 2344SOL    HW1 7931   6.901   5.655   0.097
 2344SOL    HW2 7932   6.822   5.529   0.164
 2345SOL     OW 7933   2.943   5.533   4.763
 2345SOL    HW1 7934   2.971   5.629   4.766
 2345SOL    HW2 7935   2.906   5.511   4.673
 2346SOL     OW 7936   3.873   3.107   5.365
 2346SOL    HW1 7937   3.822   3.154   5.293
 2346SOL    HW2 7938   3.949   3.166   5.395
 2347SOL     OW 7939   1.513   1.678   1.404
 2347SOL    HW1 7940   1.426   1.687   1.357
 2347SOL    HW2 7941   1.503   1.711   1.498
 2348SOL     OW 7942   2.405   6.536   3.755
 2348SOL    HW1 7943   2.482   6.489   3.713
 2348SOL    HW2 7944   2.379   6.489   3.839
 2349SOL     OW 7945   0.887   4.264   6.587
 2349SOL    HW1 7946   0.959   4.241   6.653
 2349SOL    HW2 7947   0.918   4.242   6.495
 2350SOL     OW 7948   6.164   4.290   6.236
 2350SOL    HW1 7949   6.122   4.239   6.311
 2350SOL    HW2 7950   6.093   4.327   6.176
 2351SOL     OW 7951   3.647   4.914   4.096
 2351SOL    HW1 7952   3.600   4.847   4.154
 2351SOL    HW2 7953   3.580   4.981   4.063
 2352SOL     OW 7954   0.032   3.320   3.378
 2352SOL    HW1 7955   0.020   3.221   3.375
 2352SOL    HW2 7956   7.016   3.356   3.463
 2353SOL     OW 7957   4.350   4.752   4.518
 2353SOL    HW1 7958   4.438   4.792   4.491
 2353SOL    HW2 7959   4.353   4.727   4.615
 2354SOL     OW 7960   2.240   2.244   4.846
 2354SOL    HW1 7961   2.176   2.171   4.821
 2354SOL    HW2 7962   2.206   2.290   4.929
 2355SOL     OW 7963   1.910   6.386   5.710
 2355SOL    HW1 7964   1.893   6.470   5.658
 2355SOL    HW2 7965   1.824   6.352   5.746
 2356SOL     OW 7966   0.989   2.993   6.470
 2356SOL    HW1 7967   0.988   2.973   6.372
 2356SOL    HW2 7968   1.066   3.053   6.492
 2357SOL     OW 7969   3.873   1.057   2.049
 2357SOL    HW1 7970   3.966   1.083   2.074
 2357SOL    HW2 7971   3.831   1.008   2.126
 2358SOL     OW 7972   2.752   5.304   5.526
 2358SOL    HW1 7973   2.729   5.335   5.434
 2358SOL    HW2 7974   2.670   5.267   5.570
 2359SOL     OW 7975   0.453   0.806   6.078
 2359SOL    HW1 7976   0.446   0.904   6.097
 2359SOL    HW2 7977   0.549   0.782   6.063
 2360SOL     OW 7978   6.022   3.697   0.682
 2360SOL    HW1 7979   6.102   3.743   0.643
 2360SOL    HW2 7980   5.939   3.748   0.658
 2361SOL     OW 7981   3.298   1.180   6.447
 2361SOL    HW1 7982   3.297   1.273   6.409
 2361SOL    HW2 7983   3.382   1.133   6.419
 2362SOL     OW 7984   2.981   5.924   3.734
 2362SOL    HW1 7985   2.944   5.879   3.653
 2362SOL    HW2 7986   2.930   5.895   3.815
 2363SOL     OW 7987   3.372   1.729   3.953
 2363SOL    HW1 7988   3.293   1.783   3.924
 2363SOL    HW2 7989   3.409   1.766   4.038
 2364SOL     OW 7990   1.998   2.619   2.247
 2364SOL    HW1 7991   2.020   2.554   2.319
 2364SOL    HW2 7992   1.938   2.690   2.284
 2365SOL     OW 7993   6.483   1.586   6.711
 2365SOL    HW1 7994   6.436   1.653   6.653
 2365SOL    HW2 7995   6.460   1.494   6.680
 2366SOL     OW 7996   2.638   5.575   6.996
 2366SOL    HW1 7997   2.661   5.649   0.038
 2366SOL    HW2 7998   2.717   5.515   6.986
 2367SOL     OW 7999   2.099   3.458   0.833
 2367SOL    HW1 8000   2.149   3.388   0.782
 2367SOL    HW2 8001   2.160   3.505   0.896
 2368SOL     OW 8002   5.623   6.707   4.888
 2368SOL    HW1 8003   5.694   6.759   4.841
 2368SOL    HW2 8004   5.665   6.652   4.961
 2369SOL     OW 8005   2.017   0.024   4.608
 2369SOL    HW1 8006   1.998   0.005   4.705
 2369SOL    HW2 8007   1.944   0.081   4.571
 2370SOL     OW 8008   5.704   3.091   0.009
 2370SOL    HW1 8009   5.745   3.069   0.097
 2370SOL    HW2 8010   5.771   3.077   6.959
 2371SOL     OW 8011   2.470   6.902   2.022
 2371SOL    HW1 8012   2.414   6.824   2.048
 2371SOL    HW2 8013   2.440   6.983   2.074
 2372SOL     OW 8014   6.696   2.390   1.947
 2372SOL    HW1 8015   6.597   2.400   1.942
 2372SOL    HW2 8016   6.726   2.317   1.886
 2373SOL     OW 8017   1.079   3.616   5.813
 2373SOL    HW1 8018   1.175   3.588   5.821
 2373SOL    HW2 8019   1.067   3.669   5.730
 2374SOL     OW 8020   6.913   2.104   4.909
 2374SOL    HW1 8021   6.922   2.051   4.825
 2374SOL    HW2 8022   6.956   2.193   4.897
 2375SOL     OW 8023   3.150   5.259   6.141
 2375SOL    HW1 8024   3.052   5.280   6.138
 2375SOL    HW2 8025   3.166   5.170   6.099
 2376SOL     OW 8026   6.217   3.376   4.128
 2376SOL    HW1 8027   6.195   3.344   4.220
 2376SOL    HW2 8028   6.226   3.476   4.129
 2377SOL     OW 8029   3.763   3.948   3.798
 2377SOL    HW1 8030   3.719   3.859   3.807
 2377SOL    HW2 8031   3.838   3.955   3.864
 2378SOL     OW 8032   4.907   1.581   0.352
 2378SOL    HW1 8033   4.873   1.634   0.275
 2378SOL    HW2 8034   4.831   1.529   0.392
 2379SOL     OW 8035   6.652   0.842   0.370
 2379SOL    HW1 8036   6.584   0.780   0.410
 2379SOL    HW2 8037   6.644   0.932   0.412
 2380SOL     OW 8038   6.715   2.283   0.215
 2380SOL    HW1 8039   6.698   2.370   0.262
 2380SOL    HW2 8040   6.681   2.208   0.272
 2381SOL     OW 8041   2.580   5.649   2.973
 2381SOL    HW1 8042   2.603   5.690   3.061
 2381SOL    HW2 8043   2.497   5.595   2.981
 2382SOL     OW 8044   1.717   3.982   4.327
 2382SOL    HW1 8045   1.754   3.968   4.235
 2382SOL    HW2 8046   1.792   3.980   4.393
 2383SOL     OW 8047   6.500   0.136   1.057
 2383SOL    HW1 8048   6.552   0.165   0.976
 2383SOL    HW2 8049   6.556   0.144   1.138
 2384SOL     OW 8050   5.417   1.529   2.504
 2384SOL    HW1 8051   5.397   1.509   2.600
 2384SOL    HW2 8052   5.516   1.524   2.489
 2385SOL     OW 8053   0.056   0.425   0.078
 2385SOL    HW1 8054   0.030   0.516   0.046
 2385SOL    HW2 8055   0.154   0.425   0.100
 2386SOL     OW 8056   4.954   6.106   4.399
 2386SOL    HW1 8057   5.047   6.101   4.437
 2386SOL    HW2 8058   4.904   6.023   4.422
 2387SOL     OW 8059   2.170   1.264   3.959
 2387SOL    HW1 8060   2.188   1.315   3.875
 2387SOL    HW2 8061   2.073   1.240   3.963
 2388SOL     OW 8062   6.982   2.148   3.401
 2388SOL    HW1 8063   0.047   2.182   3.435
 2388SOL    HW2 8064   6.908   2.200   3.443
 2389SOL     OW 8065   4.176   4.726   3.204
 2389SOL    HW1 8066   4.149   4.751   3.111
 2389SOL    HW2 8067   4.183   4.626   3.211
 2390SOL     OW 8068   3.916   3.051   3.605
 2390SOL    HW1 8069   3.824   3.020   3.578
 2390SOL    HW2 8070   3.971   3.067   3.523
 2391SOL     OW 8071   5.511   4.679   6.274
 2391SOL    HW1 8072   5.482   4.655   6.366
 2391SOL    HW2 8073   5.524   4.595   6.220
 2392SOL     OW 8074   3.215   6.608   5.905
 2392SOL    HW1 8075   3.290   6.547   5.879
 2392SOL    HW2 8076   3.229   6.698   5.865
 2393SOL     OW 8077   5.509   3.635   6.306
 2393SOL    HW1 8078   5.421   3.588   6.298
 2393SOL    HW2 8079   5.581   3.580   6.264
 2394SOL     OW 8080   0.835   3.848   4.837
 2394SOL    HW1 8081   0.858   3.924   4.776
 2394SOL    HW2 8082   0.782   3.780   4.786
 2395SOL     OW 8083   5.000   6.949   6.186
 2395SOL    HW1 8084   4.914   6.915   6.149
 2395SOL    HW2 8085   5.030   0.006   6.134
 2396SOL     OW 8086   3.813   4.919   1.135
 2396SOL    HW1 8087   3.873   4.858   1.186
 2396SOL    HW2 8088   3.750   4.964   1.199
 2397SOL     OW 8089   0.724   4.023   5.039
 2397SOL    HW1 8090   0.633   4.000   5.074
 2397SOL    HW2 8091   0.752   3.954   4.971
 2398SOL     OW 8092   4.695   4.377   6.992
 2398SOL    HW1 8093   4.602   4.384   0.006
 2398SOL    HW2 8094   4.712   4.282   6.963
 2399SOL     OW 8095   4.958   0.792   0.972
 2399SOL    HW1 8096   4.918   0.880   0.947
 2399SOL    HW2 8097   5.043   0.807   1.022
 2400SOL     OW 8098   2.962   3.550   0.823
 2400SOL    HW1 8099   3.026   3.478   0.795
 2400SOL    HW2 8100   3.011   3.619   0.877
 2401SOL     OW 8101   5.528   6.359   0.229
 2401SOL    HW1 8102   5.473   6.378   0.148
 2401SOL    HW2 8103   5.625   6.352   0.203
 2402SOL     OW 8104   0.590   0.249   4.443
 2402SOL    HW1 8105   0.564   0.178   4.378
 2402SOL    HW2 8106   0.562   0.338   4.407
 2403SOL     OW 8107   1.446   2.140   6.440
 2403SOL    HW1 8108   1.520   2.073   6.443
 2403SOL    HW2 8109   1.410   2.147   6.347
 2404SOL     OW 8110   2.724   1.136   1.230
 2404SOL    HW1 8111   2.661   1.202   1.189
 2404SOL    HW2 8112   2.675   1.051   1.248
 2405SOL     OW 8113   3.587   3.689   2.398
 2405SOL    HW1 8114   3.590   3.704   2.497
 2405SOL    HW2 8115   3.492   3.674   2.369
 2406SOL     OW 8116   3.335   0.841   0.882
 2406SOL    HW1 8117   3.419   0.787   0.890
 2406SOL    HW2 8118   3.275   0.823   0.960
 2407SOL     OW 8119   5.524   2.015   3.379
 2407SOL    HW1 8120   5.581   1.957   3.320
 2407SOL    HW2 8121   5.428   1.987   3.370
 2408SOL     OW 8122   4.476   4.465   2.181
 2408SOL    HW1 8123   4.467   4.431   2.087
 2408SOL    HW2 8124   4.573   4.467   2.207
 2409SOL     OW 8125   2.399   4.456   2.151
 2409SOL    HW1 8126   2.471   4.516   2.117
 2409SOL    HW2 8127   2.353   4.411   2.075
 2410SOL     OW 8128   3.414   2.855   4.810
 2410SOL    HW1 8129   3.448   2.947   4.792
 2410SOL    HW2 8130   3.459   2.790   4.750
 2411SOL     OW 8131   5.385   6.107   4.480
 2411SOL    HW1 8132   5.462   6.087   4.540
 2411SOL    HW2 8133   5.372   6.206   4.473
 2412SOL     OW 8134   5.510   4.456   1.591
 2412SOL    HW1 8135   5.464   4.530   1.639
 2412SOL    HW2 8136   5.609   4.473   1.591
 2413SOL     OW 8137   6.425   0.794   1.312
 2413SOL    HW1 8138   6.369   0.713   1.294
 2413SOL    HW2 8139   6.464   0.828   1.227
 2414SOL     OW 8140   4.806   4.172   3.370
 2414SOL    HW1 8141   4.779   4.179   3.466
 2414SOL    HW2 8142   4.736   4.213   3.313
 2415SOL     OW 8143   5.957   1.824   3.029
 2415SOL    HW1 8144   5.979   1.727   3.036
 2415SOL    HW2 8145   5.887   1.837   2.959
 2416SOL     OW 8146   5.235   2.151   5.249
 2416SOL    HW1 8147   5.282   2.185   5.330
 2416SOL    HW2 8148   5.186   2.067   5.272
 2417SOL     OW 8149   3.396   3.577   4.669
 2417SOL    HW1 8150   3.338   3.647   4.712
 2417SOL    HW2 8151   3.339   3.509   4.625
 2418SOL     OW 8152   3.570   2.944   4.146
 2418SOL    HW1 8153   3.488   3.001   4.144
 2418SOL    HW2 8154   3.611   2.948   4.237
 2419SOL     OW 8155   0.061   6.505   3.821
 2419SOL    HW1 8156   0.058   6.565   3.902
 2419SOL    HW2 8157   7.022   6.428   3.835
 2420SOL     OW 8158   3.194   0.287   2.189
 2420SOL    HW1 8159   3.181   0.384   2.211
 2420SOL    HW2 8160   3.182   0.274   2.091
 2421SOL     OW 8161   1.848   2.843   4.759
 2421SOL    HW1 8162   1.753   2.834   4.729
 2421SOL    HW2 8163   1.904   2.775   4.712
 2422SOL     OW 8164   4.794   1.234   0.586
 2422SOL    HW1 8165   4.782   1.257   0.490
 2422SOL    HW2 8166   4.890   1.212   0.603
 2423SOL     OW 8167   1.973   6.653   2.125
 2423SOL    HW1 8168   1.877   6.626   2.138
 2423SOL    HW2 8169   2.021   6.581   2.075
 2424SOL     OW 8170   6.582   0.176   0.144
 2424SOL    HW1 8171   6.665   0.216   0.104
 2424SOL    HW2 8172   6.505   0.238   0.130
 2425SOL     OW 8173   5.608   0.152   3.818
 2425SOL    HW1 8174   5.638   0.244   3.795
 2425SOL    HW2 8175   5.531   0.156   3.881
 2426SOL     OW 8176   1.903   5.300   5.471
 2426SOL    HW1 8177   1.840   5.378   5.472
 2426SOL    HW2 8178   1.908   5.260   5.562
 2427SOL     OW 8179   5.764   5.648   5.239
 2427SOL    HW1 8180   5.758   5.737   5.194
 2427SOL    HW2 8181   5.687   5.639   5.303
 2428SOL     OW 8182   0.738   0.903   1.931
 2428SOL    HW1 8183   0.830   0.890   1.970
 2428SOL    HW2 8184   0.731   0.853   1.845
 2429SOL     OW 8185   5.731   5.923   2.004
 2429SOL    HW1 8186   5.674   5.950   1.926
 2429SOL    HW2 8187   5.828   5.929   1.978
 2430SOL     OW 8188   6.432   1.202   2.547
 2430SOL    HW1 8189   6.513   1.190   2.491
 2430SOL    HW2 8190   6.390   1.113   2.566
 2431SOL     OW 8191   4.609   1.434   2.513
 2431SOL    HW1 8192   4.543   1.443   2.439
 2431SOL    HW2 8193   4.593   1.505   2.581
 2432SOL     OW 8194   4.584   6.285   1.956
 2432SOL    HW1 8195   4.658   6.234   2.000
 2432SOL    HW2 8196   4.605   6.296   1.859
 2433SOL     OW 8197   4.496   0.872   6.683
 2433SOL    HW1 8198   4.469   0.954   6.633
 2433SOL    HW2 8199   4.596   0.872   6.694
 2434SOL     OW 8200   4.017   0.883   5.742
 2434SOL    HW1 8201   4.065   0.941   5.676
 2434SOL    HW2 8202   3.952   0.824   5.694
 2435SOL     OW 8203   6.109   5.928   5.073
 2435SOL    HW1 8204   6.069   5.907   4.983
 2435SOL    HW2 8205   6.083   6.021   5.099
 2436SOL     OW 8206   2.369   5.953   6.749
 2436SOL    HW1 8207   2.356   5.856   6.727
 2436SOL    HW2 8208   2.460   5.982   6.722
 2437SOL     OW 8209   6.381   6.865   5.952
 2437SOL    HW1 8210   6.392   6.766   5.939
 2437SOL    HW2 8211   6.363   6.884   6.049
 2438SOL     OW 8212   2.674   2.355   0.884
 2438SOL    HW1 8213   2.763   2.401   0.888
 2438SOL    HW2 8214   2.685   2.259   0.910
 2439SOL     OW 8215   6.767   4.250   6.164
 2439SOL    HW1 8216   6.776   4.216   6.258
 2439SOL    HW2 8217   6.740   4.346   6.166
 2440SOL     OW 8218   5.220   5.012   5.482
 2440SOL    HW1 8219   5.205   4.927   5.532
 2440SOL    HW2 8220   5.301   5.057   5.517
 2441SOL     OW 8221   6.768   2.108   1.116
 2441SOL    HW1 8222   6.684   2.122   1.169
 2441SOL    HW2 8223   6.820   2.193   1.113
 2442SOL     OW 8224   1.155   3.544   5.161
 2442SOL    HW1 8225   1.188   3.614   5.224
 2442SOL    HW2 8226   1.093   3.586   5.094
 2443SOL     OW 8227   2.867   3.988   6.245
 2443SOL    HW1 8228   2.796   4.051   6.277
 2443SOL    HW2 8229   2.824   3.916   6.190
 2444SOL     OW 8230   2.164   4.108   5.903
 2444SOL    HW1 8231   2.079   4.150   5.933
 2444SOL    HW2 8232   2.192   4.039   5.969
 2445SOL     OW 8233   0.272   0.872   0.958
 2445SOL    HW1 8234   0.320   0.918   0.884
 2445SOL    HW2 8235   0.259   0.937   1.034
 2446SOL     OW 8236   6.345   4.806   5.001
 2446SOL    HW1 8237   6.364   4.880   5.065
 2446SOL    HW2 8238   6.360   4.718   5.046
 2447SOL     OW 8239   1.018   1.626   0.449
 2447SOL    HW1 8240   1.103   1.615   0.501
 2447SOL    HW2 8241   1.032   1.595   0.355
 2448SOL     OW 8242   1.019   0.111   4.634
 2448SOL    HW1 8243   1.001   0.013   4.624
 2448SOL    HW2 8244   0.933   0.161   4.623
 2449SOL     OW 8245   6.904   3.754   6.298
 2449SOL    HW1 8246   6.841   3.677   6.310
 2449SOL    HW2 8247   6.880   3.803   6.214
 2450SOL     OW 8248   2.497   4.491   2.834
 2450SOL    HW1 8249   2.464   4.415   2.891
 2450SOL    HW2 8250   2.423   4.521   2.773
 2451SOL     OW 8251   2.516   5.911   3.625
 2451SOL    HW1 8252   2.419   5.926   3.605
 2451SOL    HW2 8253   2.525   5.837   3.692
 2452SOL     OW 8254   1.300   3.014   3.215
 2452SOL    HW1 8255   1.356   3.079   3.265
 2452SOL    HW2 8256   1.287   2.931   3.271
 2453SOL     OW 8257   6.232   4.878   1.679
 2453SOL    HW1 8258   6.269   4.872   1.586
 2453SOL    HW2 8259   6.275   4.808   1.736
 2454SOL     OW 8260   3.280   0.704   1.523
 2454SOL    HW1 8261   3.372   0.679   1.493
 2454SOL    HW2 8262   3.239   0.627   1.573
 2455SOL     OW 8263   5.167   5.847   0.306
 2455SOL    HW1 8264   5.077   5.870   0.344
 2455SOL    HW2 8265   5.163   5.758   0.262
 2456SOL     OW 8266   5.217   5.946   1.699
 2456SOL    HW1 8267   5.150   6.013   1.731
 2456SOL    HW2 8268   5.260   5.902   1.777
 2457SOL     OW 8269   5.468   6.541   1.597
 2457SOL    HW1 8270   5.404   6.491   1.539
 2457SOL    HW2 8271   5.547   6.568   1.542
 2458SOL     OW 8272   0.911   5.289   2.707
 2458SOL    HW1 8273   0.919   5.387   2.689
 2458SOL    HW2 8274   0.843   5.273   2.779
 2459SOL     OW 8275   2.148   0.445   0.863
 2459SOL    HW1 8276   2.205   0.367   0.836
 2459SOL    HW2 8277   2.178   0.479   0.952
 2460SOL     OW 8278   3.127   6.063   1.489
 2460SOL    HW1 8279   3.101   5.967   1.481
 2460SOL    HW2 8280   3.200   6.072   1.558
 2461SOL     OW 8281   5.224   0.660   2.250
 2461SOL    HW1 8282   5.142   0.714   2.266
 2461SOL    HW2 8283   5.199   0.571   2.211
 2462SOL     OW 8284   1.882   5.414   6.303
 2462SOL    HW1 8285   1.933   5.494   6.333
 2462SOL    HW2 8286   1.927   5.331   6.334
 2463SOL     OW 8287   5.962   1.887   3.715
 2463SOL    HW1 8288   6.008   1.976   3.709
 2463SOL    HW2 8289   5.998   1.826   3.645
 2464SOL     OW 8290   1.136   3.301   1.326
 2464SOL    HW1 8291   1.134   3.297   1.226
 2464SOL    HW2 8292   1.062   3.360   1.359
 2465SOL     OW 8293   6.389   5.919   3.019
 2465SOL    HW1 8294   6.294   5.892   2.999
 2465SOL    HW2 8295   6.406   5.910   3.117
 2466SOL     OW 8296   3.314   1.795   2.577
 2466SOL    HW1 8297   3.216   1.814   2.566
 2466SOL    HW2 8298   3.366   1.876   2.550
 2467SOL     OW 8299   6.851   1.261   6.265
 2467SOL    HW1 8300   6.845   1.176   6.319
 2467SOL    HW2 8301   6.818   1.243   6.172
 2468SOL     OW 8302   0.074   5.134   1.400
 2468SOL    HW1 8303   0.052   5.074   1.324
 2468SOL    HW2 8304   0.068   5.083   1.486
 2469SOL     OW 8305   2.243   2.917   5.531
 2469SOL    HW1 8306   2.282   2.834   5.492
 2469SOL    HW2 8307   2.240   2.988   5.460
 2470SOL     OW 8308   5.044   2.603   0.483
 2470SOL    HW1 8309   5.019   2.512   0.515
 2470SOL    HW2 8310   4.970   2.641   0.427
 2471SOL     OW 8311   0.968   0.115   2.820
 2471SOL    HW1 8312   0.921   0.038   2.775
 2471SOL    HW2 8313   0.977   0.190   2.755
 2472SOL     OW 8314   5.749   1.883   3.530
 2472SOL    HW1 8315   5.813   1.901   3.604
 2472SOL    HW2 8316   5.697   1.966   3.510
 2473SOL     OW 8317   1.080   5.989   4.194
 2473SOL    HW1 8318   1.167   6.008   4.239
 2473SOL    HW2 8319   1.005   6.011   4.257
 2474SOL     OW 8320   6.925   4.869   5.180
 2474SOL    HW1 8321   7.022   4.867   5.155
 2474SOL    HW2 8322   6.873   4.915   5.108
 2475SOL     OW 8323   4.612   1.930   0.254
 2475SOL    HW1 8324   4.647   2.009   0.305
 2475SOL    HW2 8325   4.647   1.934   0.160
 2476SOL     OW 8326   1.181   1.893   4.491
 2476SOL    HW1 8327   1.149   1.916   4.399
 2476SOL    HW2 8328   1.253   1.957   4.518
 2477SOL     OW 8329   4.544   4.804   1.050
 2477SOL    HW1 8330   4.508   4.896   1.038
 2477SOL    HW2 8331   4.545   4.782   1.148
 2478SOL     OW 8332   6.812   6.980   3.090
 2478SOL    HW1 8333   6.731   6.934   3.125
 2478SOL    HW2 8334   6.801   0.056   3.100
 2479SOL     OW 8335   0.201   3.308   0.479
 2479SOL    HW1 8336   0.266   3.363   0.531
 2479SOL    HW2 8337   0.246   3.225   0.446
 2480SOL     OW 8338   0.278   3.149   1.405
 2480SOL    HW1 8339   0.262   3.246   1.424
 2480SOL    HW2 8340   0.260   3.130   1.308
 2481SOL     OW 8341   4.802   4.954   2.131
 2481SOL    HW1 8342   4.798   4.949   2.231
 2481SOL    HW2 8343   4.896   4.939   2.100
 2482SOL     OW 8344   5.040   2.191   4.469
 2482SOL    HW1 8345   5.112   2.152   4.526
 2482SOL    HW2 8346   5.019   2.283   4.501
 2483SOL     OW 8347   0.894   2.110   6.778
 2483SOL    HW1 8348   0.887   2.156   6.866
 2483SOL    HW2 8349   0.804   2.105   6.736
 2484SOL     OW 8350   3.273   2.256   6.427
 2484SOL    HW1 8351   3.244   2.349   6.408
 2484SOL    HW2 8352   3.201   2.192   6.400
 2485SOL     OW 8353   0.174   5.811   2.167
 2485SOL    HW1 8354   0.123   5.728   2.188
 2485SOL    HW2 8355   0.183   5.822   2.068
 2486SOL     OW 8356   1.292   5.397   3.168
 2486SOL    HW1 8357   1.352   5.460   3.218
 2486SOL    HW2 8358   1.255   5.329   3.231
 2487SOL     OW 8359   3.377   1.100   0.799
 2487SOL    HW1 8360   3.300   1.134   0.746
 2487SOL    HW2 8361   3.347   1.027   0.860
 2488SOL     OW 8362   2.882   6.161   0.001
 2488SOL    HW1 8363   2.805   6.101   7.004
 2488SOL    HW2 8364   2.920   6.139   0.091
 2489SOL     OW 8365   0.546   5.748   4.627
 2489SOL    HW1 8366   0.527   5.722   4.533
 2489SOL    HW2 8367   0.500   5.834   4.648
 2490SOL     OW 8368   5.035   3.193   1.616
 2490SOL    HW1 8369   4.987   3.149   1.540
 2490SOL    HW2 8370   4.967   3.227   1.682
 2491SOL     OW 8371   1.501   4.509   2.209
 2491SOL    HW1 8372   1.490   4.589   2.149
 2491SOL    HW2 8373   1.419   4.498   2.265
 2492SOL     OW 8374   4.041   3.122   6.329
 2492SOL    HW1 8375   4.122   3.179   6.336
 2492SOL    HW2 8376   4.063   3.039   6.276
 2493SOL     OW 8377   6.536   2.141   3.421
 2493SOL    HW1 8378   6.489   2.073   3.478
 2493SOL    HW2 8379   6.531   2.113   3.325
 2494SOL     OW 8380   4.952   3.459   1.987
 2494SOL    HW1 8381   5.046   3.444   1.957
 2494SOL    HW2 8382   4.899   3.375   1.975
 2495SOL     OW 8383   6.178   1.131   4.906
 2495SOL    HW1 8384   6.267   1.099   4.874
 2495SOL    HW2 8385   6.188   1.221   4.948
 2496SOL     OW 8386   1.142   6.668   0.220
 2496SOL    HW1 8387   1.236   6.671   0.257
 2496SOL    HW2 8388   1.079   6.641   0.293
 2497SOL     OW 8389   5.385   1.934   6.095
 2497SOL    HW1 8390   5.478   1.968   6.103
 2497SOL    HW2 8391   5.364   1.877   6.175
 2498SOL     OW 8392   1.636   3.539   4.855
 2498SOL    HW1 8393   1.646   3.465   4.789
 2498SOL    HW2 8394   1.556   3.522   4.913
 2499SOL     OW 8395   6.089   0.123   5.231
 2499SOL    HW1 8396   6.186   0.140   5.250
 2499SOL    HW2 8397   6.053   0.060   5.299
 2500SOL     OW 8398   4.788   3.384   6.646
 2500SOL    HW1 8399   4.767   3.303   6.700
 2500SOL    HW2 8400   4.870   3.368   6.592
 2501SOL     OW 8401   6.522   4.445   0.219
 2501SOL    HW1 8402   6.557   4.365   0.169
 2501SOL    HW2 8403   6.425   4.457   0.198
 2502SOL     OW 8404   2.360   6.760   3.224
 2502SOL    HW1 8405   2.406   6.843   3.192
 2502SOL    HW2 8406   2.269   6.754   3.182
 2503SOL     OW 8407   4.814   5.117   4.778
 2503SOL    HW1 8408   4.777   5.124   4.871
 2503SOL    HW2 8409   4.897   5.172   4.771
 2504SOL     OW 8410   1.869   4.406   3.856
 2504SOL    HW1 8411   1.776   4.370   3.849
 2504SOL    HW2 8412   1.924   4.346   3.913
 2505SOL     OW 8413   4.667   5.693   3.923
 2505SOL    HW1 8414   4.579   5.713   3.966
 2505SOL    HW2 8415   4.721   5.635   3.984
 2506SOL     OW 8416   0.308   2.124   6.477
 2506SOL    HW1 8417   0.246   2.196   6.445
 2506SOL    HW2 8418   0.287   2.038   6.430
 2507SOL     OW 8419   0.136   6.000   0.649
 2507SOL    HW1 8420   0.199   6.063   0.693
 2507SOL    HW2 8421   0.118   6.030   0.556
 2508SOL     OW 8422   2.389   2.527   2.747
 2508SOL    HW1 8423   2.463   2.532   2.815
 2508SOL    HW2 8424   2.312   2.476   2.784
 2509SOL     OW 8425   5.278   2.197   3.634
 2509SOL    HW1 8426   5.299   2.099   3.640
 2509SOL    HW2 8427   5.331   2.238   3.559
 2510SOL     OW 8428   3.713   5.907   1.009
 2510SOL    HW1 8429   3.691   5.980   1.074
 2510SOL    HW2 8430   3.727   5.947   0.918
 2511SOL     OW 8431   1.701   0.093   4.257
 2511SOL    HW1 8432   1.661   0.005   4.282
 2511SOL    HW2 8433   1.786   0.078   4.206
 2512SOL     OW 8434   4.796   2.821   4.690
 2512SOL    HW1 8435   4.885   2.798   4.651
 2512SOL    HW2 8436   4.809   2.866   4.779
 2513SOL     OW 8437   0.371   4.168   0.865
 2513SOL    HW1 8438   0.393   4.103   0.792
 2513SOL    HW2 8439   0.283   4.144   0.906
 2514SOL     OW 8440   1.044   1.498   3.826
 2514SOL    HW1 8441   1.086   1.587   3.842
 2514SOL    HW2 8442   1.064   1.438   3.904
 2515SOL     OW 8443   1.357   5.136   0.539
 2515SOL    HW1 8444   1.389   5.192   0.615
 2515SOL    HW2 8445   1.270   5.172   0.505
 2516SOL     OW 8446   4.802   6.500   4.051
 2516SOL    HW1 8447   4.785   6.492   4.149
 2516SOL    HW2 8448   4.899   6.483   4.033
 2517SOL     OW 8449   2.533   4.855   0.405
 2517SOL    HW1 8450   2.626   4.891   0.396
 2517SOL    HW2 8451   2.515   4.834   0.501
 2518SOL     OW 8452   2.584   2.230   6.526
 2518SOL    HW1 8453   2.657   2.298   6.532
 2518SOL    HW2 8454   2.526   2.236   6.607
 2519SOL     OW 8455   5.042   3.836   4.359
 2519SOL    HW1 8456   5.001   3.758   4.311
 2519SOL    HW2 8457   5.114   3.876   4.301
 2520SOL     OW 8458   2.060   4.405   2.401
 2520SOL    HW1 8459   2.158   4.391   2.390
 2520SOL    HW2 8460   2.043   4.493   2.446
 2521SOL     OW 8461   5.402   6.456   5.168
 2521SOL    HW1 8462   5.347   6.395   5.111
 2521SOL    HW2 8463   5.363   6.548   5.166
 2522SOL     OW 8464   1.327   2.988   4.744
 2522SOL    HW1 8465   1.244   3.020   4.699
 2522SOL    HW2 8466   1.380   3.067   4.775
 2523SOL     OW 8467   0.414   3.083   6.760
 2523SOL    HW1 8468   0.343   3.043   6.703
 2523SOL    HW2 8469   0.455   3.012   6.818
 2524SOL     OW 8470   1.265   6.614   5.216
 2524SOL    HW1 8471   1.178   6.652   5.185
 2524SOL    HW2 8472   1.283   6.643   5.310
 2525SOL     OW 8473   1.564   4.374   3.135
 2525SOL    HW1 8474   1.640   4.311   3.121
 2525SOL    HW2 8475   1.525   4.360   3.226
 2526SOL     OW 8476   6.698   1.328   5.318
 2526SOL    HW1 8477   6.646   1.323   5.233
 2526SOL    HW2 8478   6.718   1.235   5.350
 2527SOL     OW 8479   6.599   6.671   4.022
 2527SOL    HW1 8480   6.663   6.734   3.977
 2527SOL    HW2 8481   6.650   6.602   4.073
 2528SOL     OW 8482   6.476   5.792   0.179
 2528SOL    HW1 8483   6.554   5.781   0.241
 2528SOL    HW2 8484   6.417   5.866   0.212
 2529SOL     OW 8485   5.177   3.559   4.732
 2529SOL    HW1 8486   5.194   3.584   4.636
 2529SOL    HW2 8487   5.080   3.538   4.744
 2530SOL     OW 8488   0.187   0.544   4.102
 2530SOL    HW1 8489   0.145   0.634   4.111
 2530SOL    HW2 8490   0.116   0.477   4.078
 2531SOL     OW 8491   4.262   0.808   6.129
 2531SOL    HW1 8492   4.248   0.835   6.224
 2531SOL    HW2 8493   4.354   0.835   6.100
 2532SOL     OW 8494   1.657   4.826   6.003
 2532SOL    HW1 8495   1.595   4.788   5.935
 2532SOL    HW2 8496   1.606   4.850   6.085
 2533SOL     OW 8497   5.797   6.787   5.235
 2533SOL    HW1 8498   5.761   6.880   5.227
 2533SOL    HW2 8499   5.727   6.721   5.209
 2534SOL     OW 8500   0.457   1.955   3.986
 2534SOL    HW1 8501   0.440   1.953   3.888
 2534SOL    HW2 8502   0.447   2.049   4.019
 2535SOL     OW 8503   2.193   1.351   2.673
 2535SOL    HW1 8504   2.163   1.262   2.707
 2535SOL    HW2 8505   2.292   1.351   2.663
 2536SOL     OW 8506   6.608   0.747   3.788
 2536SOL    HW1 8507   6.623   0.719   3.883
 2536SOL    HW2 8508   6.696   0.770   3.746
 2537SOL     OW 8509   4.135   5.220   1.009
 2537SOL    HW1 8510   4.202   5.224   0.935
 2537SOL    HW2 8511   4.054   5.272   0.982
 2538SOL     OW 8512   2.023   4.315   4.852
 2538SOL    HW1 8513   2.041   4.405   4.810
 2538SOL    HW2 8514   2.008   4.248   4.779
 2539SOL     OW 8515   2.735   0.343   5.242
 2539SOL    HW1 8516   2.639   0.367   5.254
 2539SOL    HW2 8517   2.742   0.254   5.196
 2540SOL     OW 8518   5.881   2.245   2.352
 2540SOL    HW1 8519   5.834   2.160   2.332
 2540SOL    HW2 8520   5.980   2.230   2.351
 2541SOL     OW 8521   1.004   6.272   5.670
 2541SOL    HW1 8522   1.047   6.243   5.585
 2541SOL    HW2 8523   0.925   6.213   5.689
 2542SOL     OW 8524   3.526   1.881   4.172
 2542SOL    HW1 8525   3.483   1.826   4.243
 2542SOL    HW2 8526   3.463   1.953   4.143
 2543SOL     OW 8527   0.048   1.826   4.640
 2543SOL    HW1 8528   0.061   1.924   4.655
 2543SOL    HW2 8529   0.071   1.776   4.724
 2544SOL     OW 8530   6.347   5.599   1.941
 2544SOL    HW1 8531   6.400   5.515   1.956
 2544SOL    HW2 8532   6.259   5.592   1.987
 2545SOL     OW 8533   6.730   1.867   1.319
 2545SOL    HW1 8534   6.683   1.955   1.319
 2545SOL    HW2 8535   6.828   1.881   1.301
 2546SOL     OW 8536   6.851   4.119   2.604
 2546SOL    HW1 8537   6.882   4.206   2.642
 2546SOL    HW2 8538   6.775   4.085   2.659
 2547SOL     OW 8539   5.738   3.464   1.250
 2547SOL    HW1 8540   5.707   3.406   1.174
 2547SOL    HW2 8541   5.794   3.539   1.215
 2548SOL     OW 8542   0.693   6.500   5.234
 2548SOL    HW1 8543   0.660   6.582   5.187
 2548SOL    HW2 8544   0.623   6.468   5.298
 2549SOL     OW 8545   3.165   3.018   0.130
 2549SOL    HW1 8546   3.194   3.113   0.139
 2549SOL    HW2 8547   3.197   2.982   0.042
 2550SOL     OW 8548   3.753   6.662   6.695
 2550SOL    HW1 8549   3.804   6.588   6.739
 2550SOL    HW2 8550   3.814   6.739   6.677
 2551SOL     OW 8551   3.007   5.609   0.631
 2551SOL    HW1 8552   2.918   5.652   0.617
 2551SOL    HW2 8553   2.998   5.510   0.619
 2552SOL     OW 8554   2.010   6.043   1.493
 2552SOL    HW1 8555   2.010   5.944   1.505
 2552SOL    HW2 8556   2.084   6.083   1.547
 2553SOL     OW 8557   4.239   1.459   6.679
 2553SOL    HW1 8558   4.290   1.474   6.594
 2553SOL    HW2 8559   4.177   1.382   6.668
 2554SOL     OW 8560   1.804   5.780   1.621
 2554SOL    HW1 8561   1.833   5.746   1.711
 2554SOL    HW2 8562   1.877   5.766   1.555
 2555SOL     OW 8563   5.087   6.495   5.272
 2555SOL    HW1 8564   5.143   6.421   5.233
 2555SOL    HW2 8565   4.993   6.486   5.239
 2556SOL     OW 8566   4.053   0.603   0.858
 2556SOL    HW1 8567   4.049   0.585   0.760
 2556SOL    HW2 8568   3.992   0.540   0.906
 2557SOL     OW 8569   3.258   0.034   6.621
 2557SOL    HW1 8570   3.315   6.991   6.672
 2557SOL    HW2 8571   3.169   7.016   6.604
 2558SOL     OW 8572   5.509   3.572   7.014
 2558SOL    HW1 8573   5.530   3.478   6.988
 2558SOL    HW2 8574   5.506   3.629   6.932
 2559SOL     OW 8575   1.079   4.535   4.793
 2559SOL    HW1 8576   0.996   4.559   4.843
 2559SOL    HW2 8577   1.067   4.557   4.696
 2560SOL     OW 8578   4.971   1.986   3.787
 2560SOL    HW1 8579   4.902   1.999   3.715
 2560SOL    HW2 8580   5.048   2.047   3.770
 2561SOL     OW 8581   3.729   0.461   4.827
 2561SOL    HW1 8582   3.810   0.457   4.886
 2561SOL    HW2 8583   3.747   0.523   4.751
 2562SOL     OW 8584   3.271   6.432   3.627
 2562SOL    HW1 8585   3.217   6.348   3.639
 2562SOL    HW2 8586   3.215   6.511   3.652
 2563SOL     OW 8587   3.419   1.979   6.747
 2563SOL    HW1 8588   3.352   1.937   6.808
 2563SOL    HW2 8589   3.382   2.063   6.708
 2564SOL     OW 8590   2.214   2.076   0.308
 2564SOL    HW1 8591   2.271   1.997   0.332
 2564SOL    HW2 8592   2.166   2.057   0.222
 2565SOL     OW 8593   0.694   1.989   0.325
 2565SOL    HW1 8594   0.678   1.905   0.377
 2565SOL    HW2 8595   0.744   1.968   0.241
 2566SOL     OW 8596   2.233   0.870   0.790
 2566SOL    HW1 8597   2.272   0.908   0.706
 2566SOL    HW2 8598   2.136   0.896   0.796
 2567SOL     OW 8599   2.115   0.649   0.255
 2567SOL    HW1 8600   2.044   0.610   0.197
 2567SOL    HW2 8601   2.073   0.688   0.337
 2568SOL     OW 8602   3.049   6.289   0.811
 2568SOL    HW1 8603   3.033   6.275   0.713
 2568SOL    HW2 8604   3.141   6.260   0.835
 2569SOL     OW 8605   1.626   0.100   0.898
 2569SOL    HW1 8606   1.700   0.042   0.863
 2569SOL    HW2 8607   1.578   0.052   0.971
 2570SOL     OW 8608   6.734   6.709   5.780
 2570SOL    HW1 8609   6.819   6.657   5.784
 2570SOL    HW2 8610   6.694   6.702   5.688
 2571SOL     OW 8611   3.522   2.929   3.681
 2571SOL    HW1 8612   3.572   2.903   3.764
 2571SOL    HW2 8613   3.581   2.919   3.601
 2572SOL     OW 8614   2.014   6.260   1.751
 2572SOL    HW1 8615   2.111   6.264   1.777
 2572SOL    HW2 8616   1.983   6.165   1.754
 2573SOL     OW 8617   6.914   2.077   4.629
 2573SOL    HW1 8618   6.965   2.161   4.609
 2573SOL    HW2 8619   6.833   2.073   4.571
 2574SOL     OW 8620   0.852   3.760   2.285
 2574SOL    HW1 8621   0.759   3.735   2.311
 2574SOL    HW2 8622   0.857   3.859   2.274
 2575SOL     OW 8623   5.726   3.625   0.330
 2575SOL    HW1 8624   5.796   3.560   0.362
 2575SOL    HW2 8625   5.690   3.676   0.408
 2576SOL     OW 8626   2.443   6.914   4.023
 2576SOL    HW1 8627   2.511   6.980   4.054
 2576SOL    HW2 8628   2.483   6.854   3.954
 2577SOL     OW 8629   2.838   6.031   1.830
 2577SOL    HW1 8630   2.867   6.007   1.923
 2577SOL    HW2 8631   2.850   5.951   1.771
 2578SOL     OW 8632   4.765   1.960   4.265
 2578SOL    HW1 8633   4.671   1.992   4.256
 2578SOL    HW2 8634   4.821   1.999   4.192
 2579SOL     OW 8635   6.813   2.138   6.114
 2579SOL    HW1 8636   6.902   2.099   6.138
 2579SOL    HW2 8637   6.827   2.222   6.061
 2580SOL     OW 8638   1.318   2.540   6.312
 2580SOL    HW1 8639   1.341   2.634   6.337
 2580SOL    HW2 8640   1.271   2.495   6.388
 2581SOL     OW 8641   6.806   6.478   4.026
 2581SOL    HW1 8642   6.835   6.397   3.975
 2581SOL    HW2 8643   6.879   6.506   4.088
 2582SOL     OW 8644   0.361   5.485   2.761
 2582SOL    HW1 8645   0.433   5.420   2.737
 2582SOL    HW2 8646   0.338   5.541   2.681
 2583SOL     OW 8647   2.211   0.611   0.615
 2583SOL    HW1 8648   2.211   0.516   0.583
 2583SOL    HW2 8649   2.229   0.612   0.713
 2584SOL     OW 8650   4.804   6.882   1.818
 2584SOL    HW1 8651   4.733   6.842   1.876
 2584SOL    HW2 8652   4.824   6.975   1.849
 2585SOL     OW 8653   3.506   1.293   1.639
 2585SOL    HW1 8654   3.540   1.267   1.730
 2585SOL    HW2 8655   3.406   1.293   1.640
 2586SOL     OW 8656   6.829   2.798   4.239
 2586SOL    HW1 8657   6.885   2.768   4.162
 2586SOL    HW2 8658   6.732   2.788   4.215
 2587SOL     OW 8659   5.450   6.393   3.169
 2587SOL    HW1 8660   5.469   6.295   3.161
 2587SOL    HW2 8661   5.356   6.411   3.140
 2588SOL     OW 8662   5.344   1.246   1.578
 2588SOL    HW1 8663   5.298   1.160   1.599
 2588SOL    HW2 8664   5.354   1.301   1.661
 2589SOL     OW 8665   6.642   6.822   0.817
 2589SOL    HW1 8666   6.583   6.756   0.769
 2589SOL    HW2 8667   6.631   6.912   0.776
 2590SOL     OW 8668   4.205   6.199   2.603
 2590SOL    HW1 8669   4.115   6.243   2.601
 2590SOL    HW2 8670   4.276   6.266   2.582
 2591SOL     OW 8671   5.893   0.587   1.769
 2591SOL    HW1 8672   5.945   0.651   1.825
 2591SOL    HW2 8673   5.856   0.635   1.690
 2592SOL     OW 8674   3.867   5.848   1.474
 2592SOL    HW1 8675   3.809   5.806   1.543
 2592SOL    HW2 8676   3.838   5.816   1.383
 2593SOL     OW 8677   2.973   6.409   2.787
 2593SOL    HW1 8678   2.877   6.422   2.759
 2593SOL    HW2 8679   2.976   6.389   2.885
 2594SOL     OW 8680   1.175   6.424   6.387
 2594SOL    HW1 8681   1.090   6.373   6.399
 2594SOL    HW2 8682   1.253   6.362   6.391
 2595SOL     OW 8683   6.472   3.602   4.241
 2595SOL    HW1 8684   6.542   3.669   4.265
 2595SOL    HW2 8685   6.382   3.641   4.261
 2596SOL     OW 8686   3.889   1.968   2.046
 2596SOL    HW1 8687   3.886   2.054   1.994
 2596SOL    HW2 8688   3.795   1.934   2.057
 2597SOL     OW 8689   2.410   3.056   6.678
 2597SOL    HW1 8690   2.472   3.102   6.614
 2597SOL    HW2 8691   2.336   3.013   6.627
 2598SOL     OW 8692   6.771   2.898   2.836
 2598SOL    HW1 8693   6.825   2.825   2.795
 2598SOL    HW2 8694   6.771   2.887   2.936
 2599SOL     OW 8695   4.425   5.151   6.949
 2599SOL    HW1 8696   4.446   5.106   0.013
 2599SOL    HW2 8697   4.352   5.101   6.903
 2600SOL     OW 8698   6.661   3.466   3.525
 2600SOL    HW1 8699   6.751   3.445   3.563
 2600SOL    HW2 8700   6.603   3.385   3.531
 2601SOL     OW 8701   3.873   2.849   5.783
 2601SOL    HW1 8702   3.798   2.804   5.831
 2601SOL    HW2 8703   3.955   2.792   5.789
 2602SOL     OW 8704   6.422   5.956   4.670
 2602SOL    HW1 8705   6.364   5.912   4.738
 2602SOL    HW2 8706   6.421   6.055   4.683
 2603SOL     OW 8707   3.399   2.926   1.079
 2603SOL    HW1 8708   3.384   3.013   1.127
 2603SOL    HW2 8709   3.394   2.850   1.144
 2604SOL     OW 8710   6.196   0.852   1.480
 2604SOL    HW1 8711   6.171   0.759   1.456
 2604SOL    HW2 8712   6.278   0.878   1.429
 2605SOL     OW 8713   4.482   4.894   3.969
 2605SOL    HW1 8714   4.572   4.884   3.926
 2605SOL    HW2 8715   4.451   4.805   4.002
 2606SOL     OW 8716   6.802   4.489   1.083
 2606SOL    HW1 8717   6.834   4.440   1.163
 2606SOL    HW2 8718   6.738   4.431   1.031
 2607SOL     OW 8719   0.811   1.446   4.358
 2607SOL    HW1 8720   0.825   1.362   4.306
 2607SOL    HW2 8721   0.882   1.457   4.426
 2608SOL     OW 8722   4.841   0.628   1.170
 2608SOL    HW1 8723   4.876   0.667   1.085
 2608SOL    HW2 8724   4.741   0.638   1.173
 2609SOL     OW 8725   0.404   2.121   3.707
 2609SOL    HW1 8726   0.340   2.060   3.660
 2609SOL    HW2 8727   0.400   2.212   3.665
 2610SOL     OW 8728   5.974   5.860   4.831
 2610SOL    HW1 8729   5.893   5.815   4.793
 2610SOL    HW2 8730   6.007   5.929   4.767
 2611SOL     OW 8731   4.149   6.380   1.426
 2611SOL    HW1 8732   4.086   6.429   1.366
 2611SOL    HW2 8733   4.142   6.282   1.408
 2612SOL     OW 8734   6.406   6.528   4.314
 2612SOL    HW1 8735   6.364   6.439   4.334
 2612SOL    HW2 8736   6.371   6.562   4.227
 2613SOL     OW 8737   4.013   0.599   1.582
 2613SOL    HW1 8738   4.014   0.599   1.682
 2613SOL    HW2 8739   4.078   0.668   1.549
 2614SOL     OW 8740   0.189   6.476   6.885
 2614SOL    HW1 8741   0.190   6.530   6.801
 2614SOL    HW2 8742   0.094   6.455   6.910
 2615SOL     OW 8743   5.626   5.075   2.052
 2615SOL    HW1 8744   5.527   5.072   2.062
 2615SOL    HW2 8745   5.664   4.983   2.054
 2616SOL     OW 8746   3.866   2.941   2.888
 2616SOL    HW1 8747   3.821   2.914   2.803
 2616SOL    HW2 8748   3.964   2.922   2.882
 2617SOL     OW 8749   4.049   0.276   1.293
 2617SOL    HW1 8750   3.994   0.255   1.374
 2617SOL    HW2 8751   4.117   0.346   1.316
 2618SOL     OW 8752   0.934   0.565   0.984
 2618SOL    HW1 8753   0.856   0.627   0.976
 2618SOL    HW2 8754   0.918   0.502   1.060
 2619SOL     OW 8755   4.754   1.957   1.589
 2619SOL    HW1 8756   4.806   1.898   1.527
 2619SOL    HW2 8757   4.657   1.931   1.586
 2620SOL     OW 8758   1.554   4.380   4.381
 2620SOL    HW1 8759   1.529   4.401   4.286
 2620SOL    HW2 8760   1.654   4.384   4.391
 2621SOL     OW 8761   0.933   5.135   3.771
 2621SOL    HW1 8762   0.985   5.179   3.845
 2621SOL    HW2 8763   0.849   5.095   3.808
 2622SOL     OW 8764   2.623   3.284   6.596
 2622SOL    HW1 8765   2.570   3.352   6.646
 2622SOL    HW2 8766   2.715   3.278   6.635
 2623SOL     OW 8767   2.970   1.034   5.567
 2623SOL    HW1 8768   3.045   1.056   5.629
 2623SOL    HW2 8769   2.972   1.096   5.488
 2624SOL     OW 8770   6.383   2.114   3.781
 2624SOL    HW1 8771   6.361   2.032   3.834
 2624SOL    HW2 8772   6.341   2.108   3.691
 2625SOL     OW 8773   4.012   1.148   5.300
 2625SOL    HW1 8774   4.045   1.112   5.213
 2625SOL    HW2 8775   3.934   1.209   5.284
 2626SOL     OW 8776   2.443   6.584   2.670
 2626SOL    HW1 8777   2.364   6.555   2.617
 2626SOL    HW2 8778   2.416   6.603   2.764
 2627SOL     OW 8779   6.998   6.806   4.235
 2627SOL    HW1 8780   7.013   6.882   4.299
 2627SOL    HW2 8781   6.930   6.833   4.167
 2628SOL     OW 8782   4.065   5.922   6.363
 2628SOL    HW1 8783   3.971   5.888   6.353
 2628SOL    HW2 8784   4.109   5.925   6.274
 2629SOL     OW 8785   3.514   3.944   1.217
 2629SOL    HW1 8786   3.509   3.844   1.214
 2629SOL    HW2 8787   3.450   3.978   1.286
 2630SOL     OW 8788   2.819   2.342   2.631
 2630SOL    HW1 8789   2.888   2.324   2.561
 2630SOL    HW2 8790   2.728   2.345   2.590
 2631SOL     OW 8791   4.651   6.161   4.303
 2631SOL    HW1 8792   4.750   6.170   4.304
 2631SOL    HW2 8793   4.611   6.238   4.252
 2632SOL     OW 8794   4.451   2.194   0.124
 2632SOL    HW1 8795   4.407   2.215   0.212
 2632SOL    HW2 8796   4.519   2.122   0.137
 2633SOL     OW 8797   6.023   2.112   6.679
 2633SOL    HW1 8798   6.011   2.136   6.776
 2633SOL    HW2 8799   6.114   2.139   6.649
 2634SOL     OW 8800   2.650   4.738   1.064
 2634SOL    HW1 8801   2.692   4.783   1.143
 2634SOL    HW2 8802   2.712   4.744   0.985
 2635SOL     OW 8803   5.048   4.458   4.372
 2635SOL    HW1 8804   5.081   4.541   4.328
 2635SOL    HW2 8805   5.004   4.482   4.459
 2636SOL     OW 8806   5.824   0.440   5.041
 2636SOL    HW1 8807   5.910   0.444   4.991
 2636SOL    HW2 8808   5.817   0.521   5.100
 2637SOL     OW 8809   5.110   6.668   2.823
 2637SOL    HW1 8810   5.034   6.707   2.771
 2637SOL    HW2 8811   5.195   6.680   2.772
 2638SOL     OW 8812   5.458   6.274   0.877
 2638SOL    HW1 8813   5.520   6.226   0.938
 2638SOL    HW2 8814   5.367   6.234   0.882
 2639SOL     OW 8815   6.327   6.012   0.616
 2639SOL    HW1 8816   6.388   5.991   0.692
 2639SOL    HW2 8817   6.249   5.949   0.617
 2640SOL     OW 8818   0.304   6.568   5.210
 2640SOL    HW1 8819   0.327   6.490   5.268
 2640SOL    HW2 8820   0.349   6.650   5.245
 2641SOL     OW 8821   5.567   4.931   0.058
 2641SOL    HW1 8822   5.501   4.860   0.081
 2641SOL    HW2 8823   5.544   5.016   0.106
 2642SOL     OW 8824   5.274   6.695   4.007
 2642SOL    HW1 8825   5.361   6.667   3.967
 2642SOL    HW2 8826   5.200   6.675   3.943
 2643SOL     OW 8827   0.880   0.528   2.327
 2643SOL    HW1 8828   0.850   0.438   2.298
 2643SOL    HW2 8829   0.802   0.578   2.365
 2644SOL     OW 8830   0.217   4.594   6.342
 2644SOL    HW1 8831   0.297   4.654   6.347
 2644SOL    HW2 8832   0.137   4.647   6.316
 2645SOL     OW 8833   5.394   5.810   5.637
 2645SOL    HW1 8834   5.361   5.784   5.728
 2645SOL    HW2 8835   5.325   5.868   5.593
 2646SOL     OW 8836   6.698   6.430   0.358
 2646SOL    HW1 8837   6.615   6.411   0.306
 2646SOL    HW2 8838   6.706   6.365   0.433
 2647SOL     OW 8839   3.656   1.754   1.016
 2647SOL    HW1 8840   3.716   1.773   0.938
 2647SOL    HW2 8841   3.585   1.824   1.021
 2648SOL     OW 8842   4.759   0.572   2.440
 2648SOL    HW1 8843   4.779   0.568   2.538
 2648SOL    HW2 8844   4.799   0.493   2.394
 2649SOL     OW 8845   3.342   1.794   5.965
 2649SOL    HW1 8846   3.314   1.881   6.005
 2649SOL    HW2 8847   3.306   1.787   5.871
 2650SOL     OW 8848   0.455   6.221   2.696
 2650SOL    HW1 8849   0.534   6.167   2.725
 2650SOL    HW2 8850   0.374   6.162   2.692
 2651SOL     OW 8851   6.448   1.436   3.181
 2651SOL    HW1 8852   6.412   1.529   3.167
 2651SOL    HW2 8853   6.546   1.436   3.161
 2652SOL     OW 8854   2.883   3.290   2.888
 2652SOL    HW1 8855   2.939   3.209   2.868
 2652SOL    HW2 8856   2.917   3.368   2.837
 2653SOL     OW 8857   6.632   6.561   6.343
 2653SOL    HW1 8858   6.720   6.541   6.301
 2653SOL    HW2 8859   6.639   6.645   6.398
 2654SOL     OW 8860   5.614   2.791   5.795
 2654SOL    HW1 8861   5.652   2.704   5.762
 2654SOL    HW2 8862   5.683   2.862   5.789
 2655SOL     OW 8863   4.746   6.357   4.652
 2655SOL    HW1 8864   4.846   6.354   4.655
 2655SOL    HW2 8865   4.712   6.410   4.729
 2656SOL     OW 8866   5.564   3.321   4.002
 2656SOL    HW1 8867   5.479   3.369   3.980
 2656SOL    HW2 8868   5.556   3.276   4.091
 2657SOL     OW 8869   1.753   3.615   6.494
 2657SOL    HW1 8870   1.822   3.625   6.422
 2657SOL    HW2 8871   1.665   3.649   6.460
 2658SOL     OW 8872   5.993   4.026   6.092
 2658SOL    HW1 8873   5.977   4.056   6.186
 2658SOL    HW2 8874   6.023   4.104   6.036
 2659SOL     OW 8875   6.783   2.794   3.894
 2659SOL    HW1 8876   6.833   2.867   3.846
 2659SOL    HW2 8877   6.848   2.732   3.937
 2660SOL     OW 8878   6.832   2.464   2.884
 2660SOL    HW1 8879   6.745   2.415   2.880
 2660SOL    HW2 8880   6.826   2.547   2.830
 2661SOL     OW 8881   4.167   6.322   0.947
 2661SOL    HW1 8882   4.082   6.367   0.974
 2661SOL    HW2 8883   4.244   6.362   0.996
 2662SOL     OW 8884   3.736   6.625   4.252
 2662SOL    HW1 8885   3.656   6.592   4.303
 2662SOL    HW2 8886   3.705   6.679   4.174
 2663SOL     OW 8887   1.074   4.416   2.569
 2663SOL    HW1 8888   1.093   4.476   2.492
 2663SOL    HW2 8889   1.082   4.468   2.654
 2664SOL     OW 8890   4.095   3.701   2.315
 2664SOL    HW1 8891   4.151   3.648   2.379
 2664SOL    HW2 8892   3.999   3.697   2.343
 2665SOL     OW 8893   3.881   1.107   4.326
 2665SOL    HW1 8894   3.787   1.105   4.290
 2665SOL    HW2 8895   3.945   1.085   4.252
 2666SOL     OW 8896   5.212   5.339   1.119
 2666SOL    HW1 8897   5.295   5.395   1.124
 2666SOL    HW2 8898   5.134   5.398   1.099
 2667SOL     OW 8899   2.249   5.155   3.846
 2667SOL    HW1 8900   2.258   5.123   3.941
 2667SOL    HW2 8901   2.226   5.078   3.787
 2668SOL     OW 8902   0.251   2.854   5.705
 2668SOL    HW1 8903   0.310   2.931   5.682
 2668SOL    HW2 8904   0.223   2.861   5.801
 2669SOL     OW 8905   4.310   4.768   5.180
 2669SOL    HW1 8906   4.310   4.706   5.101
 2669SOL    HW2 8907   4.352   4.855   5.154
 2670SOL     OW 8908   1.297   1.225   6.882
 2670SOL    HW1 8909   1.232   1.287   6.839
 2670SOL    HW2 8910   1.365   1.196   6.814
 2671SOL     OW 8911   2.329   3.423   6.409
 2671SOL    HW1 8912   2.393   3.372   6.351
 2671SOL    HW2 8913   2.265   3.359   6.452
 2672SOL     OW 8914   1.645   5.270   1.114
 2672SOL    HW1 8915   1.683   5.329   1.043
 2672SOL    HW2 8916   1.719   5.233   1.170
 2673SOL     OW 8917   3.748   2.109   2.784
 2673SOL    HW1 8918   3.797   2.136   2.868
 2673SOL    HW2 8919   3.729   2.011   2.787
 2674SOL     OW 8920   5.326   4.790   5.280
 2674SOL    HW1 8921   5.369   4.717   5.333
 2674SOL    HW2 8922   5.306   4.868   5.340
 2675SOL     OW 8923   0.350   4.517   5.696
 2675SOL    HW1 8924   0.278   4.480   5.637
 2675SOL    HW2 8925   0.409   4.578   5.643
 2676SOL     OW 8926   4.160   1.044   1.995
 2676SOL    HW1 8927   4.131   1.058   1.900
 2676SOL    HW2 8928   4.192   0.949   2.006
 2677SOL     OW 8929   2.428   5.108   1.781
 2677SOL    HW1 8930   2.496   5.085   1.711
 2677SOL    HW2 8931   2.434   5.043   1.856
 2678SOL     OW 8932   0.748   4.692   5.624
 2678SOL    HW1 8933   0.709   4.754   5.693
 2678SOL    HW2 8934   0.682   4.620   5.603
 2679SOL     OW 8935   3.076   4.421   0.846
 2679SOL    HW1 8936   2.984   4.389   0.821
 2679SOL    HW2 8937   3.103   4.377   0.932
 2680SOL     OW 8938   1.230   1.846   1.692
 2680SOL    HW1 8939   1.261   1.756   1.721
 2680SOL    HW2 8940   1.300   1.890   1.636
 2681SOL     OW 8941   1.734   2.372   3.114
 2681SOL    HW1 8942   1.634   2.367   3.115
 2681SOL    HW2 8943   1.767   2.388   3.207
 2682SOL     OW 8944   5.428   2.623   2.649
 2682SOL    HW1 8945   5.348   2.651   2.703
 2682SOL    HW2 8946   5.414   2.647   2.553
 2683SOL     OW 8947   1.053   6.090   1.510
 2683SOL    HW1 8948   1.010   6.051   1.591
 2683SOL    HW2 8949   1.130   6.148   1.538
 2684SOL     OW 8950   2.432   6.322   2.865
 2684SOL    HW1 8951   2.444   6.245   2.927
 2684SOL    HW2 8952   2.418   6.406   2.917
 2685SOL     OW 8953   5.650   5.618   4.863
 2685SOL    HW1 8954   5.733   5.582   4.907
 2685SOL    HW2 8955   5.616   5.551   4.796
 2686SOL     OW 8956   2.288   2.962   4.713
 2686SOL    HW1 8957   2.320   2.986   4.804
 2686SOL    HW2 8958   2.233   3.037   4.676
 2687SOL     OW 8959   4.249   5.499   2.626
 2687SOL    HW1 8960   4.284   5.561   2.696
 2687SOL    HW2 8961   4.158   5.529   2.597
 2688SOL     OW 8962   3.786   4.874   6.281
 2688SOL    HW1 8963   3.704   4.840   6.236
 2688SOL    HW2 8964   3.763   4.907   6.372
 2689SOL     OW 8965   7.017   3.579   4.094
 2689SOL    HW1 8966   0.059   3.650   4.066
 2689SOL    HW2 8967   6.934   3.622   4.130
 2690SOL     OW 8968   3.997   3.877   3.557
 2690SOL    HW1 8969   3.919   3.923   3.600
 2690SOL    HW2 8970   4.040   3.816   3.623
 2691SOL     OW 8971   1.817   6.228   2.194
 2691SOL    HW1 8972   1.889   6.162   2.217
 2691SOL    HW2 8973   1.741   6.180   2.149
 2692SOL     OW 8974   0.446   6.509   3.942
 2692SOL    HW1 8975   0.383   6.490   4.018
 2692SOL    HW2 8976   0.394   6.547   3.865
 2693SOL     OW 8977   2.011   4.187   3.099
 2693SOL    HW1 8978   2.000   4.088   3.112
 2693SOL    HW2 8979   2.108   4.210   3.101
 2694SOL     OW 8980   1.717   6.893   3.500
 2694SOL    HW1 8981   1.803   6.845   3.516
 2694SOL    HW2 8982   1.644   6.850   3.551
 2695SOL     OW 8983   4.471   2.125   3.022
 2695SOL    HW1 8984   4.567   2.119   3.048
 2695SOL    HW2 8985   4.456   2.208   2.969
 2696SOL     OW 8986   4.108   3.924   5.636
 2696SOL    HW1 8987   4.109   3.907   5.735
 2696SOL    HW2 8988   4.201   3.945   5.606
 2697SOL     OW 8989   2.732   1.746   4.232
 2697SOL    HW1 8990   2.636   1.719   4.231
 2697SOL    HW2 8991   2.779   1.704   4.154
 2698SOL     OW 8992   2.049   3.624   0.476
 2698SOL    HW1 8993   1.971   3.573   0.511
 2698SOL    HW2 8994   2.057   3.711   0.524
 2699SOL     OW 8995   3.327   6.051   1.692
 2699SOL    HW1 8996   3.406   5.995   1.664
 2699SOL    HW2 8997   3.354   6.109   1.769
 2700SOL     OW 8998   1.990   3.428   2.594
 2700SOL    HW1 8999   2.058   3.414   2.667
 2700SOL    HW2 9000   1.992   3.523   2.565
 2701SOL     OW 9001   3.916   6.870   6.628
 2701SOL    HW1 9002   3.892   6.882   6.532
 2701SOL    HW2 9003   3.979   6.942   6.656
 2702SOL     OW 9004   6.979   0.339   3.733
 2702SOL    HW1 9005   6.911   0.268   3.718
 2702SOL    HW2 9006   6.980   0.402   3.655
 2703SOL     OW 9007   2.050   1.780   2.673
 2703SOL    HW1 9008   2.028   1.692   2.716
 2703SOL    HW2 9009   1.991   1.793   2.593
 2704SOL     OW 9010   2.420   5.130   1.377
 2704SOL    HW1 9011   2.449   5.128   1.473
 2704SOL    HW2 9012   2.336   5.076   1.367
 2705SOL     OW 9013   6.276   5.023   3.498
 2705SOL    HW1 9014   6.182   5.040   3.529
 2705SOL    HW2 9015   6.306   5.100   3.442
 2706SOL     OW 9016   6.812   1.476   1.956
 2706SOL    HW1 9017   6.770   1.481   1.866
 2706SOL    HW2 9018   6.909   1.498   1.949
 2707SOL     OW 9019   2.120   1.027   6.083
 2707SOL    HW1 9020   2.038   1.007   6.136
 2707SOL    HW2 9021   2.173   1.099   6.128
 2708SOL     OW 9022   1.620   2.866   1.522
 2708SOL    HW1 9023   1.668   2.937   1.573
 2708SOL    HW2 9024   1.574   2.907   1.443
 2709SOL     OW 9025   4.291   6.200   0.454
 2709SOL    HW1 9026   4.293   6.106   0.487
 2709SOL    HW2 9027   4.290   6.262   0.533
 2710SOL     OW 9028   0.154   4.234   3.230
 2710SOL    HW1 9029   0.189   4.322   3.263
 2710SOL    HW2 9030   0.066   4.248   3.184
 2711SOL     OW 9031   1.672   0.640   2.392
 2711SOL    HW1 9032   1.651   0.735   2.371
 2711SOL    HW2 9033   1.649   0.621   2.488
 2712SOL     OW 9034   3.095   4.377   0.365
 2712SOL    HW1 9035   3.045   4.463   0.367
 2712SOL    HW2 9036   3.064   4.321   0.289
 2713SOL     OW 9037   2.228   3.144   5.383
 2713SOL    HW1 9038   2.194   3.233   5.353
 2713SOL    HW2 9039   2.204   3.075   5.316
 2714SOL     OW 9040   5.187   0.110   5.824
 2714SOL    HW1 9041   5.173   0.141   5.918
 2714SOL    HW2 9042   5.263   0.161   5.784
 2715SOL     OW 9043   5.878   1.110   6.691
 2715SOL    HW1 9044   5.796   1.127   6.746
 2715SOL    HW2 9045   5.867   1.154   6.602
 2716SOL     OW 9046   0.551   6.438   2.440
 2716SOL    HW1 9047   0.570   6.354   2.388
 2716SOL    HW2 9048   0.630   6.498   2.437
 2717SOL     OW 9049   0.934   0.429   2.806
 2717SOL    HW1 9050   0.921   0.503   2.872
 2717SOL    HW2 9051   0.844   0.392   2.780
 2718SOL     OW 9052   2.647   4.586   3.531
 2718SOL    HW1 9053   2.609   4.676   3.514
 2718SOL    HW2 9054   2.747   4.591   3.528
 2719SOL     OW 9055   4.224   5.260   1.681
 2719SOL    HW1 9056   4.126   5.241   1.685
 2719SOL    HW2 9057   4.267   5.231   1.767
 2720SOL     OW 9058   1.957   6.221   4.035
 2720SOL    HW1 9059   1.875   6.269   4.005
 2720SOL    HW2 9060   1.970   6.237   4.133
 2721SOL     OW 9061   3.795   7.018   3.957
 2721SOL    HW1 9062   3.875   6.979   4.005
 2721SOL    HW2 9063   3.820   0.084   3.919
 2722SOL     OW 9064   1.542   6.182   2.371
 2722SOL    HW1 9065   1.587   6.185   2.282
 2722SOL    HW2 9066   1.458   6.128   2.364
 2723SOL     OW 9067   1.454   1.784   5.878
 2723SOL    HW1 9068   1.475   1.735   5.793
 2723SOL    HW2 9069   1.523   1.856   5.892
 2724SOL     OW 9070   3.809   5.919   6.284
 2724SOL    HW1 9071   3.835   5.896   6.190
 2724SOL    HW2 9072   3.749   5.848   6.320
 2725SOL     OW 9073   3.884   5.054   4.069
 2725SOL    HW1 9074   3.956   4.988   4.047
 2725SOL    HW2 9075   3.795   5.010   4.063
 2726SOL     OW 9076   4.625   5.427   1.969
 2726SOL    HW1 9077   4.540   5.442   2.018
 2726SOL    HW2 9078   4.641   5.329   1.960
 2727SOL     OW 9079   1.715   5.379   2.637
 2727SOL    HW1 9080   1.771   5.314   2.688
 2727SOL    HW2 9081   1.677   5.333   2.556
 2728SOL     OW 9082   3.118   6.782   5.527
 2728SOL    HW1 9083   3.102   6.847   5.453
 2728SOL    HW2 9084   3.030   6.749   5.562
 2729SOL     OW 9085   5.784   5.273   2.894
 2729SOL    HW1 9086   5.852   5.214   2.852
 2729SOL    HW2 9087   5.816   5.368   2.892
 2730SOL     OW 9088   1.782   6.150   1.020
 2730SOL    HW1 9089   1.797   6.146   1.118
 2730SOL    HW2 9090   1.863   6.114   0.972
 2731SOL     OW 9091   3.112   3.864   1.865
 2731SOL    HW1 9092   3.192   3.900   1.914
 2731SOL    HW2 9093   3.110   3.764   1.872
 2732SOL     OW 9094   5.808   1.775   2.378
 2732SOL    HW1 9095   5.907   1.776   2.363
 2732SOL    HW2 9096   5.777   1.681   2.391
 2733SOL     OW 9097   1.247   6.948   6.109
 2733SOL    HW1 9098   1.309   7.011   6.157
 2733SOL    HW2 9099   1.238   6.864   6.163
 2734SOL     OW 9100   2.143   5.735   4.137
 2734SOL    HW1 9101   2.061   5.683   4.117
 2734SOL    HW2 9102   2.195   5.690   4.209
 2735SOL     OW 9103   1.593   5.027   2.522
 2735SOL    HW1 9104   1.613   5.099   2.456
 2735SOL    HW2 9105   1.621   4.938   2.484
 2736SOL     OW 9106   4.570   0.318   5.206
 2736SOL    HW1 9107   4.537   0.260   5.280
 2736SOL    HW2 9108   4.648   0.371   5.238
 2737SOL     OW 9109   4.821   3.671   6.395
 2737SOL    HW1 9110   4.779   3.761   6.393
 2737SOL    HW2 9111   4.768   3.610   6.454
 2738SOL     OW 9112   5.756   5.113   4.682
 2738SOL    HW1 9113   5.812   5.164   4.747
 2738SOL    HW2 9114   5.664   5.152   4.679
 2739SOL     OW 9115   5.651   3.695   0.909
 2739SOL    HW1 9116   5.729   3.677   0.970
 2739SOL    HW2 9117   5.566   3.677   0.959
 2740SOL     OW 9118   5.720   2.360   3.316
 2740SOL    HW1 9119   5.680   2.345   3.225
 2740SOL    HW2 9120   5.817   2.339   3.314
 2741SOL     OW 9121   0.372   2.608   6.274
 2741SOL    HW1 9122   0.400   2.524   6.226
 2741SOL    HW2 9123   0.300   2.654   6.221
 2742SOL     OW 9124   1.905   6.811   6.373
 2742SOL    HW1 9125   1.891   6.812   6.274
 2742SOL    HW2 9126   1.993   6.766   6.393
 2743SOL     OW 9127   5.358   5.104   1.136
 2743SOL    HW1 9128   5.294   5.181   1.141
 2743SOL    HW2 9129   5.307   5.019   1.125
 2744SOL     OW 9130   4.162   1.395   5.960
 2744SOL    HW1 9131   4.074   1.429   5.992
 2744SOL    HW2 9132   4.148   1.329   5.887
 2745SOL     OW 9133   2.665   6.622   1.024
 2745SOL    HW1 9134   2.581   6.635   0.971
 2745SOL    HW2 9135   2.695   6.528   1.016
 2746SOL     OW 9136   1.672   2.308   6.468
 2746SOL    HW1 9137   1.682   2.224   6.521
 2746SOL    HW2 9138   1.600   2.296   6.399
 2747SOL     OW 9139   4.259   6.432   4.472
 2747SOL    HW1 9140   4.213   6.364   4.416
 2747SOL    HW2 9141   4.358   6.416   4.469
 2748SOL     OW 9142   3.962   1.123   3.291
 2748SOL    HW1 9143   3.895   1.077   3.234
 2748SOL    HW2 9144   3.998   1.203   3.242
 2749SOL     OW 9145   4.617   5.504   3.726
 2749SOL    HW1 9146   4.541   5.447   3.758
 2749SOL    HW2 9147   4.642   5.570   3.798
 2750SOL     OW 9148   0.477   5.992   2.494
 2750SOL    HW1 9149   0.525   6.077   2.473
 2750SOL    HW2 9150   0.380   6.010   2.509
 2751SOL     OW 9151   1.464   0.023   6.252
 2751SOL    HW1 9152   1.526   6.991   6.308
 2751SOL    HW2 9153   1.517   0.093   6.203
 2752SOL     OW 9154   6.070   6.278   5.716
 2752SOL    HW1 9155   6.109   6.236   5.633
 2752SOL    HW2 9156   6.027   6.207   5.771
 2753SOL     OW 9157   2.731   5.582   5.727
 2753SOL    HW1 9158   2.715   5.488   5.757
 2753SOL    HW2 9159   2.770   5.635   5.802
 2754SOL     OW 9160   1.371   0.585   4.572
 2754SOL    HW1 9161   1.358   0.489   4.596
 2754SOL    HW2 9162   1.358   0.597   4.474
 2755SOL     OW 9163   3.370   6.216   1.943
 2755SOL    HW1 9164   3.309   6.294   1.931
 2755SOL    HW2 9165   3.402   6.213   2.038
 2756SOL     OW 9166   0.232   2.854   5.973
 2756SOL    HW1 9167   0.323   2.875   5.936
 2756SOL    HW2 9168   0.209   2.921   6.043
 2757SOL     OW 9169   4.324   3.395   6.693
 2757SOL    HW1 9170   4.402   3.352   6.738
 2757SOL    HW2 9171   4.301   3.344   6.610
 2758SOL     OW 9172   6.612   6.058   2.275
 2758SOL    HW1 9173   6.619   6.145   2.323
 2758SOL    HW2 9174   6.520   6.021   2.286
 2759SOL     OW 9175   3.003   3.811   5.609
 2759SOL    HW1 9176   3.102   3.821   5.600
 2759SOL    HW2 9177   2.982   3.720   5.645
 2760SOL     OW 9178   5.083   6.188   3.211
 2760SOL    HW1 9179   5.004   6.248   3.224
 2760SOL    HW2 9180   5.137   6.185   3.295
 2761SOL     OW 9181   1.451   3.195   3.315
 2761SOL    HW1 9182   1.455   3.277   3.372
 2761SOL    HW2 9183   1.530   3.193   3.253
 2762SOL     OW 9184   2.593   2.565   0.702
 2762SOL    HW1 9185   2.601   2.471   0.733
 2762SOL    HW2 9186   2.675   2.616   0.729
 2763SOL     OW 9187   5.529   2.277   4.745
 2763SOL    HW1 9188   5.445   2.325   4.717
 2763SOL    HW2 9189   5.505   2.200   4.803
 2764SOL     OW 9190   1.023   3.345   2.301
 2764SOL    HW1 9191   1.100   3.400   2.269
 2764SOL    HW2 9192   1.051   3.249   2.306
 2765SOL     OW 9193   6.569   6.595   6.704
 2765SOL    HW1 9194   6.572   6.652   6.623
 2765SOL    HW2 9195   6.620   6.639   6.778
 2766SOL     OW 9196   5.242   1.195   6.602
 2766SOL    HW1 9197   5.245   1.150   6.692
 2766SOL    HW2 9198   5.165   1.161   6.550
 2767SOL     OW 9199   6.466   5.375   6.157
 2767SOL    HW1 9200   6.399   5.329   6.100
 2767SOL    HW2 9201   6.558   5.356   6.123
 2768SOL     OW 9202   4.322   0.063   1.300
 2768SOL    HW1 9203   4.256   0.037   1.370
 2768SOL    HW2 9204   4.349   0.159   1.313
 2769SOL     OW 9205   1.137   4.469   5.920
 2769SOL    HW1 9206   1.209   4.532   5.948
 2769SOL    HW2 9207   1.067   4.519   5.868
 2770SOL     OW 9208   3.128   6.849   0.577
 2770SOL    HW1 9209   3.085   6.864   0.487
 2770SOL    HW2 9210   3.217   6.805   0.564
 2771SOL     OW 9211   4.379   6.774   4.713
 2771SOL    HW1 9212   4.291   6.792   4.756
 2771SOL    HW2 9213   4.448   6.756   4.784
 2772SOL     OW 9214   4.550   0.131   3.480
 2772SOL    HW1 9215   4.520   0.219   3.441
 2772SOL    HW2 9216   4.647   0.117   3.460
 2773SOL     OW 9217   5.728   2.941   5.082
 2773SOL    HW1 9218   5.757   2.877   5.153
 2773SOL    HW2 9219   5.786   2.931   5.001
 2774SOL     OW 9220   5.815   1.848   4.250
 2774SOL    HW1 9221   5.823   1.774   4.184
 2774SOL    HW2 9222   5.906   1.878   4.278
 2775SOL     OW 9223   0.429   3.534   4.011
 2775SOL    HW1 9224   0.513   3.483   3.993
 2775SOL    HW2 9225   0.414   3.600   3.938
 2776SOL     OW 9226   4.990   4.405   6.232
 2776SOL    HW1 9227   5.082   4.421   6.197
 2776SOL    HW2 9228   4.981   4.448   6.322
 2777SOL     OW 9229   3.090   2.073   6.352
 2777SOL    HW1 9230   3.021   2.045   6.285
 2777SOL    HW2 9231   3.161   2.003   6.357
 2778SOL     OW 9232   3.221   6.889   5.777
 2778SOL    HW1 9233   3.147   6.918   5.838
 2778SOL    HW2 9234   3.182   6.863   5.688
 2779SOL     OW 9235   5.625   0.552   1.510
 2779SOL    HW1 9236   5.666   0.478   1.563
 2779SOL    HW2 9237   5.673   0.637   1.528
 2780SOL     OW 9238   6.579   1.835   4.632
 2780SOL    HW1 9239   6.553   1.837   4.729
 2780SOL    HW2 9240   6.580   1.928   4.596
 2781SOL     OW 9241   5.701   1.539   3.264
 2781SOL    HW1 9242   5.736   1.447   3.246
 2781SOL    HW2 9243   5.601   1.535   3.274
 2782SOL     OW 9244   4.752   0.611   6.229
 2782SOL    HW1 9245   4.841   0.599   6.186
 2782SOL    HW2 9246   4.753   0.690   6.289
 2783SOL     OW 9247   5.804   4.172   1.493
 2783SOL    HW1 9248   5.859   4.255   1.491
 2783SOL    HW2 9249   5.863   4.092   1.487
 2784SOL     OW 9250   1.260   1.869   1.089
 2784SOL    HW1 9251   1.231   1.818   1.008
 2784SOL    HW2 9252   1.307   1.953   1.060
 2785SOL     OW 9253   6.261   2.913   1.871
 2785SOL    HW1 9254   6.309   2.990   1.913
 2785SOL    HW2 9255   6.164   2.919   1.892
 2786SOL     OW 9256   6.947   5.992   0.028
 2786SOL    HW1 9257   6.881   6.042   0.084
 2786SOL    HW2 9258   7.016   6.057   7.017
 2787SOL     OW 9259   6.497   5.326   6.580
 2787SOL    HW1 9260   6.531   5.398   6.520
 2787SOL    HW2 9261   6.575   5.274   6.617
 2788SOL     OW 9262   2.946   6.205   5.685
 2788SOL    HW1 9263   2.969   6.280   5.748
 2788SOL    HW2 9264   2.986   6.120   5.719
 2789SOL     OW 9265   1.056   2.178   5.257
 2789SOL    HW1 9266   1.047   2.110   5.330
 2789SOL    HW2 9267   1.044   2.270   5.294
 2790SOL     OW 9268   1.646   5.623   1.933
 2790SOL    HW1 9269   1.723   5.675   1.970
 2790SOL    HW2 9270   1.642   5.533   1.977
 2791SOL     OW 9271   0.219   3.986   3.319
 2791SOL    HW1 9272   0.201   4.079   3.286
 2791SOL    HW2 9273   0.204   3.921   3.244
 2792SOL     OW 9274   3.390   1.455   5.463
 2792SOL    HW1 9275   3.359   1.529   5.403
 2792SOL    HW2 9276   3.311   1.410   5.504
 2793SOL     OW 9277   3.607   4.421   0.742
 2793SOL    HW1 9278   3.584   4.360   0.666
 2793SOL    HW2 9279   3.556   4.506   0.732
 2794SOL     OW 9280   0.802   2.789   0.117
 2794SOL    HW1 9281   0.767   2.735   0.193
 2794SOL    HW2 9282   0.748   2.873   0.107
 2795SOL     OW 9283   0.986   4.975   1.709
 2795SOL    HW1 9284   0.977   4.908   1.635
 2795SOL    HW2 9285   1.057   5.041   1.686
 2796SOL     OW 9286   1.911   5.914   6.185
 2796SOL    HW1 9287   1.886   5.960   6.270
 2796SOL    HW2 9288   1.982   5.967   6.138
 2797SOL     OW 9289   5.347   6.299   3.420
 2797SOL    HW1 9290   5.279   6.254   3.477
 2797SOL    HW2 9291   5.324   6.396   3.411
 2798SOL     OW 9292   4.998   0.845   1.907
 2798SOL    HW1 9293   4.913   0.827   1.857
 2798SOL    HW2 9294   5.059   0.767   1.900
 2799SOL     OW 9295   3.544   6.173   4.945
 2799SOL    HW1 9296   3.636   6.135   4.947
 2799SOL    HW2 9297   3.545   6.266   4.981
 2800SOL     OW 9298   5.881   6.838   6.747
 2800SOL    HW1 9299   5.810   6.770   6.768
 2800SOL    HW2 9300   5.911   6.827   6.652
 2801SOL     OW 9301   0.693   4.763   4.885
 2801SOL    HW1 9302   0.703   4.785   4.982
 2801SOL    HW2 9303   0.744   4.830   4.831
 2802SOL     OW 9304   1.502   5.570   5.534
 2802SOL    HW1 9305   1.592   5.557   5.493
 2802SOL    HW2 9306   1.468   5.482   5.568
 2803SOL     OW 9307   3.480   2.104   5.973
 2803SOL    HW1 9308   3.471   2.066   6.066
 2803SOL    HW2 9309   3.413   2.176   5.959
 2804SOL     OW 9310   0.389   2.416   3.835
 2804SOL    HW1 9311   0.368   2.514   3.834
 2804SOL    HW2 9312   0.327   2.369   3.897
 2805SOL     OW 9313   3.877   3.385   1.031
 2805SOL    HW1 9314   3.953   3.441   1.063
 2805SOL    HW2 9315   3.905   3.333   0.951
 2806SOL     OW 9316   0.572   3.932   6.144
 2806SOL    HW1 9317   0.599   3.968   6.233
 2806SOL    HW2 9318   0.645   3.948   6.078
 2807SOL     OW 9319   3.805   6.958   3.697
 2807SOL    HW1 9320   3.820   6.965   3.796
 2807SOL    HW2 9321   3.790   0.027   3.660
 2808SOL     OW 9322   0.239   5.400   5.874
 2808SOL    HW1 9323   0.313   5.424   5.810
 2808SOL    HW2 9324   0.154   5.386   5.822
 2809SOL     OW 9325   6.872   5.454   1.901
 2809SOL    HW1 9326   6.885   5.540   1.949
 2809SOL    HW2 9327   6.794   5.461   1.839
 2810SOL     OW 9328   2.871   6.423   3.309
 2810SOL    HW1 9329   2.897   6.462   3.221
 2810SOL    HW2 9330   2.914   6.476   3.383
 2811SOL     OW 9331   0.948   0.865   1.597
 2811SOL    HW1 9332   0.988   0.953   1.572
 2811SOL    HW2 9333   1.022   0.799   1.615
 2812SOL     OW 9334   0.510   1.619   0.912
 2812SOL    HW1 9335   0.598   1.618   0.864
 2812SOL    HW2 9336   0.490   1.712   0.943
 2813SOL     OW 9337   0.681   1.895   1.288
 2813SOL    HW1 9338   0.628   1.957   1.229
 2813SOL    HW2 9339   0.626   1.871   1.368
 2814SOL     OW 9340   2.348   4.627   0.346
 2814SOL    HW1 9341   2.385   4.537   0.371
 2814SOL    HW2 9342   2.420   4.682   0.303
 2815SOL     OW 9343   0.701   4.879   5.194
 2815SOL    HW1 9344   0.756   4.939   5.135
 2815SOL    HW2 9345   0.616   4.926   5.218
 2816SOL     OW 9346   0.900   6.227   6.158
 2816SOL    HW1 9347   0.963   6.209   6.083
 2816SOL    HW2 9348   0.914   6.160   6.231
 2817SOL     OW 9349   4.231   0.454   1.986
 2817SOL    HW1 9350   4.258   0.392   2.060
 2817SOL    HW2 9351   4.291   0.533   1.984
 2818SOL     OW 9352   1.647   0.733   0.323
 2818SOL    HW1 9353   1.713   0.673   0.277
 2818SOL    HW2 9354   1.573   0.677   0.362
 2819SOL     OW 9355   0.703   0.799   0.612
 2819SOL    HW1 9356   0.790   0.765   0.577
 2819SOL    HW2 9357   0.638   0.807   0.537
 2820SOL     OW 9358   1.807   2.587   0.413
 2820SOL    HW1 9359   1.726   2.595   0.471
 2820SOL    HW2 9360   1.885   2.629   0.458
 2821SOL     OW 9361   2.776   3.300   6.059
 2821SOL    HW1 9362   2.742   3.380   6.109
 2821SOL    HW2 9363   2.699   3.243   6.032
 2822SOL     OW 9364   4.440   2.638   0.557
 2822SOL    HW1 9365   4.341   2.620   0.550
 2822SOL    HW2 9366   4.455   2.718   0.615
 2823SOL     OW 9367   5.139   2.331   1.597
 2823SOL    HW1 9368   5.159   2.297   1.689
 2823SOL    HW2 9369   5.133   2.431   1.599
 2824SOL     OW 9370   1.381   3.388   4.578
 2824SOL    HW1 9371   1.447   3.437   4.521
 2824SOL    HW2 9372   1.428   3.315   4.628
 2825SOL     OW 9373   5.342   1.947   5.832
 2825SOL    HW1 9374   5.368   1.935   5.928
 2825SOL    HW2 9375   5.311   2.042   5.817
 2826SOL     OW 9376   2.809   2.908   6.938
 2826SOL    HW1 9377   2.762   2.839   6.884
 2826SOL    HW2 9378   2.877   2.864   6.998
 2827SOL     OW 9379   5.936   0.945   6.346
 2827SOL    HW1 9380   5.874   1.005   6.397
 2827SOL    HW2 9381   6.005   1.001   6.300
 2828SOL     OW 9382   1.604   3.219   0.602
 2828SOL    HW1 9383   1.669   3.261   0.539
 2828SOL    HW2 9384   1.654   3.161   0.667
 2829SOL     OW 9385   3.120   3.911   2.721
 2829SOL    HW1 9386   3.216   3.931   2.703
 2829SOL    HW2 9387   3.092   3.959   2.804
 2830SOL     OW 9388   3.156   5.128   5.757
 2830SOL    HW1 9389   3.234   5.087   5.709
 2830SOL    HW2 9390   3.148   5.225   5.732
 2831SOL     OW 9391   5.544   1.964   1.623
 2831SOL    HW1 9392   5.516   2.060   1.619
 2831SOL    HW2 9393   5.529   1.929   1.716
 2832SOL     OW 9394   0.833   3.991   2.127
 2832SOL    HW1 9395   0.747   4.026   2.090
 2832SOL    HW2 9396   0.900   3.985   2.053
 2833SOL     OW 9397   2.121   2.492   2.033
 2833SOL    HW1 9398   2.087   2.432   1.962
 2833SOL    HW2 9399   2.050   2.558   2.058
 2834SOL     OW 9400   3.448   5.838   5.512
 2834SOL    HW1 9401   3.426   5.930   5.544
 2834SOL    HW2 9402   3.491   5.844   5.421
 2835SOL     OW 9403   6.842   0.459   0.656
 2835SOL    HW1 9404   6.760   0.450   0.599
 2835SOL    HW2 9405   6.830   0.408   0.741
 2836SOL     OW 9406   3.685   5.633   2.230
 2836SOL    HW1 9407   3.669   5.573   2.308
 2836SOL    HW2 9408   3.611   5.699   2.222
 2837SOL     OW 9409   5.282   4.221   1.887
 2837SOL    HW1 9410   5.194   4.174   1.898
 2837SOL    HW2 9411   5.347   4.159   1.844
 2838SOL     OW 9412   5.870   4.625   6.508
 2838SOL    HW1 9413   5.876   4.710   6.561
 2838SOL    HW2 9414   5.952   4.570   6.524
 2839SOL     OW 9415   6.346   3.160   4.954
 2839SOL    HW1 9416   6.271   3.151   4.888
 2839SOL    HW2 9417   6.378   3.069   4.980
 2840SOL     OW 9418   6.892   6.278   3.846
 2840SOL    HW1 9419   6.969   6.222   3.815
 2840SOL    HW2 9420   6.808   6.246   3.801
 2841SOL     OW 9421   6.274   3.942   2.633
 2841SOL    HW1 9422   6.304   3.856   2.591
 2841SOL    HW2 9423   6.345   4.011   2.619
 2842SOL     OW 9424   1.200   0.141   3.686
 2842SOL    HW1 9425   1.231   0.226   3.729
 2842SOL    HW2 9426   1.252   0.064   3.722
 2843SOL     OW 9427   1.877   2.810   3.954
 2843SOL    HW1 9428   1.788   2.840   3.987
 2843SOL    HW2 9429   1.944   2.883   3.968
 2844SOL     OW 9430   5.030   4.206   0.154
 2844SOL    HW1 9431   5.127   4.212   0.177
 2844SOL    HW2 9432   5.014   4.249   0.065
 2845SOL     OW 9433   3.011   2.144   3.228
 2845SOL    HW1 9434   2.940   2.074   3.221
 2845SOL    HW2 9435   3.062   2.148   3.142
 2846SOL     OW 9436   6.319   0.356   0.131
 2846SOL    HW1 9437   6.273   0.419   0.069
 2846SOL    HW2 9438   6.280   0.364   0.222
 2847SOL     OW 9439   4.328   4.389   1.497
 2847SOL    HW1 9440   4.259   4.322   1.526
 2847SOL    HW2 9441   4.417   4.363   1.534
 2848SOL     OW 9442   0.384   4.206   5.576
 2848SOL    HW1 9443   0.443   4.153   5.515
 2848SOL    HW2 9444   0.350   4.287   5.527
 2849SOL     OW 9445   4.629   0.435   2.032
 2849SOL    HW1 9446   4.657   0.345   1.998
 2849SOL    HW2 9447   4.708   0.495   2.038
 2850SOL     OW 9448   2.076   0.492   2.182
 2850SOL    HW1 9449   2.014   0.428   2.138
 2850SOL    HW2 9450   2.025   0.551   2.245
 2851SOL     OW 9451   3.627   3.048   1.228
 2851SOL    HW1 9452   3.597   3.136   1.266
 2851SOL    HW2 9453   3.546   2.993   1.206
 2852SOL     OW 9454   6.390   4.728   6.965
 2852SOL    HW1 9455   6.360   4.805   6.909
 2852SOL    HW2 9456   6.350   4.644   6.929
 2853SOL     OW 9457   0.166   4.134   5.950
 2853SOL    HW1 9458   0.225   4.078   6.007
 2853SOL    HW2 9459   0.207   4.225   5.939
 2854SOL     OW 9460   4.136   1.041   5.564
 2854SOL    HW1 9461   4.047   1.060   5.523
 2854SOL    HW2 9462   4.207   1.044   5.494
 2855SOL     OW 9463   2.075   1.870   5.720
 2855SOL    HW1 9464   2.126   1.896   5.638
 2855SOL    HW2 9465   2.075   1.770   5.729
 2856SOL     OW 9466   1.081   5.344   3.994
 2856SOL    HW1 9467   1.070   5.411   3.920
 2856SOL    HW2 9468   1.159   5.285   3.972
 2857SOL     OW 9469   6.961   4.073   0.588
 2857SOL    HW1 9470   7.021   4.081   0.668
 2857SOL    HW2 9471   6.866   4.066   0.619
 2858SOL     OW 9472   4.561   4.786   2.467
 2858SOL    HW1 9473   4.498   4.734   2.410
 2858SOL    HW2 9474   4.638   4.819   2.412
 2859SOL     OW 9475   5.299   5.173   0.782
 2859SOL    HW1 9476   5.321   5.080   0.813
 2859SOL    HW2 9477   5.264   5.226   0.860
 2860SOL     OW 9478   0.535   0.201   2.279
 2860SOL    HW1 9479   0.565   0.229   2.370
 2860SOL    HW2 9480   0.589   0.122   2.250
 2861SOL     OW 9481   4.552   5.478   6.102
 2861SOL    HW1 9482   4.514   5.569   6.111
 2861SOL    HW2 9483   4.607   5.472   6.019
 2862SOL     OW 9484   4.143   2.753   0.133
 2862SOL    HW1 9485   4.057   2.702   0.128
 2862SOL    HW2 9486   4.214   2.695   0.173
 2863SOL     OW 9487   5.841   0.255   5.253
 2863SOL    HW1 9488   5.819   0.321   5.181
 2863SOL    HW2 9489   5.924   0.205   5.229
 2864SOL     OW 9490   3.623   4.755   0.255
 2864SOL    HW1 9491   3.546   4.811   0.285
 2864SOL    HW2 9492   3.684   4.810   0.198
 2865SOL     OW 9493   5.308   5.697   4.433
 2865SOL    HW1 9494   5.373   5.716   4.359
 2865SOL    HW2 9495   5.280   5.783   4.475
 2866SOL     OW 9496   4.499   4.344   0.368
 2866SOL    HW1 9497   4.449   4.260   0.389
 2866SOL    HW2 9498   4.595   4.323   0.353
 2867SOL     OW 9499   5.483   6.338   1.789
 2867SOL    HW1 9500   5.516   6.363   1.880
 2867SOL    HW2 9501   5.471   6.421   1.734
 2868SOL     OW 9502   1.051   0.685   5.714
 2868SOL    HW1 9503   1.063   0.592   5.748
 2868SOL    HW2 9504   1.003   0.682   5.626
 2869SOL     OW 9505   6.144   5.370   4.678
 2869SOL    HW1 9506   6.059   5.421   4.669
 2869SOL    HW2 9507   6.185   5.389   4.768
 2870SOL     OW 9508   6.701   2.141   1.778
 2870SOL    HW1 9509   6.750   2.120   1.693
 2870SOL    HW2 9510   6.684   2.057   1.828
 2871SOL     OW 9511   5.630   1.727   2.605
 2871SOL    HW1 9512   5.698   1.688   2.543
 2871SOL    HW2 9513   5.545   1.746   2.554
 2872SOL     OW 9514   2.958   2.258   2.393
 2872SOL    HW1 9515   3.001   2.322   2.331
 2872SOL    HW2 9516   2.886   2.208   2.345
 2873SOL     OW 9517   1.153   6.974   1.350
 2873SOL    HW1 9518   1.122   7.003   1.440
 2873SOL    HW2 9519   1.103   6.893   1.321
 2874SOL     OW 9520   2.982   0.728   2.604
 2874SOL    HW1 9521   2.920   0.721   2.526
 2874SOL    HW2 9522   2.948   0.796   2.668
 2875SOL     OW 9523   2.451   6.547   2.999
 2875SOL    HW1 9524   2.543   6.580   3.018
 2875SOL    HW2 9525   2.384   6.601   3.051
 2876SOL     OW 9526   1.887   0.426   2.562
 2876SOL    HW1 9527   1.807   0.459   2.613
 2876SOL    HW2 9528   1.971   0.459   2.606
 2877SOL     OW 9529   1.436   2.343   6.842
 2877SOL    HW1 9530   1.424   2.263   6.783
 2877SOL    HW2 9531   1.433   2.426   6.786
 2878SOL     OW 9532   4.107   3.274   3.694
 2878SOL    HW1 9533   4.083   3.277   3.791
 2878SOL    HW2 9534   4.073   3.189   3.654
 2879SOL     OW 9535   4.236   4.181   0.090
 2879SOL    HW1 9536   4.224   4.089   0.052
 2879SOL    HW2 9537   4.189   4.188   0.178
 2880SOL     OW 9538   2.265   0.799   3.814
 2880SOL    HW1 9539   2.281   0.788   3.716
 2880SOL    HW2 9540   2.192   0.866   3.827
 2881SOL     OW 9541   4.721   5.655   6.420
 2881SOL    HW1 9542   4.808   5.673   6.373
 2881SOL    HW2 9543   4.708   5.722   6.492
 2882SOL     OW 9544   4.792   6.173   0.341
 2882SOL    HW1 9545   4.703   6.128   0.347
 2882SOL    HW2 9546   4.789   6.260   0.388
 2883SOL     OW 9547   5.899   5.927   3.938
 2883SOL    HW1 9548   5.850   6.011   3.917
 2883SOL    HW2 9549   5.838   5.849   3.927
 2884SOL     OW 9550   6.865   5.131   3.832
 2884SOL    HW1 9551   6.939   5.097   3.773
 2884SOL    HW2 9552   6.798   5.058   3.845
 2885SOL     OW 9553   1.098   2.566   3.438
 2885SOL    HW1 9554   1.015   2.511   3.425
 2885SOL    HW2 9555   1.140   2.542   3.525
 2886SOL     OW 9556   2.039   4.368   5.620
 2886SOL    HW1 9557   2.031   4.280   5.668
 2886SOL    HW2 9558   2.066   4.352   5.525
 2887SOL     OW 9559   0.351   5.673   3.071
 2887SOL    HW1 9560   0.267   5.638   3.113
 2887SOL    HW2 9561   0.390   5.603   3.012
 2888SOL     OW 9562   6.329   6.839   0.259
 2888SOL    HW1 9563   6.288   6.894   0.332
 2888SOL    HW2 9564   6.391   6.896   0.205
 2889SOL     OW 9565   3.409   6.243   2.216
 2889SOL    HW1 9566   3.412   6.174   2.288
 2889SOL    HW2 9567   3.421   6.334   2.256
 2890SOL     OW 9568   1.576   1.605   1.167
 2890SOL    HW1 9569   1.643   1.661   1.118
 2890SOL    HW2 9570   1.561   1.643   1.258
 2891SOL     OW 9571   0.625   2.161   4.679
 2891SOL    HW1 9572   0.591   2.123   4.593
 2891SOL    HW2 9573   0.721   2.189   4.668
 2892SOL     OW 9574   6.510   4.188   3.043
 2892SOL    HW1 9575   6.573   4.185   3.121
 2892SOL    HW2 9576   6.476   4.095   3.025
 2893SOL     OW 9577   6.423   5.167   4.987
 2893SOL    HW1 9578   6.327   5.140   4.980
 2893SOL    HW2 9579   6.465   5.120   5.065
 2894SOL     OW 9580   2.072   6.254   2.643
 2894SOL    HW1 9581   2.052   6.223   2.736
 2894SOL    HW2 9582   2.031   6.344   2.628
 2895SOL     OW 9583   4.346   6.815   6.561
 2895SOL    HW1 9584   4.361   6.721   6.529
 2895SOL    HW2 9585   4.423   6.872   6.533
 2896SOL     OW 9586   5.734   5.903   5.143
 2896SOL    HW1 9587   5.683   5.934   5.063
 2896SOL    HW2 9588   5.720   5.967   5.219
 2897SOL     OW 9589   3.987   5.113   3.269
 2897SOL    HW1 9590   3.985   5.064   3.356
 2897SOL    HW2 9591   3.929   5.193   3.274
 2898SOL     OW 9592   5.294   2.912   2.882
 2898SOL    HW1 9593   5.283   2.869   2.793
 2898SOL    HW2 9594   5.231   2.870   2.947
 2899SOL     OW 9595   6.936   3.990   1.118
 2899SOL    HW1 9596   6.902   3.904   1.080
 2899SOL    HW2 9597   6.966   3.976   1.212
 2900SOL     OW 9598   2.414   2.659   5.844
 2900SOL    HW1 9599   2.317   2.670   5.866
 2900SOL    HW2 9600   2.448   2.575   5.887
 2901SOL     OW 9601   0.825   4.177   3.612
 2901SOL    HW1 9602   0.781   4.264   3.588
 2901SOL    HW2 9603   0.876   4.188   3.697
 2902SOL     OW 9604   6.822   5.978   3.622
 2902SOL    HW1 9605   6.898   5.997   3.684
 2902SOL    HW2 9606   6.857   5.960   3.530
 2903SOL     OW 9607   4.491   4.977   0.414
 2903SOL    HW1 9608   4.570   4.991   0.474
 2903SOL    HW2 9609   4.518   4.996   0.319
 2904SOL     OW 9610   2.368   4.142   5.334
 2904SOL    HW1 9611   2.461   4.170   5.308
 2904SOL    HW2 9612   2.340   4.065   5.277
 2905SOL     OW 9613   0.839   6.014   1.683
 2905SOL    HW1 9614   0.893   5.968   1.753
 2905SOL    HW2 9615   0.821   6.109   1.712
 2906SOL     OW 9616   6.227   6.443   3.887
 2906SOL    HW1 9617   6.323   6.445   3.860
 2906SOL    HW2 9618   6.191   6.350   3.878
 2907SOL     OW 9619   0.407   0.822   3.987
 2907SOL    HW1 9620   0.440   0.789   4.075
 2907SOL    HW2 9621   0.422   0.920   3.980
 2908SOL     OW 9622   4.298   5.984   3.008
 2908SOL    HW1 9623   4.375   6.043   3.032
 2908SOL    HW2 9624   4.264   6.008   2.917
 2909SOL     OW 9625   0.542   6.149   1.708
 2909SOL    HW1 9626   0.577   6.172   1.617
 2909SOL    HW2 9627   0.523   6.234   1.759
 2910SOL     OW 9628   6.818   0.719   4.135
 2910SOL    HW1 9629   6.917   0.731   4.127
 2910SOL    HW2 9630   6.774   0.809   4.139
 2911SOL     OW 9631   6.993   4.349   5.382
 2911SOL    HW1 9632   6.959   4.404   5.306
 2911SOL    HW2 9633   6.932   4.360   5.461
 2912SOL     OW 9634   0.657   0.785   1.699
 2912SOL    HW1 9635   0.579   0.824   1.651
 2912SOL    HW2 9636   0.740   0.796   1.644
 2913SOL     OW 9637   2.771   0.282   1.744
 2913SOL    HW1 9638   2.681   0.299   1.703
 2913SOL    HW2 9639   2.781   0.185   1.765
 2914SOL     OW 9640   4.352   5.586   0.582
 2914SOL    HW1 9641   4.378   5.601   0.487
 2914SOL    HW2 9642   4.366   5.490   0.606
 2915SOL     OW 9643   2.512   0.426   2.350
 2915SOL    HW1 9644   2.548   0.483   2.424
 2915SOL    HW2 9645   2.494   0.482   2.270
 2916SOL     OW 9646   1.408   6.474   0.340
 2916SOL    HW1 9647   1.386   6.571   0.349
 2916SOL    HW2 9648   1.502   6.458   0.370
 2917SOL     OW 9649   2.607   5.951   4.354
 2917SOL    HW1 9650   2.637   6.032   4.302
 2917SOL    HW2 9651   2.514   5.967   4.389
 2918SOL     OW 9652   5.139   2.730   1.865
 2918SOL    HW1 9653   5.108   2.638   1.892
 2918SOL    HW2 9654   5.085   2.798   1.913
 2919SOL     OW 9655   0.882   5.711   4.837
 2919SOL    HW1 9656   0.807   5.648   4.856
 2919SOL    HW2 9657   0.926   5.686   4.751
 2920SOL     OW 9658   1.348   2.751   2.770
 2920SOL    HW1 9659   1.365   2.797   2.682
 2920SOL    HW2 9660   1.409   2.671   2.777
 2921SOL     OW 9661   0.966   0.074   3.927
 2921SOL    HW1 9662   0.901   0.110   3.995
 2921SOL    HW2 9663   1.058   0.107   3.949
 2922SOL     OW 9664   3.699   6.438   3.560
 2922SOL    HW1 9665   3.637   6.457   3.635
 2922SOL    HW2 9666   3.768   6.510   3.554
 2923SOL     OW 9667   6.672   5.769   5.058
 2923SOL    HW1 9668   6.750   5.800   5.113
 2923SOL    HW2 9669   6.600   5.736   5.119
 2924SOL     OW 9670   5.580   1.841   4.820
 2924SOL    HW1 9671   5.640   1.920   4.828
 2924SOL    HW2 9672   5.560   1.805   4.911
 2925SOL     OW 9673   5.165   6.542   6.216
 2925SOL    HW1 9674   5.264   6.555   6.207
 2925SOL    HW2 9675   5.117   6.598   6.149
 2926SOL     OW 9676   6.649   2.496   3.710
 2926SOL    HW1 9677   6.597   2.545   3.640
 2926SOL    HW2 9678   6.670   2.559   3.786
 2927SOL     OW 9679   1.153   1.945   2.085
 2927SOL    HW1 9680   1.228   1.974   2.026
 2927SOL    HW2 9681   1.144   1.845   2.080
 2928SOL     OW 9682   6.638   2.875   0.134
 2928SOL    HW1 9683   6.665   2.956   0.082
 2928SOL    HW2 9684   6.698   2.865   0.213
 2929SOL     OW 9685   2.735   2.401   4.489
 2929SOL    HW1 9686   2.820   2.395   4.437
 2929SOL    HW2 9687   2.678   2.320   4.471
 2930SOL     OW 9688   0.316   4.359   4.998
 2930SOL    HW1 9689   0.318   4.425   5.073
 2930SOL    HW2 9690   0.265   4.398   4.921
 2931SOL     OW 9691   5.137   3.821   5.656
 2931SOL    HW1 9692   5.102   3.738   5.611
 2931SOL    HW2 9693   5.222   3.849   5.613
 2932SOL     OW 9694   6.739   5.468   0.812
 2932SOL    HW1 9695   6.658   5.410   0.826
 2932SOL    HW2 9696   6.808   5.445   0.880
 2933SOL     OW 9697   1.227   0.367   0.480
 2933SOL    HW1 9698   1.242   0.397   0.574
 2933SOL    HW2 9699   1.172   0.435   0.432
 2934SOL     OW 9700   3.931   4.729   0.186
 2934SOL    HW1 9701   3.889   4.647   0.147
 2934SOL    HW2 9702   3.919   4.728   0.285
 2935SOL     OW 9703   0.069   2.201   6.319
 2935SOL    HW1 9704   7.015   2.261   6.341
 2935SOL    HW2 9705   0.068   2.180   6.221
 2936SOL     OW 9706   4.688   6.364   0.542
 2936SOL    HW1 9707   4.668   6.452   0.584
 2936SOL    HW2 9708   4.606   6.328   0.497
 2937SOL     OW 9709   4.837   4.896   2.413
 2937SOL    HW1 9710   4.897   4.819   2.396
 2937SOL    HW2 9711   4.884   4.964   2.469
 2938SOL     OW 9712   6.763   5.503   6.331
 2938SOL    HW1 9713   6.803   5.422   6.288
 2938SOL    HW2 9714   6.815   5.584   6.303
 2939SOL     OW 9715   0.582   5.976   1.901
 2939SOL    HW1 9716   0.678   5.979   1.930
 2939SOL    HW2 9717   0.567   6.044   1.829
 2940SOL     OW 9718   4.250   6.371   3.342
 2940SOL    HW1 9719   4.289   6.315   3.415
 2940SOL    HW2 9720   4.152   6.355   3.335
 2941SOL     OW 9721   1.875   4.266   3.590
 2941SOL    HW1 9722   1.899   4.335   3.658
 2941SOL    HW2 9723   1.781   4.235   3.606
 2942SOL     OW 9724   3.423   1.894   1.059
 2942SOL    HW1 9725   3.383   1.830   0.994
 2942SOL    HW2 9726   3.362   1.973   1.070
 2943SOL     OW 9727   5.927   3.885   3.064
 2943SOL    HW1 9728   6.008   3.894   3.006
 2943SOL    HW2 9729   5.846   3.874   3.006
 2944SOL     OW 9730   2.203   6.033   2.542
 2944SOL    HW1 9731   2.287   6.052   2.592
 2944SOL    HW2 9732   2.142   6.111   2.548
 2945SOL     OW 9733   5.186   4.250   1.209
 2945SOL    HW1 9734   5.136   4.217   1.290
 2945SOL    HW2 9735   5.282   4.264   1.233
 2946SOL     OW 9736   3.847   3.552   5.417
 2946SOL    HW1 9737   3.893   3.632   5.458
 2946SOL    HW2 9738   3.824   3.487   5.489
 2947SOL     OW 9739   6.411   6.637   0.989
 2947SOL    HW1 9740   6.424   6.556   0.933
 2947SOL    HW2 9741   6.363   6.707   0.935
 2948SOL     OW 9742   6.850   3.809   1.798
 2948SOL    HW1 9743   6.822   3.901   1.825
 2948SOL    HW2 9744   6.949   3.806   1.786
 2949SOL     OW 9745   1.216   0.000   0.694
 2949SOL    HW1 9746   1.178   0.022   0.604
 2949SOL    HW2 9747   1.280   6.947   0.686
 2950SOL     OW 9748   6.256   4.782   3.074
 2950SOL    HW1 9749   6.191   4.718   3.115
 2950SOL    HW2 9750   6.216   4.873   3.073
 2951SOL     OW 9751   6.787   1.256   2.124
 2951SOL    HW1 9752   6.790   1.313   2.042
 2951SOL    HW2 9753   6.838   1.172   2.108
 2952SOL     OW 9754   6.080   1.949   4.205
 2952SOL    HW1 9755   6.081   2.032   4.260
 2952SOL    HW2 9756   6.029   1.966   4.120
 2953SOL     OW 9757   1.072   5.460   4.375
 2953SOL    HW1 9758   1.144   5.429   4.313
 2953SOL    HW2 9759   1.051   5.556   4.357
 2954SOL     OW 9760   6.965   4.470   6.387
 2954SOL    HW1 9761   6.971   4.373   6.363
 2954SOL    HW2 9762   7.021   4.523   6.323
 2955SOL     OW 9763   1.825   4.057   5.963
 2955SOL    HW1 9764   1.842   3.991   5.890
 2955SOL    HW2 9765   1.727   4.069   5.975
 2956SOL     OW 9766   5.535   4.997   3.221
 2956SOL    HW1 9767   5.608   5.053   3.183
 2956SOL    HW2 9768   5.574   4.925   3.279
 2957SOL     OW 9769   2.348   5.312   1.100
 2957SOL    HW1 9770   2.376   5.216   1.103
 2957SOL    HW2 9771   2.429   5.371   1.104
 2958SOL     OW 9772   1.409   5.689   2.194
 2958SOL    HW1 9773   1.458   5.666   2.278
 2958SOL    HW2 9774   1.401   5.607   2.136
 2959SOL     OW 9775   6.939   3.774   2.894
 2959SOL    HW1 9776   6.975   3.785   2.801
 2959SOL    HW2 9777   6.843   3.747   2.890
 2960SOL     OW 9778   5.620   0.363   0.616
 2960SOL    HW1 9779   5.571   0.343   0.700
 2960SOL    HW2 9780   5.555   0.390   0.545
 2961SOL     OW 9781   5.368   3.709   2.128
 2961SOL    HW1 9782   5.385   3.776   2.201
 2961SOL    HW2 9783   5.287   3.736   2.076
 2962SOL     OW 9784   6.715   0.268   3.117
 2962SOL    HW1 9785   6.740   0.345   3.176
 2962SOL    HW2 9786   6.617   0.248   3.128
 2963SOL     OW 9787   1.937   0.973   5.371
 2963SOL    HW1 9788   1.995   0.922   5.307
 2963SOL    HW2 9789   1.982   0.978   5.460
 2964SOL     OW 9790   1.397   1.888   0.125
 2964SOL    HW1 9791   1.459   1.953   0.167
 2964SOL    HW2 9792   1.440   1.798   0.119
 2965SOL     OW 9793   0.482   6.775   5.257
 2965SOL    HW1 9794   0.483   6.840   5.180
 2965SOL    HW2 9795   0.575   6.768   5.295
 2966SOL     OW 9796   3.098   6.066   2.545
 2966SOL    HW1 9797   3.114   6.154   2.500
 2966SOL    HW2 9798   3.170   6.001   2.517
 2967SOL     OW 9799   5.297   0.434   5.268
 2967SOL    HW1 9800   5.227   0.426   5.339
 2967SOL    HW2 9801   5.384   0.459   5.310
 2968SOL     OW 9802   1.804   3.718   1.238
 2968SOL    HW1 9803   1.852   3.666   1.309
 2968SOL    HW2 9804   1.805   3.666   1.152
 2969SOL     OW 9805   5.212   3.274   5.080
 2969SOL    HW1 9806   5.205   3.175   5.086
 2969SOL    HW2 9807   5.124   3.315   5.104
 2970SOL     OW 9808   2.352   1.828   4.267
 2970SOL    HW1 9809   2.417   1.787   4.332
 2970SOL    HW2 9810   2.314   1.756   4.208
 2971SOL     OW 9811   5.199   2.628   6.136
 2971SOL    HW1 9812   5.293   2.652   6.161
 2971SOL    HW2 9813   5.138   2.647   6.212
 2972SOL     OW 9814   6.001   5.867   6.746
 2972SOL    HW1 9815   6.058   5.789   6.722
 2972SOL    HW2 9816   5.915   5.862   6.696
 2973SOL     OW 9817   4.396   1.200   2.813
 2973SOL    HW1 9818   4.356   1.290   2.830
 2973SOL    HW2 9819   4.447   1.170   2.893
 2974SOL     OW 9820   4.946   6.726   2.415
 2974SOL    HW1 9821   4.872   6.773   2.367
 2974SOL    HW2 9822   5.032   6.775   2.401
 2975SOL     OW 9823   4.778   4.235   3.664
 2975SOL    HW1 9824   4.772   4.271   3.757
 2975SOL    HW2 9825   4.846   4.162   3.661
 2976SOL     OW 9826   4.130   1.779   2.232
 2976SOL    HW1 9827   4.049   1.815   2.278
 2976SOL    HW2 9828   4.170   1.852   2.175
 2977SOL     OW 9829   1.275   0.778   1.664
 2977SOL    HW1 9830   1.234   0.764   1.574
 2977SOL    HW2 9831   1.361   0.828   1.654
 2978SOL     OW 9832   4.682   5.113   6.704
 2978SOL    HW1 9833   4.625   5.193   6.687
 2978SOL    HW2 9834   4.719   5.079   6.617
 2979SOL     OW 9835   3.069   0.626   4.036
 2979SOL    HW1 9836   3.049   0.529   4.039
 2979SOL    HW2 9837   3.129   0.646   3.959
 2980SOL     OW 9838   3.746   3.656   4.987
 2980SOL    HW1 9839   3.763   3.737   5.042
 2980SOL    HW2 9840   3.678   3.677   4.916
 2981SOL     OW 9841   1.884   1.522   1.383
 2981SOL    HW1 9842   1.844   1.605   1.424
 2981SOL    HW2 9843   1.968   1.498   1.431
 2982SOL     OW 9844   1.411   0.359   1.850
 2982SOL    HW1 9845   1.458   0.335   1.765
 2982SOL    HW2 9846   1.427   0.456   1.871
 2983SOL     OW 9847   6.456   3.401   5.679
 2983SOL    HW1 9848   6.498   3.491   5.670
 2983SOL    HW2 9849   6.427   3.387   5.774
 2984SOL     OW 9850   0.853   5.169   1.262
 2984SOL    HW1 9851   0.754   5.185   1.268
 2984SOL    HW2 9852   0.901   5.238   1.316
 2985SOL     OW 9853   0.636   0.241   5.804
 2985SOL    HW1 9854   0.559   0.261   5.865
 2985SOL    HW2 9855   0.672   0.150   5.824
 2986SOL     OW 9856   3.441   3.588   2.194
 2986SOL    HW1 9857   3.415   3.504   2.242
 2986SOL    HW2 9858   3.540   3.601   2.200
 2987SOL     OW 9859   1.635   6.750   5.146
 2987SOL    HW1 9860   1.632   6.702   5.059
 2987SOL    HW2 9861   1.554   6.808   5.155
 2988SOL     OW 9862   0.338   1.318   6.291
 2988SOL    HW1 9863   0.436   1.301   6.300
 2988SOL    HW2 9864   0.301   1.345   6.380
 2989SOL     OW 9865   4.986   3.571   4.191
 2989SOL    HW1 9866   4.991   3.531   4.283
 2989SOL    HW2 9867   4.999   3.500   4.123
 2990SOL     OW 9868   5.384   1.857   4.638
 2990SOL    HW1 9869   5.350   1.764   4.647
 2990SOL    HW2 9870   5.465   1.870   4.696
 2991SOL     OW 9871   0.473   4.129   1.688
 2991SOL    HW1 9872   0.413   4.205   1.665
 2991SOL    HW2 9873   0.480   4.067   1.611
 2992SOL     OW 9874   0.122   3.728   5.673
 2992SOL    HW1 9875   0.129   3.683   5.584
 2992SOL    HW2 9876   0.037   3.782   5.677
 2993SOL     OW 9877   2.040   3.870   0.608
 2993SOL    HW1 9878   2.105   3.866   0.683
 2993SOL    HW2 9879   2.033   3.965   0.575
 2994SOL     OW 9880   4.220   5.995   6.115
 2994SOL    HW1 9881   4.281   6.022   6.190
 2994SOL    HW2 9882   4.238   6.053   6.036
 2995SOL     OW 9883   5.280   0.881   0.412
 2995SOL    HW1 9884   5.307   0.858   0.506
 2995SOL    HW2 9885   5.216   0.957   0.413
 2996SOL     OW 9886   6.593   0.502   4.264
 2996SOL    HW1 9887   6.612   0.590   4.307
 2996SOL    HW2 9888   6.623   0.428   4.325
 2997SOL     OW 9889   5.414   6.582   4.356
 2997SOL    HW1 9890   5.464   6.666   4.379
 2997SOL    HW2 9891   5.325   6.606   4.317
 2998SOL     OW 9892   2.822   1.335   3.277
 2998SOL    HW1 9893   2.887   1.259   3.273
 2998SOL    HW2 9894   2.731   1.300   3.298
 2999SOL     OW 9895   2.867   4.006   0.728
 2999SOL    HW1 9896   2.827   4.009   0.820
 2999SOL    HW2 9897   2.963   3.977   0.734
 3000SOL     OW 9898   2.821   4.010   5.282
 3000SOL    HW1 9899   2.890   3.939   5.297
 3000SOL    HW2 9900   2.862   4.087   5.232
 3001SOL     OW 9901   6.045   0.556   5.420
 3001SOL    HW1 9902   6.053   0.624   5.493
 3001SOL    HW2 9903   6.063   0.465   5.456
 3002SOL     OW 9904   1.477   2.048   1.528
 3002SOL    HW1 9905   1.456   2.126   1.587
 3002SOL    HW2 9906   1.470   2.076   1.432
 3003SOL     OW 9907   1.477   6.147   0.182
 3003SOL    HW1 9908   1.486   6.225   0.120
 3003SOL    HW2 9909   1.395   6.159   0.238
 3004SOL     OW 9910   2.648   6.411   3.648
 3004SOL    HW1 9911   2.698   6.331   3.616
 3004SOL    HW2 9912   2.681   6.436   3.739
 3005SOL     OW 9913   0.946   2.570   6.598
 3005SOL    HW1 9914   1.001   2.578   6.681
 3005SOL    HW2 9915   0.860   2.620   6.610
 3006SOL     OW 9916   5.157   1.465   5.669
 3006SOL    HW1 9917   5.117   1.394   5.727
 3006SOL    HW2 9918   5.146   1.554   5.714
 3007SOL     OW 9919   5.089   5.593   0.199
 3007SOL    HW1 9920   5.015   5.578   0.263
 3007SOL    HW2 9921   5.053   5.631   0.114
 3008SOL     OW 9922   5.172   3.398   5.812
 3008SOL    HW1 9923   5.125   3.313   5.836
 3008SOL    HW2 9924   5.108   3.474   5.817
 3009SOL     OW 9925   0.651   3.524   2.428
 3009SOL    HW1 9926   0.552   3.527   2.428
 3009SOL    HW2 9927   0.682   3.431   2.452
 3010SOL     OW 9928   3.699   5.603   0.307
 3010SOL    HW1 9929   3.675   5.582   0.212
 3010SOL    HW2 9930   3.728   5.698   0.314
 3011SOL     OW 9931   6.642   0.440   1.190
 3011SOL    HW1 9932   6.566   0.506   1.191
 3011SOL    HW2 9933   6.616   0.359   1.241
 3012SOL     OW 9934   2.333   2.486   5.324
 3012SOL    HW1 9935   2.395   2.450   5.394
 3012SOL    HW2 9936   2.267   2.548   5.367
 3013SOL     OW 9937   1.216   4.301   5.034
 3013SOL    HW1 9938   1.136   4.253   5.001
 3013SOL    HW2 9939   1.187   4.378   5.091
 3014SOL     OW 9940   5.443   6.597   6.162
 3014SOL    HW1 9941   5.539   6.606   6.190
 3014SOL    HW2 9942   5.439   6.578   6.064
 3015SOL     OW 9943   1.279   0.761   6.741
 3015SOL    HW1 9944   1.312   0.705   6.664
 3015SOL    HW2 9945   1.179   0.761   6.742
 3016SOL     OW 9946   1.939   5.854   4.258
 3016SOL    HW1 9947   1.956   5.940   4.306
 3016SOL    HW2 9948   2.020   5.828   4.206
 3017SOL     OW 9949   1.081   5.015   0.821
 3017SOL    HW1 9950   1.127   5.081   0.761
 3017SOL    HW2 9951   0.982   5.019   0.806
 3018SOL     OW 9952   3.575   6.999   0.711
 3018SOL    HW1 9953   3.501   7.018   0.776
 3018SOL    HW2 9954   3.652   6.956   0.759
 3019SOL     OW 9955   2.294   1.228   6.187
 3019SOL    HW1 9956   2.317   1.318   6.150
 3019SOL    HW2 9957   2.378   1.179   6.209
 3020SOL     OW 9958   6.711   4.150   6.755
 3020SOL    HW1 9959   6.792   4.160   6.812
 3020SOL    HW2 9960   6.732   4.177   6.661
 3021SOL     OW 9961   4.254   0.322   5.180
 3021SOL    HW1 9962   4.270   0.300   5.084
 3021SOL    HW2 9963   4.337   0.362   5.219
 3022SOL     OW 9964   3.743   5.696   3.774
 3022SOL    HW1 9965   3.649   5.671   3.800
 3022SOL    HW2 9966   3.763   5.788   3.806
 3023SOL     OW 9967   4.987   5.874   3.906
 3023SOL    HW1 9968   5.059   5.835   3.963
 3023SOL    HW2 9969   4.936   5.941   3.959
 3024SOL     OW 9970   6.956   6.702   0.207
 3024SOL    HW1 9971   6.942   6.665   0.299
 3024SOL    HW2 9972   7.011   6.785   0.213
 3025SOL     OW 9973   3.464   5.172   0.189
 3025SOL    HW1 9974   3.556   5.209   0.192
 3025SOL    HW2 9975   3.402   5.237   0.144
 3026SOL     OW 9976   6.813   0.657   1.981
 3026SOL    HW1 9977   6.827   0.663   1.882
 3026SOL    HW2 9978   6.829   0.746   2.023
 3027SOL     OW 9979   4.285   0.996   0.792
 3027SOL    HW1 9980   4.185   0.997   0.795
 3027SOL    HW2 9981   4.320   0.988   0.885
 3028SOL     OW 9982   3.018   3.095   5.572
 3028SOL    HW1 9983   3.065   3.157   5.509
 3028SOL    HW2 9984   3.058   3.104   5.663
 3029SOL     OW 9985   0.156   3.418   4.255
 3029SOL    HW1 9986   0.136   3.411   4.353
 3029SOL    HW2 9987   0.089   3.479   4.212
 3030SOL     OW 9988   2.337   3.362   0.200
 3030SOL    HW1 9989   2.372   3.449   0.235
 3030SOL    HW2 9990   2.348   3.358   0.101
 3031SOL     OW 9991   0.977   6.195   0.212
 3031SOL    HW1 9992   1.065   6.226   0.248
 3031SOL    HW2 9993   0.920   6.275   0.191
 3032SOL     OW 9994   2.626   0.383   2.699
 3032SOL    HW1 9995   2.620   0.463   2.638
 3032SOL    HW2 9996   2.700   0.397   2.765
 3033SOL     OW 9997   0.252   1.924   5.061
 3033SOL    HW1 9998   0.245   2.022   5.043
 3033SOL    HW2 9999   0.277   1.909   5.156
 3034SOL     OW10000   6.607   4.846   3.607
 3034SOL    HW110001   6.677   4.871   3.674
 3034SOL    HW210002   6.525   4.901   3.622
 3035SOL     OW10003   0.843   2.993   0.817
 3035SOL    HW110004   0.765   3.055   0.816
 3035SOL    HW210005   0.914   3.028   0.756
 3036SOL     OW10006   3.109   2.060   5.656
 3036SOL    HW110007   3.063   2.018   5.734
 3036SOL    HW210008   3.208   2.058   5.670
 3037SOL     OW10009   0.499   6.043   6.610
 3037SOL    HW110010   0.515   5.945   6.597
 3037SOL    HW210011   0.418   6.056   6.668
 3038SOL     OW10012   6.185   4.677   6.740
 3038SOL    HW110013   6.273   4.691   6.696
 3038SOL    HW210014   6.134   4.763   6.743
 3039SOL     OW10015   6.985   3.351   6.077
 3039SOL    HW110016   6.961   3.420   6.008
 3039SOL    HW210017   6.924   3.272   6.067
 3040SOL     OW10018   5.119   4.687   5.901
 3040SOL    HW110019   5.216   4.677   5.921
 3040SOL    HW210020   5.066   4.626   5.960
 3041SOL     OW10021   1.485   4.634   5.869
 3041SOL    HW110022   1.421   4.620   5.944
 3041SOL    HW210023   1.504   4.547   5.824
 3042SOL     OW10024   6.559   5.158   3.661
 3042SOL    HW110025   6.460   5.145   3.666
 3042SOL    HW210026   6.590   5.208   3.741
 3043SOL     OW10027   2.909   5.358   0.578
 3043SOL    HW110028   2.983   5.295   0.556
 3043SOL    HW210029   2.876   5.340   0.671
 3044SOL     OW10030   3.616   3.719   4.752
 3044SOL    HW110031   3.660   3.717   4.662
 3044SOL    HW210032   3.530   3.668   4.748
 3045SOL     OW10033   4.402   1.838   2.216
 3045SOL    HW110034   4.370   1.919   2.263
 3045SOL    HW210035   4.355   1.757   2.252
 3046SOL     OW10036   5.185   6.459   0.593
 3046SOL    HW110037   5.283   6.451   0.608
 3046SOL    HW210038   5.145   6.368   0.586
 3047SOL     OW10039   5.742   1.248   4.905
 3047SOL    HW110040   5.804   1.190   4.957
 3047SOL    HW210041   5.772   1.343   4.911
 3048SOL     OW10042   3.814   4.446   0.994
 3048SOL    HW110043   3.828   4.471   1.090
 3048SOL    HW210044   3.848   4.520   0.936
 3049SOL     OW10045   1.113   1.191   3.158
 3049SOL    HW110046   1.051   1.269   3.147
 3049SOL    HW210047   1.089   1.121   3.091
 3050SOL     OW10048   3.559   1.699   0.617
 3050SOL    HW110049   3.539   1.675   0.522
 3050SOL    HW210050   3.570   1.616   0.671
 3051SOL     OW10051   2.341   5.170   5.856
 3051SOL    HW110052   2.304   5.102   5.919
 3051SOL    HW210053   2.268   5.229   5.823
 3052SOL     OW10054   0.121   6.580   2.070
 3052SOL    HW110055   0.153   6.496   2.112
 3052SOL    HW210056   0.197   6.625   2.023
 3053SOL     OW10057   1.220   4.245   0.163
 3053SOL    HW110058   1.250   4.251   0.259
 3053SOL    HW210059   1.202   4.337   0.129
 3054SOL     OW10060   5.373   0.491   2.513
 3054SOL    HW110061   5.400   0.578   2.472
 3054SOL    HW210062   5.275   0.479   2.504
 3055SOL     OW10063   6.094   6.127   6.187
 3055SOL    HW110064   6.082   6.043   6.134
 3055SOL    HW210065   6.190   6.135   6.216
 3056SOL     OW10066   5.152   1.284   5.448
 3056SOL    HW110067   5.250   1.279   5.432
 3056SOL    HW210068   5.130   1.370   5.495
 3057SOL     OW10069   5.181   3.751   3.084
 3057SOL    HW110070   5.276   3.778   3.096
 3057SOL    HW210071   5.166   3.724   2.989
 3058SOL     OW10072   0.417   4.411   6.499
 3058SOL    HW110073   0.394   4.419   6.402
 3058SOL    HW210074   0.486   4.341   6.511
 3059SOL     OW10075   1.746   1.893   3.742
 3059SOL    HW110076   1.714   1.802   3.765
 3059SOL    HW210077   1.728   1.955   3.818
 3060SOL     OW10078   5.413   4.947   4.907
 3060SOL    HW110079   5.403   4.946   4.808
 3060SOL    HW210080   5.504   4.915   4.931
 3061SOL     OW10081   5.944   6.342   4.630
 3061SOL    HW110082   6.004   6.391   4.567
 3061SOL    HW210083   5.952   6.381   4.721
 3062SOL     OW10084   3.911   4.170   1.118
 3062SOL    HW110085   3.840   4.191   1.185
 3062SOL    HW210086   3.984   4.117   1.162
 3063SOL     OW10087   0.512   4.457   2.307
 3063SOL    HW110088   0.554   4.418   2.389
 3063SOL    HW210089   0.448   4.391   2.268
 3064SOL     OW10090   4.945   2.061   6.190
 3064SOL    HW110091   5.010   2.032   6.119
 3064SOL    HW210092   4.966   2.154   6.218
 3065SOL     OW10093   6.168   1.271   0.065
 3065SOL    HW110094   6.222   1.348   0.032
 3065SOL    HW210095   6.158   1.278   0.165
 3066SOL     OW10096   4.797   6.154   5.245
 3066SOL    HW110097   4.894   6.172   5.225
 3066SOL    HW210098   4.766   6.078   5.189
 3067SOL     OW10099   1.310   2.091   5.839
 3067SOL    HW110100   1.401   2.052   5.854
 3067SOL    HW210101   1.264   2.103   5.927
 3068SOL     OW10102   0.158   0.991   0.645
 3068SOL    HW110103   0.243   0.938   0.646
 3068SOL    HW210104   0.084   0.933   0.611
 3069SOL     OW10105   5.475   0.311   3.195
 3069SOL    HW110106   5.402   0.266   3.144
 3069SOL    HW210107   5.543   0.243   3.224
 3070SOL     OW10108   2.203   1.341   0.874
 3070SOL    HW110109   2.212   1.393   0.789
 3070SOL    HW210110   2.106   1.319   0.889
 3071SOL     OW10111   6.303   4.589   4.693
 3071SOL    HW110112   6.297   4.688   4.710
 3071SOL    HW210113   6.397   4.559   4.705
 3072SOL     OW10114   1.883   0.111   6.211
 3072SOL    HW110115   1.793   0.146   6.184
 3072SOL    HW210116   1.896   0.020   6.173
 3073SOL     OW10117   6.606   4.960   1.472
 3073SOL    HW110118   6.612   4.988   1.567
 3073SOL    HW210119   6.539   5.017   1.424
 3074SOL     OW10120   2.420   3.187   1.681
 3074SOL    HW110121   2.329   3.155   1.704
 3074SOL    HW210122   2.437   3.275   1.727
 3075SOL     OW10123   3.408   5.592   2.000
 3075SOL    HW110124   3.464   5.509   2.002
 3075SOL    HW210125   3.340   5.588   2.074
 3076SOL     OW10126   0.775   0.105   5.302
 3076SOL    HW110127   0.787   0.042   5.378
 3076SOL    HW210128   0.682   0.099   5.267
 3077SOL     OW10129   0.167   4.116   2.718
 3077SOL    HW110130   0.195   4.023   2.742
 3077SOL    HW210131   0.121   4.115   2.629
 3078SOL     OW10132   0.011   3.245   2.061
 3078SOL    HW110133   7.005   3.153   2.033
 3078SOL    HW210134   0.107   3.259   2.036
 3079SOL     OW10135   2.191   3.430   5.291
 3079SOL    HW110136   2.185   3.518   5.243
 3079SOL    HW210137   2.169   3.444   5.388
 3080SOL     OW10138   3.788   4.555   0.540
 3080SOL    HW110139   3.777   4.482   0.607
 3080SOL    HW210140   3.714   4.551   0.473
 3081SOL     OW10141   1.296   3.686   0.786
 3081SOL    HW110142   1.309   3.740   0.702
 3081SOL    HW210143   1.227   3.616   0.770
 3082SOL     OW10144   4.512   5.028   4.229
 3082SOL    HW110145   4.458   5.111   4.219
 3082SOL    HW210146   4.489   4.964   4.156
 3083SOL     OW10147   3.779   6.066   1.695
 3083SOL    HW110148   3.847   6.112   1.752
 3083SOL    HW210149   3.825   6.013   1.624
 3084SOL     OW10150   0.586   4.179   4.332
 3084SOL    HW110151   0.494   4.145   4.314
 3084SOL    HW210152   0.611   4.247   4.264
 3085SOL     OW10153   5.580   5.122   0.261
 3085SOL    HW110154   5.563   5.221   0.259
 3085SOL    HW210155   5.588   5.091   0.356
 3086SOL     OW10156   6.286   6.939   6.196
 3086SOL    HW110157   6.191   6.914   6.216
 3086SOL    HW210158   6.318   7.005   6.264
 3087SOL     OW10159   3.279   6.808   1.959
 3087SOL    HW110160   3.300   6.735   2.025
 3087SOL    HW210161   3.354   6.816   1.893
 3088SOL     OW10162   2.167   2.705   5.944
 3088SOL    HW110163   2.135   2.768   5.872
 3088SOL    HW210164   2.089   2.655   5.981
 3089SOL     OW10165   4.318   5.566   5.360
 3089SOL    HW110166   4.335   5.613   5.446
 3089SOL    HW210167   4.222   5.575   5.335
 3090SOL     OW10168   1.193   2.262   2.306
 3090SOL    HW110169   1.166   2.348   2.262
 3090SOL    HW210170   1.195   2.189   2.238
 3091SOL     OW10171   0.990   2.288   1.217
 3091SOL    HW110172   0.967   2.351   1.143
 3091SOL    HW210173   0.971   2.194   1.187
 3092SOL     OW10174   5.810   1.084   2.818
 3092SOL    HW110175   5.733   1.125   2.768
 3092SOL    HW210176   5.789   0.989   2.838
 3093SOL     OW10177   5.912   5.698   6.970
 3093SOL    HW110178   5.856   5.615   6.966
 3093SOL    HW210179   5.922   5.737   6.879
 3094SOL     OW10180   2.777   1.979   6.382
 3094SOL    HW110181   2.823   1.986   6.293
 3094SOL    HW210182   2.840   2.008   6.454
 3095SOL     OW10183   1.804   3.689   4.680
 3095SOL    HW110184   1.751   3.635   4.744
 3095SOL    HW210185   1.744   3.751   4.629
 3096SOL     OW10186   0.378   3.165   4.291
 3096SOL    HW110187   0.286   3.137   4.264
 3096SOL    HW210188   0.407   3.242   4.235
 3097SOL     OW10189   5.320   2.667   5.529
 3097SOL    HW110190   5.295   2.628   5.440
 3097SOL    HW210191   5.411   2.708   5.522
 3098SOL     OW10192   1.689   3.387   2.784
 3098SOL    HW110193   1.743   3.305   2.768
 3098SOL    HW210194   1.599   3.377   2.742
 3099SOL     OW10195   0.706   6.311   4.404
 3099SOL    HW110196   0.614   6.273   4.410
 3099SOL    HW210197   0.709   6.379   4.331
 3100SOL     OW10198   5.978   5.007   1.719
 3100SOL    HW110199   5.943   5.079   1.659
 3100SOL    HW210200   6.066   4.974   1.684
 3101SOL     OW10201   3.751   6.785   5.691
 3101SOL    HW110202   3.831   6.793   5.632
 3101SOL    HW210203   3.724   6.689   5.697
 3102SOL     OW10204   0.020   4.527   0.970
 3102SOL    HW110205   6.949   4.525   1.007
 3102SOL    HW210206   0.021   4.579   0.885
 3103SOL     OW10207   3.278   1.253   1.126
 3103SOL    HW110208   3.218   1.221   1.199
 3103SOL    HW210209   3.248   1.344   1.096
 3104SOL     OW10210   4.722   1.315   5.349
 3104SOL    HW110211   4.747   1.241   5.410
 3104SOL    HW210212   4.671   1.279   5.271
 3105SOL     OW10213   5.933   3.473   0.515
 3105SOL    HW110214   5.842   3.441   0.542
 3105SOL    HW210215   5.950   3.563   0.557
 3106SOL     OW10216   6.013   0.512   6.435
 3106SOL    HW110217   6.062   0.514   6.348
 3106SOL    HW210218   5.921   0.475   6.421
 3107SOL     OW10219   3.573   1.553   5.894
 3107SOL    HW110220   3.554   1.646   5.923
 3107SOL    HW210221   3.642   1.554   5.821
 3108SOL     OW10222   2.164   4.065   3.697
 3108SOL    HW110223   2.073   4.105   3.688
 3108SOL    HW210224   2.232   4.138   3.694
 3109SOL     OW10225   6.746   6.193   4.413
 3109SOL    HW110226   6.838   6.170   4.445
 3109SOL    HW210227   6.694   6.109   4.399
 3110SOL     OW10228   1.111   4.617   2.969
 3110SOL    HW110229   1.034   4.585   2.913
 3110SOL    HW210230   1.196   4.609   2.916
 3111SOL     OW10231   5.706   4.472   4.141
 3111SOL    HW110232   5.748   4.558   4.167
 3111SOL    HW210233   5.712   4.407   4.217
 3112SOL     OW10234   3.912   1.430   6.035
 3112SOL    HW110235   3.900   1.528   6.018
 3112SOL    HW210236   3.822   1.388   6.049
 3113SOL     OW10237   2.901   5.986   3.162
 3113SOL    HW110238   2.883   5.932   3.079
 3113SOL    HW210239   2.820   5.982   3.221
 3114SOL     OW10240   4.850   1.105   5.481
 3114SOL    HW110241   4.781   1.091   5.553
 3114SOL    HW210242   4.938   1.069   5.512
 3115SOL     OW10243   4.743   5.085   5.033
 3115SOL    HW110244   4.717   5.116   5.125
 3115SOL    HW210245   4.819   5.019   5.041
 3116SOL     OW10246   0.133   1.129   0.889
 3116SOL    HW110247   0.207   1.196   0.890
 3116SOL    HW210248   0.137   1.077   0.804
 3117SOL     OW10249   5.210   1.234   6.158
 3117SOL    HW110250   5.163   1.153   6.192
 3117SOL    HW210251   5.302   1.210   6.127
 3118SOL     OW10252   1.163   1.080   3.418
 3118SOL    HW110253   1.113   1.147   3.364
 3118SOL    HW210254   1.258   1.076   3.388
 3119SOL     OW10255   4.436   4.997   5.119
 3119SOL    HW110256   4.502   4.997   5.044
 3119SOL    HW210257   4.400   5.090   5.131
 3120SOL     OW10258   1.787   5.573   5.487
 3120SOL    HW110259   1.808   5.668   5.507
 3120SOL    HW210260   1.803   5.554   5.390
 3121SOL     OW10261   4.172   1.190   4.036
 3121SOL    HW110262   4.238   1.207   3.962
 3121SOL    HW210263   4.082   1.172   3.997
 3122SOL     OW10264   4.686   5.436   4.418
 3122SOL    HW110265   4.702   5.356   4.360
 3122SOL    HW210266   4.770   5.457   4.469
 3123SOL     OW10267   2.303   1.183   3.497
 3123SOL    HW110268   2.306   1.283   3.496
 3123SOL    HW210269   2.361   1.148   3.570
 3124SOL     OW10270   4.689   0.080   4.397
 3124SOL    HW110271   4.754   0.156   4.407
 3124SOL    HW210272   4.699   0.039   4.307
 3125SOL     OW10273   1.243   0.877   5.050
 3125SOL    HW110274   1.191   0.814   4.993
 3125SOL    HW210275   1.292   0.826   5.120
 3126SOL     OW10276   5.536   5.619   5.445
 3126SOL    HW110277   5.506   5.686   5.513
 3126SOL    HW210278   5.456   5.577   5.402
 3127SOL     OW10279   0.482   1.340   4.771
 3127SOL    HW110280   0.432   1.426   4.776
 3127SOL    HW210281   0.438   1.280   4.704
 3128SOL     OW10282   4.173   0.210   0.871
 3128SOL    HW110283   4.266   0.190   0.842
 3128SOL    HW210284   4.133   0.279   0.811
 3129SOL     OW10285   4.726   3.860   0.196
 3129SOL    HW110286   4.795   3.892   0.130
 3129SOL    HW210287   4.646   3.827   0.147
 3130SOL     OW10288   0.235   4.683   2.405
 3130SOL    HW110289   0.142   4.646   2.411
 3130SOL    HW210290   0.266   4.678   2.310
 3131SOL     OW10291   6.347   4.426   3.307
 3131SOL    HW110292   6.436   4.397   3.343
 3131SOL    HW210293   6.357   4.452   3.211
 3132SOL     OW10294   4.387   4.718   6.790
 3132SOL    HW110295   4.300   4.669   6.776
 3132SOL    HW210296   4.398   4.741   6.887
 3133SOL     OW10297   3.996   0.413   4.578
 3133SOL    HW110298   4.039   0.495   4.541
 3133SOL    HW210299   3.974   0.428   4.675
 3134SOL     OW10300   4.488   4.973   2.662
 3134SOL    HW110301   4.404   4.996   2.613
 3134SOL    HW210302   4.535   4.899   2.614
 3135SOL     OW10303   5.079   5.730   6.477
 3135SOL    HW110304   5.146   5.668   6.518
 3135SOL    HW210305   5.093   5.734   6.378
 3136SOL     OW10306   6.318   1.516   2.888
 3136SOL    HW110307   6.259   1.558   2.957
 3136SOL    HW210308   6.401   1.571   2.877
 3137SOL     OW10309   6.098   6.730   6.287
 3137SOL    HW110310   6.196   6.749   6.299
 3137SOL    HW210311   6.079   6.635   6.311
 3138SOL     OW10312   5.784   5.957   3.510
 3138SOL    HW110313   5.714   6.027   3.523
 3138SOL    HW210314   5.874   6.001   3.502
 3139SOL     OW10315   2.920   4.819   1.507
 3139SOL    HW110316   2.874   4.766   1.579
 3139SOL    HW210317   2.869   4.903   1.491
 3140SOL     OW10318   6.576   6.813   6.509
 3140SOL    HW110319   6.663   6.847   6.544
 3140SOL    HW210320   6.567   6.836   6.412
 3141SOL     OW10321   6.864   2.380   6.366
 3141SOL    HW110322   6.807   2.446   6.415
 3141SOL    HW210323   6.884   2.415   6.275
 3142SOL     OW10324   4.324   1.168   3.184
 3142SOL    HW110325   4.292   1.104   3.254
 3142SOL    HW210326   4.250   1.228   3.157
 3143SOL     OW10327   6.401   1.051   0.679
 3143SOL    HW110328   6.315   1.004   0.659
 3143SOL    HW210329   6.464   0.989   0.724
 3144SOL     OW10330   4.046   3.882   6.817
 3144SOL    HW110331   3.996   3.798   6.835
 3144SOL    HW210332   4.131   3.882   6.868
 3145SOL     OW10333   0.343   6.241   1.240
 3145SOL    HW110334   0.250   6.266   1.270
 3145SOL    HW210335   0.343   6.145   1.210
 3146SOL     OW10336   0.445   0.168   5.221
 3146SOL    HW110337   0.460   0.169   5.320
 3146SOL    HW210338   0.353   0.201   5.201
 3147SOL     OW10339   3.727   5.309   0.245
 3147SOL    HW110340   3.809   5.328   0.191
 3147SOL    HW210341   3.703   5.389   0.300
 3148SOL     OW10342   6.900   5.429   2.425
 3148SOL    HW110343   6.869   5.522   2.406
 3148SOL    HW210344   6.908   5.416   2.524
 3149SOL     OW10345   3.009   1.787   0.339
 3149SOL    HW110346   3.028   1.885   0.330
 3149SOL    HW210347   3.095   1.738   0.351
 3150SOL     OW10348   6.717   5.459   5.166
 3150SOL    HW110349   6.697   5.442   5.069
 3150SOL    HW210350   6.755   5.551   5.176
 3151SOL     OW10351   6.810   0.872   5.826
 3151SOL    HW110352   6.850   0.933   5.757
 3151SOL    HW210353   6.779   0.787   5.782
 3152SOL     OW10354   1.309   3.310   6.192
 3152SOL    HW110355   1.262   3.284   6.108
 3152SOL    HW210356   1.247   3.362   6.250
 3153SOL     OW10357   6.654   4.953   1.002
 3153SOL    HW110358   6.680   4.891   1.076
 3153SOL    HW210359   6.656   5.047   1.036
 3154SOL     OW10360   4.713   1.231   6.995
 3154SOL    HW110361   4.661   1.273   0.046
 3154SOL    HW210362   4.704   1.132   6.999
 3155SOL     OW10363   1.146   4.874   1.020
 3155SOL    HW110364   1.124   4.921   1.105
 3155SOL    HW210365   1.116   4.930   0.942
 3156SOL     OW10366   3.596   4.240   1.904
 3156SOL    HW110367   3.647   4.314   1.860
 3156SOL    HW210368   3.647   4.207   1.983
 3157SOL     OW10369   0.993   1.125   5.657
 3157SOL    HW110370   1.000   1.117   5.557
 3157SOL    HW210371   0.901   1.100   5.686
 3158SOL     OW10372   1.500   1.134   5.716
 3158SOL    HW110373   1.493   1.088   5.628
 3158SOL    HW210374   1.496   1.233   5.702
 3159SOL     OW10375   6.301   0.010   0.449
 3159SOL    HW110376   6.271   7.022   0.544
 3159SOL    HW210377   6.235   0.065   0.399
 3160SOL     OW10378   1.905   0.569   6.919
 3160SOL    HW110379   1.992   0.525   6.942
 3160SOL    HW210380   1.844   0.563   6.998
 3161SOL     OW10381   2.337   2.219   2.540
 3161SOL    HW110382   2.283   2.251   2.462
 3161SOL    HW210383   2.295   2.136   2.577
 3162SOL     OW10384   2.598   5.476   1.132
 3162SOL    HW110385   2.657   5.418   1.188
 3162SOL    HW210386   2.574   5.559   1.184
 3163SOL     OW10387   4.404   4.352   0.009
 3163SOL    HW110388   4.342   4.291   0.059
 3163SOL    HW210389   4.408   4.324   6.936
 3164SOL     OW10390   2.785   6.110   2.892
 3164SOL    HW110391   2.800   6.203   2.857
 3164SOL    HW210392   2.723   6.114   2.970
 3165SOL     OW10393   0.602   6.474   6.841
 3165SOL    HW110394   0.692   6.499   6.806
 3165SOL    HW210395   0.563   6.401   6.784
 3166SOL     OW10396   4.780   0.473   5.194
 3166SOL    HW110397   4.762   0.504   5.101
 3166SOL    HW210398   4.741   0.538   5.259
 3167SOL     OW10399   5.668   3.393   0.574
 3167SOL    HW110400   5.608   3.471   0.593
 3167SOL    HW210401   5.613   3.312   0.554
 3168SOL     OW10402   5.013   2.011   0.540
 3168SOL    HW110403   5.028   2.043   0.634
 3168SOL    HW210404   5.057   1.922   0.528
 3169SOL     OW10405   1.827   4.262   1.957
 3169SOL    HW110406   1.792   4.168   1.958
 3169SOL    HW210407   1.750   4.326   1.948
 3170SOL     OW10408   2.844   4.796   3.243
 3170SOL    HW110409   2.772   4.736   3.208
 3170SOL    HW210410   2.854   4.782   3.341
 3171SOL     OW10411   5.124   2.613   3.611
 3171SOL    HW110412   5.078   2.530   3.578
 3171SOL    HW210413   5.083   2.693   3.568
 3172SOL     OW10414   6.831   4.360   1.550
 3172SOL    HW110415   6.908   4.305   1.584
 3172SOL    HW210416   6.857   4.457   1.550
 3173SOL     OW10417   3.997   2.699   1.140
 3173SOL    HW110418   4.059   2.647   1.198
 3173SOL    HW210419   3.905   2.697   1.180
 3174SOL     OW10420   2.857   3.949   5.886
 3174SOL    HW110421   2.783   3.889   5.916
 3174SOL    HW210422   2.908   3.904   5.812
 3175SOL     OW10423   6.097   0.580   3.882
 3175SOL    HW110424   6.080   0.621   3.971
 3175SOL    HW210425   6.172   0.628   3.837
 3176SOL     OW10426   1.333   4.709   4.893
 3176SOL    HW110427   1.416   4.688   4.841
 3176SOL    HW210428   1.256   4.659   4.854
 3177SOL     OW10429   5.634   3.456   3.599
 3177SOL    HW110430   5.603   3.366   3.631
 3177SOL    HW210431   5.564   3.524   3.620
 3178SOL     OW10432   6.999   0.493   1.160
 3178SOL    HW110433   6.951   0.498   1.073
 3178SOL    HW210434   6.962   0.418   1.215
 3179SOL     OW10435   1.170   1.800   2.367
 3179SOL    HW110436   1.226   1.879   2.394
 3179SOL    HW210437   1.145   1.809   2.270
 3180SOL     OW10438   6.703   6.006   0.404
 3180SOL    HW110439   6.707   5.906   0.413
 3180SOL    HW210440   6.747   6.034   0.319
 3181SOL     OW10441   1.270   7.006   4.548
 3181SOL    HW110442   1.253   0.053   4.617
 3181SOL    HW210443   1.192   7.002   4.485
 3182SOL     OW10444   2.244   1.131   0.647
 3182SOL    HW110445   2.344   1.140   0.648
 3182SOL    HW210446   2.202   1.220   0.665
 3183SOL     OW10447   4.054   4.534   1.686
 3183SOL    HW110448   4.075   4.445   1.645
 3183SOL    HW210449   3.965   4.566   1.652
 3184SOL     OW10450   0.479   2.190   5.359
 3184SOL    HW110451   0.558   2.213   5.302
 3184SOL    HW210452   0.450   2.272   5.409
 3185SOL     OW10453   0.641   5.108   6.032
 3185SOL    HW110454   0.668   5.167   5.956
 3185SOL    HW210455   0.615   5.164   6.110
 3186SOL     OW10456   0.005   1.768   6.440
 3186SOL    HW110457   0.016   1.854   6.491
 3186SOL    HW210458   7.003   1.695   6.504
 3187SOL     OW10459   4.121   5.810   2.347
 3187SOL    HW110460   4.147   5.870   2.270
 3187SOL    HW210461   4.145   5.855   2.433
 3188SOL     OW10462   2.242   4.932   5.969
 3188SOL    HW110463   2.328   4.885   5.945
 3188SOL    HW210464   2.194   4.879   6.039
 3189SOL     OW10465   3.607   1.779   6.185
 3189SOL    HW110466   3.628   1.758   6.090
 3189SOL    HW210467   3.619   1.877   6.201
 3190SOL     OW10468   6.392   5.997   4.991
 3190SOL    HW110469   6.308   5.958   5.030
 3190SOL    HW210470   6.470   5.938   5.013
 3191SOL     OW10471   4.413   5.709   1.447
 3191SOL    HW110472   4.317   5.737   1.442
 3191SOL    HW210473   4.420   5.610   1.433
 3192SOL     OW10474   6.165   2.182   2.343
 3192SOL    HW110475   6.209   2.244   2.278
 3192SOL    HW210476   6.177   2.217   2.436
 3193SOL     OW10477   3.746   0.010   5.450
 3193SOL    HW110478   3.804   7.004   5.527
 3193SOL    HW210479   3.675   0.072   5.483
 3194SOL     OW10480   1.638   1.051   6.255
 3194SOL    HW110481   1.630   0.956   6.227
 3194SOL    HW210482   1.554   1.101   6.232
 3195SOL     OW10483   0.257   2.191   1.397
 3195SOL    HW110484   0.312   2.134   1.336
 3195SOL    HW210485   0.177   2.224   1.348
 3196SOL     OW10486   6.081   0.075   4.190
 3196SOL    HW110487   6.111   0.107   4.100
 3196SOL    HW210488   6.139   7.022   4.219
 3197SOL     OW10489   1.831   0.664   6.234
 3197SOL    HW110490   1.855   0.656   6.330
 3197SOL    HW210491   1.912   0.690   6.181
 3198SOL     OW10492   5.771   3.029   2.769
 3198SOL    HW110493   5.684   2.985   2.752
 3198SOL    HW210494   5.762   3.128   2.755
 3199SOL     OW10495   5.651   4.491   3.470
 3199SOL    HW110496   5.711   4.433   3.415
 3199SOL    HW210497   5.597   4.434   3.532
 3200SOL     OW10498   5.535   3.161   3.614
 3200SOL    HW110499   5.572   3.089   3.674
 3200SOL    HW210500   5.436   3.148   3.605
 3201SOL     OW10501   5.865   4.499   2.765
 3201SOL    HW110502   5.801   4.556   2.714
 3201SOL    HW210503   5.902   4.551   2.842
 3202SOL     OW10504   1.674   3.937   6.757
 3202SOL    HW110505   1.763   3.891   6.752
 3202SOL    HW210506   1.654   3.962   6.852
 3203SOL     OW10507   3.318   0.402   1.214
 3203SOL    HW110508   3.364   0.430   1.130
 3203SOL    HW210509   3.313   0.480   1.277
 3204SOL     OW10510   2.615   1.612   3.691
 3204SOL    HW110511   2.586   1.657   3.606
 3204SOL    HW210512   2.714   1.614   3.697
 3205SOL     OW10513   5.815   3.331   5.359
 3205SOL    HW110514   5.889   3.273   5.326
 3205SOL    HW210515   5.830   3.353   5.455
 3206SOL     OW10516   2.984   3.209   1.360
 3206SOL    HW110517   2.946   3.220   1.268
 3206SOL    HW210518   2.945   3.128   1.403
 3207SOL     OW10519   1.295   5.936   5.433
 3207SOL    HW110520   1.237   5.919   5.513
 3207SOL    HW210521   1.263   5.879   5.356
 3208SOL     OW10522   6.161   5.357   6.129
 3208SOL    HW110523   6.224   5.420   6.084
 3208SOL    HW210524   6.202   5.324   6.214
 3209SOL     OW10525   4.935   5.652   6.714
 3209SOL    HW110526   4.850   5.643   6.767
 3209SOL    HW210527   4.931   5.735   6.658
 3210SOL     OW10528   6.318   5.254   1.463
 3210SOL    HW110529   6.246   5.302   1.414
 3210SOL    HW210530   6.342   5.170   1.414
 3211SOL     OW10531   0.725   4.927   6.572
 3211SOL    HW110532   0.687   5.010   6.530
 3211SOL    HW210533   0.824   4.938   6.584
 3212SOL     OW10534   2.180   0.203   3.093
 3212SOL    HW110535   2.085   0.223   3.117
 3212SOL    HW210536   2.242   0.252   3.154
 3213SOL     OW10537   1.606   0.471   6.367
 3213SOL    HW110538   1.556   0.431   6.444
 3213SOL    HW210539   1.625   0.567   6.385
 3214SOL     OW10540   3.440   0.721   2.518
 3214SOL    HW110541   3.349   0.762   2.507
 3214SOL    HW210542   3.437   0.652   2.590
 3215SOL     OW10543   1.840   3.421   0.775
 3215SOL    HW110544   1.806   3.501   0.725
 3215SOL    HW210545   1.934   3.437   0.804
 3216SOL     OW10546   5.851   4.059   0.302
 3216SOL    HW110547   5.783   3.986   0.301
 3216SOL    HW210548   5.889   4.068   0.394
 3217SOL     OW10549   0.855   5.743   3.258
 3217SOL    HW110550   0.804   5.739   3.345
 3217SOL    HW210551   0.817   5.815   3.200
 3218SOL     OW10552   6.200   0.695   2.925
 3218SOL    HW110553   6.275   0.694   2.859
 3218SOL    HW210554   6.214   0.768   2.991
 3219SOL     OW10555   6.065   0.703   5.639
 3219SOL    HW110556   6.003   0.662   5.706
 3219SOL    HW210557   6.159   0.689   5.669
 3220SOL     OW10558   6.898   4.683   6.980
 3220SOL    HW110559   6.976   4.692   6.919
 3220SOL    HW210560   6.846   4.768   6.980
 3221SOL     OW10561   3.817   0.669   1.371
 3221SOL    HW110562   3.772   0.585   1.341
 3221SOL    HW210563   3.872   0.650   1.452
 3222SOL     OW10564   3.356   1.371   3.237
 3222SOL    HW110565   3.424   1.440   3.261
 3222SOL    HW210566   3.288   1.410   3.175
 3223SOL     OW10567   1.339   0.057   1.080
 3223SOL    HW110568   1.372   0.017   1.165
 3223SOL    HW210569   1.258   0.008   1.048
 3224SOL     OW10570   4.058   1.945   3.989
 3224SOL    HW110571   4.055   1.944   4.089
 3224SOL    HW210572   4.012   2.027   3.955
 3225SOL     OW10573   4.453   0.396   3.917
 3225SOL    HW110574   4.547   0.363   3.916
 3225SOL    HW210575   4.408   0.373   3.831
 3226SOL     OW10576   0.501   6.596   1.262
 3226SOL    HW110577   0.546   6.576   1.349
 3226SOL    HW210578   0.553   6.553   1.188
 3227SOL     OW10579   4.919   3.719   5.297
 3227SOL    HW110580   5.011   3.714   5.258
 3227SOL    HW210581   4.853   3.680   5.233
 3228SOL     OW10582   1.700   3.988   0.350
 3228SOL    HW110583   1.760   4.039   0.412
 3228SOL    HW210584   1.743   3.983   0.259
 3229SOL     OW10585   1.922   1.617   0.561
 3229SOL    HW110586   1.964   1.695   0.608
 3229SOL    HW210587   1.838   1.647   0.516
 3230SOL     OW10588   2.374   5.936   5.627
 3230SOL    HW110589   2.421   5.996   5.691
 3230SOL    HW210590   2.435   5.862   5.598
 3231SOL     OW10591   2.395   1.557   1.905
 3231SOL    HW110592   2.345   1.600   1.830
 3231SOL    HW210593   2.493   1.573   1.893
 3232SOL     OW10594   4.101   5.466   3.972
 3232SOL    HW110595   4.084   5.387   3.912
 3232SOL    HW210596   4.104   5.549   3.916
 3233SOL     OW10597   0.176   2.371   0.500
 3233SOL    HW110598   0.079   2.379   0.521
 3233SOL    HW210599   0.201   2.439   0.431
 3234SOL     OW10600   2.523   3.115   0.546
 3234SOL    HW110601   2.542   3.179   0.472
 3234SOL    HW210602   2.483   3.031   0.509
 3235SOL     OW10603   0.778   0.026   2.057
 3235SOL    HW110604   0.686   0.013   2.021
 3235SOL    HW210605   0.780   0.002   2.154
 3236SOL     OW10606   3.472   3.208   0.290
 3236SOL    HW110607   3.498   3.126   0.239
 3236SOL    HW210608   3.542   3.228   0.358
 3237SOL     OW10609   5.929   1.051   5.005
 3237SOL    HW110610   5.914   0.953   4.994
 3237SOL    HW210611   6.018   1.075   4.965
 3238SOL     OW10612   6.636   5.463   1.736
 3238SOL    HW110613   6.548   5.493   1.699
 3238SOL    HW210614   6.621   5.394   1.807
 3239SOL     OW10615   6.778   6.984   4.112
 3239SOL    HW110616   6.716   0.037   4.132
 3239SOL    HW210617   6.762   6.950   4.019
 3240SOL     OW10618   0.508   1.100   6.830
 3240SOL    HW110619   0.474   1.007   6.842
 3240SOL    HW210620   0.549   1.110   6.740
 3241SOL     OW10621   6.022   1.914   6.093
 3241SOL    HW110622   5.994   1.820   6.074
 3241SOL    HW210623   6.012   1.969   6.011
 3242SOL     OW10624   5.194   4.699   5.072
 3242SOL    HW110625   5.202   4.599   5.072
 3242SOL    HW210626   5.258   4.737   5.139
 3243SOL     OW10627   5.481   5.032   5.236
 3243SOL    HW110628   5.387   5.033   5.201
 3243SOL    HW210629   5.545   5.053   5.162
 3244SOL     OW10630   5.358   6.461   0.032
 3244SOL    HW110631   5.267   6.424   0.048
 3244SOL    HW210632   5.358   6.559   0.053
 3245SOL     OW10633   3.991   1.123   4.578
 3245SOL    HW110634   3.939   1.119   4.493
 3245SOL    HW210635   4.069   1.060   4.573
 3246SOL     OW10636   6.693   0.655   2.941
 3246SOL    HW110637   6.785   0.696   2.945
 3246SOL    HW210638   6.681   0.595   3.020
 3247SOL     OW10639   0.727   4.106   2.778
 3247SOL    HW110640   0.819   4.086   2.746
 3247SOL    HW210641   0.723   4.095   2.878
 3248SOL     OW10642   5.436   2.321   3.427
 3248SOL    HW110643   5.363   2.284   3.369
 3248SOL    HW210644   5.525   2.303   3.385
 3249SOL     OW10645   3.044   3.947   4.037
 3249SOL    HW110646   3.035   3.889   3.956
 3249SOL    HW210647   2.985   3.913   4.110
 3250SOL     OW10648   5.161   5.427   2.335
 3250SOL    HW110649   5.124   5.518   2.354
 3250SOL    HW210650   5.150   5.369   2.416
 3251SOL     OW10651   2.619   1.207   3.364
 3251SOL    HW110652   2.628   1.130   3.300
 3251SOL    HW210653   2.636   1.176   3.457
 3252SOL     OW10654   2.447   1.465   4.088
 3252SOL    HW110655   2.360   1.478   4.136
 3252SOL    HW210656   2.454   1.370   4.058
 3253SOL     OW10657   6.325   3.421   0.743
 3253SOL    HW110658   6.266   3.443   0.666
 3253SOL    HW210659   6.377   3.338   0.723
 3254SOL     OW10660   5.977   0.340   1.072
 3254SOL    HW110661   5.949   0.408   1.141
 3254SOL    HW210662   5.898   0.286   1.045
 3255SOL     OW10663   5.105   5.677   1.192
 3255SOL    HW110664   5.159   5.634   1.265
 3255SOL    HW210665   5.056   5.606   1.141
 3256SOL     OW10666   4.939   1.982   1.075
 3256SOL    HW110667   4.907   2.049   1.143
 3256SOL    HW210668   5.038   1.972   1.084
 3257SOL     OW10669   2.714   2.377   2.904
 3257SOL    HW110670   2.711   2.281   2.933
 3257SOL    HW210671   2.751   2.382   2.811
 3258SOL     OW10672   2.136   6.263   3.088
 3258SOL    HW110673   2.221   6.210   3.078
 3258SOL    HW210674   2.089   6.235   3.172
 3259SOL     OW10675   4.342   4.617   3.419
 3259SOL    HW110676   4.429   4.614   3.370
 3259SOL    HW210677   4.339   4.543   3.486
 3260SOL     OW10678   1.263   4.463   2.335
 3260SOL    HW110679   1.225   4.371   2.323
 3260SOL    HW210680   1.196   4.530   2.304
 3261SOL     OW10681   5.100   0.207   3.808
 3261SOL    HW110682   5.159   0.129   3.829
 3261SOL    HW210683   5.097   0.222   3.709
 3262SOL     OW10684   3.183   2.111   2.431
 3262SOL    HW110685   3.236   2.130   2.514
 3262SOL    HW210686   3.104   2.173   2.427
 3263SOL     OW10687   1.048   1.220   2.827
 3263SOL    HW110688   0.963   1.266   2.854
 3263SOL    HW210689   1.047   1.126   2.860
 3264SOL     OW10690   2.275   6.101   0.645
 3264SOL    HW110691   2.180   6.111   0.616
 3264SOL    HW210692   2.289   6.151   0.730
 3265SOL     OW10693   5.524   4.766   5.785
 3265SOL    HW110694   5.535   4.672   5.816
 3265SOL    HW210695   5.550   4.773   5.689
 3266SOL     OW10696   3.200   5.225   6.412
 3266SOL    HW110697   3.157   5.308   6.447
 3266SOL    HW210698   3.215   5.234   6.314
 3267SOL     OW10699   4.013   6.949   0.715
 3267SOL    HW110700   4.071   6.994   0.783
 3267SOL    HW210701   3.963   7.018   0.662
 3268SOL     OW10702   6.602   5.228   1.910
 3268SOL    HW110703   6.537   5.162   1.949
 3268SOL    HW210704   6.623   5.298   1.978
 3269SOL     OW10705   1.631   4.742   2.459
 3269SOL    HW110706   1.666   4.777   2.372
 3269SOL    HW210707   1.664   4.648   2.471
 3270SOL     OW10708   0.608   2.470   5.032
 3270SOL    HW110709   0.694   2.496   4.987
 3270SOL    HW210710   0.560   2.553   5.061
 3271SOL     OW10711   0.654   3.526   2.903
 3271SOL    HW110712   0.567   3.493   2.867
 3271SOL    HW210713   0.728   3.466   2.872
 3272SOL     OW10714   4.143   6.535   0.315
 3272SOL    HW110715   4.129   6.448   0.266
 3272SOL    HW210716   4.106   6.527   0.407
 3273SOL     OW10717   4.641   2.428   6.791
 3273SOL    HW110718   4.682   2.337   6.779
 3273SOL    HW210719   4.644   2.453   6.888
 3274SOL     OW10720   5.594   0.253   0.053
 3274SOL    HW110721   5.598   0.314   0.131
 3274SOL    HW210722   5.685   0.217   0.033
 3275SOL     OW10723   4.842   0.373   1.023
 3275SOL    HW110724   4.852   0.448   1.089
 3275SOL    HW210725   4.745   0.348   1.015
 3276SOL     OW10726   4.745   6.894   0.094
 3276SOL    HW110727   4.830   6.874   0.044
 3276SOL    HW210728   4.725   6.992   0.088
 3277SOL     OW10729   3.615   1.929   2.024
 3277SOL    HW110730   3.576   1.880   1.946
 3277SOL    HW210731   3.609   2.027   2.008
 3278SOL     OW10732   6.806   0.040   6.813
 3278SOL    HW110733   6.776   7.007   6.736
 3278SOL    HW210734   6.866   7.008   6.872
 3279SOL     OW10735   3.654   0.358   1.309
 3279SOL    HW110736   3.608   0.280   1.267
 3279SOL    HW210737   3.600   0.390   1.387
 3280SOL     OW10738   5.823   3.368   4.515
 3280SOL    HW110739   5.747   3.432   4.502
 3280SOL    HW210740   5.788   3.283   4.553
 3281SOL     OW10741   6.280   3.629   1.509
 3281SOL    HW110742   6.238   3.538   1.504
 3281SOL    HW210743   6.248   3.675   1.592
 3282SOL     OW10744   0.435   4.688   4.550
 3282SOL    HW110745   0.363   4.624   4.523
 3282SOL    HW210746   0.523   4.657   4.513
 3283SOL     OW10747   4.025   1.760   0.501
 3283SOL    HW110748   4.057   1.796   0.589
 3283SOL    HW210749   3.938   1.802   0.477
 3284SOL     OW10750   1.324   5.744   4.570
 3284SOL    HW110751   1.371   5.659   4.593
 3284SOL    HW210752   1.320   5.754   4.470
 3285SOL     OW10753   4.725   1.349   4.675
 3285SOL    HW110754   4.723   1.361   4.775
 3285SOL    HW210755   4.812   1.309   4.648
 3286SOL     OW10756   2.911   1.366   1.177
 3286SOL    HW110757   2.857   1.281   1.171
 3286SOL    HW210758   2.904   1.403   1.269
 3287SOL     OW10759   2.150   0.372   6.728
 3287SOL    HW110760   2.151   0.297   6.661
 3287SOL    HW210761   2.204   0.448   6.693
 3288SOL     OW10762   2.079   6.695   1.477
 3288SOL    HW110763   2.048   6.655   1.563
 3288SOL    HW210764   2.081   6.624   1.406
 3289SOL     OW10765   4.092   1.687   6.730
 3289SOL    HW110766   4.152   1.608   6.728
 3289SOL    HW210767   4.118   1.751   6.658
 3290SOL     OW10768   6.743   4.860   0.758
 3290SOL    HW110769   6.744   4.918   0.676
 3290SOL    HW210770   6.706   4.912   0.835
 3291SOL     OW10771   4.843   6.810   4.990
 3291SOL    HW110772   4.851   6.904   4.955
 3291SOL    HW210773   4.934   6.772   5.003
 3292SOL     OW10774   6.777   2.232   1.505
 3292SOL    HW110775   6.793   2.310   1.565
 3292SOL    HW210776   6.861   2.209   1.456
 3293SOL     OW10777   5.987   4.972   3.303
 3293SOL    HW110778   5.995   5.021   3.390
 3293SOL    HW210779   6.038   5.022   3.233
 3294SOL     OW10780   5.192   2.209   4.985
 3294SOL    HW110781   5.229   2.210   5.078
 3294SOL    HW210782   5.104   2.162   4.984
 3295SOL     OW10783   1.266   3.010   2.208
 3295SOL    HW110784   1.336   2.939   2.201
 3295SOL    HW210785   1.300   3.094   2.164
 3296SOL     OW10786   1.104   0.052   5.927
 3296SOL    HW110787   1.166   0.100   5.865
 3296SOL    HW210788   1.157   0.013   6.003
 3297SOL     OW10789   2.986   1.506   4.669
 3297SOL    HW110790   3.072   1.555   4.680
 3297SOL    HW210791   3.004   1.408   4.665
 3298SOL     OW10792   5.364   4.299   5.791
 3298SOL    HW110793   5.388   4.205   5.767
 3298SOL    HW210794   5.280   4.325   5.743
 3299SOL     OW10795   2.796   4.769   4.568
 3299SOL    HW110796   2.820   4.757   4.472
 3299SOL    HW210797   2.698   4.756   4.580
 3300SOL     OW10798   1.927   6.989   4.069
 3300SOL    HW110799   1.941   6.891   4.077
 3300SOL    HW210800   2.012   0.014   4.094
 3301SOL     OW10801   2.056   1.968   3.441
 3301SOL    HW110802   2.021   1.875   3.453
 3301SOL    HW210803   2.123   1.969   3.366
 3302SOL     OW10804   2.323   4.965   6.296
 3302SOL    HW110805   2.292   4.910   6.219
 3302SOL    HW210806   2.363   5.050   6.263
 3303SOL     OW10807   3.435   3.422   0.092
 3303SOL    HW110808   3.429   3.372   0.178
 3303SOL    HW210809   3.368   3.386   0.027
 3304SOL     OW10810   2.645   4.972   6.142
 3304SOL    HW110811   2.731   5.013   6.175
 3304SOL    HW210812   2.602   4.922   6.217
 3305SOL     OW10813   3.541   1.429   0.597
 3305SOL    HW110814   3.590   1.439   0.510
 3305SOL    HW210815   3.557   1.337   0.634
 3306SOL     OW10816   1.968   0.778   0.480
 3306SOL    HW110817   1.913   0.830   0.546
 3306SOL    HW210818   2.046   0.736   0.528
 3307SOL     OW10819   1.385   0.329   4.645
 3307SOL    HW110820   1.437   0.336   4.731
 3307SOL    HW210821   1.417   0.250   4.593
 3308SOL     OW10822   3.640   4.184   1.186
 3308SOL    HW110823   3.603   4.095   1.213
 3308SOL    HW210824   3.688   4.225   1.264
 3309SOL     OW10825   5.884   3.607   3.381
 3309SOL    HW110826   5.809   3.650   3.431
 3309SOL    HW210827   5.926   3.675   3.321
 3310SOL     OW10828   6.552   5.213   5.746
 3310SOL    HW110829   6.493   5.291   5.726
 3310SOL    HW210830   6.607   5.191   5.666
 3311SOL     OW10831   3.389   3.674   0.434
 3311SOL    HW110832   3.398   3.764   0.478
 3311SOL    HW210833   3.423   3.680   0.340
 3312SOL     OW10834   4.328   2.737   5.848
 3312SOL    HW110835   4.291   2.659   5.797
 3312SOL    HW210836   4.405   2.776   5.799
 3313SOL     OW10837   1.535   0.860   3.163
 3313SOL    HW110838   1.568   0.772   3.196
 3313SOL    HW210839   1.545   0.863   3.063
 3314SOL     OW10840   2.119   5.710   2.197
 3314SOL    HW110841   2.021   5.702   2.215
 3314SOL    HW210842   2.168   5.636   2.243
 3315SOL     OW10843   7.009   4.697   5.548
 3315SOL    HW110844   0.052   4.631   5.510
 3315SOL    HW210845   6.952   4.652   5.616
 3316SOL     OW10846   3.381   1.607   6.159
 3316SOL    HW110847   3.339   1.667   6.091
 3316SOL    HW210848   3.450   1.657   6.211
 3317SOL     OW10849   5.497   2.710   3.014
 3317SOL    HW110850   5.416   2.754   2.975
 3317SOL    HW210851   5.574   2.773   3.010
 3318SOL     OW10852   2.827   2.700   0.699
 3318SOL    HW110853   2.912   2.702   0.752
 3318SOL    HW210854   2.790   2.793   0.691
 3319SOL     OW10855   6.939   6.615   3.218
 3319SOL    HW110856   6.956   6.702   3.264
 3319SOL    HW210857   6.989   6.542   3.264
 3320SOL     OW10858   6.261   0.232   1.160
 3320SOL    HW110859   6.343   0.207   1.110
 3320SOL    HW210860   6.188   0.257   1.095
 3321SOL     OW10861   5.079   1.472   0.013
 3321SOL    HW110862   4.980   1.478   0.017
 3321SOL    HW210863   5.116   1.469   0.106
 3322SOL     OW10864   6.683   4.140   1.175
 3322SOL    HW110865   6.647   4.069   1.236
 3322SOL    HW210866   6.774   4.114   1.144
 3323SOL     OW10867   1.612   1.835   1.966
 3323SOL    HW110868   1.710   1.831   1.948
 3323SOL    HW210869   1.596   1.876   2.056
 3324SOL     OW10870   5.165   5.531   5.636
 3324SOL    HW110871   5.205   5.531   5.544
 3324SOL    HW210872   5.074   5.573   5.632
 3325SOL     OW10873   1.572   3.358   6.529
 3325SOL    HW110874   1.600   3.454   6.526
 3325SOL    HW210875   1.571   3.321   6.437
 3326SOL     OW10876   4.575   0.869   2.819
 3326SOL    HW110877   4.591   0.916   2.906
 3326SOL    HW210878   4.557   0.937   2.747
 3327SOL     OW10879   1.745   5.769   0.953
 3327SOL    HW110880   1.706   5.682   0.923
 3327SOL    HW210881   1.673   5.839   0.954
 3328SOL     OW10882   4.680   2.175   0.341
 3328SOL    HW110883   4.746   2.219   0.279
 3328SOL    HW210884   4.633   2.245   0.394
 3329SOL     OW10885   6.008   5.362   5.378
 3329SOL    HW110886   5.922   5.354   5.429
 3329SOL    HW210887   6.073   5.294   5.413
 3330SOL     OW10888   6.570   3.679   2.573
 3330SOL    HW110889   6.477   3.687   2.538
 3330SOL    HW210890   6.600   3.584   2.568
 3331SOL     OW10891   2.090   2.788   1.482
 3331SOL    HW110892   2.101   2.814   1.386
 3331SOL    HW210893   2.021   2.846   1.525
 3332SOL     OW10894   6.005   4.258   0.727
 3332SOL    HW110895   5.916   4.253   0.681
 3332SOL    HW210896   6.018   4.176   0.783
 3333SOL     OW10897   4.307   5.152   5.637
 3333SOL    HW110898   4.279   5.057   5.620
 3333SOL    HW210899   4.395   5.152   5.685
 3334SOL     OW10900   2.488   4.494   1.789
 3334SOL    HW110901   2.534   4.450   1.711
 3334SOL    HW210902   2.404   4.445   1.810
 3335SOL     OW10903   4.826   4.315   5.329
 3335SOL    HW110904   4.766   4.303   5.408
 3335SOL    HW210905   4.907   4.257   5.339
 3336SOL     OW10906   3.496   5.087   6.194
 3336SOL    HW110907   3.416   5.089   6.134
 3336SOL    HW210908   3.545   5.174   6.188
 3337SOL     OW10909   3.282   2.360   1.270
 3337SOL    HW110910   3.232   2.427   1.326
 3337SOL    HW210911   3.380   2.380   1.276
 3338SOL     OW10912   0.065   4.274   0.757
 3338SOL    HW110913   0.145   4.333   0.767
 3338SOL    HW210914   7.005   4.326   0.775
 3339SOL     OW10915   6.938   5.735   6.828
 3339SOL    HW110916   6.870   5.662   6.836
 3339SOL    HW210917   6.894   5.823   6.842
 3340SOL     OW10918   3.326   6.608   1.235
 3340SOL    HW110919   3.420   6.621   1.269
 3340SOL    HW210920   3.264   6.598   1.312
 3341SOL     OW10921   0.325   0.936   2.637
 3341SOL    HW110922   0.299   0.954   2.732
 3341SOL    HW210923   0.244   0.935   2.579
 3342SOL     OW10924   2.364   6.646   4.405
 3342SOL    HW110925   2.367   6.636   4.305
 3342SOL    HW210926   2.421   6.575   4.447
 3343SOL     OW10927   5.112   2.933   0.827
 3343SOL    HW110928   5.149   2.913   0.917
 3343SOL    HW210929   5.118   2.850   0.770
 3344SOL     OW10930   6.586   3.178   5.772
 3344SOL    HW110931   6.633   3.125   5.701
 3344SOL    HW210932   6.550   3.262   5.733
 3345SOL     OW10933   3.021   3.441   5.981
 3345SOL    HW110934   3.097   3.379   5.998
 3345SOL    HW210935   2.939   3.405   6.026
 3346SOL     OW10936   0.307   0.328   1.414
 3346SOL    HW110937   0.397   0.355   1.448
 3346SOL    HW210938   0.273   0.396   1.350
 3347SOL     OW10939   5.768   3.806   4.855
 3347SOL    HW110940   5.766   3.725   4.795
 3347SOL    HW210941   5.763   3.777   4.950
 3348SOL     OW10942   3.680   2.882   3.907
 3348SOL    HW110943   3.625   2.896   3.988
 3348SOL    HW210944   3.772   2.918   3.922
 3349SOL     OW10945   6.272   3.711   4.423
 3349SOL    HW110946   6.186   3.673   4.458
 3349SOL    HW210947   6.346   3.692   4.488
 3350SOL     OW10948   1.416   1.545   0.957
 3350SOL    HW110949   1.482   1.544   0.881
 3350SOL    HW210950   1.466   1.554   1.044
 3351SOL     OW10951   5.302   1.622   1.497
 3351SOL    HW110952   5.332   1.646   1.404
 3351SOL    HW210953   5.322   1.698   1.559
 3352SOL     OW10954   0.453   3.224   0.975
 3352SOL    HW110955   0.497   3.280   1.046
 3352SOL    HW210956   0.354   3.240   0.977
 3353SOL     OW10957   2.128   0.199   6.093
 3353SOL    HW110958   2.036   0.168   6.121
 3353SOL    HW210959   2.185   0.119   6.075
 3354SOL     OW10960   0.700   2.501   3.483
 3354SOL    HW110961   0.753   2.416   3.485
 3354SOL    HW210962   0.761   2.579   3.495
 3355SOL     OW10963   6.362   1.019   2.822
 3355SOL    HW110964   6.459   1.040   2.839
 3355SOL    HW210965   6.316   0.999   2.908
 3356SOL     OW10966   2.723   3.787   0.307
 3356SOL    HW110967   2.698   3.706   0.360
 3356SOL    HW210968   2.645   3.819   0.254
 3357SOL     OW10969   2.913   5.130   2.243
 3357SOL    HW110970   2.977   5.053   2.249
 3357SOL    HW210971   2.827   5.098   2.204
 3358SOL     OW10972   4.806   5.743   2.061
 3358SOL    HW110973   4.865   5.662   2.059
 3358SOL    HW210974   4.719   5.720   2.105
 3359SOL     OW10975   2.341   1.115   2.793
 3359SOL    HW110976   2.347   1.098   2.694
 3359SOL    HW210977   2.285   1.044   2.835
 3360SOL     OW10978   0.989   0.552   0.325
 3360SOL    HW110979   0.939   0.469   0.303
 3360SOL    HW210980   0.951   0.628   0.272
 3361SOL     OW10981   6.163   6.316   2.956
 3361SOL    HW110982   6.178   6.392   2.894
 3361SOL    HW210983   6.065   6.299   2.966
 3362SOL     OW10984   1.822   0.804   5.770
 3362SOL    HW110985   1.865   0.732   5.825
 3362SOL    HW210986   1.723   0.790   5.770
 3363SOL     OW10987   0.028   1.728   6.864
 3363SOL    HW110988   0.121   1.754   6.889
 3363SOL    HW210989   6.997   1.809   6.845
 3364SOL     OW10990   1.821   4.926   6.294
 3364SOL    HW110991   1.768   4.904   6.213
 3364SOL    HW210992   1.780   4.883   6.374
 3365SOL     OW10993   6.170   2.071   5.003
 3365SOL    HW110994   6.074   2.051   4.982
 3365SOL    HW210995   6.196   2.158   4.960
 3366SOL     OW10996   5.248   0.719   5.748
 3366SOL    HW110997   5.311   0.649   5.714
 3366SOL    HW210998   5.157   0.680   5.758
 3367SOL     OW10999   1.199   1.117   2.376
 3367SOL    HW111000   1.233   1.028   2.346
 3367SOL    HW211001   1.212   1.184   2.303
 3368SOL     OW11002   6.364   5.838   5.834
 3368SOL    HW111003   6.453   5.793   5.846
 3368SOL    HW211004   6.374   5.914   5.770
 3369SOL     OW11005   4.315   0.379   6.942
 3369SOL    HW111006   4.293   0.452   6.876
 3369SOL    HW211007   4.320   0.292   6.894
 3370SOL     OW11008   6.198   6.457   5.332
 3370SOL    HW111009   6.150   6.523   5.274
 3370SOL    HW211010   6.135   6.419   5.400
 3371SOL     OW11011   0.446   5.341   2.246
 3371SOL    HW111012   0.439   5.425   2.193
 3371SOL    HW211013   0.499   5.274   2.195
 3372SOL     OW11014   0.693   0.684   2.866
 3372SOL    HW111015   0.710   0.725   2.776
 3372SOL    HW211016   0.631   0.606   2.856
 3373SOL     OW11017   6.460   2.049   5.029
 3373SOL    HW111018   6.366   2.076   5.006
 3373SOL    HW211019   6.480   2.075   5.123
 3374SOL     OW11020   2.815   5.089   5.748
 3374SOL    HW111021   2.813   5.002   5.797
 3374SOL    HW211022   2.910   5.121   5.741
 3375SOL     OW11023   4.388   4.451   5.438
 3375SOL    HW111024   4.305   4.395   5.430
 3375SOL    HW211025   4.368   4.533   5.491
 3376SOL     OW11026   3.243   3.768   2.132
 3376SOL    HW111027   3.270   3.864   2.137
 3376SOL    HW211028   3.323   3.710   2.143
 3377SOL     OW11029   1.424   6.170   5.275
 3377SOL    HW111030   1.398   6.077   5.302
 3377SOL    HW211031   1.419   6.230   5.355
 3378SOL     OW11032   6.788   1.581   1.376
 3378SOL    HW111033   6.872   1.570   1.322
 3378SOL    HW211034   6.722   1.636   1.324
 3379SOL     OW11035   0.619   4.419   5.587
 3379SOL    HW111036   0.710   4.397   5.622
 3379SOL    HW211037   0.549   4.390   5.652
 3380SOL     OW11038   6.812   4.488   6.616
 3380SOL    HW111039   6.881   4.464   6.684
 3380SOL    HW211040   6.856   4.503   6.527
 3381SOL     OW11041   3.255   2.623   0.480
 3381SOL    HW111042   3.170   2.601   0.431
 3381SOL    HW211043   3.244   2.601   0.577
 3382SOL     OW11044   0.261   1.834   1.155
 3382SOL    HW111045   0.343   1.887   1.133
 3382SOL    HW211046   0.287   1.741   1.178
 3383SOL     OW11047   5.683   4.923   2.884
 3383SOL    HW111048   5.722   4.948   2.795
 3383SOL    HW211049   5.603   4.981   2.903
 3384SOL     OW11050   3.670   2.932   4.400
 3384SOL    HW111051   3.707   2.884   4.480
 3384SOL    HW211052   3.599   2.996   4.430
 3385SOL     OW11053   6.252   3.982   3.506
 3385SOL    HW111054   6.314   4.057   3.481
 3385SOL    HW211055   6.306   3.900   3.524
 3386SOL     OW11056   5.926   4.773   5.591
 3386SOL    HW111057   5.862   4.743   5.520
 3386SOL    HW211058   5.877   4.789   5.676
 3387SOL     OW11059   2.563   2.124   3.275
 3387SOL    HW111060   2.586   2.120   3.178
 3387SOL    HW211061   2.516   2.211   3.294
 3388SOL     OW11062   5.448   1.792   1.807
 3388SOL    HW111063   5.477   1.706   1.848
 3388SOL    HW211064   5.348   1.797   1.809
 3389SOL     OW11065   4.996   4.711   3.352
 3389SOL    HW111066   4.943   4.629   3.374
 3389SOL    HW211067   4.934   4.789   3.340
 3390SOL     OW11068   4.860   2.876   5.644
 3390SOL    HW111069   4.841   2.798   5.704
 3390SOL    HW211070   4.947   2.917   5.671
 3391SOL     OW11071   3.908   2.124   4.887
 3391SOL    HW111072   3.937   2.188   4.958
 3391SOL    HW211073   3.962   2.139   4.804
 3392SOL     OW11074   3.332   0.762   3.773
 3392SOL    HW111075   3.427   0.781   3.749
 3392SOL    HW211076   3.279   0.742   3.691
 3393SOL     OW11077   6.750   6.556   0.083
 3393SOL    HW111078   6.821   6.617   0.116
 3393SOL    HW211079   6.713   6.503   0.160
 3394SOL     OW11080   6.215   2.472   1.307
 3394SOL    HW111081   6.183   2.436   1.220
 3394SOL    HW211082   6.160   2.435   1.381
 3395SOL     OW11083   0.812   3.260   4.262
 3395SOL    HW111084   0.796   3.346   4.309
 3395SOL    HW211085   0.829   3.188   4.329
 3396SOL     OW11086   0.036   4.025   3.977
 3396SOL    HW111087   6.994   4.058   4.046
 3396SOL    HW211088   0.118   4.082   3.977
 3397SOL     OW11089   3.669   6.428   6.223
 3397SOL    HW111090   3.720   6.491   6.281
 3397SOL    HW211091   3.669   6.337   6.263
 3398SOL     OW11092   1.256   6.797   4.000
 3398SOL    HW111093   1.203   6.713   3.999
 3398SOL    HW211094   1.248   6.841   4.090
 3399SOL     OW11095   5.134   4.706   3.675
 3399SOL    HW111096   5.143   4.742   3.768
 3399SOL    HW211097   5.179   4.617   3.669
 3400SOL     OW11098   4.719   2.170   6.818
 3400SOL    HW111099   4.700   2.131   6.908
 3400SOL    HW211100   4.818   2.184   6.809
 3401SOL     OW11101   5.938   3.986   0.553
 3401SOL    HW111102   6.029   3.956   0.581
 3401SOL    HW211103   5.874   3.976   0.629
 3402SOL     OW11104   5.627   5.603   1.320
 3402SOL    HW111105   5.602   5.634   1.412
 3402SOL    HW211106   5.618   5.678   1.255
 3403SOL     OW11107   3.807   0.693   5.385
 3403SOL    HW111108   3.833   0.656   5.296
 3403SOL    HW211109   3.827   0.791   5.387
 3404SOL     OW11110   4.739   0.938   0.461
 3404SOL    HW111111   4.783   0.881   0.530
 3404SOL    HW211112   4.681   1.006   0.506
 3405SOL     OW11113   6.470   3.741   6.402
 3405SOL    HW111114   6.496   3.644   6.411
 3405SOL    HW211115   6.552   3.798   6.407
 3406SOL     OW11116   1.954   3.687   2.535
 3406SOL    HW111117   1.890   3.680   2.612
 3406SOL    HW211118   1.904   3.712   2.452
 3407SOL     OW11119   1.128   5.715   1.986
 3407SOL    HW111120   1.147   5.789   2.051
 3407SOL    HW211121   1.214   5.683   1.946
 3408SOL     OW11122   5.223   4.038   2.222
 3408SOL    HW111123   5.165   4.024   2.141
 3408SOL    HW211124   5.184   4.111   2.278
 3409SOL     OW11125   3.316   0.283   6.250
 3409SOL    HW111126   3.372   0.231   6.185
 3409SOL    HW211127   3.227   0.303   6.209
 3410SOL     OW11128   6.475   6.687   0.435
 3410SOL    HW111129   6.426   6.766   0.397
 3410SOL    HW211130   6.450   6.605   0.385
 3411SOL     OW11131   4.617   1.449   2.961
 3411SOL    HW111132   4.573   1.516   2.902
 3411SOL    HW211133   4.573   1.450   3.051
 3412SOL     OW11134   3.608   4.241   0.069
 3412SOL    HW111135   3.666   4.160   0.065
 3412SOL    HW211136   3.542   4.240   7.017
 3413SOL     OW11137   3.600   1.401   3.505
 3413SOL    HW111138   3.530   1.443   3.563
 3413SOL    HW211139   3.608   1.454   3.421
 3414SOL     OW11140   3.081   2.144   5.292
 3414SOL    HW111141   3.060   2.203   5.370
 3414SOL    HW211142   3.135   2.195   5.225
 3415SOL     OW11143   0.626   4.538   3.905
 3415SOL    HW111144   0.578   4.497   3.828
 3415SOL    HW211145   0.725   4.537   3.887
 3416SOL     OW11146   0.644   5.215   5.198
 3416SOL    HW111147   0.621   5.296   5.145
 3416SOL    HW211148   0.737   5.223   5.234
 3417SOL     OW11149   0.139   6.708   2.391
 3417SOL    HW111150   0.093   6.768   2.456
 3417SOL    HW211151   0.193   6.763   2.327
 3418SOL     OW11152   3.146   1.475   5.212
 3418SOL    HW111153   3.081   1.531   5.161
 3418SOL    HW211154   3.161   1.388   5.164
 3419SOL     OW11155   4.103   4.618   6.847
 3419SOL    HW111156   4.089   4.520   6.862
 3419SOL    HW211157   4.089   4.639   6.750
 3420SOL     OW11158   4.533   2.167   3.766
 3420SOL    HW111159   4.443   2.212   3.767
 3420SOL    HW211160   4.524   2.075   3.803
 3421SOL     OW11161   6.945   5.759   5.681
 3421SOL    HW111162   6.878   5.833   5.687
 3421SOL    HW211163   6.923   5.688   5.747
 3422SOL     OW11164   3.583   0.835   1.134
 3422SOL    HW111165   3.620   0.753   1.091
 3422SOL    HW211166   3.643   0.913   1.112
 3423SOL     OW11167   2.356   1.118   0.918
 3423SOL    HW111168   2.319   1.196   0.868
 3423SOL    HW211169   2.390   1.050   0.853
 3424SOL     OW11170   4.593   0.982   2.383
 3424SOL    HW111171   4.525   0.982   2.457
 3424SOL    HW211172   4.658   1.057   2.398
 3425SOL     OW11173   4.709   4.442   1.721
 3425SOL    HW111174   4.691   4.501   1.800
 3425SOL    HW211175   4.752   4.496   1.648
 3426SOL     OW11176   4.152   3.357   0.667
 3426SOL    HW111177   4.252   3.347   0.662
 3426SOL    HW211178   4.127   3.449   0.638
 3427SOL     OW11179   0.133   1.171   0.326
 3427SOL    HW111180   0.153   1.077   0.298
 3427SOL    HW211181   0.207   1.232   0.295
 3428SOL     OW11182   4.174   4.764   2.173
 3428SOL    HW111183   4.241   4.727   2.108
 3428SOL    HW211184   4.092   4.793   2.124
 3429SOL     OW11185   1.331   3.351   0.866
 3429SOL    HW111186   1.385   3.405   0.801
 3429SOL    HW211187   1.387   3.277   0.903
 3430SOL     OW11188   1.713   6.762   0.401
 3430SOL    HW111189   1.700   6.773   0.303
 3430SOL    HW211190   1.668   6.838   0.449
 3431SOL     OW11191   1.517   5.869   0.664
 3431SOL    HW111192   1.445   5.802   0.685
 3431SOL    HW211193   1.493   5.957   0.705
 3432SOL     OW11194   3.309   1.505   5.833
 3432SOL    HW111195   3.408   1.508   5.844
 3432SOL    HW211196   3.283   1.557   5.751
 3433SOL     OW11197   3.500   0.818   5.081
 3433SOL    HW111198   3.456   0.907   5.066
 3433SOL    HW211199   3.487   0.790   5.176
 3434SOL     OW11200   4.569   2.719   1.820
 3434SOL    HW111201   4.617   2.804   1.840
 3434SOL    HW211202   4.570   2.660   1.901
 3435SOL     OW11203   0.308   2.079   2.455
 3435SOL    HW111204   0.318   2.123   2.544
 3435SOL    HW211205   0.388   2.023   2.436
 3436SOL     OW11206   4.570   6.649   4.913
 3436SOL    HW111207   4.652   6.700   4.935
 3436SOL    HW211208   4.595   6.557   4.883
 3437SOL     OW11209   4.006   6.996   5.075
 3437SOL    HW111210   3.965   0.044   5.132
 3437SOL    HW211211   4.105   6.997   5.085
 3438SOL     OW11212   1.504   2.867   6.404
 3438SOL    HW111213   1.452   2.938   6.357
 3438SOL    HW211214   1.564   2.909   6.473
 3439SOL     OW11215   2.640   6.775   4.634
 3439SOL    HW111216   2.702   6.698   4.648
 3439SOL    HW211217   2.583   6.787   4.715
 3440SOL     OW11218   4.696   3.406   0.994
 3440SOL    HW111219   4.767   3.335   0.996
 3440SOL    HW211220   4.684   3.443   1.086
 3441SOL     OW11221   3.309   6.785   3.501
 3441SOL    HW111222   3.332   6.690   3.481
 3441SOL    HW211223   3.355   6.813   3.585
 3442SOL     OW11224   1.855   5.171   3.264
 3442SOL    HW111225   1.838   5.197   3.359
 3442SOL    HW211226   1.801   5.229   3.203
 3443SOL     OW11227   5.516   1.691   2.943
 3443SOL    HW111228   5.498   1.762   2.875
 3443SOL    HW211229   5.581   1.625   2.906
 3444SOL     OW11230   4.974   5.282   6.983
 3444SOL    HW111231   5.064   5.253   7.015
 3444SOL    HW211232   4.971   5.278   6.883
 3445SOL     OW11233   6.613   4.759   3.994
 3445SOL    HW111234   6.702   4.712   3.992
 3445SOL    HW211235   6.549   4.711   3.934
 3446SOL     OW11236   4.148   0.322   2.880
 3446SOL    HW111237   4.213   0.276   2.819
 3446SOL    HW211238   4.188   0.407   2.914
 3447SOL     OW11239   5.772   6.251   0.155
 3447SOL    HW111240   5.872   6.249   0.155
 3447SOL    HW211241   5.737   6.191   0.227
 3448SOL     OW11242   3.542   1.194   1.218
 3448SOL    HW111243   3.598   1.159   1.143
 3448SOL    HW211244   3.461   1.240   1.180
 3449SOL     OW11245   6.816   7.002   2.266
 3449SOL    HW111246   6.790   6.908   2.287
 3449SOL    HW211247   6.914   7.006   2.246
 3450SOL     OW11248   0.762   1.809   1.681
 3450SOL    HW111249   0.726   1.850   1.765
 3450SOL    HW211250   0.858   1.835   1.670
 3451SOL     OW11251   1.464   5.549   4.009
 3451SOL    HW111252   1.378   5.592   4.036
 3451SOL    HW211253   1.529   5.620   3.979
 3452SOL     OW11254   6.289   0.683   0.220
 3452SOL    HW111255   6.223   0.639   0.282
 3452SOL    HW211256   6.382   0.661   0.249
 3453SOL     OW11257   5.903   5.575   4.952
 3453SOL    HW111258   5.881   5.647   5.018
 3453SOL    HW211259   5.999   5.582   4.926
 3454SOL     OW11260   1.128   1.252   1.285
 3454SOL    HW111261   1.225   1.252   1.261
 3454SOL    HW211262   1.074   1.234   1.203
 3455SOL     OW11263   1.624   3.101   4.489
 3455SOL    HW111264   1.723   3.114   4.485
 3455SOL    HW211265   1.596   3.041   4.414
 3456SOL     OW11266   5.573   6.959   1.621
 3456SOL    HW111267   5.610   6.902   1.695
 3456SOL    HW211268   5.578   6.908   1.534
 3457SOL     OW11269   2.744   5.026   3.494
 3457SOL    HW111270   2.796   5.110   3.481
 3457SOL    HW211271   2.692   5.032   3.579
 3458SOL     OW11272   5.828   6.712   0.679
 3458SOL    HW111273   5.886   6.757   0.611
 3458SOL    HW211274   5.881   6.697   0.763
 3459SOL     OW11275   0.224   4.324   3.548
 3459SOL    HW111276   0.290   4.252   3.527
 3459SOL    HW211277   0.218   4.335   3.647
 3460SOL     OW11278   3.916   2.612   0.101
 3460SOL    HW111279   3.901   2.547   0.027
 3460SOL    HW211280   3.851   2.595   0.175
 3461SOL     OW11281   3.722   5.429   4.457
 3461SOL    HW111282   3.732   5.368   4.378
 3461SOL    HW211283   3.769   5.389   4.535
 3462SOL     OW11284   4.883   3.735   2.716
 3462SOL    HW111285   4.941   3.779   2.647
 3462SOL    HW211286   4.789   3.766   2.706
 3463SOL     OW11287   2.102   3.259   1.957
 3463SOL    HW111288   2.159   3.335   1.927
 3463SOL    HW211289   2.035   3.292   2.024
 3464SOL     OW11290   5.152   3.465   6.126
 3464SOL    HW111291   5.060   3.446   6.162
 3464SOL    HW211292   5.149   3.468   6.026
 3465SOL     OW11293   2.233   3.702   1.784
 3465SOL    HW111294   2.232   3.619   1.840
 3465SOL    HW211295   2.139   3.728   1.762
 3466SOL     OW11296   5.457   4.466   4.891
 3466SOL    HW111297   5.537   4.487   4.948
 3466SOL    HW211298   5.393   4.410   4.944
 3467SOL     OW11299   3.008   2.684   0.907
 3467SOL    HW111300   2.983   2.592   0.936
 3467SOL    HW211301   2.960   2.751   0.964
 3468SOL     OW11302   4.565   1.472   1.525
 3468SOL    HW111303   4.578   1.384   1.572
 3468SOL    HW211304   4.471   1.477   1.490
 3469SOL     OW11305   4.718   6.934   6.114
 3469SOL    HW111306   4.623   6.904   6.111
 3469SOL    HW211307   4.722   0.011   6.106
 3470SOL     OW11308   0.360   2.557   1.596
 3470SOL    HW111309   0.443   2.501   1.600
 3470SOL    HW211310   0.370   2.623   1.521
 3471SOL     OW11311   4.118   4.746   2.696
 3471SOL    HW111312   4.201   4.690   2.700
 3471SOL    HW211313   4.085   4.750   2.602
 3472SOL     OW11314   4.300   2.265   3.186
 3472SOL    HW111315   4.210   2.237   3.218
 3472SOL    HW211316   4.340   2.191   3.131
 3473SOL     OW11317   0.293   4.106   3.832
 3473SOL    HW111318   0.379   4.072   3.872
 3473SOL    HW211319   0.262   4.042   3.762
 3474SOL     OW11320   6.767   4.968   4.581
 3474SOL    HW111321   6.686   4.992   4.634
 3474SOL    HW211322   6.842   4.946   4.644
 3475SOL     OW11323   6.914   4.527   4.592
 3475SOL    HW111324   6.816   4.507   4.583
 3475SOL    HW211325   6.962   4.446   4.623
 3476SOL     OW11326   1.742   1.651   3.472
 3476SOL    HW111327   1.686   1.612   3.398
 3476SOL    HW211328   1.682   1.693   3.540
 3477SOL     OW11329   0.342   4.154   1.934
 3477SOL    HW111330   0.384   4.121   1.849
 3477SOL    HW211331   0.289   4.080   1.976
 3478SOL     OW11332   2.486   0.166   0.145
 3478SOL    HW111333   2.411   0.105   0.118
 3478SOL    HW211334   2.522   0.212   0.063
 3479SOL     OW11335   0.513   2.981   3.603
 3479SOL    HW111336   0.472   2.997   3.692
 3479SOL    HW211337   0.455   3.021   3.532
 3480SOL     OW11338   1.423   5.788   6.736
 3480SOL    HW111339   1.512   5.801   6.692
 3480SOL    HW211340   1.375   5.876   6.742
 3481SOL     OW11341   5.861   0.198   6.982
 3481SOL    HW111342   5.887   0.191   6.886
 3481SOL    HW211343   5.893   0.286   7.019
 3482SOL     OW11344   6.075   2.670   4.355
 3482SOL    HW111345   6.009   2.716   4.296
 3482SOL    HW211346   6.167   2.684   4.320
 3483SOL     OW11347   4.569   2.157   3.487
 3483SOL    HW111348   4.551   2.177   3.583
 3483SOL    HW211349   4.539   2.235   3.431
 3484SOL     OW11350   1.833   3.427   6.135
 3484SOL    HW111351   1.830   3.482   6.052
 3484SOL    HW211352   1.740   3.401   6.160
 3485SOL     OW11353   6.747   1.540   5.514
 3485SOL    HW111354   6.723   1.636   5.503
 3485SOL    HW211355   6.758   1.497   5.424
 3486SOL     OW11356   2.248   0.038   4.822
 3486SOL    HW111357   2.157   0.021   4.858
 3486SOL    HW211358   2.242   0.097   4.742
 3487SOL     OW11359   5.894   1.726   6.754
 3487SOL    HW111360   5.877   1.822   6.730
 3487SOL    HW211361   5.970   1.691   6.699
 3488SOL     OW11362   5.866   0.217   4.304
 3488SOL    HW111363   5.930   0.160   4.252
 3488SOL    HW211364   5.775   0.208   4.265
 3489SOL     OW11365   2.897   0.046   1.174
 3489SOL    HW111366   2.988   0.057   1.135
 3489SOL    HW211367   2.855   0.136   1.187
 3490SOL     OW11368   3.956   4.667   0.897
 3490SOL    HW111369   3.925   4.728   0.825
 3490SOL    HW211370   4.026   4.606   0.862
 3491SOL     OW11371   5.195   3.739   7.021
 3491SOL    HW111372   5.265   3.773   0.062
 3491SOL    HW211373   5.124   3.691   0.049
 3492SOL     OW11374   6.006   4.001   2.687
 3492SOL    HW111375   6.094   3.976   2.647
 3492SOL    HW211376   5.994   4.100   2.685
 3493SOL     OW11377   6.199   3.654   4.118
 3493SOL    HW111378   6.169   3.713   4.043
 3493SOL    HW211379   6.133   3.660   4.194
 3494SOL     OW11380   3.039   1.810   2.579
 3494SOL    HW111381   3.005   1.803   2.673
 3494SOL    HW211382   2.972   1.857   2.522
 3495SOL     OW11383   1.088   3.767   1.895
 3495SOL    HW111384   1.130   3.710   1.825
 3495SOL    HW211385   1.050   3.850   1.853
 3496SOL     OW11386   6.604   5.001   0.353
 3496SOL    HW111387   6.506   4.982   0.353
 3496SOL    HW211388   6.654   4.914   0.360
 3497SOL     OW11389   4.389   0.479   2.879
 3497SOL    HW111390   4.370   0.576   2.893
 3497SOL    HW211391   4.452   0.468   2.803
 3498SOL     OW11392   2.672   1.555   1.837
 3498SOL    HW111393   2.664   1.477   1.775
 3498SOL    HW211394   2.708   1.634   1.787
 3499SOL     OW11395   6.348   5.714   5.515
 3499SOL    HW111396   6.344   5.801   5.565
 3499SOL    HW211397   6.259   5.669   5.520
 3500SOL     OW11398   1.631   1.624   3.770
 3500SOL    HW111399   1.704   1.556   3.764
 3500SOL    HW211400   1.551   1.591   3.718
 3501SOL     OW11401   2.365   0.109   6.603
 3501SOL    HW111402   2.429   0.140   6.533
 3501SOL    HW211403   2.275   0.097   6.562
 3502SOL     OW11404   5.592   2.922   1.783
 3502SOL    HW111405   5.493   2.908   1.791
 3502SOL    HW211406   5.632   2.921   1.875
 3503SOL     OW11407   6.853   5.971   6.136
 3503SOL    HW111408   6.882   6.062   6.105
 3503SOL    HW211409   6.784   5.935   6.073
 3504SOL     OW11410   1.472   0.959   1.955
 3504SOL    HW111411   1.538   0.888   1.978
 3504SOL    HW211412   1.510   1.017   1.883
 3505SOL     OW11413   5.518   5.287   5.369
 3505SOL    HW111414   5.524   5.188   5.382
 3505SOL    HW211415   5.602   5.320   5.325
 3506SOL     OW11416   5.511   4.353   4.575
 3506SOL    HW111417   5.413   4.351   4.561
 3506SOL    HW211418   5.539   4.442   4.609
 3507SOL     OW11419   2.553   0.491   0.569
 3507SOL    HW111420   2.533   0.568   0.631
 3507SOL    HW211421   2.471   0.434   0.561
 3508SOL     OW11422   3.156   2.588   5.351
 3508SOL    HW111423   3.172   2.505   5.297
 3508SOL    HW211424   3.058   2.599   5.368
 3509SOL     OW11425   4.629   6.673   0.530
 3509SOL    HW111426   4.624   6.666   0.430
 3509SOL    HW211427   4.715   6.718   0.556
 3510SOL     OW11428   1.982   1.136   1.226
 3510SOL    HW111429   2.061   1.076   1.215
 3510SOL    HW211430   1.992   1.217   1.168
 3511SOL     OW11431   2.032   4.733   1.380
 3511SOL    HW111432   2.003   4.719   1.285
 3511SOL    HW211433   1.964   4.790   1.427
 3512SOL     OW11434   0.811   4.187   0.260
 3512SOL    HW111435   0.831   4.091   0.281
 3512SOL    HW211436   0.719   4.210   0.293
 3513SOL     OW11437   6.231   2.198   0.941
 3513SOL    HW111438   6.194   2.134   1.008
 3513SOL    HW211439   6.291   2.150   0.878
 3514SOL     OW11440   5.349   0.816   2.845
 3514SOL    HW111441   5.265   0.836   2.794
 3514SOL    HW211442   5.412   0.766   2.786
 3515SOL     OW11443   5.414   5.930   4.081
 3515SOL    HW111444   5.437   6.014   4.130
 3515SOL    HW211445   5.470   5.923   3.999
 3516SOL     OW11446   4.994   0.170   1.099
 3516SOL    HW111447   4.933   0.240   1.060
 3516SOL    HW211448   4.973   0.158   1.196
 3517SOL     OW11449   6.600   1.436   0.553
 3517SOL    HW111450   6.627   1.499   0.480
 3517SOL    HW211451   6.651   1.351   0.543
 3518SOL     OW11452   6.016   1.774   4.693
 3518SOL    HW111453   6.042   1.788   4.789
 3518SOL    HW211454   6.089   1.727   4.645
 3519SOL     OW11455   3.020   1.013   6.910
 3519SOL    HW111456   3.091   1.055   6.854
 3519SOL    HW211457   2.939   1.072   6.911
 3520SOL     OW11458   3.233   5.398   5.651
 3520SOL    HW111459   3.138   5.401   5.619
 3520SOL    HW211460   3.294   5.418   5.574
 3521SOL     OW11461   3.481   2.776   6.806
 3521SOL    HW111462   3.537   2.790   6.888
 3521SOL    HW211463   3.536   2.732   6.735
 3522SOL     OW11464   6.536   5.560   6.469
 3522SOL    HW111465   6.477   5.595   6.397
 3522SOL    HW211466   6.632   5.570   6.442
 3523SOL     OW11467   1.090   5.113   5.066
 3523SOL    HW111468   1.155   5.146   5.135
 3523SOL    HW211469   1.122   5.140   4.975
 3524SOL     OW11470   5.553   2.277   3.099
 3524SOL    HW111471   5.498   2.354   3.065
 3524SOL    HW211472   5.593   2.229   3.021
 3525SOL     OW11473   6.255   4.337   4.268
 3525SOL    HW111474   6.186   4.267   4.285
 3525SOL    HW211475   6.263   4.397   4.347
 3526SOL     OW11476   1.731   5.614   3.673
 3526SOL    HW111477   1.710   5.661   3.759
 3526SOL    HW211478   1.821   5.571   3.679
 3527SOL     OW11479   6.058   2.368   5.850
 3527SOL    HW111480   6.089   2.464   5.850
 3527SOL    HW211481   6.118   2.314   5.909
 3528SOL     OW11482   2.579   6.597   5.400
 3528SOL    HW111483   2.573   6.497   5.396
 3528SOL    HW211484   2.675   6.625   5.396
 3529SOL     OW11485   4.290   5.784   7.022
 3529SOL    HW111486   4.209   5.825   6.980
 3529SOL    HW211487   4.280   5.684   7.022
 3530SOL     OW11488   0.074   5.545   2.205
 3530SOL    HW111489   0.116   5.454   2.207
 3530SOL    HW211490   0.031   5.564   2.293
 3531SOL     OW11491   4.755   1.816   1.831
 3531SOL    HW111492   4.776   1.869   1.748
 3531SOL    HW211493   4.661   1.834   1.859
 3532SOL     OW11494   2.423   1.028   1.979
 3532SOL    HW111495   2.422   1.125   2.002
 3532SOL    HW211496   2.402   1.016   1.882
 3533SOL     OW11497   6.862   1.834   2.486
 3533SOL    HW111498   6.903   1.822   2.576
 3533SOL    HW211499   6.891   1.759   2.426
 3534SOL     OW11500   0.784   2.285   2.461
 3534SOL    HW111501   0.785   2.192   2.498
 3534SOL    HW211502   0.757   2.283   2.365
 3535SOL     OW11503   2.691   4.970   5.209
 3535SOL    HW111504   2.750   4.891   5.228
 3535SOL    HW211505   2.682   4.981   5.110
 3536SOL     OW11506   3.394   1.703   3.132
 3536SOL    HW111507   3.409   1.774   3.063
 3536SOL    HW211508   3.296   1.693   3.150
 3537SOL     OW11509   1.243   5.788   3.008
 3537SOL    HW111510   1.198   5.705   3.041
 3537SOL    HW211511   1.342   5.774   3.009
 3538SOL     OW11512   3.115   5.399   5.326
 3538SOL    HW111513   3.054   5.427   5.400
 3538SOL    HW211514   3.206   5.438   5.341
 3539SOL     OW11515   3.494   3.772   4.358
 3539SOL    HW111516   3.535   3.818   4.279
 3539SOL    HW211517   3.560   3.711   4.400
 3540SOL     OW11518   2.112   2.264   4.128
 3540SOL    HW111519   2.160   2.328   4.188
 3540SOL    HW211520   2.051   2.206   4.183
 3541SOL     OW11521   3.265   3.362   5.145
 3541SOL    HW111522   3.308   3.285   5.097
 3541SOL    HW211523   3.332   3.436   5.154
 3542SOL     OW11524   1.802   4.811   3.040
 3542SOL    HW111525   1.724   4.751   3.026
 3542SOL    HW211526   1.852   4.823   2.954
 3543SOL     OW11527   5.199   2.321   4.251
 3543SOL    HW111528   5.168   2.275   4.333
 3543SOL    HW211529   5.283   2.372   4.270
 3544SOL     OW11530   1.915   3.795   6.857
 3544SOL    HW111531   1.959   3.852   6.788
 3544SOL    HW211532   1.915   3.700   6.827
 3545SOL     OW11533   4.188   5.968   6.618
 3545SOL    HW111534   4.283   5.999   6.616
 3545SOL    HW211535   4.153   5.962   6.524
 3546SOL     OW11536   0.201   5.743   3.389
 3546SOL    HW111537   0.139   5.669   3.364
 3546SOL    HW211538   0.285   5.737   3.335
 3547SOL     OW11539   3.883   5.446   4.157
 3547SOL    HW111540   3.950   5.434   4.084
 3547SOL    HW211541   3.815   5.373   4.152
 3548SOL     OW11542   4.638   2.219   5.884
 3548SOL    HW111543   4.675   2.143   5.936
 3548SOL    HW211544   4.609   2.291   5.947
 3549SOL     OW11545   6.576   5.058   3.995
 3549SOL    HW111546   6.575   4.961   4.018
 3549SOL    HW211547   6.503   5.078   3.929
 3550SOL     OW11548   5.038   2.373   3.489
 3550SOL    HW111549   5.048   2.335   3.581
 3550SOL    HW211550   5.088   2.315   3.424
 3551SOL     OW11551   3.614   6.212   2.826
 3551SOL    HW111552   3.515   6.214   2.821
 3551SOL    HW211553   3.646   6.283   2.888
 3552SOL     OW11554   5.524   5.673   2.911
 3552SOL    HW111555   5.430   5.704   2.893
 3552SOL    HW211556   5.550   5.699   3.004
 3553SOL     OW11557   5.635   2.694   2.197
 3553SOL    HW111558   5.640   2.600   2.232
 3553SOL    HW211559   5.615   2.756   2.273
 3554SOL     OW11560   4.362   4.153   6.560
 3554SOL    HW111561   4.273   4.130   6.520
 3554SOL    HW211562   4.417   4.201   6.493
 3555SOL     OW11563   0.845   3.751   2.860
 3555SOL    HW111564   0.768   3.696   2.893
 3555SOL    HW211565   0.830   3.776   2.765
 3556SOL     OW11566   3.124   0.754   5.321
 3556SOL    HW111567   3.196   0.817   5.349
 3556SOL    HW211568   3.035   0.797   5.333
 3557SOL     OW11569   1.079   0.377   4.725
 3557SOL    HW111570   1.029   0.291   4.724
 3557SOL    HW211571   1.164   0.367   4.777
 3558SOL     OW11572   0.223   5.593   1.739
 3558SOL    HW111573   0.160   5.603   1.662
 3558SOL    HW211574   0.315   5.574   1.705
 3559SOL     OW11575   0.470   0.387   5.027
 3559SOL    HW111576   0.471   0.381   5.127
 3559SOL    HW211577   0.413   0.464   4.999
 3560SOL     OW11578   1.213   5.765   0.858
 3560SOL    HW111579   1.236   5.708   0.936
 3560SOL    HW211580   1.210   5.709   0.775
 3561SOL     OW11581   4.772   4.552   5.620
 3561SOL    HW111582   4.789   4.478   5.685
 3561SOL    HW211583   4.698   4.610   5.653
 3562SOL     OW11584   5.295   0.005   3.815
 3562SOL    HW111585   5.341   6.943   3.839
 3562SOL    HW211586   5.311   0.027   3.719
 3563SOL     OW11587   5.328   1.180   1.294
 3563SOL    HW111588   5.358   1.197   1.388
 3563SOL    HW211589   5.385   1.232   1.231
 3564SOL     OW11590   0.784   4.251   4.828
 3564SOL    HW111591   0.768   4.191   4.906
 3564SOL    HW211592   0.697   4.277   4.787
 3565SOL     OW11593   2.321   0.465   4.748
 3565SOL    HW111594   2.361   0.554   4.771
 3565SOL    HW211595   2.295   0.465   4.651
 3566SOL     OW11596   0.168   3.193   5.979
 3566SOL    HW111597   0.090   3.252   6.000
 3566SOL    HW211598   0.252   3.247   5.977
 3567SOL     OW11599   0.537   3.404   1.210
 3567SOL    HW111600   0.456   3.455   1.182
 3567SOL    HW211601   0.619   3.456   1.187
 3568SOL     OW11602   4.767   4.733   2.652
 3568SOL    HW111603   4.852   4.684   2.630
 3568SOL    HW211604   4.710   4.736   2.570
 3569SOL     OW11605   2.922   3.383   4.322
 3569SOL    HW111606   2.823   3.374   4.336
 3569SOL    HW211607   2.969   3.371   4.410
 3570SOL     OW11608   6.386   1.615   5.691
 3570SOL    HW111609   6.351   1.538   5.744
 3570SOL    HW211610   6.482   1.631   5.713
 3571SOL     OW11611   1.821   0.280   5.274
 3571SOL    HW111612   1.816   0.193   5.324
 3571SOL    HW211613   1.744   0.287   5.211
 3572SOL     OW11614   5.058   4.043   1.946
 3572SOL    HW111615   5.071   4.039   1.847
 3572SOL    HW211616   4.972   3.999   1.971
 3573SOL     OW11617   6.249   4.011   2.133
 3573SOL    HW111618   6.224   4.059   2.217
 3573SOL    HW211619   6.304   4.071   2.075
 3574SOL     OW11620   2.553   2.881   5.919
 3574SOL    HW111621   2.590   2.910   5.831
 3574SOL    HW211622   2.494   2.801   5.906
 3575SOL     OW11623   4.787   6.193   0.738
 3575SOL    HW111624   4.867   6.135   0.731
 3575SOL    HW211625   4.779   6.250   0.656
 3576SOL     OW11626   0.083   3.350   0.089
 3576SOL    HW111627   0.147   3.292   0.039
 3576SOL    HW211628   0.124   3.439   0.107
 3577SOL     OW11629   2.048   2.631   5.102
 3577SOL    HW111630   2.108   2.683   5.041
 3577SOL    HW211631   1.962   2.611   5.056
 3578SOL     OW11632   3.245   2.912   6.923
 3578SOL    HW111633   3.179   2.843   6.951
 3578SOL    HW211634   3.317   2.869   6.869
 3579SOL     OW11635   0.373   3.588   2.432
 3579SOL    HW111636   0.278   3.581   2.464
 3579SOL    HW211637   0.405   3.682   2.444
 3580SOL     OW11638   0.041   3.480   1.417
 3580SOL    HW111639   0.011   3.387   1.436
 3580SOL    HW211640   0.111   3.506   1.484
 3581SOL     OW11641   0.676   0.374   2.686
 3581SOL    HW111642   0.625   0.409   2.608
 3581SOL    HW211643   0.676   0.274   2.683
 3582SOL     OW11644   3.659   3.814   5.761
 3582SOL    HW111645   3.580   3.860   5.801
 3582SOL    HW211646   3.657   3.717   5.785
 3583SOL     OW11647   0.281   4.481   1.036
 3583SOL    HW111648   0.308   4.568   0.994
 3583SOL    HW211649   0.184   4.464   1.018
 3584SOL     OW11650   5.263   4.191   4.549
 3584SOL    HW111651   5.185   4.211   4.490
 3584SOL    HW211652   5.239   4.207   4.645
 3585SOL     OW11653   2.823   2.101   4.419
 3585SOL    HW111654   2.758   2.122   4.492
 3585SOL    HW211655   2.861   2.009   4.433
 3586SOL     OW11656   6.616   2.939   3.641
 3586SOL    HW111657   6.563   2.855   3.648
 3586SOL    HW211658   6.642   2.970   3.732
 3587SOL     OW11659   3.867   6.887   6.343
 3587SOL    HW111660   3.907   6.853   6.258
 3587SOL    HW211661   3.773   6.915   6.328
 3588SOL     OW11662   6.642   4.085   4.676
 3588SOL    HW111663   6.663   4.003   4.729
 3588SOL    HW211664   6.725   4.139   4.662
 3589SOL     OW11665   6.878   0.057   6.341
 3589SOL    HW111666   6.940   7.008   6.310
 3589SOL    HW211667   6.922   0.112   6.412
 3590SOL     OW11668   0.492   4.417   0.776
 3590SOL    HW111669   0.460   4.331   0.814
 3590SOL    HW211670   0.420   4.457   0.718
 3591SOL     OW11671   5.478   2.212   6.865
 3591SOL    HW111672   5.426   2.280   6.916
 3591SOL    HW211673   5.456   2.121   6.898
 3592SOL     OW11674   1.613   0.127   2.287
 3592SOL    HW111675   1.533   0.114   2.228
 3592SOL    HW211676   1.582   0.143   2.381
 3593SOL     OW11677   5.884   3.621   5.790
 3593SOL    HW111678   5.891   3.652   5.885
 3593SOL    HW211679   5.903   3.697   5.728
 3594SOL     OW11680   4.096   5.038   4.391
 3594SOL    HW111681   4.180   5.051   4.444
 3594SOL    HW211682   4.078   5.121   4.337
 3595SOL     OW11683   5.798   5.839   6.078
 3595SOL    HW111684   5.884   5.789   6.067
 3595SOL    HW211685   5.767   5.873   5.989
 3596SOL     OW11686   3.734   1.080   3.128
 3596SOL    HW111687   3.790   1.149   3.082
 3596SOL    HW211688   3.742   0.993   3.079
 3597SOL     OW11689   1.464   3.240   5.216
 3597SOL    HW111690   1.427   3.149   5.233
 3597SOL    HW211691   1.537   3.234   5.148
 3598SOL     OW11692   1.870   5.379   4.555
 3598SOL    HW111693   1.861   5.469   4.513
 3598SOL    HW211694   1.896   5.389   4.651
 3599SOL     OW11695   4.877   1.523   5.387
 3599SOL    HW111696   4.805   1.454   5.393
 3599SOL    HW211697   4.954   1.488   5.334
 3600SOL     OW11698   3.704   3.333   0.684
 3600SOL    HW111699   3.800   3.308   0.701
 3600SOL    HW211700   3.654   3.334   0.770
 3601SOL     OW11701   4.695   0.963   5.295
 3601SOL    HW111702   4.764   0.927   5.232
 3601SOL    HW211703   4.741   1.007   5.372
 3602SOL     OW11704   2.370   2.456   1.143
 3602SOL    HW111705   2.462   2.430   1.173
 3602SOL    HW211706   2.313   2.375   1.134
 3603SOL     OW11707   3.304   0.946   5.692
 3603SOL    HW111708   3.250   0.867   5.720
 3603SOL    HW211709   3.243   1.025   5.680
 3604SOL     OW11710   6.516   0.113   3.631
 3604SOL    HW111711   6.488   0.086   3.723
 3604SOL    HW211712   6.488   0.043   3.565
 3605SOL     OW11713   0.682   5.865   3.480
 3605SOL    HW111714   0.758   5.893   3.537
 3605SOL    HW211715   0.603   5.923   3.498
 3606SOL     OW11716   2.351   6.650   1.530
 3606SOL    HW111717   2.253   6.670   1.527
 3606SOL    HW211718   2.379   6.606   1.445
 3607SOL     OW11719   4.971   2.650   2.797
 3607SOL    HW111720   4.931   2.641   2.706
 3607SOL    HW211721   4.901   2.635   2.866
 3608SOL     OW11722   3.846   2.148   4.587
 3608SOL    HW111723   3.758   2.131   4.630
 3608SOL    HW211724   3.907   2.193   4.652
 3609SOL     OW11725   2.265   0.180   4.553
 3609SOL    HW111726   2.175   0.135   4.551
 3609SOL    HW211727   2.262   0.264   4.499
 3610SOL     OW11728   2.088   0.065   5.195
 3610SOL    HW111729   2.073   0.117   5.111
 3610SOL    HW211730   2.057   0.119   5.273
 3611SOL     OW11731   4.934   4.470   3.482
 3611SOL    HW111732   5.017   4.416   3.466
 3611SOL    HW211733   4.857   4.408   3.495
 3612SOL     OW11734   5.602   1.664   6.783
 3612SOL    HW111735   5.698   1.641   6.801
 3612SOL    HW211736   5.545   1.583   6.793
 3613SOL     OW11737   3.400   5.091   1.083
 3613SOL    HW111738   3.329   5.030   1.117
 3613SOL    HW211739   3.441   5.053   1.000
 3614SOL     OW11740   3.647   4.439   6.149
 3614SOL    HW111741   3.647   4.417   6.051
 3614SOL    HW211742   3.733   4.408   6.190
 3615SOL     OW11743   6.182   2.466   5.364
 3615SOL    HW111744   6.149   2.554   5.399
 3615SOL    HW211745   6.206   2.475   5.268
 3616SOL     OW11746   1.916   1.972   6.820
 3616SOL    HW111747   1.844   2.013   6.765
 3616SOL    HW211748   2.003   1.981   6.772
 3617SOL     OW11749   3.943   6.565   6.004
 3617SOL    HW111750   3.894   6.535   5.922
 3617SOL    HW211751   3.946   6.489   6.070
 3618SOL     OW11752   1.916   3.855   4.468
 3618SOL    HW111753   1.934   3.923   4.539
 3618SOL    HW211754   1.993   3.793   4.460
 3619SOL     OW11755   6.660   2.849   1.089
 3619SOL    HW111756   6.708   2.789   1.153
 3619SOL    HW211757   6.671   2.944   1.117
 3620SOL     OW11758   6.348   6.782   5.233
 3620SOL    HW111759   6.267   6.815   5.281
 3620SOL    HW211760   6.429   6.794   5.291
 3621SOL     OW11761   3.273   3.265   3.750
 3621SOL    HW111762   3.353   3.256   3.690
 3621SOL    HW211763   3.191   3.239   3.699
 3622SOL     OW11764   1.089   6.974   0.278
 3622SOL    HW111765   1.005   6.957   0.227
 3622SOL    HW211766   1.072   0.018   0.350
 3623SOL     OW11767   1.024   5.179   6.456
 3623SOL    HW111768   0.971   5.248   6.504
 3623SOL    HW211769   1.012   5.090   6.501
 3624SOL     OW11770   2.966   0.740   2.153
 3624SOL    HW111771   2.961   0.806   2.077
 3624SOL    HW211772   2.971   0.647   2.116
 3625SOL     OW11773   6.954   2.610   6.827
 3625SOL    HW111774   6.903   2.574   6.906
 3625SOL    HW211775   6.978   2.535   6.766
 3626SOL     OW11776   0.979   2.374   4.854
 3626SOL    HW111777   0.947   2.311   4.925
 3626SOL    HW211778   1.079   2.373   4.851
 3627SOL     OW11779   4.022   2.470   1.291
 3627SOL    HW111780   4.088   2.396   1.288
 3627SOL    HW211781   3.943   2.448   1.233
 3628SOL     OW11782   0.016   1.668   2.192
 3628SOL    HW111783   0.017   1.646   2.290
 3628SOL    HW211784   6.969   1.738   2.175
 3629SOL     OW11785   1.434   1.305   4.546
 3629SOL    HW111786   1.522   1.312   4.499
 3629SOL    HW211787   1.442   1.243   4.624
 3630SOL     OW11788   6.473   2.716   3.641
 3630SOL    HW111789   6.413   2.663   3.582
 3630SOL    HW211790   6.433   2.723   3.732
 3631SOL     OW11791   1.572   6.762   2.472
 3631SOL    HW111792   1.619   6.845   2.443
 3631SOL    HW211793   1.632   6.683   2.458
 3632SOL     OW11794   4.577   3.711   1.071
 3632SOL    HW111795   4.582   3.716   0.971
 3632SOL    HW211796   4.670   3.714   1.108
 3633SOL     OW11797   3.363   2.852   6.095
 3633SOL    HW111798   3.322   2.823   6.182
 3633SOL    HW211799   3.453   2.892   6.113
 3634SOL     OW11800   2.875   5.463   6.348
 3634SOL    HW111801   2.872   5.562   6.354
 3634SOL    HW211802   2.931   5.426   6.423
 3635SOL     OW11803   2.886   0.579   1.492
 3635SOL    HW111804   2.857   0.674   1.501
 3635SOL    HW211805   2.807   0.522   1.469
 3636SOL     OW11806   1.141   5.302   7.010
 3636SOL    HW111807   1.059   5.245   7.013
 3636SOL    HW211808   1.137   5.371   0.060
 3637SOL     OW11809   6.928   2.881   6.896
 3637SOL    HW111810   6.918   2.785   6.868
 3637SOL    HW211811   6.990   2.886   6.975
 3638SOL     OW11812   5.698   4.710   2.645
 3638SOL    HW111813   5.612   4.734   2.688
 3638SOL    HW211814   5.681   4.674   2.553
 3639SOL     OW11815   3.211   3.773   4.693
 3639SOL    HW111816   3.299   3.791   4.649
 3639SOL    HW211817   3.145   3.742   4.624
 3640SOL     OW11818   5.582   1.722   0.658
 3640SOL    HW111819   5.525   1.802   0.643
 3640SOL    HW211820   5.626   1.695   0.573
 3641SOL     OW11821   6.491   4.085   2.443
 3641SOL    HW111822   6.415   4.148   2.430
 3641SOL    HW211823   6.544   4.112   2.523
 3642SOL     OW11824   6.097   2.733   6.787
 3642SOL    HW111825   6.004   2.768   6.779
 3642SOL    HW211826   6.123   2.688   6.701
 3643SOL     OW11827   3.554   5.391   5.546
 3643SOL    HW111828   3.552   5.335   5.629
 3643SOL    HW211829   3.649   5.402   5.516
 3644SOL     OW11830   2.978   0.973   1.997
 3644SOL    HW111831   3.013   1.041   2.061
 3644SOL    HW211832   3.021   0.985   1.907
 3645SOL     OW11833   1.474   4.428   4.112
 3645SOL    HW111834   1.561   4.392   4.079
 3645SOL    HW211835   1.444   4.502   4.051
 3646SOL     OW11836   2.377   4.446   4.791
 3646SOL    HW111837   2.444   4.514   4.823
 3646SOL    HW211838   2.344   4.394   4.869
 3647SOL     OW11839   2.873   0.197   0.290
 3647SOL    HW111840   2.961   0.244   0.281
 3647SOL    HW211841   2.799   0.264   0.296
 3648SOL     OW11842   4.367   5.222   3.608
 3648SOL    HW111843   4.383   5.306   3.557
 3648SOL    HW211844   4.275   5.189   3.590
 3649SOL     OW11845   5.672   2.675   0.338
 3649SOL    HW111846   5.733   2.702   0.411
 3649SOL    HW211847   5.691   2.580   0.312
 3650SOL     OW11848   5.765   5.772   0.176
 3650SOL    HW111849   5.803   5.767   0.084
 3650SOL    HW211850   5.839   5.769   0.243
 3651SOL     OW11851   1.055   2.641   6.106
 3651SOL    HW111852   0.976   2.595   6.065
 3651SOL    HW211853   1.043   2.645   6.205
 3652SOL     OW11854   4.814   1.590   2.222
 3652SOL    HW111855   4.798   1.515   2.158
 3652SOL    HW211856   4.763   1.670   2.194
 3653SOL     OW11857   0.469   1.322   1.550
 3653SOL    HW111858   0.372   1.338   1.569
 3653SOL    HW211859   0.513   1.410   1.531
 3654SOL     OW11860   5.718   0.264   1.029
 3654SOL    HW111861   5.685   0.354   1.001
 3654SOL    HW211862   5.715   0.201   0.951
 3655SOL     OW11863   1.818   2.193   4.751
 3655SOL    HW111864   1.740   2.162   4.805
 3655SOL    HW211865   1.819   2.147   4.663
 3656SOL     OW11866   0.221   6.165   1.643
 3656SOL    HW111867   0.260   6.076   1.620
 3656SOL    HW211868   0.282   6.238   1.610
 3657SOL     OW11869   5.020   5.997   4.720
 3657SOL    HW111870   4.932   6.024   4.759
 3657SOL    HW211871   5.076   6.078   4.705
 3658SOL     OW11872   1.518   4.876   6.258
 3658SOL    HW111873   1.453   4.941   6.218
 3658SOL    HW211874   1.491   4.853   6.351
 3659SOL     OW11875   6.606   1.393   6.236
 3659SOL    HW111876   6.625   1.487   6.264
 3659SOL    HW211877   6.692   1.343   6.226
 3660SOL     OW11878   5.463   4.993   5.937
 3660SOL    HW111879   5.490   4.910   5.887
 3660SOL    HW211880   5.369   5.016   5.915
 3661SOL     OW11881   6.848   1.815   4.477
 3661SOL    HW111882   6.775   1.783   4.536
 3661SOL    HW211883   6.935   1.814   4.527
 3662SOL     OW11884   3.145   1.368   5.529
 3662SOL    HW111885   3.126   1.301   5.458
 3662SOL    HW211886   3.072   1.436   5.531
 3663SOL     OW11887   2.273   2.482   6.305
 3663SOL    HW111888   2.339   2.546   6.343
 3663SOL    HW211889   2.321   2.407   6.260
 3664SOL     OW11890   3.677   1.166   2.314
 3664SOL    HW111891   3.673   1.069   2.290
 3664SOL    HW211892   3.773   1.196   2.314
 3665SOL     OW11893   1.008   5.827   6.180
 3665SOL    HW111894   0.976   5.741   6.141
 3665SOL    HW211895   1.103   5.843   6.153
 3666SOL     OW11896   2.278   2.067   5.116
 3666SOL    HW111897   2.189   2.108   5.100
 3666SOL    HW211898   2.324   2.053   5.028
 3667SOL     OW11899   2.192   0.350   2.804
 3667SOL    HW111900   2.138   0.270   2.833
 3667SOL    HW211901   2.273   0.319   2.754
 3668SOL     OW11902   0.561   0.551   1.828
 3668SOL    HW111903   0.566   0.589   1.920
 3668SOL    HW211904   0.562   0.626   1.761
 3669SOL     OW11905   6.706   1.351   3.841
 3669SOL    HW111906   6.656   1.434   3.866
 3669SOL    HW211907   6.804   1.371   3.838
 3670SOL     OW11908   3.309   5.324   1.695
 3670SOL    HW111909   3.319   5.266   1.776
 3670SOL    HW211910   3.262   5.408   1.720
 3671SOL     OW11911   6.395   0.329   3.519
 3671SOL    HW111912   6.457   0.253   3.534
 3671SOL    HW211913   6.432   0.412   3.562
 3672SOL     OW11914   4.399   6.418   2.636
 3672SOL    HW111915   4.498   6.436   2.631
 3672SOL    HW211916   4.362   6.458   2.720
 3673SOL     OW11917   4.586   6.159   1.181
 3673SOL    HW111918   4.587   6.199   1.089
 3673SOL    HW211919   4.677   6.124   1.204
 3674SOL     OW11920   1.291   5.058   6.206
 3674SOL    HW111921   1.246   5.098   6.126
 3674SOL    HW211922   1.225   5.004   6.257
 3675SOL     OW11923   0.794   0.877   3.678
 3675SOL    HW111924   0.892   0.870   3.662
 3675SOL    HW211925   0.774   0.861   3.774
 3676SOL     OW11926   4.053   1.544   3.753
 3676SOL    HW111927   4.143   1.506   3.771
 3676SOL    HW211928   3.985   1.469   3.752
 3677SOL     OW11929   1.963   0.544   4.315
 3677SOL    HW111930   1.984   0.469   4.253
 3677SOL    HW211931   1.867   0.571   4.304
 3678SOL     OW11932   1.191   0.677   3.661
 3678SOL    HW111933   1.162   0.750   3.599
 3678SOL    HW211934   1.113   0.618   3.681
 3679SOL     OW11935   4.642   0.728   2.258
 3679SOL    HW111936   4.688   0.667   2.322
 3679SOL    HW211937   4.651   0.823   2.289
 3680SOL     OW11938   4.084   1.487   4.081
 3680SOL    HW111939   4.119   1.394   4.070
 3680SOL    HW211940   4.056   1.500   4.176
 3681SOL     OW11941   1.524   5.991   4.865
 3681SOL    HW111942   1.599   5.949   4.916
 3681SOL    HW211943   1.473   6.053   4.925
 3682SOL     OW11944   5.542   1.870   1.359
 3682SOL    HW111945   5.540   1.862   1.459
 3682SOL    HW211946   5.573   1.962   1.334
 3683SOL     OW11947   6.171   0.820   5.911
 3683SOL    HW111948   6.240   0.843   5.980
 3683SOL    HW211949   6.172   0.887   5.838
 3684SOL     OW11950   2.398   6.954   5.366
 3684SOL    HW111951   2.409   0.010   5.428
 3684SOL    HW211952   2.413   6.984   5.272
 3685SOL     OW11953   2.169   6.431   5.618
 3685SOL    HW111954   2.083   6.418   5.667
 3685SOL    HW211955   2.244   6.392   5.672
 3686SOL     OW11956   1.309   4.731   4.223
 3686SOL    HW111957   1.320   4.758   4.128
 3686SOL    HW211958   1.383   4.770   4.278
 3687SOL     OW11959   5.524   5.736   4.283
 3687SOL    HW111960   5.594   5.677   4.243
 3687SOL    HW211961   5.502   5.810   4.220
 3688SOL     OW11962   5.722   3.121   0.565
 3688SOL    HW111963   5.727   3.147   0.662
 3688SOL    HW211964   5.789   3.174   0.513
 3689SOL     OW11965   1.923   6.911   5.753
 3689SOL    HW111966   1.961   6.907   5.845
 3689SOL    HW211967   1.997   6.928   5.687
 3690SOL     OW11968   4.969   4.762   0.912
 3690SOL    HW111969   4.941   4.824   0.986
 3690SOL    HW211970   5.067   4.769   0.898
 3691SOL     OW11971   2.230   2.325   0.458
 3691SOL    HW111972   2.193   2.275   0.380
 3691SOL    HW211973   2.243   2.261   0.534
 3692SOL     OW11974   0.515   3.376   6.176
 3692SOL    HW111975   0.573   3.453   6.148
 3692SOL    HW211976   0.566   3.291   6.166
 3693SOL     OW11977   0.115   1.594   2.719
 3693SOL    HW111978   0.048   1.668   2.720
 3693SOL    HW211979   0.204   1.630   2.693
 3694SOL     OW11980   6.703   0.487   1.493
 3694SOL    HW111981   6.726   0.542   1.412
 3694SOL    HW211982   6.604   0.470   1.494
 3695SOL     OW11983   6.345   2.725   2.230
 3695SOL    HW111984   6.399   2.809   2.223
 3695SOL    HW211985   6.405   2.647   2.214
 3696SOL     OW11986   4.554   1.132   4.631
 3696SOL    HW111987   4.620   1.060   4.652
 3696SOL    HW211988   4.592   1.220   4.656
 3697SOL     OW11989   0.083   6.483   3.385
 3697SOL    HW111990   0.139   6.565   3.375
 3697SOL    HW211991   0.139   6.402   3.372
 3698SOL     OW11992   2.340   0.520   2.962
 3698SOL    HW111993   2.254   0.517   3.013
 3698SOL    HW211994   2.340   0.447   2.893
 3699SOL     OW11995   2.550   2.495   3.562
 3699SOL    HW111996   2.632   2.458   3.518
 3699SOL    HW211997   2.565   2.501   3.661
 3700SOL     OW11998   0.928   4.966   4.732
 3700SOL    HW111999   1.023   4.984   4.758
 3700SOL    HW212000   0.927   4.902   4.655
 3701SOL     OW12001   2.002   1.097   2.699
 3701SOL    HW112002   1.926   1.151   2.664
 3701SOL    HW212003   2.011   1.013   2.645
 3702SOL     OW12004   5.209   4.001   4.077
 3702SOL    HW112005   5.216   4.067   4.152
 3702SOL    HW212006   5.130   4.024   4.020
 3703SOL     OW12007   1.113   1.918   4.231
 3703SOL    HW112008   1.109   2.016   4.211
 3703SOL    HW212009   1.079   1.867   4.152
 3704SOL     OW12010   6.673   2.181   0.841
 3704SOL    HW112011   6.700   2.171   0.937
 3704SOL    HW212012   6.725   2.255   0.799
 3705SOL     OW12013   5.208   4.913   2.970
 3705SOL    HW112014   5.214   4.827   3.020
 3705SOL    HW212015   5.134   4.969   3.007
 3706SOL     OW12016   0.461   3.808   0.488
 3706SOL    HW112017   0.454   3.812   0.388
 3706SOL    HW212018   0.448   3.714   0.519
 3707SOL     OW12019   1.352   5.483   3.756
 3707SOL    HW112020   1.336   5.386   3.771
 3707SOL    HW212021   1.429   5.513   3.811
 3708SOL     OW12022   3.394   6.777   0.562
 3708SOL    HW112023   3.461   6.829   0.616
 3708SOL    HW212024   3.440   6.738   0.482
 3709SOL     OW12025   1.651   1.245   2.551
 3709SOL    HW112026   1.589   1.263   2.628
 3709SOL    HW212027   1.740   1.286   2.570
 3710SOL     OW12028   6.656   4.691   5.928
 3710SOL    HW112029   6.722   4.743   5.874
 3710SOL    HW212030   6.579   4.751   5.952
 3711SOL     OW12031   1.550   5.567   4.295
 3711SOL    HW112032   1.555   5.545   4.198
 3711SOL    HW212033   1.485   5.642   4.309
 3712SOL     OW12034   2.075   5.385   4.959
 3712SOL    HW112035   2.100   5.296   4.995
 3712SOL    HW212036   2.156   5.428   4.918
 3713SOL     OW12037   6.076   6.455   4.441
 3713SOL    HW112038   6.053   6.492   4.351
 3713SOL    HW212039   6.165   6.408   4.436
 3714SOL     OW12040   0.540   4.842   0.755
 3714SOL    HW112041   0.480   4.840   0.675
 3714SOL    HW212042   0.531   4.757   0.807
 3715SOL     OW12043   6.019   5.470   3.914
 3715SOL    HW112044   5.980   5.427   3.996
 3715SOL    HW212045   5.945   5.493   3.851
 3716SOL     OW12046   5.081   5.550   3.583
 3716SOL    HW112047   5.133   5.628   3.619
 3716SOL    HW212048   5.141   5.470   3.578
 3717SOL     OW12049   4.226   1.318   1.425
 3717SOL    HW112050   4.139   1.275   1.450
 3717SOL    HW212051   4.213   1.373   1.342
 3718SOL     OW12052   0.239   6.765   5.525
 3718SOL    HW112053   0.140   6.772   5.514
 3718SOL    HW212054   0.261   6.686   5.582
 3719SOL     OW12055   3.586   3.990   6.116
 3719SOL    HW112056   3.524   3.995   6.195
 3719SOL    HW212057   3.568   4.067   6.054
 3720SOL     OW12058   0.215   2.302   1.687
 3720SOL    HW112059   0.187   2.211   1.655
 3720SOL    HW212060   0.269   2.347   1.617
 3721SOL     OW12061   6.225   5.072   6.032
 3721SOL    HW112062   6.164   5.149   6.054
 3721SOL    HW212063   6.178   5.010   5.970
 3722SOL     OW12064   4.593   6.780   3.297
 3722SOL    HW112065   4.684   6.810   3.327
 3722SOL    HW212066   4.602   6.690   3.253
 3723SOL     OW12067   4.723   4.707   0.350
 3723SOL    HW112068   4.738   4.656   0.265
 3723SOL    HW212069   4.626   4.707   0.373
 3724SOL     OW12070   1.392   4.947   5.051
 3724SOL    HW112071   1.368   4.868   4.994
 3724SOL    HW212072   1.318   4.964   5.117
 3725SOL     OW12073   0.930   5.837   6.564
 3725SOL    HW112074   0.971   5.751   6.595
 3725SOL    HW212075   0.853   5.860   6.624
 3726SOL     OW12076   6.200   3.271   4.438
 3726SOL    HW112077   6.239   3.336   4.503
 3726SOL    HW212078   6.117   3.310   4.398
 3727SOL     OW12079   6.760   3.672   4.152
 3727SOL    HW112080   6.724   3.581   4.134
 3727SOL    HW212081   6.738   3.733   4.076
 3728SOL     OW12082   3.133   3.300   0.178
 3728SOL    HW112083   3.115   3.397   0.161
 3728SOL    HW212084   3.141   3.285   0.277
 3729SOL     OW12085   0.694   6.992   5.790
 3729SOL    HW112086   0.747   6.949   5.863
 3729SOL    HW212087   0.753   7.009   5.711
 3730SOL     OW12088   3.531   5.689   4.704
 3730SOL    HW112089   3.478   5.739   4.636
 3730SOL    HW212090   3.469   5.641   4.766
 3731SOL     OW12091   0.528   2.559   6.711
 3731SOL    HW112092   0.548   2.471   6.753
 3731SOL    HW212093   0.446   2.552   6.655
 3732SOL     OW12094   3.078   2.202   6.978
 3732SOL    HW112095   3.108   2.179   6.885
 3732SOL    HW212096   2.979   2.193   6.985
 3733SOL     OW12097   1.882   1.512   3.714
 3733SOL    HW112098   1.956   1.445   3.710
 3733SOL    HW212099   1.887   1.572   3.635
 3734SOL     OW12100   4.105   6.706   0.778
 3734SOL    HW112101   4.189   6.732   0.826
 3734SOL    HW212102   4.069   6.786   0.729
 3735SOL     OW12103   4.462   6.842   2.268
 3735SOL    HW112104   4.396   6.769   2.248
 3735SOL    HW212105   4.424   6.905   2.336
 3736SOL     OW12106   6.915   1.417   1.127
 3736SOL    HW112107   6.928   1.380   1.035
 3736SOL    HW212108   6.846   1.362   1.176
 3737SOL     OW12109   0.292   2.816   2.940
 3737SOL    HW112110   0.361   2.773   2.998
 3737SOL    HW212111   0.201   2.789   2.972
 3738SOL     OW12112   6.878   6.377   1.432
 3738SOL    HW112113   6.850   6.453   1.373
 3738SOL    HW212114   6.977   6.365   1.425
 3739SOL     OW12115   2.853   4.289   0.714
 3739SOL    HW112116   2.841   4.344   0.632
 3739SOL    HW212117   2.826   4.195   0.696
 3740SOL     OW12118   5.252   5.301   6.355
 3740SOL    HW112119   5.157   5.270   6.345
 3740SOL    HW212120   5.272   5.369   6.284
 3741SOL     OW12121   5.195   3.436   6.877
 3741SOL    HW112122   5.215   3.483   6.963
 3741SOL    HW212123   5.096   3.418   6.871
 3742SOL     OW12124   3.619   5.551   0.025
 3742SOL    HW112125   3.524   5.565   7.021
 3742SOL    HW212126   3.651   5.463   7.011
 3743SOL     OW12127   4.439   3.275   1.557
 3743SOL    HW112128   4.406   3.363   1.592
 3743SOL    HW212129   4.399   3.258   1.467
 3744SOL     OW12130   0.552   6.838   2.452
 3744SOL    HW112131   0.548   6.861   2.549
 3744SOL    HW212132   0.584   6.744   2.441
 3745SOL     OW12133   4.839   4.225   2.280
 3745SOL    HW112134   4.803   4.234   2.187
 3745SOL    HW212135   4.817   4.134   2.316
 3746SOL     OW12136   6.209   0.177   4.406
 3746SOL    HW112137   6.132   0.166   4.344
 3746SOL    HW212138   6.181   0.156   4.500
 3747SOL     OW12139   3.762   6.248   6.017
 3747SOL    HW112140   3.716   6.331   6.049
 3747SOL    HW212141   3.857   6.249   6.048
 3748SOL     OW12142   5.646   1.470   2.815
 3748SOL    HW112143   5.603   1.443   2.728
 3748SOL    HW212144   5.660   1.389   2.871
 3749SOL     OW12145   6.996   6.899   2.911
 3749SOL    HW112146   6.928   6.944   2.969
 3749SOL    HW212147   6.969   6.803   2.897
 3750SOL     OW12148   5.545   4.222   0.582
 3750SOL    HW112149   5.538   4.290   0.509
 3750SOL    HW212150   5.627   4.240   0.636
 3751SOL     OW12151   2.195   3.904   2.243
 3751SOL    HW112152   2.178   3.807   2.225
 3751SOL    HW212153   2.125   3.939   2.304
 3752SOL     OW12154   1.324   6.641   6.858
 3752SOL    HW112155   1.388   6.637   6.934
 3752SOL    HW212156   1.231   6.633   6.893
 3753SOL     OW12157   6.727   6.520   4.592
 3753SOL    HW112158   6.727   6.506   4.493
 3753SOL    HW212159   6.783   6.449   4.635
 3754SOL     OW12160   6.634   5.699   1.581
 3754SOL    HW112161   6.651   5.616   1.634
 3754SOL    HW212162   6.676   5.777   1.628
 3755SOL     OW12163   5.260   3.862   3.707
 3755SOL    HW112164   5.190   3.823   3.646
 3755SOL    HW212165   5.234   3.846   3.802
 3756SOL     OW12166   2.786   0.843   6.597
 3756SOL    HW112167   2.752   0.914   6.535
 3756SOL    HW212168   2.709   0.802   6.645
 3757SOL     OW12169   2.576   5.675   6.454
 3757SOL    HW112170   2.667   5.698   6.419
 3757SOL    HW212171   2.509   5.682   6.380
 3758SOL     OW12172   2.022   1.059   4.307
 3758SOL    HW112173   2.071   0.984   4.350
 3758SOL    HW212174   2.087   1.131   4.282
 3759SOL     OW12175   4.721   4.779   5.984
 3759SOL    HW112176   4.671   4.795   5.899
 3759SOL    HW212177   4.778   4.697   5.975
 3760SOL     OW12178   1.645   2.437   4.792
 3760SOL    HW112179   1.613   2.477   4.706
 3760SOL    HW212180   1.712   2.366   4.772
 3761SOL     OW12181   0.438   6.273   4.351
 3761SOL    HW112182   0.392   6.218   4.421
 3761SOL    HW212183   0.394   6.257   4.263
 3762SOL     OW12184   0.431   4.016   0.659
 3762SOL    HW112185   0.486   3.944   0.616
 3762SOL    HW212186   0.425   4.094   0.597
 3763SOL     OW12187   6.671   2.922   6.791
 3763SOL    HW112188   6.765   2.914   6.824
 3763SOL    HW212189   6.620   2.982   6.852
 3764SOL     OW12190   2.634   6.651   3.499
 3764SOL    HW112191   2.573   6.717   3.543
 3764SOL    HW212192   2.665   6.585   3.567
 3765SOL     OW12193   5.655   0.496   3.899
 3765SOL    HW112194   5.691   0.534   3.984
 3765SOL    HW212195   5.561   0.464   3.914
 3766SOL     OW12196   1.102   0.389   4.446
 3766SOL    HW112197   1.104   0.487   4.462
 3766SOL    HW212198   1.099   0.340   4.533
 3767SOL     OW12199   2.048   4.886   0.702
 3767SOL    HW112200   2.123   4.831   0.665
 3767SOL    HW212201   2.085   4.969   0.743
 3768SOL     OW12202   5.158   6.348   0.215
 3768SOL    HW112203   5.184   6.260   0.255
 3768SOL    HW212204   5.169   6.420   0.284
 3769SOL     OW12205   4.716   6.212   5.487
 3769SOL    HW112206   4.719   6.182   5.392
 3769SOL    HW212207   4.788   6.280   5.503
 3770SOL     OW12208   2.282   1.701   6.611
 3770SOL    HW112209   2.229   1.776   6.572
 3770SOL    HW212210   2.285   1.711   6.711
 3771SOL     OW12211   5.685   2.138   5.867
 3771SOL    HW112212   5.676   2.058   5.809
 3771SOL    HW212213   5.653   2.117   5.959
 3772SOL     OW12214   5.640   1.285   1.704
 3772SOL    HW112215   5.582   1.346   1.758
 3772SOL    HW212216   5.735   1.295   1.733
 3773SOL     OW12217   6.739   2.600   6.495
 3773SOL    HW112218   6.681   2.605   6.576
 3773SOL    HW212219   6.805   2.674   6.496
 3774SOL     OW12220   0.220   0.509   1.233
 3774SOL    HW112221   0.226   0.590   1.291
 3774SOL    HW212222   0.128   0.500   1.197
 3775SOL     OW12223   6.034   3.749   3.936
 3775SOL    HW112224   5.987   3.832   3.907
 3775SOL    HW212225   5.967   3.683   3.970
 3776SOL     OW12226   2.330   3.249   1.138
 3776SOL    HW112227   2.311   3.166   1.085
 3776SOL    HW212228   2.341   3.326   1.075
 3777SOL     OW12229   2.298   4.199   4.009
 3777SOL    HW112230   2.336   4.285   4.044
 3777SOL    HW212231   2.323   4.189   3.913
 3778SOL     OW12232   2.718   5.798   1.493
 3778SOL    HW112233   2.737   5.716   1.439
 3778SOL    HW212234   2.781   5.803   1.570
 3779SOL     OW12235   2.391   4.655   6.184
 3779SOL    HW112236   2.422   4.706   6.104
 3779SOL    HW212237   2.318   4.593   6.158
 3780SOL     OW12238   3.045   6.348   5.273
 3780SOL    HW112239   3.135   6.325   5.310
 3780SOL    HW212240   3.007   6.269   5.224
 3781SOL     OW12241   3.128   6.169   4.484
 3781SOL    HW112242   3.062   6.095   4.494
 3781SOL    HW212243   3.115   6.234   4.559
 3782SOL     OW12244   2.675   1.430   4.244
 3782SOL    HW112245   2.686   1.456   4.340
 3782SOL    HW212246   2.585   1.459   4.211
 3783SOL     OW12247   5.299   6.113   5.026
 3783SOL    HW112248   5.307   6.020   4.992
 3783SOL    HW212249   5.381   6.165   5.000
 3784SOL     OW12250   5.302   1.399   3.291
 3784SOL    HW112251   5.269   1.449   3.211
 3784SOL    HW212252   5.338   1.310   3.263
 3785SOL     OW12253   2.169   2.344   1.567
 3785SOL    HW112254   2.253   2.316   1.520
 3785SOL    HW212255   2.090   2.306   1.519
 3786SOL     OW12256   2.997   5.265   3.065
 3786SOL    HW112257   3.041   5.205   2.998
 3786SOL    HW212258   2.941   5.333   3.017
 3787SOL     OW12259   4.002   1.298   3.519
 3787SOL    HW112260   3.969   1.236   3.448
 3787SOL    HW212261   3.926   1.322   3.580
 3788SOL     OW12262   5.567   2.855   2.731
 3788SOL    HW112263   5.547   2.890   2.822
 3788SOL    HW212264   5.554   2.756   2.729
 3789SOL     OW12265   1.864   5.288   3.525
 3789SOL    HW112266   1.870   5.376   3.479
 3789SOL    HW212267   1.944   5.275   3.583
 3790SOL     OW12268   2.017   3.027   3.990
 3790SOL    HW112269   1.953   3.071   4.053
 3790SOL    HW212270   2.056   3.096   3.929
 3791SOL     OW12271   4.481   6.791   1.229
 3791SOL    HW112272   4.539   6.839   1.295
 3791SOL    HW212273   4.421   6.856   1.183
 3792SOL     OW12274   6.429   6.511   5.534
 3792SOL    HW112275   6.354   6.517   5.469
 3792SOL    HW212276   6.411   6.572   5.611
 3793SOL     OW12277   2.003   1.575   3.042
 3793SOL    HW112278   2.099   1.567   3.066
 3793SOL    HW212279   1.946   1.540   3.116
 3794SOL     OW12280   4.520   5.930   2.025
 3794SOL    HW112281   4.573   6.011   2.046
 3794SOL    HW212282   4.453   5.951   1.954
 3795SOL     OW12283   5.339   6.724   6.537
 3795SOL    HW112284   5.269   6.765   6.479
 3795SOL    HW212285   5.377   6.793   6.598
 3796SOL     OW12286   1.549   2.653   1.712
 3796SOL    HW112287   1.588   2.727   1.657
 3796SOL    HW212288   1.498   2.591   1.653
 3797SOL     OW12289   0.959   4.972   2.956
 3797SOL    HW112290   0.892   4.924   2.899
 3797SOL    HW212291   1.037   4.999   2.901
 3798SOL     OW12292   1.851   5.377   2.251
 3798SOL    HW112293   1.931   5.317   2.242
 3798SOL    HW212294   1.821   5.407   2.161
 3799SOL     OW12295   1.496   0.804   5.554
 3799SOL    HW112296   1.484   0.817   5.653
 3799SOL    HW212297   1.467   0.887   5.506
 3800SOL     OW12298   4.395   2.274   4.411
 3800SOL    HW112299   4.301   2.241   4.411
 3800SOL    HW212300   4.401   2.359   4.463
 3801SOL     OW12301   0.200   6.437   5.722
 3801SOL    HW112302   0.294   6.439   5.685
 3801SOL    HW212303   0.178   6.343   5.750
 3802SOL     OW12304   1.179   1.557   5.652
 3802SOL    HW112305   1.275   1.583   5.662
 3802SOL    HW212306   1.160   1.533   5.557
 3803SOL     OW12307   3.537   1.075   1.465
 3803SOL    HW112308   3.521   1.153   1.526
 3803SOL    HW212309   3.552   1.109   1.372
 3804SOL     OW12310   4.783   2.309   4.301
 3804SOL    HW112311   4.858   2.250   4.331
 3804SOL    HW212312   4.718   2.255   4.248
 3805SOL     OW12313   2.768   4.412   1.652
 3805SOL    HW112314   2.822   4.448   1.729
 3805SOL    HW212315   2.707   4.339   1.685
 3806SOL     OW12316   2.437   1.919   0.328
 3806SOL    HW112317   2.406   1.850   0.393
 3806SOL    HW212318   2.529   1.896   0.297
 3807SOL     OW12319   1.774   6.459   3.703
 3807SOL    HW112320   1.760   6.553   3.732
 3807SOL    HW212321   1.866   6.429   3.729
 3808SOL     OW12322   3.520   0.115   1.552
 3808SOL    HW112323   3.485   0.208   1.535
 3808SOL    HW212324   3.444   0.051   1.555
 3809SOL     OW12325   5.644   1.090   6.815
 3809SOL    HW112326   5.694   1.005   6.835
 3809SOL    HW212327   5.603   1.125   6.899
 3810SOL     OW12328   2.983   3.090   5.189
 3810SOL    HW112329   2.944   3.179   5.164
 3810SOL    HW212330   2.972   3.027   5.112
 3811SOL     OW12331   0.441   5.074   5.104
 3811SOL    HW112332   0.440   5.057   5.006
 3811SOL    HW212333   0.530   5.108   5.132
 3812SOL     OW12334   5.835   1.651   5.235
 3812SOL    HW112335   5.910   1.619   5.292
 3812SOL    HW212336   5.806   1.742   5.266
 3813SOL     OW12337   3.067   5.465   0.119
 3813SOL    HW112338   3.015   5.430   0.041
 3813SOL    HW212339   3.053   5.564   0.127
 3814SOL     OW12340   0.142   6.088   2.207
 3814SOL    HW112341   0.104   5.996   2.221
 3814SOL    HW212342   0.171   6.098   2.112
 3815SOL     OW12343   5.187   1.803   1.831
 3815SOL    HW112344   5.145   1.713   1.840
 3815SOL    HW212345   5.146   1.852   1.754
 3816SOL     OW12346   1.049   0.297   1.470
 3816SOL    HW112347   0.990   0.378   1.474
 3816SOL    HW212348   1.016   0.229   1.536
 3817SOL     OW12349   4.713   1.943   4.969
 3817SOL    HW112350   4.713   1.859   5.023
 3817SOL    HW212351   4.803   1.986   4.974
 3818SOL     OW12352   4.692   5.660   1.834
 3818SOL    HW112353   4.662   5.568   1.862
 3818SOL    HW212354   4.729   5.708   1.913
 3819SOL     OW12355   5.166   5.118   0.553
 3819SOL    HW112356   5.217   5.129   0.638
 3819SOL    HW212357   5.201   5.181   0.484
 3820SOL     OW12358   5.185   5.914   4.535
 3820SOL    HW112359   5.255   5.984   4.517
 3820SOL    HW212360   5.120   5.948   4.602
 3821SOL     OW12361   1.398   3.814   1.843
 3821SOL    HW112362   1.341   3.850   1.770
 3821SOL    HW212363   1.342   3.793   1.923
 3822SOL     OW12364   2.726   5.996   1.302
 3822SOL    HW112365   2.715   5.922   1.369
 3822SOL    HW212366   2.779   6.070   1.343
 3823SOL     OW12367   2.966   3.063   5.976
 3823SOL    HW112368   2.891   3.084   6.039
 3823SOL    HW212369   3.037   3.132   5.984
 3824SOL     OW12370   6.867   2.115   5.742
 3824SOL    HW112371   6.953   2.163   5.722
 3824SOL    HW212372   6.790   2.167   5.706
 3825SOL     OW12373   6.922   6.505   6.220
 3825SOL    HW112374   6.948   6.416   6.184
 3825SOL    HW212375   6.944   6.510   6.317
 3826SOL     OW12376   6.646   3.345   2.034
 3826SOL    HW112377   6.679   3.412   1.968
 3826SOL    HW212378   6.655   3.253   1.996
 3827SOL     OW12379   4.418   3.281   0.966
 3827SOL    HW112380   4.366   3.366   0.963
 3827SOL    HW212381   4.478   3.282   1.046
 3828SOL     OW12382   4.933   1.784   2.985
 3828SOL    HW112383   4.836   1.797   3.006
 3828SOL    HW212384   4.977   1.874   2.973
 3829SOL     OW12385   2.356   4.470   4.103
 3829SOL    HW112386   2.264   4.504   4.084
 3829SOL    HW212387   2.387   4.508   4.191
 3830SOL     OW12388   2.580   0.983   4.847
 3830SOL    HW112389   2.557   1.060   4.906
 3830SOL    HW212390   2.523   0.986   4.764
 3831SOL     OW12391   3.617   1.776   2.278
 3831SOL    HW112392   3.568   1.809   2.197
 3831SOL    HW212393   3.715   1.777   2.260
 3832SOL     OW12394   0.035   0.914   2.056
 3832SOL    HW112395   0.129   0.891   2.081
 3832SOL    HW212396   0.035   0.967   1.971
 3833SOL     OW12397   1.551   4.685   0.241
 3833SOL    HW112398   1.465   4.685   0.292
 3833SOL    HW212399   1.599   4.598   0.257
 3834SOL     OW12400   2.882   1.790   0.582
 3834SOL    HW112401   2.915   1.792   0.488
 3834SOL    HW212402   2.803   1.851   0.590
 3835SOL     OW12403   3.760   5.029   5.054
 3835SOL    HW112404   3.858   5.013   5.061
 3835SOL    HW212405   3.725   5.063   5.141
 3836SOL     OW12406   0.929   4.029   6.401
 3836SOL    HW112407   0.871   3.948   6.400
 3836SOL    HW212408   1.021   4.004   6.430
 3837SOL     OW12409   3.934   3.241   0.810
 3837SOL    HW112410   3.967   3.153   0.843
 3837SOL    HW212411   4.005   3.283   0.754
 3838SOL     OW12412   6.150   2.597   4.970
 3838SOL    HW112413   6.184   2.614   4.878
 3838SOL    HW212414   6.053   2.620   4.975
 3839SOL     OW12415   5.932   6.029   5.409
 3839SOL    HW112416   5.852   6.024   5.469
 3839SOL    HW212417   5.960   5.937   5.383
 3840SOL     OW12418   1.438   1.158   4.179
 3840SOL    HW112419   1.536   1.180   4.185
 3840SOL    HW212420   1.404   1.183   4.088
 3841SOL     OW12421   0.749   3.748   5.121
 3841SOL    HW112422   0.819   3.746   5.050
 3841SOL    HW212423   0.766   3.675   5.187
 3842SOL     OW12424   1.117   4.887   6.868
 3842SOL    HW112425   1.098   4.795   6.834
 3842SOL    HW212426   1.096   4.891   6.965
 3843SOL     OW12427   5.899   3.298   1.052
 3843SOL    HW112428   5.995   3.324   1.047
 3843SOL    HW212429   5.889   3.213   1.103
 3844SOL     OW12430   1.940   4.591   6.294
 3844SOL    HW112431   1.870   4.559   6.358
 3844SOL    HW212432   1.903   4.591   6.201
 3845SOL     OW12433   3.567   4.138   3.979
 3845SOL    HW112434   3.635   4.110   3.911
 3845SOL    HW212435   3.486   4.173   3.932
 3846SOL     OW12436   0.187   4.666   4.984
 3846SOL    HW112437   0.092   4.661   4.955
 3846SOL    HW212438   0.247   4.652   4.905
 3847SOL     OW12439   0.763   6.949   0.362
 3847SOL    HW112440   0.776   0.023   0.385
 3847SOL    HW212441   0.671   6.921   0.390
 3848SOL     OW12442   2.745   5.306   1.289
 3848SOL    HW112443   2.839   5.341   1.291
 3848SOL    HW212444   2.726   5.255   1.373
 3849SOL     OW12445   0.970   1.956   5.742
 3849SOL    HW112446   0.993   2.014   5.820
 3849SOL    HW212447   0.990   1.861   5.764
 3850SOL     OW12448   3.116   3.863   1.323
 3850SOL    HW112449   3.086   3.841   1.416
 3850SOL    HW212450   3.159   3.782   1.283
 3851SOL     OW12451   2.323   2.499   2.422
 3851SOL    HW112452   2.347   2.594   2.399
 3851SOL    HW212453   2.365   2.475   2.509
 3852SOL     OW12454   3.859   0.732   4.707
 3852SOL    HW112455   3.945   0.772   4.736
 3852SOL    HW212456   3.787   0.757   4.772
 3853SOL     OW12457   1.104   3.164   1.582
 3853SOL    HW112458   1.072   3.244   1.632
 3853SOL    HW212459   1.103   3.183   1.484
 3854SOL     OW12460   1.483   3.608   4.341
 3854SOL    HW112461   1.396   3.584   4.297
 3854SOL    HW212462   1.551   3.537   4.322
 3855SOL     OW12463   6.641   2.532   5.630
 3855SOL    HW112464   6.609   2.445   5.669
 3855SOL    HW212465   6.737   2.547   5.656
 3856SOL     OW12466   0.626   6.282   6.024
 3856SOL    HW112467   0.718   6.281   6.063
 3856SOL    HW212468   0.584   6.192   6.036
 3857SOL     OW12469   0.691   6.452   4.927
 3857SOL    HW112470   0.681   6.432   5.025
 3857SOL    HW212471   0.788   6.453   4.904
 3858SOL     OW12472   2.512   5.948   0.157
 3858SOL    HW112473   2.590   5.911   0.107
 3858SOL    HW212474   2.530   5.944   0.255
 3859SOL     OW12475   0.701   2.751   2.387
 3859SOL    HW112476   0.733   2.771   2.294
 3859SOL    HW212477   0.639   2.824   2.417
 3860SOL     OW12478   2.062   7.003   5.513
 3860SOL    HW112479   2.096   6.928   5.457
 3860SOL    HW212480   1.976   0.015   5.475
 3861SOL     OW12481   4.116   4.332   1.017
 3861SOL    HW112482   4.034   4.289   1.054
 3861SOL    HW212483   4.089   4.410   0.959
 3862SOL     OW12484   1.281   6.154   6.393
 3862SOL    HW112485   1.222   6.113   6.462
 3862SOL    HW212486   1.334   6.082   6.347
 3863SOL     OW12487   3.465   3.244   1.357
 3863SOL    HW112488   3.375   3.227   1.398
 3863SOL    HW212489   3.500   3.331   1.388
 3864SOL     OW12490   3.462   2.518   0.080
 3864SOL    HW112491   3.377   2.479   0.045
 3864SOL    HW212492   3.464   2.616   0.062
 3865SOL     OW12493   4.841   0.229   2.710
 3865SOL    HW112494   4.902   0.302   2.739
 3865SOL    HW212495   4.839   0.157   2.779
 3866SOL     OW12496   4.189   6.769   6.785
 3866SOL    HW112497   4.107   6.822   6.764
 3866SOL    HW212498   4.257   6.783   6.713
 3867SOL     OW12499   1.739   2.885   3.657
 3867SOL    HW112500   1.734   2.788   3.680
 3867SOL    HW212501   1.828   2.921   3.682
 3868SOL     OW12502   1.699   5.796   2.479
 3868SOL    HW112503   1.750   5.771   2.561
 3868SOL    HW212504   1.671   5.892   2.485
 3869SOL     OW12505   0.869   2.702   3.624
 3869SOL    HW112506   0.936   2.768   3.659
 3869SOL    HW212507   0.797   2.688   3.692
 3870SOL     OW12508   3.060   5.145   0.534
 3870SOL    HW112509   2.996   5.082   0.490
 3870SOL    HW212510   3.109   5.196   0.464
 3871SOL     OW12511   2.752   0.358   3.857
 3871SOL    HW112512   2.845   0.387   3.837
 3871SOL    HW212513   2.699   0.352   3.772
 3872SOL     OW12514   4.003   3.986   0.126
 3872SOL    HW112515   4.092   3.978   0.082
 3872SOL    HW212516   4.015   3.982   0.226
 3873SOL     OW12517   5.045   4.898   2.056
 3873SOL    HW112518   5.020   4.871   1.964
 3873SOL    HW212519   5.119   4.965   2.052
 3874SOL     OW12520   4.488   6.765   6.079
 3874SOL    HW112521   4.406   6.822   6.092
 3874SOL    HW212522   4.469   6.672   6.108
 3875SOL     OW12523   1.911   4.654   0.515
 3875SOL    HW112524   2.004   4.645   0.479
 3875SOL    HW212525   1.884   4.750   0.516
 3876SOL     OW12526   4.847   3.974   2.396
 3876SOL    HW112527   4.926   3.931   2.438
 3876SOL    HW212528   4.776   3.988   2.466
 3877SOL     OW12529   5.291   1.458   2.259
 3877SOL    HW112530   5.225   1.532   2.245
 3877SOL    HW212531   5.343   1.475   2.342
 3878SOL     OW12532   3.252   6.153   5.282
 3878SOL    HW112533   3.304   6.103   5.213
 3878SOL    HW212534   3.193   6.089   5.332
 3879SOL     OW12535   3.951   6.179   1.181
 3879SOL    HW112536   3.979   6.083   1.190
 3879SOL    HW212537   4.030   6.234   1.154
 3880SOL     OW12538   5.666   2.754   4.003
 3880SOL    HW112539   5.672   2.655   3.999
 3880SOL    HW212540   5.709   2.794   3.922
 3881SOL     OW12541   1.225   4.446   1.085
 3881SOL    HW112542   1.254   4.481   0.996
 3881SOL    HW212543   1.208   4.348   1.079
 3882SOL     OW12544   0.226   0.221   6.367
 3882SOL    HW112545   0.206   0.313   6.399
 3882SOL    HW212546   0.188   0.209   6.275
 3883SOL     OW12547   3.148   0.665   5.724
 3883SOL    HW112548   3.127   0.624   5.812
 3883SOL    HW212549   3.217   0.610   5.677
 3884SOL     OW12550   1.749   4.970   5.684
 3884SOL    HW112551   1.790   4.981   5.774
 3884SOL    HW212552   1.744   4.872   5.661
 3885SOL     OW12553   0.561   1.561   4.442
 3885SOL    HW112554   0.493   1.536   4.373
 3885SOL    HW212555   0.651   1.526   4.415
 3886SOL     OW12556   6.857   5.879   5.246
 3886SOL    HW112557   6.824   5.971   5.265
 3886SOL    HW212558   6.855   5.825   5.330
 3887SOL     OW12559   4.760   2.709   5.459
 3887SOL    HW112560   4.762   2.616   5.496
 3887SOL    HW212561   4.790   2.774   5.530
 3888SOL     OW12562   5.882   1.982   1.275
 3888SOL    HW112563   5.903   1.895   1.320
 3888SOL    HW212564   5.818   2.034   1.332
 3889SOL     OW12565   0.520   5.768   6.627
 3889SOL    HW112566   0.556   5.768   6.720
 3889SOL    HW212567   0.522   5.675   6.590
 3890SOL     OW12568   5.826   3.737   1.796
 3890SOL    HW112569   5.871   3.657   1.756
 3890SOL    HW212570   5.896   3.803   1.826
 3891SOL     OW12571   5.798   4.809   5.843
 3891SOL    HW112572   5.699   4.819   5.833
 3891SOL    HW212573   5.820   4.789   5.938
 3892SOL     OW12574   4.969   6.881   3.861
 3892SOL    HW112575   5.036   6.865   3.934
 3892SOL    HW212576   4.885   6.918   3.900
 3893SOL     OW12577   3.127   6.491   3.997
 3893SOL    HW112578   3.166   6.554   3.930
 3893SOL    HW212579   3.090   6.411   3.950
 3894SOL     OW12580   5.139   5.097   0.113
 3894SOL    HW112581   5.086   5.012   0.119
 3894SOL    HW212582   5.181   5.104   0.023
 3895SOL     OW12583   1.811   1.924   5.979
 3895SOL    HW112584   1.860   1.891   5.898
 3895SOL    HW212585   1.731   1.976   5.950
 3896SOL     OW12586   6.767   2.379   5.942
 3896SOL    HW112587   6.797   2.441   6.014
 3896SOL    HW212588   6.809   2.406   5.855
 3897SOL     OW12589   3.669   6.114   2.271
 3897SOL    HW112590   3.670   6.203   2.227
 3897SOL    HW212591   3.698   6.123   2.366
 3898SOL     OW12592   3.360   4.159   4.739
 3898SOL    HW112593   3.405   4.072   4.719
 3898SOL    HW212594   3.419   4.214   4.797
 3899SOL     OW12595   5.207   1.401   4.983
 3899SOL    HW112596   5.285   1.455   4.952
 3899SOL    HW212597   5.178   1.340   4.909
 3900SOL     OW12598   6.591   2.280   3.841
 3900SOL    HW112599   6.616   2.360   3.787
 3900SOL    HW212600   6.504   2.243   3.808
 3901SOL     OW12601   2.653   5.610   5.108
 3901SOL    HW112602   2.726   5.673   5.133
 3901SOL    HW212603   2.682   5.553   5.031
 3902SOL     OW12604   3.965   4.923   1.493
 3902SOL    HW112605   3.893   4.857   1.514
 3902SOL    HW212606   4.046   4.903   1.547
 3903SOL     OW12607   3.793   2.793   6.191
 3903SOL    HW112608   3.779   2.781   6.093
 3903SOL    HW212609   3.866   2.732   6.222
 3904SOL     OW12610   1.921   6.374   0.478
 3904SOL    HW112611   1.936   6.402   0.383
 3904SOL    HW212612   1.972   6.435   0.539
 3905SOL     OW12613   0.150   0.235   5.225
 3905SOL    HW112614   0.099   0.293   5.288
 3905SOL    HW212615   0.151   0.141   5.260
 3906SOL     OW12616   0.318   5.390   4.949
 3906SOL    HW112617   0.253   5.359   4.879
 3906SOL    HW212618   0.289   5.358   5.039
 3907SOL     OW12619   1.224   1.047   4.744
 3907SOL    HW112620   1.145   1.064   4.802
 3907SOL    HW212621   1.233   0.948   4.728
 3908SOL     OW12622   2.106   0.701   4.625
 3908SOL    HW112623   2.047   0.716   4.705
 3908SOL    HW212624   2.141   0.607   4.627
 3909SOL     OW12625   5.661   2.536   1.144
 3909SOL    HW112626   5.572   2.512   1.184
 3909SOL    HW212627   5.724   2.459   1.154
 3910SOL     OW12628   3.109   2.983   1.175
 3910SOL    HW112629   3.036   2.991   1.107
 3910SOL    HW212630   3.166   3.065   1.172
 3911SOL     OW12631   6.414   0.627   0.957
 3911SOL    HW112632   6.480   0.658   0.889
 3911SOL    HW212633   6.338   0.692   0.963
 3912SOL     OW12634   4.131   3.420   6.875
 3912SOL    HW112635   4.207   3.411   6.810
 3912SOL    HW212636   4.151   3.365   6.956
 3913SOL     OW12637   4.549   5.863   1.135
 3913SOL    HW112638   4.519   5.942   1.081
 3913SOL    HW212639   4.580   5.894   1.224
 3914SOL     OW12640   6.626   1.408   0.120
 3914SOL    HW112641   6.568   1.338   0.162
 3914SOL    HW212642   6.695   1.365   0.062
 3915SOL     OW12643   4.942   5.650   5.523
 3915SOL    HW112644   4.894   5.566   5.497
 3915SOL    HW212645   4.875   5.719   5.548
 3916SOL     OW12646   2.316   1.714   2.681
 3916SOL    HW112647   2.325   1.645   2.753
 3916SOL    HW212648   2.219   1.732   2.664
 3917SOL     OW12649   3.723   4.659   1.225
 3917SOL    HW112650   3.654   4.683   1.294
 3917SOL    HW212651   3.684   4.668   1.134
 3918SOL     OW12652   4.750   0.931   6.802
 3918SOL    HW112653   4.799   1.017   6.785
 3918SOL    HW212654   4.786   0.889   6.886
 3919SOL     OW12655   4.503   6.116   2.348
 3919SOL    HW112656   4.422   6.081   2.301
 3919SOL    HW212657   4.551   6.041   2.393
 3920SOL     OW12658   3.693   1.674   5.372
 3920SOL    HW112659   3.666   1.705   5.281
 3920SOL    HW212660   3.613   1.638   5.420
 3921SOL     OW12661   6.987   3.167   6.783
 3921SOL    HW112662   6.930   3.239   6.824
 3921SOL    HW212663   6.950   3.078   6.809
 3922SOL     OW12664   4.873   3.995   2.959
 3922SOL    HW112665   4.863   3.979   2.861
 3922SOL    HW212666   4.810   4.067   2.988
 3923SOL     OW12667   4.994   1.344   1.955
 3923SOL    HW112668   5.034   1.287   2.027
 3923SOL    HW212669   4.920   1.399   1.994
 3924SOL     OW12670   5.916   5.089   4.091
 3924SOL    HW112671   5.946   5.016   4.030
 3924SOL    HW212672   5.830   5.063   4.135
 3925SOL     OW12673   5.366   4.909   0.772
 3925SOL    HW112674   5.349   4.902   0.673
 3925SOL    HW212675   5.322   4.832   0.819
 3926SOL     OW12676   0.585   5.417   5.016
 3926SOL    HW112677   0.489   5.398   4.995
 3926SOL    HW212678   0.608   5.509   4.985
 3927SOL     OW12679   5.693   1.885   6.354
 3927SOL    HW112680   5.638   1.843   6.427
 3927SOL    HW212681   5.781   1.915   6.391
 3928SOL     OW12682   3.362   5.855   1.959
 3928SOL    HW112683   3.391   5.895   1.872
 3928SOL    HW212684   3.386   5.758   1.960
 3929SOL     OW12685   0.640   2.041   5.520
 3929SOL    HW112686   0.683   1.976   5.459
 3929SOL    HW212687   0.572   2.095   5.469
 3930SOL     OW12688   2.564   4.583   3.899
 3930SOL    HW112689   2.586   4.523   3.822
 3930SOL    HW212690   2.496   4.539   3.957
 3931SOL     OW12691   2.058   2.729   0.870
 3931SOL    HW112692   2.135   2.668   0.852
 3931SOL    HW212693   2.044   2.737   0.969
 3932SOL     OW12694   2.326   4.281   3.734
 3932SOL    HW112695   2.411   4.304   3.687
 3932SOL    HW212696   2.288   4.364   3.776
 3933SOL     OW12697   1.473   6.406   1.291
 3933SOL    HW112698   1.547   6.439   1.349
 3933SOL    HW212699   1.486   6.440   1.198
 3934SOL     OW12700   1.106   0.026   1.634
 3934SOL    HW112701   1.205   0.013   1.637
 3934SOL    HW212702   1.073   0.048   1.726
 3935SOL     OW12703   6.758   3.639   5.468
 3935SOL    HW112704   6.693   3.607   5.537
 3935SOL    HW212705   6.802   3.723   5.500
 3936SOL     OW12706   6.726   4.030   5.791
 3936SOL    HW112707   6.790   4.078   5.850
 3936SOL    HW212708   6.634   4.037   5.830
 3937SOL     OW12709   1.003   6.385   1.506
 3937SOL    HW112710   0.940   6.343   1.442
 3937SOL    HW212711   1.084   6.419   1.457
 3938SOL     OW12712   0.839   3.335   1.453
 3938SOL    HW112713   0.832   3.402   1.380
 3938SOL    HW212714   0.754   3.283   1.459
 3939SOL     OW12715   0.611   1.115   3.105
 3939SOL    HW112716   0.563   1.041   3.153
 3939SOL    HW212717   0.666   1.077   3.031
 3940SOL     OW12718   3.119   6.489   0.515
 3940SOL    HW112719   3.141   6.441   0.600
 3940SOL    HW212720   3.178   6.456   0.441
 3941SOL     OW12721   5.509   5.591   1.940
 3941SOL    HW112722   5.480   5.498   1.918
 3941SOL    HW212723   5.514   5.601   2.039
 3942SOL     OW12724   6.748   5.970   5.649
 3942SOL    HW112725   6.683   5.982   5.575
 3942SOL    HW212726   6.778   6.060   5.682
 3943SOL     OW12727   1.988   3.175   0.515
 3943SOL    HW112728   1.942   3.103   0.464
 3943SOL    HW212729   2.024   3.243   0.450
 3944SOL     OW12730   4.894   2.777   6.857
 3944SOL    HW112731   4.797   2.758   6.851
 3944SOL    HW212732   4.918   2.848   6.790
 3945SOL     OW12733   5.389   0.176   4.039
 3945SOL    HW112734   5.320   0.196   4.108
 3945SOL    HW212735   5.367   0.091   3.992
 3946SOL     OW12736   7.012   3.628   0.773
 3946SOL    HW112737   6.948   3.690   0.819
 3946SOL    HW212738   0.045   3.680   0.709
 3947SOL     OW12739   6.073   5.660   1.973
 3947SOL    HW112740   6.073   5.738   2.036
 3947SOL    HW212741   5.980   5.644   1.940
 3948SOL     OW12742   1.545   2.411   6.205
 3948SOL    HW112743   1.601   2.493   6.211
 3948SOL    HW212744   1.452   2.432   6.232
 3949SOL     OW12745   6.136   0.115   2.435
 3949SOL    HW112746   6.055   0.061   2.457
 3949SOL    HW212747   6.113   0.212   2.436
 3950SOL     OW12748   2.776   4.695   1.702
 3950SOL    HW112749   2.820   4.668   1.788
 3950SOL    HW212750   2.766   4.614   1.644
 3951SOL     OW12751   0.640   2.550   4.632
 3951SOL    HW112752   0.686   2.550   4.543
 3951SOL    HW212753   0.701   2.591   4.700
 3952SOL     OW12754   5.412   4.046   0.381
 3952SOL    HW112755   5.473   3.992   0.323
 3952SOL    HW212756   5.464   4.088   0.455
 3953SOL     OW12757   3.492   3.301   6.797
 3953SOL    HW112758   3.473   3.386   6.846
 3953SOL    HW212759   3.409   3.244   6.795
 3954SOL     OW12760   0.661   2.751   5.580
 3954SOL    HW112761   0.621   2.831   5.536
 3954SOL    HW212762   0.660   2.674   5.517
 3955SOL     OW12763   6.625   3.649   0.502
 3955SOL    HW112764   6.627   3.587   0.581
 3955SOL    HW212765   6.531   3.677   0.484
 3956SOL     OW12766   6.490   2.640   5.433
 3956SOL    HW112767   6.545   2.700   5.374
 3956SOL    HW212768   6.549   2.587   5.492
 3957SOL     OW12769   0.747   1.439   3.460
 3957SOL    HW112770   0.771   1.361   3.402
 3957SOL    HW212771   0.824   1.462   3.519
 3958SOL     OW12772   5.514   6.410   6.831
 3958SOL    HW112773   5.449   6.357   6.778
 3958SOL    HW212774   5.475   6.431   6.921
 3959SOL     OW12775   2.525   6.337   1.289
 3959SOL    HW112776   2.555   6.279   1.213
 3959SOL    HW212777   2.455   6.401   1.257
 3960SOL     OW12778   5.122   3.399   1.327
 3960SOL    HW112779   5.081   3.335   1.262
 3960SOL    HW212780   5.050   3.457   1.367
 3961SOL     OW12781   5.332   0.481   1.066
 3961SOL    HW112782   5.350   0.556   1.129
 3961SOL    HW212783   5.283   0.408   1.113
 3962SOL     OW12784   0.909   6.900   5.970
 3962SOL    HW112785   0.933   6.857   6.057
 3962SOL    HW212786   0.980   6.966   5.944
 3963SOL     OW12787   4.512   5.181   2.838
 3963SOL    HW112788   4.419   5.213   2.852
 3963SOL    HW212789   4.512   5.104   2.774
 3964SOL     OW12790   6.113   6.388   6.172
 3964SOL    HW112791   6.211   6.400   6.190
 3964SOL    HW212792   6.088   6.293   6.192
 3965SOL     OW12793   4.073   3.008   0.818
 3965SOL    HW112794   4.172   3.012   0.827
 3965SOL    HW212795   4.043   2.913   0.830
 3966SOL     OW12796   6.384   3.783   5.483
 3966SOL    HW112797   6.399   3.854   5.414
 3966SOL    HW212798   6.335   3.706   5.442
 3967SOL     OW12799   1.887   6.992   6.643
 3967SOL    HW112800   1.798   0.012   6.656
 3967SOL    HW212801   1.877   6.911   6.585
 3968SOL     OW12802   5.458   0.611   1.828
 3968SOL    HW112803   5.446   0.703   1.866
 3968SOL    HW212804   5.382   0.589   1.768
 3969SOL     OW12805   1.341   6.176   1.768
 3969SOL    HW112806   1.412   6.171   1.837
 3969SOL    HW212807   1.337   6.269   1.731
 3970SOL     OW12808   4.778   4.051   4.077
 3970SOL    HW112809   4.800   4.062   4.174
 3970SOL    HW212810   4.775   4.142   4.034
 3971SOL     OW12811   1.388   6.120   3.274
 3971SOL    HW112812   1.446   6.044   3.243
 3971SOL    HW212813   1.349   6.167   3.194
 3972SOL     OW12814   0.765   0.513   6.769
 3972SOL    HW112815   0.796   0.516   6.674
 3972SOL    HW212816   0.728   0.602   6.795
 3973SOL     OW12817   3.243   2.987   3.185
 3973SOL    HW112818   3.173   2.923   3.154
 3973SOL    HW212819   3.211   3.036   3.266
 3974SOL     OW12820   5.464   0.254   6.341
 3974SOL    HW112821   5.458   0.162   6.300
 3974SOL    HW212822   5.500   0.318   6.274
 3975SOL     OW12823   6.768   6.229   5.719
 3975SOL    HW112824   6.810   6.262   5.803
 3975SOL    HW212825   6.829   6.248   5.642
 3976SOL     OW12826   1.507   3.032   6.740
 3976SOL    HW112827   1.502   3.018   6.839
 3976SOL    HW212828   1.521   2.944   6.695
 3977SOL     OW12829   3.652   5.754   5.778
 3977SOL    HW112830   3.572   5.700   5.753
 3977SOL    HW212831   3.624   5.837   5.825
 3978SOL     OW12832   6.173   4.117   6.487
 3978SOL    HW112833   6.221   4.036   6.521
 3978SOL    HW212834   6.133   4.166   6.564
 3979SOL     OW12835   1.272   6.485   3.247
 3979SOL    HW112836   1.356   6.508   3.296
 3979SOL    HW212837   1.207   6.560   3.256
 3980SOL     OW12838   4.938   3.512   4.845
 3980SOL    HW112839   4.905   3.418   4.856
 3980SOL    HW212840   4.894   3.570   4.914
 3981SOL     OW12841   6.407   2.175   5.296
 3981SOL    HW112842   6.373   2.255   5.245
 3981SOL    HW212843   6.330   2.119   5.325
 3982SOL     OW12844   2.382   2.734   4.040
 3982SOL    HW112845   2.288   2.701   4.048
 3982SOL    HW212846   2.395   2.812   4.101
 3983SOL     OW12847   3.787   0.163   3.468
 3983SOL    HW112848   3.694   0.143   3.499
 3983SOL    HW212849   3.800   0.263   3.462
 3984SOL     OW12850   1.764   0.404   1.628
 3984SOL    HW112851   1.786   0.353   1.545
 3984SOL    HW212852   1.841   0.397   1.693
 3985SOL     OW12853   1.751   3.211   1.682
 3985SOL    HW112854   1.658   3.212   1.644
 3985SOL    HW212855   1.793   3.301   1.668
 3986SOL     OW12856   1.427   2.515   2.118
 3986SOL    HW112857   1.412   2.426   2.161
 3986SOL    HW212858   1.348   2.538   2.061
 3987SOL     OW12859   1.488   4.158   5.613
 3987SOL    HW112860   1.450   4.066   5.619
 3987SOL    HW212861   1.539   4.168   5.528
 3988SOL     OW12862   4.888   1.177   6.781
 3988SOL    HW112863   4.838   1.221   6.855
 3988SOL    HW212864   4.907   1.245   6.709
 3989SOL     OW12865   4.293   0.460   6.353
 3989SOL    HW112866   4.217   0.525   6.361
 3989SOL    HW212867   4.294   0.399   6.432
 3990SOL     OW12868   1.574   2.596   4.218
 3990SOL    HW112869   1.620   2.512   4.249
 3990SOL    HW212870   1.592   2.609   4.121
 3991SOL     OW12871   0.535   1.146   4.267
 3991SOL    HW112872   0.605   1.215   4.287
 3991SOL    HW212873   0.519   1.091   4.348
 3992SOL     OW12874   5.643   3.978   6.709
 3992SOL    HW112875   5.695   3.975   6.795
 3992SOL    HW212876   5.589   3.894   6.700
 3993SOL     OW12877   1.211   0.863   4.234
 3993SOL    HW112878   1.208   0.963   4.234
 3993SOL    HW212879   1.293   0.833   4.184
 3994SOL     OW12880   2.590   1.653   3.416
 3994SOL    HW112881   2.556   1.699   3.334
 3994SOL    HW212882   2.688   1.637   3.408
 3995SOL     OW12883   1.281   3.437   2.217
 3995SOL    HW112884   1.306   3.373   2.145
 3995SOL    HW212885   1.319   3.527   2.197
 3996SOL     OW12886   6.148   6.201   3.857
 3996SOL    HW112887   6.161   6.113   3.903
 3996SOL    HW212888   6.067   6.196   3.798
 3997SOL     OW12889   5.153   3.692   2.802
 3997SOL    HW112890   5.055   3.711   2.798
 3997SOL    HW212891   5.200   3.743   2.730
 3998SOL     OW12892   5.698   2.493   3.001
 3998SOL    HW112893   5.768   2.536   2.944
 3998SOL    HW212894   5.626   2.559   3.021
 3999SOL     OW12895   4.854   2.567   1.350
 3999SOL    HW112896   4.828   2.471   1.335
 3999SOL    HW212897   4.887   2.578   1.444
 4000SOL     OW12898   3.372   4.925   2.310
 4000SOL    HW112899   3.363   4.848   2.246
 4000SOL    HW212900   3.434   4.899   2.385
 4001SOL     OW12901   1.189   4.954   4.458
 4001SOL    HW112902   1.104   4.930   4.505
 4001SOL    HW212903   1.257   4.882   4.474
 4002SOL     OW12904   3.670   4.125   3.523
 4002SOL    HW112905   3.641   4.113   3.618
 4002SOL    HW212906   3.589   4.131   3.464
 4003SOL     OW12907   2.006   0.932   5.630
 4003SOL    HW112908   2.070   0.972   5.695
 4003SOL    HW212909   1.928   0.893   5.679
 4004SOL     OW12910   0.924   3.902   3.562
 4004SOL    HW112911   0.934   4.001   3.576
 4004SOL    HW212912   0.996   3.854   3.613
 4005SOL     OW12913   4.871   3.118   7.016
 4005SOL    HW112914   4.948   3.053   7.013
 4005SOL    HW212915   4.793   3.075   0.038
 4006SOL     OW12916   5.247   5.653   3.047
 4006SOL    HW112917   5.220   5.605   2.964
 4006SOL    HW212918   5.168   5.702   3.084
 4007SOL     OW12919   0.076   1.117   2.818
 4007SOL    HW112920   0.171   1.147   2.828
 4007SOL    HW212921   0.051   1.117   2.721
 4008SOL     OW12922   3.548   1.075   0.615
 4008SOL    HW112923   3.492   1.079   0.698
 4008SOL    HW212924   3.576   0.980   0.598
 4009SOL     OW12925   4.749   1.964   0.620
 4009SOL    HW112926   4.803   2.024   0.563
 4009SOL    HW212927   4.802   1.882   0.643
 4010SOL     OW12928   2.872   5.107   1.767
 4010SOL    HW112929   2.906   5.174   1.701
 4010SOL    HW212930   2.919   5.020   1.754
 4011SOL     OW12931   5.058   5.987   6.641
 4011SOL    HW112932   5.003   6.067   6.620
 4011SOL    HW212933   5.057   5.923   6.564
 4012SOL     OW12934   4.693   6.373   2.888
 4012SOL    HW112935   4.784   6.379   2.929
 4012SOL    HW212936   4.697   6.409   2.794
 4013SOL     OW12937   0.140   1.053   5.972
 4013SOL    HW112938   0.228   1.013   5.948
 4013SOL    HW212939   0.150   1.109   6.054
 4014SOL     OW12940   3.282   4.853   2.671
 4014SOL    HW112941   3.203   4.792   2.673
 4014SOL    HW212942   3.263   4.931   2.613
 4015SOL     OW12943   4.258   4.824   5.856
 4015SOL    HW112944   4.355   4.847   5.869
 4015SOL    HW212945   4.227   4.767   5.932
 4016SOL     OW12946   3.971   4.995   5.374
 4016SOL    HW112947   3.899   5.013   5.441
 4016SOL    HW212948   3.943   4.918   5.316
 4017SOL     OW12949   0.886   4.784   5.412
 4017SOL    HW112950   0.834   4.733   5.481
 4017SOL    HW212951   0.824   4.816   5.340
 4018SOL     OW12952   4.671   6.076   1.525
 4018SOL    HW112953   4.693   5.981   1.504
 4018SOL    HW212954   4.574   6.085   1.547
 4019SOL     OW12955   5.342   3.424   3.117
 4019SOL    HW112956   5.373   3.490   3.185
 4019SOL    HW212957   5.319   3.338   3.163
 4020SOL     OW12958   6.721   5.284   4.398
 4020SOL    HW112959   6.766   5.195   4.393
 4020SOL    HW212960   6.751   5.341   4.321
 4021SOL     OW12961   4.401   3.645   6.648
 4021SOL    HW112962   4.392   3.549   6.672
 4021SOL    HW212963   4.310   3.686   6.642
 4022SOL     OW12964   2.013   0.448   1.739
 4022SOL    HW112965   2.036   0.533   1.786
 4022SOL    HW212966   2.060   0.372   1.784
 4023SOL     OW12967   0.690   1.233   4.917
 4023SOL    HW112968   0.688   1.279   5.006
 4023SOL    HW212969   0.624   1.277   4.855
 4024SOL     OW12970   0.908   6.066   4.415
 4024SOL    HW112971   0.837   6.137   4.416
 4024SOL    HW212972   0.872   5.983   4.459
 4025SOL     OW12973   0.242   5.730   4.036
 4025SOL    HW112974   0.309   5.680   4.090
 4025SOL    HW212975   0.261   5.716   3.938
 4026SOL     OW12976   6.787   6.829   3.894
 4026SOL    HW112977   6.823   6.899   3.832
 4026SOL    HW212978   6.846   6.748   3.890
 4027SOL     OW12979   2.485   3.961   5.931
 4027SOL    HW112980   2.495   4.025   6.008
 4027SOL    HW212981   2.509   4.008   5.846
 4028SOL     OW12982   4.377   1.635   3.146
 4028SOL    HW112983   4.318   1.634   3.227
 4028SOL    HW212984   4.473   1.628   3.175
 4029SOL     OW12985   2.083   5.778   6.911
 4029SOL    HW112986   2.060   5.729   6.826
 4029SOL    HW212987   2.175   5.818   6.902
 4030SOL     OW12988   6.925   1.369   2.841
 4030SOL    HW112989   6.868   1.398   2.764
 4030SOL    HW212990   6.961   1.278   2.823
 4031SOL     OW12991   6.121   6.344   0.992
 4031SOL    HW112992   6.205   6.294   0.970
 4031SOL    HW212993   6.141   6.415   1.059
 4032SOL     OW12994   5.436   0.878   1.890
 4032SOL    HW112995   5.367   0.885   1.961
 4032SOL    HW212996   5.516   0.932   1.916
 4033SOL     OW12997   1.772   2.555   2.923
 4033SOL    HW112998   1.775   2.489   2.998
 4033SOL    HW212999   1.717   2.634   2.952
 4034SOL     OW13000   0.224   3.294   5.074
 4034SOL    HW113001   0.221   3.307   5.173
 4034SOL    HW213002   0.315   3.315   5.040
 4035SOL     OW13003   4.549   1.555   1.961
 4035SOL    HW113004   4.561   1.654   1.959
 4035SOL    HW213005   4.468   1.530   1.907
 4036SOL     OW13006   2.303   5.572   2.822
 4036SOL    HW113007   2.250   5.600   2.742
 4036SOL    HW213008   2.279   5.478   2.847
 4037SOL     OW13009   2.534   1.078   6.308
 4037SOL    HW113010   2.574   1.117   6.225
 4037SOL    HW213011   2.582   0.994   6.332
 4038SOL     OW13012   3.418   3.879   5.864
 4038SOL    HW113013   3.441   3.819   5.941
 4038SOL    HW213014   3.340   3.936   5.889
 4039SOL     OW13015   6.041   4.692   1.478
 4039SOL    HW113016   6.044   4.649   1.568
 4039SOL    HW213017   6.133   4.718   1.450
 4040SOL     OW13018   3.126   6.026   4.785
 4040SOL    HW113019   3.167   5.935   4.795
 4040SOL    HW213020   3.197   6.096   4.796
 4041SOL     OW13021   2.429   6.605   0.909
 4041SOL    HW113022   2.364   6.678   0.887
 4041SOL    HW213023   2.407   6.567   0.999
 4042SOL     OW13024   6.117   0.913   3.387
 4042SOL    HW113025   6.128   0.929   3.485
 4042SOL    HW213026   6.201   0.871   3.351
 4043SOL     OW13027   5.518   3.306   6.940
 4043SOL    HW113028   5.439   3.246   6.924
 4043SOL    HW213029   5.582   3.260   7.003
 4044SOL     OW13030   4.600   5.669   2.683
 4044SOL    HW113031   4.629   5.765   2.680
 4044SOL    HW213032   4.655   5.615   2.620
 4045SOL     OW13033   4.800   0.133   5.589
 4045SOL    HW113034   4.885   0.096   5.552
 4045SOL    HW213035   4.724   0.073   5.564
 4046SOL     OW13036   6.097   1.839   2.572
 4046SOL    HW113037   6.076   1.917   2.632
 4046SOL    HW213038   6.098   1.871   2.477
 4047SOL     OW13039   2.872   3.788   0.077
 4047SOL    HW113040   2.919   3.701   0.071
 4047SOL    HW213041   2.843   3.804   0.171
 4048SOL     OW13042   4.630   1.746   2.357
 4048SOL    HW113043   4.539   1.785   2.340
 4048SOL    HW213044   4.629   1.694   2.442
 4049SOL     OW13045   3.814   4.521   6.556
 4049SOL    HW113046   3.758   4.468   6.492
 4049SOL    HW213047   3.809   4.480   6.647
 4050SOL     OW13048   0.633   5.595   2.598
 4050SOL    HW113049   0.627   5.563   2.693
 4050SOL    HW213050   0.654   5.693   2.597
 4051SOL     OW13051   5.424   0.926   5.089
 4051SOL    HW113052   5.470   0.973   5.013
 4051SOL    HW213053   5.339   0.974   5.111
 4052SOL     OW13054   6.322   2.517   3.544
 4052SOL    HW113055   6.257   2.530   3.469
 4052SOL    HW213056   6.273   2.507   3.630
 4053SOL     OW13057   1.140   5.247   4.533
 4053SOL    HW113058   1.091   5.325   4.493
 4053SOL    HW213059   1.168   5.185   4.460
 4054SOL     OW13060   4.338   4.140   0.398
 4054SOL    HW113061   4.369   4.045   0.387
 4054SOL    HW213062   4.241   4.145   0.374
 4055SOL     OW13063   0.475   4.491   1.208
 4055SOL    HW113064   0.548   4.530   1.151
 4055SOL    HW213065   0.388   4.500   1.161
 4056SOL     OW13066   5.273   3.433   0.761
 4056SOL    HW113067   5.283   3.339   0.793
 4056SOL    HW213068   5.184   3.469   0.789
 4057SOL     OW13069   6.704   3.129   0.032
 4057SOL    HW113070   6.788   3.163   0.073
 4057SOL    HW213071   6.653   3.205   7.016
 4058SOL     OW13072   2.664   6.502   5.772
 4058SOL    HW113073   2.648   6.595   5.739
 4058SOL    HW213074   2.672   6.440   5.693
 4059SOL     OW13075   1.213   1.626   4.548
 4059SOL    HW113076   1.267   1.596   4.470
 4059SOL    HW213077   1.190   1.723   4.539
 4060SOL     OW13078   6.365   6.038   5.627
 4060SOL    HW113079   6.278   6.068   5.589
 4060SOL    HW213080   6.418   6.118   5.655
 4061SOL     OW13081   2.154   5.993   1.219
 4061SOL    HW113082   2.099   6.021   1.297
 4061SOL    HW213083   2.222   5.926   1.248
 4062SOL     OW13084   1.551   1.824   1.698
 4062SOL    HW113085   1.556   1.904   1.638
 4062SOL    HW213086   1.557   1.854   1.793
 4063SOL     OW13087   5.521   1.475   0.291
 4063SOL    HW113088   5.555   1.387   0.258
 4063SOL    HW213089   5.494   1.531   0.213
 4064SOL     OW13090   1.914   1.994   5.476
 4064SOL    HW113091   1.882   1.901   5.494
 4064SOL    HW213092   1.949   2.000   5.383
 4065SOL     OW13093   2.178   6.767   0.927
 4065SOL    HW113094   2.131   6.703   0.988
 4065SOL    HW213095   2.126   6.775   0.841
 4066SOL     OW13096   0.237   4.367   3.838
 4066SOL    HW113097   0.174   4.395   3.910
 4066SOL    HW213098   0.240   4.267   3.834
 4067SOL     OW13099   4.912   5.017   1.606
 4067SOL    HW113100   4.854   4.951   1.558
 4067SOL    HW213101   4.865   5.106   1.610
 4068SOL     OW13102   1.811   2.738   5.334
 4068SOL    HW113103   1.849   2.794   5.261
 4068SOL    HW213104   1.829   2.641   5.315
 4069SOL     OW13105   4.328   0.149   6.804
 4069SOL    HW113106   4.354   0.058   6.835
 4069SOL    HW213107   4.365   0.165   6.712
 4070SOL     OW13108   1.475   3.195   3.610
 4070SOL    HW113109   1.537   3.218   3.535
 4070SOL    HW213110   1.528   3.164   3.689
 4071SOL     OW13111   0.641   0.467   4.016
 4071SOL    HW113112   0.608   0.451   3.923
 4071SOL    HW213113   0.564   0.461   4.080
 4072SOL     OW13114   2.126   5.663   3.477
 4072SOL    HW113115   2.082   5.587   3.428
 4072SOL    HW213116   2.216   5.633   3.509
 4073SOL     OW13117   3.028   4.749   0.182
 4073SOL    HW113118   3.067   4.706   0.101
 4073SOL    HW213119   3.021   4.848   0.167
 4074SOL     OW13120   1.256   5.967   2.803
 4074SOL    HW113121   1.333   6.014   2.846
 4074SOL    HW213122   1.209   5.911   2.871
 4075SOL     OW13123   6.060   0.710   0.607
 4075SOL    HW113124   6.048   0.641   0.536
 4075SOL    HW213125   5.977   0.716   0.662
 4076SOL     OW13126   2.867   3.603   5.189
 4076SOL    HW113127   2.897   3.692   5.223
 4076SOL    HW213128   2.774   3.585   5.218
 4077SOL     OW13129   3.375   1.601   1.573
 4077SOL    HW113130   3.291   1.547   1.574
 4077SOL    HW213131   3.388   1.640   1.481
 4078SOL     OW13132   2.671   4.681   2.759
 4078SOL    HW113133   2.623   4.611   2.811
 4078SOL    HW213134   2.650   4.670   2.661
 4079SOL     OW13135   1.001   2.196   4.384
 4079SOL    HW113136   0.988   2.183   4.482
 4079SOL    HW213137   1.004   2.294   4.364
 4080SOL     OW13138   6.124   1.410   5.024
 4080SOL    HW113139   6.030   1.427   4.993
 4080SOL    HW213140   6.180   1.491   5.005
 4081SOL     OW13141   1.760   3.238   3.470
 4081SOL    HW113142   1.740   3.325   3.425
 4081SOL    HW213143   1.793   3.172   3.402
 4082SOL     OW13144   0.766   2.738   1.410
 4082SOL    HW113145   0.860   2.771   1.402
 4082SOL    HW213146   0.763   2.640   1.389
 4083SOL     OW13147   5.530   2.549   5.176
 4083SOL    HW113148   5.547   2.457   5.141
 4083SOL    HW213149   5.437   2.555   5.212
 4084SOL     OW13150   0.350   1.479   4.262
 4084SOL    HW113151   0.328   1.438   4.174
 4084SOL    HW213152   0.283   1.448   4.331
 4085SOL     OW13153   3.416   6.790   0.128
 4085SOL    HW113154   3.368   6.723   0.072
 4085SOL    HW213155   3.436   6.750   0.217
 4086SOL     OW13156   1.677   4.343   1.080
 4086SOL    HW113157   1.613   4.281   1.125
 4086SOL    HW213158   1.751   4.367   1.143
 4087SOL     OW13159   1.986   1.683   3.364
 4087SOL    HW113160   1.990   1.596   3.314
 4087SOL    HW213161   1.895   1.695   3.403
 4088SOL     OW13162   6.349   1.847   1.399
 4088SOL    HW113163   6.446   1.827   1.411
 4088SOL    HW213164   6.302   1.765   1.367
 4089SOL     OW13165   0.971   0.724   4.335
 4089SOL    HW113166   1.038   0.781   4.289
 4089SOL    HW213167   0.925   0.665   4.268
 4090SOL     OW13168   2.260   4.285   6.286
 4090SOL    HW113169   2.307   4.282   6.198
 4090SOL    HW213170   2.305   4.352   6.345
 4091SOL     OW13171   4.582   6.023   0.332
 4091SOL    HW113172   4.505   6.009   0.395
 4091SOL    HW213173   4.608   5.936   0.291
 4092SOL     OW13174   0.412   2.700   4.668
 4092SOL    HW113175   0.381   2.755   4.590
 4092SOL    HW213176   0.496   2.653   4.644
 4093SOL     OW13177   5.647   0.400   3.640
 4093SOL    HW113178   5.620   0.421   3.546
 4093SOL    HW213179   5.611   0.471   3.701
 4094SOL     OW13180   1.919   4.142   5.376
 4094SOL    HW113181   1.935   4.056   5.329
 4094SOL    HW213182   1.983   4.212   5.342
 4095SOL     OW13183   0.953   3.241   6.110
 4095SOL    HW113184   0.909   3.311   6.166
 4095SOL    HW213185   1.029   3.281   6.059
 4096SOL     OW13186   4.409   4.626   0.056
 4096SOL    HW113187   4.402   4.527   0.069
 4096SOL    HW213188   4.319   4.668   0.065
 4097SOL     OW13189   3.532   3.703   6.066
 4097SOL    HW113190   3.615   3.685   6.119
 4097SOL    HW213191   3.452   3.688   6.124
 4098SOL     OW13192   0.365   2.306   3.058
 4098SOL    HW113193   0.410   2.371   3.119
 4098SOL    HW213194   0.278   2.344   3.026
 4099SOL     OW13195   3.577   5.917   1.771
 4099SOL    HW113196   3.601   5.825   1.740
 4099SOL    HW213197   3.650   5.980   1.746
 4100SOL     OW13198   4.134   5.669   3.780
 4100SOL    HW113199   4.048   5.676   3.729
 4100SOL    HW213200   4.208   5.648   3.717
 4101SOL     OW13201   5.891   1.481   6.261
 4101SOL    HW113202   5.894   1.420   6.182
 4101SOL    HW213203   5.982   1.489   6.301
 4102SOL     OW13204   5.876   0.948   0.338
 4102SOL    HW113205   5.860   0.854   0.310
 4102SOL    HW213206   5.836   0.963   0.428
 4103SOL     OW13207   0.649   0.617   2.093
 4103SOL    HW113208   0.578   0.581   2.153
 4103SOL    HW213209   0.676   0.709   2.124
 4104SOL     OW13210   1.178   4.740   2.687
 4104SOL    HW113211   1.081   4.767   2.684
 4104SOL    HW213212   1.216   4.744   2.594
 4105SOL     OW13213   3.818   5.037   0.372
 4105SOL    HW113214   3.810   5.117   0.312
 4105SOL    HW213215   3.747   5.040   0.442
 4106SOL     OW13216   0.350   3.909   4.589
 4106SOL    HW113217   0.329   3.927   4.685
 4106SOL    HW213218   0.426   3.844   4.583
 4107SOL     OW13219   0.227   0.096   1.059
 4107SOL    HW113220   0.132   0.112   1.032
 4107SOL    HW213221   0.230   0.042   1.143
 4108SOL     OW13222   6.676   3.561   6.210
 4108SOL    HW113223   6.705   3.505   6.132
 4108SOL    HW213224   6.636   3.646   6.176
 4109SOL     OW13225   3.661   6.743   3.603
 4109SOL    HW113226   3.627   6.733   3.696
 4109SOL    HW213227   3.712   6.828   3.595
 4110SOL     OW13228   5.090   3.687   5.914
 4110SOL    HW113229   5.168   3.701   5.975
 4110SOL    HW213230   5.106   3.734   5.827
 4111SOL     OW13231   4.247   2.695   6.837
 4111SOL    HW113232   4.281   2.603   6.820
 4111SOL    HW213233   4.307   2.740   6.904
 4112SOL     OW13234   3.436   1.561   3.709
 4112SOL    HW113235   3.428   1.624   3.786
 4112SOL    HW213236   3.453   1.468   3.743
 4113SOL     OW13237   3.479   4.933   5.165
 4113SOL    HW113238   3.558   4.974   5.119
 4113SOL    HW213239   3.396   4.948   5.111
 4114SOL     OW13240   2.908   1.673   3.731
 4114SOL    HW113241   2.933   1.676   3.827
 4114SOL    HW213242   2.988   1.650   3.676
 4115SOL     OW13243   4.739   4.641   1.914
 4115SOL    HW113244   4.690   4.669   1.997
 4115SOL    HW213245   4.813   4.578   1.939
 4116SOL     OW13246   3.783   1.785   1.353
 4116SOL    HW113247   3.746   1.722   1.285
 4116SOL    HW213248   3.757   1.878   1.329
 4117SOL     OW13249   1.157   5.435   1.298
 4117SOL    HW113250   1.250   5.401   1.313
 4117SOL    HW213251   1.121   5.395   1.213
 4118SOL     OW13252   1.384   6.821   0.643
 4118SOL    HW113253   1.416   6.726   0.643
 4118SOL    HW213254   1.462   6.882   0.632
 4119SOL     OW13255   3.121   0.670   4.473
 4119SOL    HW113256   3.027   0.660   4.442
 4119SOL    HW213257   3.174   0.718   4.402
 4120SOL     OW13258   4.066   6.859   1.183
 4120SOL    HW113259   4.146   6.811   1.147
 4120SOL    HW213260   4.066   6.953   1.149
 4121SOL     OW13261   0.001   2.698   4.057
 4121SOL    HW113262   6.977   2.618   4.020
 4121SOL    HW213263   0.083   2.669   4.106
 4122SOL     OW13264   1.053   5.307   5.755
 4122SOL    HW113265   1.085   5.402   5.758
 4122SOL    HW213266   1.064   5.270   5.663
 4123SOL     OW13267   5.331   3.998   5.980
 4123SOL    HW113268   5.371   3.919   6.026
 4123SOL    HW213269   5.367   4.003   5.887
 4124SOL     OW13270   5.613   6.381   4.333
 4124SOL    HW113271   5.534   6.442   4.335
 4124SOL    HW213272   5.640   6.359   4.427
 4125SOL     OW13273   4.266   1.187   1.119
 4125SOL    HW113274   4.285   1.283   1.141
 4125SOL    HW213275   4.171   1.177   1.092
 4126SOL     OW13276   2.275   4.185   4.721
 4126SOL    HW113277   2.332   4.149   4.795
 4126SOL    HW213278   2.266   4.284   4.730
 4127SOL     OW13279   5.646   3.431   5.178
 4127SOL    HW113280   5.558   3.390   5.201
 4127SOL    HW213281   5.714   3.405   5.247
 4128SOL     OW13282   1.587   3.220   2.452
 4128SOL    HW113283   1.582   3.149   2.522
 4128SOL    HW213284   1.497   3.263   2.442
 4129SOL     OW13285   5.718   1.910   5.726
 4129SOL    HW113286   5.634   1.872   5.685
 4129SOL    HW213287   5.794   1.849   5.706
 4130SOL     OW13288   6.692   4.249   6.461
 4130SOL    HW113289   6.714   4.318   6.530
 4130SOL    HW213290   6.596   4.258   6.434
 4131SOL     OW13291   6.883   4.960   4.127
 4131SOL    HW113292   6.836   4.998   4.048
 4131SOL    HW213293   6.915   4.867   4.105
 4132SOL     OW13294   5.161   2.972   3.308
 4132SOL    HW113295   5.158   3.034   3.386
 4132SOL    HW213296   5.253   2.934   3.298
 4133SOL     OW13297   2.537   1.327   1.165
 4133SOL    HW113298   2.574   1.409   1.209
 4133SOL    HW213299   2.442   1.314   1.193
 4134SOL     OW13300   2.110   2.005   0.073
 4134SOL    HW113301   2.050   1.946   0.019
 4134SOL    HW213302   2.144   2.079   0.016
 4135SOL     OW13303   2.275   1.429   2.264
 4135SOL    HW113304   2.206   1.357   2.265
 4135SOL    HW213305   2.329   1.424   2.348
 4136SOL     OW13306   6.966   2.069   3.897
 4136SOL    HW113307   7.002   2.007   3.967
 4136SOL    HW213308   6.866   2.066   3.899
 4137SOL     OW13309   3.255   3.631   6.615
 4137SOL    HW113310   3.213   3.554   6.567
 4137SOL    HW213311   3.184   3.684   6.661
 4138SOL     OW13312   3.908   4.825   3.399
 4138SOL    HW113313   3.987   4.822   3.459
 4138SOL    HW213314   3.935   4.800   3.306
 4139SOL     OW13315   1.520   1.630   6.109
 4139SOL    HW113316   1.476   1.678   6.034
 4139SOL    HW213317   1.620   1.637   6.100
 4140SOL     OW13318   4.142   0.842   5.232
 4140SOL    HW113319   4.196   0.791   5.300
 4140SOL    HW213320   4.078   0.780   5.187
 4141SOL     OW13321   5.539   5.489   0.560
 4141SOL    HW113322   5.458   5.433   0.542
 4141SOL    HW213323   5.565   5.479   0.656
 4142SOL     OW13324   6.944   4.329   1.260
 4142SOL    HW113325   0.002   4.297   1.209
 4142SOL    HW213326   6.951   4.298   1.355
 4143SOL     OW13327   6.844   3.002   0.773
 4143SOL    HW113328   6.845   2.902   0.769
 4143SOL    HW213329   6.929   3.037   0.734
 4144SOL     OW13330   5.084   1.312   2.425
 4144SOL    HW113331   5.074   1.371   2.505
 4144SOL    HW213332   5.011   1.333   2.359
 4145SOL     OW13333   1.771   0.261   1.373
 4145SOL    HW113334   1.864   0.237   1.346
 4145SOL    HW213335   1.717   0.283   1.292
 4146SOL     OW13336   5.014   6.875   6.972
 4146SOL    HW113337   5.003   6.779   6.949
 4146SOL    HW213338   5.095   6.887   0.007
 4147SOL     OW13339   3.295   1.740   5.582
 4147SOL    HW113340   3.299   1.732   5.482
 4147SOL    HW213341   3.311   1.836   5.608
 4148SOL     OW13342   6.354   0.687   3.385
 4148SOL    HW113343   6.435   0.743   3.403
 4148SOL    HW213344   6.381   0.607   3.330
 4149SOL     OW13345   6.187   4.073   1.817
 4149SOL    HW113346   6.116   4.024   1.867
 4149SOL    HW213347   6.152   4.162   1.787
 4150SOL     OW13348   5.658   6.978   6.849
 4150SOL    HW113349   5.747   6.948   6.814
 4150SOL    HW213350   5.667   7.009   6.943
 4151SOL     OW13351   0.074   6.065   0.401
 4151SOL    HW113352   0.064   5.992   0.333
 4151SOL    HW213353   0.128   6.140   0.361
 4152SOL     OW13354   4.173   4.883   1.670
 4152SOL    HW113355   4.262   4.928   1.675
 4152SOL    HW213356   4.184   4.785   1.684
 4153SOL     OW13357   6.211   4.686   6.363
 4153SOL    HW113358   6.120   4.654   6.339
 4153SOL    HW213359   6.239   4.759   6.301
 4154SOL     OW13360   6.253   2.923   5.648
 4154SOL    HW113361   6.272   2.910   5.746
 4154SOL    HW213362   6.303   3.003   5.615
 4155SOL     OW13363   0.960   3.449   1.671
 4155SOL    HW113364   0.906   3.437   1.754
 4155SOL    HW213365   0.910   3.410   1.593
 4156SOL     OW13366   5.522   6.739   5.315
 4156SOL    HW113367   5.518   6.653   5.366
 4156SOL    HW213368   5.490   6.724   5.222
 4157SOL     OW13369   4.412   0.692   4.036
 4157SOL    HW113370   4.317   0.721   4.035
 4157SOL    HW213371   4.419   0.596   4.011
 4158SOL     OW13372   0.492   5.834   3.231
 4158SOL    HW113373   0.528   5.771   3.301
 4158SOL    HW213374   0.459   5.781   3.153
 4159SOL     OW13375   1.078   2.879   4.002
 4159SOL    HW113376   1.132   2.878   3.918
 4159SOL    HW213377   1.014   2.956   4.000
 4160SOL     OW13378   6.797   0.432   0.983
 4160SOL    HW113379   6.733   0.427   1.060
 4160SOL    HW213380   6.789   0.349   0.927
 4161SOL     OW13381   0.963   1.974   0.184
 4161SOL    HW113382   0.895   1.921   0.133
 4161SOL    HW213383   1.055   1.944   0.157
 4162SOL     OW13384   5.985   6.490   4.858
 4162SOL    HW113385   5.950   6.581   4.882
 4162SOL    HW213386   6.024   6.447   4.939
 4163SOL     OW13387   5.500   1.461   3.896
 4163SOL    HW113388   5.472   1.506   3.981
 4163SOL    HW213389   5.589   1.497   3.867
 4164SOL     OW13390   1.408   0.745   6.974
 4164SOL    HW113391   1.368   0.743   6.882
 4164SOL    HW213392   1.346   0.700   0.016
 4165SOL     OW13393   3.619   6.941   1.270
 4165SOL    HW113394   3.624   6.978   1.362
 4165SOL    HW213395   3.697   6.975   1.216
 4166SOL     OW13396   4.695   2.915   0.601
 4166SOL    HW113397   4.608   2.949   0.639
 4166SOL    HW213398   4.676   2.858   0.521
 4167SOL     OW13399   2.275   2.599   1.623
 4167SOL    HW113400   2.235   2.511   1.599
 4167SOL    HW213401   2.215   2.673   1.593
 4168SOL     OW13402   0.867   5.598   1.641
 4168SOL    HW113403   0.954   5.620   1.597
 4168SOL    HW213404   0.883   5.538   1.719
 4169SOL     OW13405   5.181   3.299   3.418
 4169SOL    HW113406   5.185   3.250   3.505
 4169SOL    HW213407   5.260   3.274   3.363
 4170SOL     OW13408   3.632   2.708   5.282
 4170SOL    HW113409   3.649   2.804   5.258
 4170SOL    HW213410   3.696   2.649   5.232
 4171SOL     OW13411   4.948   3.617   1.400
 4171SOL    HW113412   4.897   3.625   1.486
 4171SOL    HW213413   5.046   3.632   1.417
 4172SOL     OW13414   0.813   1.684   0.826
 4172SOL    HW113415   0.801   1.726   0.917
 4172SOL    HW213416   0.831   1.586   0.837
 4173SOL     OW13417   5.219   2.927   5.178
 4173SOL    HW113418   5.147   2.918   5.247
 4173SOL    HW213419   5.180   2.958   5.092
 4174SOL     OW13420   4.786   0.623   3.924
 4174SOL    HW113421   4.845   0.543   3.923
 4174SOL    HW213422   4.700   0.602   3.877
 4175SOL     OW13423   3.244   6.973   3.319
 4175SOL    HW113424   3.264   6.893   3.375
 4175SOL    HW213425   3.309   6.978   3.244
 4176SOL     OW13426   4.869   6.859   3.317
 4176SOL    HW113427   4.932   6.912   3.261
 4176SOL    HW213428   4.896   6.865   3.413
 4177SOL     OW13429   0.549   6.459   2.789
 4177SOL    HW113430   0.482   6.527   2.759
 4177SOL    HW213431   0.524   6.369   2.752
 4178SOL     OW13432   3.388   2.000   5.679
 4178SOL    HW113433   3.449   2.038   5.610
 4178SOL    HW213434   3.434   1.998   5.768
 4179SOL     OW13435   5.590   3.895   5.258
 4179SOL    HW113436   5.502   3.884   5.303
 4179SOL    HW213437   5.604   3.821   5.192
 4180SOL     OW13438   4.555   4.237   1.344
 4180SOL    HW113439   4.545   4.222   1.443
 4180SOL    HW213440   4.534   4.332   1.322
 4181SOL     OW13441   0.751   1.686   0.244
 4181SOL    HW113442   0.746   1.717   0.339
 4181SOL    HW213443   0.705   1.597   0.236
 4182SOL     OW13444   5.674   0.232   2.550
 4182SOL    HW113445   5.712   0.234   2.643
 4182SOL    HW213446   5.713   0.306   2.496
 4183SOL     OW13447   1.377   1.588   1.746
 4183SOL    HW113448   1.453   1.641   1.710
 4183SOL    HW213449   1.412   1.511   1.799
 4184SOL     OW13450   3.993   5.351   0.362
 4184SOL    HW113451   3.923   5.346   0.434
 4184SOL    HW213452   4.020   5.446   0.348
 4185SOL     OW13453   0.451   0.027   3.792
 4185SOL    HW113454   0.540   0.067   3.771
 4185SOL    HW213455   0.463   6.952   3.811
 4186SOL     OW13456   2.175   3.806   1.379
 4186SOL    HW113457   2.170   3.709   1.356
 4186SOL    HW213458   2.102   3.855   1.332
 4187SOL     OW13459   3.792   3.235   6.257
 4187SOL    HW113460   3.774   3.322   6.211
 4187SOL    HW213461   3.871   3.191   6.215
 4188SOL     OW13462   4.374   0.241   4.955
 4188SOL    HW113463   4.441   0.308   4.922
 4188SOL    HW213464   4.414   0.150   4.951
 4189SOL     OW13465   2.306   2.004   4.619
 4189SOL    HW113466   2.296   1.945   4.539
 4189SOL    HW213467   2.216   2.035   4.650
 4190SOL     OW13468   3.235   1.281   0.211
 4190SOL    HW113469   3.207   1.298   0.117
 4190SOL    HW213470   3.156   1.252   0.265
 4191SOL     OW13471   6.410   2.075   2.556
 4191SOL    HW113472   6.413   2.162   2.506
 4191SOL    HW213473   6.443   2.001   2.496
 4192SOL     OW13474   5.958   1.363   3.813
 4192SOL    HW113475   5.958   1.270   3.848
 4192SOL    HW213476   6.022   1.370   3.737
 4193SOL     OW13477   2.011   6.888   2.234
 4193SOL    HW113478   1.987   6.797   2.198
 4193SOL    HW213479   2.033   6.949   2.158
 4194SOL     OW13480   0.148   1.212   3.812
 4194SOL    HW113481   0.234   1.222   3.761
 4194SOL    HW213482   0.079   1.172   3.752
 4195SOL     OW13483   5.304   0.513   1.592
 4195SOL    HW113484   5.218   0.485   1.549
 4195SOL    HW213485   5.371   0.534   1.521
 4196SOL     OW13486   4.882   2.599   4.056
 4196SOL    HW113487   4.825   2.675   4.023
 4196SOL    HW213488   4.873   2.593   4.155
 4197SOL     OW13489   4.747   4.481   4.299
 4197SOL    HW113490   4.844   4.469   4.316
 4197SOL    HW213491   4.706   4.393   4.274
 4198SOL     OW13492   6.349   3.698   0.144
 4198SOL    HW113493   6.435   3.717   0.097
 4198SOL    HW213494   6.284   3.773   0.127
 4199SOL     OW13495   2.757   3.479   5.562
 4199SOL    HW113496   2.843   3.506   5.606
 4199SOL    HW213497   2.681   3.529   5.603
 4200SOL     OW13498   2.072   0.300   0.253
 4200SOL    HW113499   2.006   0.362   0.211
 4200SOL    HW213500   2.164   0.323   0.224
 4201SOL     OW13501   5.753   6.260   3.674
 4201SOL    HW113502   5.706   6.348   3.681
 4201SOL    HW213503   5.817   6.262   3.597
 4202SOL     OW13504   5.579   4.610   4.602
 4202SOL    HW113505   5.612   4.704   4.603
 4202SOL    HW213506   5.546   4.586   4.511
 4203SOL     OW13507   5.225   6.008   2.917
 4203SOL    HW113508   5.170   6.064   2.854
 4203SOL    HW213509   5.236   6.056   3.004
 4204SOL     OW13510   3.160   2.807   1.406
 4204SOL    HW113511   3.204   2.882   1.455
 4204SOL    HW213512   3.145   2.834   1.311
 4205SOL     OW13513   2.541   5.319   3.859
 4205SOL    HW113514   2.460   5.339   3.805
 4205SOL    HW213515   2.515   5.302   3.954
 4206SOL     OW13516   4.995   0.586   4.834
 4206SOL    HW113517   4.988   0.655   4.762
 4206SOL    HW213518   4.909   0.581   4.884
 4207SOL     OW13519   1.020   1.713   2.116
 4207SOL    HW113520   0.926   1.744   2.108
 4207SOL    HW213521   1.022   1.624   2.162
 4208SOL     OW13522   1.035   3.065   0.650
 4208SOL    HW113523   1.123   3.023   0.670
 4208SOL    HW213524   1.049   3.161   0.626
 4209SOL     OW13525   2.797   0.099   5.108
 4209SOL    HW113526   2.891   0.124   5.132
 4209SOL    HW213527   2.798   0.016   5.052
 4210SOL     OW13528   4.459   2.823   0.275
 4210SOL    HW113529   4.420   2.732   0.295
 4210SOL    HW213530   4.423   2.889   0.341
 4211SOL     OW13531   4.293   4.953   3.380
 4211SOL    HW113532   4.261   4.891   3.308
 4211SOL    HW213533   4.335   5.034   3.338
 4212SOL     OW13534   6.195   1.294   2.728
 4212SOL    HW113535   6.234   1.365   2.786
 4212SOL    HW213536   6.255   1.280   2.649
 4213SOL     OW13537   1.343   0.988   2.638
 4213SOL    HW113538   1.311   1.070   2.590
 4213SOL    HW213539   1.276   0.914   2.625
 4214SOL     OW13540   0.858   3.063   4.466
 4214SOL    HW113541   0.857   2.964   4.457
 4214SOL    HW213542   0.766   3.096   4.489
 4215SOL     OW13543   0.557   5.611   4.367
 4215SOL    HW113544   0.638   5.570   4.411
 4215SOL    HW213545   0.478   5.553   4.383
 4216SOL     OW13546   1.175   2.750   4.770
 4216SOL    HW113547   1.103   2.765   4.837
 4216SOL    HW213548   1.233   2.832   4.765
 4217SOL     OW13549   6.994   0.481   3.159
 4217SOL    HW113550   7.010   0.524   3.069
 4217SOL    HW213551   6.898   0.490   3.183
 4218SOL     OW13552   4.061   0.215   1.788
 4218SOL    HW113553   4.081   0.139   1.849
 4218SOL    HW213554   4.142   0.273   1.777
 4219SOL     OW13555   4.319   5.731   3.553
 4219SOL    HW113556   4.336   5.786   3.471
 4219SOL    HW213557   4.372   5.768   3.629
 4220SOL     OW13558   6.070   2.555   3.760
 4220SOL    HW113559   6.062   2.457   3.779
 4220SOL    HW213560   6.073   2.605   3.847
 4221SOL     OW13561   5.596   5.575   5.890
 4221SOL    HW113562   5.503   5.600   5.863
 4221SOL    HW213563   5.596   5.548   5.987
 4222SOL     OW13564   4.778   1.723   0.960
 4222SOL    HW113565   4.847   1.790   0.988
 4222SOL    HW213566   4.822   1.635   0.942
 4223SOL     OW13567   3.574   4.144   2.444
 4223SOL    HW113568   3.615   4.164   2.355
 4223SOL    HW213569   3.645   4.116   2.508
 4224SOL     OW13570   4.462   2.409   5.179
 4224SOL    HW113571   4.526   2.467   5.129
 4224SOL    HW213572   4.369   2.446   5.171
 4225SOL     OW13573   5.536   0.075   5.005
 4225SOL    HW113574   5.580   0.132   4.935
 4225SOL    HW213575   5.487   0.133   5.069
 4226SOL     OW13576   0.827   1.245   3.919
 4226SOL    HW113577   0.778   1.158   3.924
 4226SOL    HW213578   0.776   1.308   3.861
 4227SOL     OW13579   5.199   4.428   0.324
 4227SOL    HW113580   5.230   4.386   0.238
 4227SOL    HW213581   5.139   4.365   0.372
 4228SOL     OW13582   6.091   5.437   2.795
 4228SOL    HW113583   6.171   5.452   2.853
 4228SOL    HW213584   6.011   5.480   2.837
 4229SOL     OW13585   5.147   4.766   5.592
 4229SOL    HW113586   5.071   4.718   5.548
 4229SOL    HW213587   5.138   4.759   5.692
 4230SOL     OW13588   3.579   6.902   5.010
 4230SOL    HW113589   3.646   6.886   4.937
 4230SOL    HW213590   3.607   6.854   5.093
 4231SOL     OW13591   4.572   7.010   5.625
 4231SOL    HW113592   4.639   6.957   5.676
 4231SOL    HW213593   4.514   6.949   5.571
 4232SOL     OW13594   2.316   4.284   2.346
 4232SOL    HW113595   2.266   4.211   2.299
 4232SOL    HW213596   2.355   4.347   2.279
 4233SOL     OW13597   6.410   6.394   0.323
 4233SOL    HW113598   6.321   6.420   0.362
 4233SOL    HW213599   6.423   6.295   0.331
 4234SOL     OW13600   2.940   4.348   5.789
 4234SOL    HW113601   2.915   4.369   5.694
 4234SOL    HW213602   3.004   4.271   5.790
 4235SOL     OW13603   6.556   3.637   5.665
 4235SOL    HW113604   6.567   3.701   5.741
 4235SOL    HW213605   6.502   3.680   5.593
 4236SOL     OW13606   1.320   2.897   4.398
 4236SOL    HW113607   1.314   2.874   4.495
 4236SOL    HW213608   1.269   2.981   4.381
 4237SOL     OW13609   5.085   2.981   4.927
 4237SOL    HW113610   5.000   2.955   4.881
 4237SOL    HW213611   5.141   3.037   4.866
 4238SOL     OW13612   4.359   5.362   3.844
 4238SOL    HW113613   4.367   5.300   3.766
 4238SOL    HW213614   4.274   5.343   3.893
 4239SOL     OW13615   4.764   5.592   5.946
 4239SOL    HW113616   4.711   5.559   5.868
 4239SOL    HW213617   4.807   5.680   5.922
 4240SOL     OW13618   2.501   4.501   6.870
 4240SOL    HW113619   2.416   4.515   6.819
 4240SOL    HW213620   2.527   4.404   6.864
 4241SOL     OW13621   4.136   0.619   6.850
 4241SOL    HW113622   4.177   0.657   6.932
 4241SOL    HW213623   4.040   0.595   6.867
 4242SOL     OW13624   2.512   0.825   2.630
 4242SOL    HW113625   2.491   0.825   2.728
 4242SOL    HW213626   2.463   0.901   2.586
 4243SOL     OW13627   1.563   2.993   2.954
 4243SOL    HW113628   1.575   2.902   2.993
 4243SOL    HW213629   1.466   3.013   2.943
 4244SOL     OW13630   3.982   6.532   1.266
 4244SOL    HW113631   3.958   6.512   1.171
 4244SOL    HW213632   4.044   6.611   1.269
 4245SOL     OW13633   6.208   3.732   1.003
 4245SOL    HW113634   6.151   3.654   0.976
 4245SOL    HW213635   6.288   3.698   1.052
 4246SOL     OW13636   5.020   1.896   3.446
 4246SOL    HW113637   4.994   1.953   3.525
 4246SOL    HW213638   5.073   1.818   3.478
 4247SOL     OW13639   1.224   5.062   5.602
 4247SOL    HW113640   1.221   5.155   5.566
 4247SOL    HW213641   1.271   5.061   5.690
 4248SOL     OW13642   1.512   1.140   3.553
 4248SOL    HW113643   1.598   1.185   3.526
 4248SOL    HW213644   1.533   1.063   3.613
 4249SOL     OW13645   6.919   6.708   4.631
 4249SOL    HW113646   7.006   6.660   4.626
 4249SOL    HW213647   6.845   6.643   4.644
 4250SOL     OW13648   0.310   5.441   4.421
 4250SOL    HW113649   0.299   5.439   4.321
 4250SOL    HW213650   0.391   5.388   4.446
 4251SOL     OW13651   6.029   1.897   5.666
 4251SOL    HW113652   6.005   1.983   5.621
 4251SOL    HW213653   6.018   1.906   5.765
 4252SOL     OW13654   7.020   6.418   0.123
 4252SOL    HW113655   0.062   6.365   0.178
 4252SOL    HW213656   6.999   6.504   0.170
 4253SOL     OW13657   4.710   5.485   2.467
 4253SOL    HW113658   4.799   5.528   2.450
 4253SOL    HW213659   4.718   5.386   2.459
 4254SOL     OW13660   1.693   3.277   0.352
 4254SOL    HW113661   1.724   3.372   0.350
 4254SOL    HW213662   1.746   3.224   0.287
 4255SOL     OW13663   1.211   3.683   2.859
 4255SOL    HW113664   1.171   3.772   2.839
 4255SOL    HW213665   1.229   3.635   2.773
 4256SOL     OW13666   0.729   5.792   2.118
 4256SOL    HW113667   0.634   5.793   2.087
 4256SOL    HW213668   0.740   5.855   2.195
 4257SOL     OW13669   6.370   0.738   4.283
 4257SOL    HW113670   6.423   0.653   4.287
 4257SOL    HW213671   6.368   0.780   4.374
 4258SOL     OW13672   3.814   6.246   0.806
 4258SOL    HW113673   3.744   6.304   0.764
 4258SOL    HW213674   3.803   6.152   0.773
 4259SOL     OW13675   1.340   0.360   2.272
 4259SOL    HW113676   1.330   0.417   2.353
 4259SOL    HW213677   1.385   0.413   2.200
 4260SOL     OW13678   5.603   0.991   4.376
 4260SOL    HW113679   5.629   1.016   4.282
 4260SOL    HW213680   5.612   0.892   4.387
 4261SOL     OW13681   2.073   6.559   4.530
 4261SOL    HW113682   2.166   6.556   4.495
 4261SOL    HW213683   2.069   6.615   4.613
 4262SOL     OW13684   1.812   4.058   6.496
 4262SOL    HW113685   1.720   4.020   6.509
 4262SOL    HW213686   1.876   3.985   6.472
 4263SOL     OW13687   2.608   2.120   4.202
 4263SOL    HW113688   2.678   2.134   4.272
 4263SOL    HW213689   2.579   2.024   4.202
 4264SOL     OW13690   5.108   1.037   5.144
 4264SOL    HW113691   5.070   1.116   5.191
 4264SOL    HW213692   5.124   1.059   5.048
 4265SOL     OW13693   3.600   0.745   0.169
 4265SOL    HW113694   3.692   0.712   0.145
 4265SOL    HW213695   3.557   0.787   0.089
 4266SOL     OW13696   1.239   5.880   1.166
 4266SOL    HW113697   1.165   5.906   1.229
 4266SOL    HW213698   1.306   5.953   1.162
 4267SOL     OW13699   1.860   4.309   5.061
 4267SOL    HW113700   1.924   4.329   4.987
 4267SOL    HW213701   1.910   4.284   5.143
 4268SOL     OW13702   1.265   4.544   0.145
 4268SOL    HW113703   1.171   4.570   0.120
 4268SOL    HW213704   1.286   4.579   0.236
 4269SOL     OW13705   2.788   1.431   4.872
 4269SOL    HW113706   2.701   1.479   4.861
 4269SOL    HW213707   2.860   1.481   4.823
 4270SOL     OW13708   3.935   2.671   0.819
 4270SOL    HW113709   4.032   2.667   0.844
 4270SOL    HW213710   3.903   2.579   0.797
 4271SOL     OW13711   0.075   0.722   1.671
 4271SOL    HW113712   0.023   0.805   1.686
 4271SOL    HW213713   0.139   0.708   1.747
 4272SOL     OW13714   0.005   1.475   6.336
 4272SOL    HW113715   7.003   1.558   6.286
 4272SOL    HW213716   6.955   1.406   6.325
 4273SOL     OW13717   3.370   5.878   4.524
 4273SOL    HW113718   3.344   5.973   4.542
 4273SOL    HW213719   3.293   5.818   4.547
 4274SOL     OW13720   7.017   1.584   1.697
 4274SOL    HW113721   0.035   1.551   1.782
 4274SOL    HW213722   6.929   1.540   1.682
 4275SOL     OW13723   6.847   2.864   3.135
 4275SOL    HW113724   6.821   2.958   3.153
 4275SOL    HW213725   6.769   2.814   3.097
 4276SOL     OW13726   2.519   5.693   4.348
 4276SOL    HW113727   2.567   5.634   4.282
 4276SOL    HW213728   2.564   5.782   4.353
 4277SOL     OW13729   5.899   5.399   3.246
 4277SOL    HW113730   5.989   5.385   3.288
 4277SOL    HW213731   5.882   5.497   3.235
 4278SOL     OW13732   1.380   0.056   1.666
 4278SOL    HW113733   1.463   0.001   1.674
 4278SOL    HW213734   1.398   0.136   1.609
 4279SOL     OW13735   1.548   1.556   3.275
 4279SOL    HW113736   1.509   1.642   3.242
 4279SOL    HW213737   1.478   1.485   3.272
 4280SOL     OW13738   0.483   6.796   6.593
 4280SOL    HW113739   0.440   6.871   6.542
 4280SOL    HW213740   0.468   6.810   6.691
 4281SOL     OW13741   4.923   5.642   3.098
 4281SOL    HW113742   4.933   5.593   3.184
 4281SOL    HW213743   4.825   5.651   3.076
 4282SOL     OW13744   3.496   4.123   0.834
 4282SOL    HW113745   3.428   4.132   0.761
 4282SOL    HW213746   3.552   4.041   0.818
 4283SOL     OW13747   5.053   1.274   4.366
 4283SOL    HW113748   5.078   1.325   4.448
 4283SOL    HW213749   4.953   1.269   4.359
 4284SOL     OW13750   4.435   5.803   6.046
 4284SOL    HW113751   4.405   5.892   6.079
 4284SOL    HW213752   4.425   5.799   5.947
 4285SOL     OW13753   3.052   0.464   5.346
 4285SOL    HW113754   3.109   0.539   5.312
 4285SOL    HW213755   2.993   0.498   5.419
 4286SOL     OW13756   5.665   0.678   6.153
 4286SOL    HW113757   5.602   0.748   6.121
 4286SOL    HW213758   5.757   0.697   6.118
 4287SOL     OW13759   4.488   0.479   0.477
 4287SOL    HW113760   4.518   0.431   0.395
 4287SOL    HW213761   4.568   0.502   0.533
 4288SOL     OW13762   6.972   6.219   2.398
 4288SOL    HW113763   7.017   6.155   2.337
 4288SOL    HW213764   7.009   6.311   2.384
 4289SOL     OW13765   0.364   4.099   4.223
 4289SOL    HW113766   0.379   4.118   4.126
 4289SOL    HW213767   0.319   4.010   4.234
 4290SOL     OW13768   0.549   1.033   3.795
 4290SOL    HW113769   0.460   1.024   3.750
 4290SOL    HW213770   0.621   1.038   3.726
 4291SOL     OW13771   4.810   3.224   6.326
 4291SOL    HW113772   4.725   3.184   6.292
 4291SOL    HW213773   4.829   3.309   6.276
 4292SOL     OW13774   5.812   2.240   1.448
 4292SOL    HW113775   5.713   2.258   1.450
 4292SOL    HW213776   5.859   2.311   1.500
 4293SOL     OW13777   3.793   4.394   6.825
 4293SOL    HW113778   3.763   4.309   6.781
 4293SOL    HW213779   3.890   4.388   6.846
 4294SOL     OW13780   1.820   1.817   6.566
 4294SOL    HW113781   1.845   1.723   6.543
 4294SOL    HW213782   1.880   1.881   6.517
 4295SOL     OW13783   4.024   5.980   2.873
 4295SOL    HW113784   4.057   6.072   2.894
 4295SOL    HW213785   3.924   5.979   2.875
 4296SOL     OW13786   2.855   5.983   2.413
 4296SOL    HW113787   2.854   5.982   2.313
 4296SOL    HW213788   2.949   5.968   2.445
 4297SOL     OW13789   5.892   4.846   0.602
 4297SOL    HW113790   5.939   4.920   0.650
 4297SOL    HW213791   5.800   4.876   0.577
 4298SOL     OW13792   2.275   6.771   0.222
 4298SOL    HW113793   2.357   6.815   0.260
 4298SOL    HW213794   2.303   6.694   0.164
 4299SOL     OW13795   0.419   3.317   0.190
 4299SOL    HW113796   0.384   3.236   0.236
 4299SOL    HW213797   0.486   3.363   0.248
 4300SOL     OW13798   2.621   1.277   0.912
 4300SOL    HW113799   2.577   1.265   1.001
 4300SOL    HW213800   2.564   1.236   0.841
 4301SOL     OW13801   2.516   6.927   1.092
 4301SOL    HW113802   2.520   6.944   0.993
 4301SOL    HW213803   2.598   6.879   1.121
 4302SOL     OW13804   2.246   5.810   6.008
 4302SOL    HW113805   2.303   5.744   5.957
 4302SOL    HW213806   2.154   5.811   5.969
 4303SOL     OW13807   6.108   5.107   3.093
 4303SOL    HW113808   6.084   5.125   2.997
 4303SOL    HW213809   6.161   5.184   3.129
 4304SOL     OW13810   3.488   3.803   1.499
 4304SOL    HW113811   3.519   3.892   1.534
 4304SOL    HW213812   3.399   3.780   1.538
 4305SOL     OW13813   1.809   0.018   5.399
 4305SOL    HW113814   1.803   6.955   5.348
 4305SOL    HW213815   1.736   0.022   5.467
 4306SOL     OW13816   6.194   3.317   5.144
 4306SOL    HW113817   6.252   3.279   5.072
 4306SOL    HW213818   6.250   3.337   5.225
 4307SOL     OW13819   0.340   1.533   5.636
 4307SOL    HW113820   0.384   1.489   5.714
 4307SOL    HW213821   0.277   1.604   5.667
 4308SOL     OW13822   4.709   5.678   6.837
 4308SOL    HW113823   4.721   5.728   6.923
 4308SOL    HW213824   4.657   5.734   6.773
 4309SOL     OW13825   0.993   2.624   0.707
 4309SOL    HW113826   0.981   2.527   0.728
 4309SOL    HW213827   0.982   2.639   0.609
 4310SOL     OW13828   6.574   1.825   3.222
 4310SOL    HW113829   6.526   1.910   3.242
 4310SOL    HW213830   6.657   1.845   3.169
 4311SOL     OW13831   0.498   0.449   2.511
 4311SOL    HW113832   0.406   0.444   2.471
 4311SOL    HW213833   0.546   0.528   2.472
 4312SOL     OW13834   0.429   5.171   2.916
 4312SOL    HW113835   0.443   5.073   2.922
 4312SOL    HW213836   0.414   5.197   2.820
 4313SOL     OW13837   6.525   2.198   0.017
 4313SOL    HW113838   6.440   2.220   0.065
 4313SOL    HW213839   6.603   2.221   0.075
 4314SOL     OW13840   6.628   1.857   5.629
 4314SOL    HW113841   6.727   1.852   5.637
 4314SOL    HW213842   6.602   1.946   5.591
 4315SOL     OW13843   2.990   1.407   4.394
 4315SOL    HW113844   2.994   1.307   4.407
 4315SOL    HW213845   2.962   1.450   4.479
 4316SOL     OW13846   5.257   7.020   1.524
 4316SOL    HW113847   5.282   6.939   1.576
 4316SOL    HW213848   5.340   0.047   1.498
 4317SOL     OW13849   4.648   0.872   5.628
 4317SOL    HW113850   4.559   0.857   5.585
 4317SOL    HW213851   4.635   0.930   5.709
 4318SOL     OW13852   0.516   0.516   4.433
 4318SOL    HW113853   0.575   0.588   4.469
 4318SOL    HW213854   0.423   0.529   4.468
 4319SOL     OW13855   1.711   5.090   2.784
 4319SOL    HW113856   1.804   5.126   2.774
 4319SOL    HW213857   1.681   5.051   2.696
 4320SOL     OW13858   3.432   6.453   1.062
 4320SOL    HW113859   3.532   6.463   1.064
 4320SOL    HW213860   3.391   6.515   1.129
 4321SOL     OW13861   6.618   6.637   2.463
 4321SOL    HW113862   6.645   6.729   2.494
 4321SOL    HW213863   6.583   6.585   2.541
 4322SOL     OW13864   0.707   3.246   5.135
 4322SOL    HW113865   0.711   3.187   5.054
 4322SOL    HW213866   0.799   3.280   5.156
 4323SOL     OW13867   3.942   5.109   6.418
 4323SOL    HW113868   3.845   5.128   6.403
 4323SOL    HW213869   3.986   5.088   6.331
 4324SOL     OW13870   6.884   4.157   5.946
 4324SOL    HW113871   6.845   4.220   6.014
 4324SOL    HW213872   6.982   4.147   5.961
 4325SOL     OW13873   2.636   0.601   2.533
 4325SOL    HW113874   2.605   0.692   2.562
 4325SOL    HW213875   2.701   0.610   2.458
 4326SOL     OW13876   4.671   2.425   2.266
 4326SOL    HW113877   4.591   2.369   2.288
 4326SOL    HW213878   4.641   2.505   2.213
 4327SOL     OW13879   3.094   6.167   3.652
 4327SOL    HW113880   3.064   6.083   3.698
 4327SOL    HW213881   3.092   6.154   3.553
 4328SOL     OW13882   5.990   6.903   4.587
 4328SOL    HW113883   6.065   6.838   4.597
 4328SOL    HW213884   6.021   6.994   4.614
 4329SOL     OW13885   0.228   1.890   6.350
 4329SOL    HW113886   0.154   1.827   6.371
 4329SOL    HW213887   0.226   1.912   6.252
 4330SOL     OW13888   2.939   4.858   5.015
 4330SOL    HW113889   2.925   4.912   5.098
 4330SOL    HW213890   2.895   4.769   5.026
 4331SOL     OW13891   5.906   1.152   2.224
 4331SOL    HW113892   5.953   1.167   2.311
 4331SOL    HW213893   5.913   1.234   2.167
 4332SOL     OW13894   0.336   5.385   2.493
 4332SOL    HW113895   0.387   5.371   2.408
 4332SOL    HW213896   0.286   5.471   2.489
 4333SOL     OW13897   3.568   2.314   5.660
 4333SOL    HW113898   3.612   2.243   5.715
 4333SOL    HW213899   3.508   2.369   5.718
 4334SOL     OW13900   0.207   2.496   4.458
 4334SOL    HW113901   0.278   2.566   4.458
 4334SOL    HW213902   0.205   2.451   4.369
 4335SOL     OW13903   2.698   4.120   1.654
 4335SOL    HW113904   2.638   4.041   1.640
 4335SOL    HW213905   2.738   4.146   1.566
 4336SOL     OW13906   2.478   4.776   5.555
 4336SOL    HW113907   2.423   4.781   5.638
 4336SOL    HW213908   2.467   4.860   5.502
 4337SOL     OW13909   1.561   5.260   3.951
 4337SOL    HW113910   1.590   5.249   3.856
 4337SOL    HW213911   1.543   5.357   3.969
 4338SOL     OW13912   3.907   1.079   5.919
 4338SOL    HW113913   3.881   1.069   6.015
 4338SOL    HW213914   3.921   0.989   5.878
 4339SOL     OW13915   3.780   3.626   6.174
 4339SOL    HW113916   3.827   3.563   6.113
 4339SOL    HW213917   3.844   3.699   6.201
 4340SOL     OW13918   6.323   3.905   0.842
 4340SOL    HW113919   6.262   3.944   0.773
 4340SOL    HW213920   6.271   3.845   0.903
 4341SOL     OW13921   0.476   0.043   2.672
 4341SOL    HW113922   0.570   0.075   2.653
 4341SOL    HW213923   0.414   0.121   2.671
 4342SOL     OW13924   5.123   3.731   2.007
 4342SOL    HW113925   5.052   3.660   1.999
 4342SOL    HW213926   5.087   3.808   2.059
 4343SOL     OW13927   4.253   7.004   5.761
 4343SOL    HW113928   4.220   6.975   5.851
 4343SOL    HW213929   4.212   0.069   5.737
 4344SOL     OW13930   0.281   3.320   3.887
 4344SOL    HW113931   0.321   3.402   3.929
 4344SOL    HW213932   0.215   3.280   3.949
 4345SOL     OW13933   3.238   3.006   2.350
 4345SOL    HW113934   3.192   3.025   2.436
 4345SOL    HW213935   3.205   3.068   2.279
 4346SOL     OW13936   1.003   3.033   2.285
 4346SOL    HW113937   0.996   2.967   2.360
 4346SOL    HW213938   1.098   3.037   2.254
 4347SOL     OW13939   5.785   5.586   0.513
 4347SOL    HW113940   5.690   5.560   0.528
 4347SOL    HW213941   5.826   5.525   0.445
 4348SOL     OW13942   6.031   5.647   4.283
 4348SOL    HW113943   6.076   5.559   4.302
 4348SOL    HW213944   6.074   5.719   4.338
 4349SOL     OW13945   0.047   3.963   4.521
 4349SOL    HW113946   0.145   3.981   4.525
 4349SOL    HW213947   0.015   3.971   4.426
 4350SOL     OW13948   4.417   1.718   4.853
 4350SOL    HW113949   4.472   1.654   4.908
 4350SOL    HW213950   4.368   1.667   4.783
 4351SOL     OW13951   0.939   6.611   0.399
 4351SOL    HW113952   0.947   6.682   0.469
 4351SOL    HW213953   0.849   6.568   0.405
 4352SOL     OW13954   3.729   3.883   0.573
 4352SOL    HW113955   3.795   3.855   0.643
 4352SOL    HW213956   3.661   3.811   0.560
 4353SOL     OW13957   2.851   3.478   1.328
 4353SOL    HW113958   2.761   3.450   1.361
 4353SOL    HW213959   2.914   3.401   1.336
 4354SOL     OW13960   5.412   6.760   3.745
 4354SOL    HW113961   5.495   6.711   3.717
 4354SOL    HW213962   5.347   6.761   3.669
 4355SOL     OW13963   1.445   6.101   2.954
 4355SOL    HW113964   1.476   6.023   3.008
 4355SOL    HW213965   1.469   6.186   3.000
 4356SOL     OW13966   5.114   2.380   5.978
 4356SOL    HW113967   5.155   2.468   6.002
 4356SOL    HW213968   5.050   2.393   5.902
 4357SOL     OW13969   5.794   0.521   2.466
 4357SOL    HW113970   5.767   0.609   2.504
 4357SOL    HW213971   5.828   0.534   2.373
 4358SOL     OW13972   2.108   6.884   6.770
 4358SOL    HW113973   2.033   6.934   6.728
 4358SOL    HW213974   2.097   6.885   6.870
 4359SOL     OW13975   2.679   2.340   6.930
 4359SOL    HW113976   2.589   2.304   6.955
 4359SOL    HW213977   2.670   2.400   6.851
 4360SOL     OW13978   1.704   3.733   3.832
 4360SOL    HW113979   1.794   3.690   3.838
 4360SOL    HW213980   1.675   3.763   3.923
 4361SOL     OW13981   6.594   1.741   0.539
 4361SOL    HW113982   6.640   1.829   0.550
 4361SOL    HW213983   6.619   1.701   0.451
 4362SOL     OW13984   1.489   5.581   3.556
 4362SOL    HW113985   1.587   5.580   3.580
 4362SOL    HW213986   1.436   5.549   3.634
 4363SOL     OW13987   4.525   1.662   2.650
 4363SOL    HW113988   4.520   1.662   2.750
 4363SOL    HW213989   4.462   1.730   2.613
 4364SOL     OW13990   3.879   3.583   2.740
 4364SOL    HW113991   3.896   3.511   2.672
 4364SOL    HW213992   3.866   3.541   2.830
 4365SOL     OW13993   2.688   2.099   1.405
 4365SOL    HW113994   2.682   2.148   1.493
 4365SOL    HW213995   2.784   2.081   1.384
 4366SOL     OW13996   4.312   5.940   4.979
 4366SOL    HW113997   4.347   5.864   5.034
 4366SOL    HW213998   4.384   5.976   4.921
 4367SOL     OW13999   2.580   5.331   3.546
 4367SOL    HW114000   2.531   5.342   3.459
 4367SOL    HW214001   2.663   5.387   3.545
 4368SOL     OW14002   4.617   4.335   3.251
 4368SOL    HW114003   4.580   4.374   3.335
 4368SOL    HW214004   4.680   4.401   3.209
 4369SOL     OW14005   4.086   4.787   2.948
 4369SOL    HW114006   3.994   4.816   2.971
 4369SOL    HW214007   4.093   4.769   2.850
 4370SOL     OW14008   3.846   4.282   1.658
 4370SOL    HW114009   3.808   4.373   1.641
 4370SOL    HW214010   3.946   4.288   1.665
 4371SOL     OW14011   2.948   1.809   0.865
 4371SOL    HW114012   2.997   1.839   0.783
 4371SOL    HW214013   2.965   1.712   0.880
 4372SOL     OW14014   1.920   3.060   4.430
 4372SOL    HW114015   1.940   2.963   4.417
 4372SOL    HW214016   1.949   3.088   4.521
 4373SOL     OW14017   4.354   1.474   5.587
 4373SOL    HW114018   4.413   1.490   5.508
 4373SOL    HW214019   4.382   1.534   5.662
 4374SOL     OW14020   2.181   1.155   1.481
 4374SOL    HW114021   2.275   1.123   1.474
 4374SOL    HW214022   2.152   1.191   1.392
 4375SOL     OW14023   4.898   1.455   3.680
 4375SOL    HW114024   4.971   1.438   3.614
 4375SOL    HW214025   4.881   1.553   3.687
 4376SOL     OW14026   1.225   6.238   0.329
 4376SOL    HW114027   1.285   6.318   0.318
 4376SOL    HW214028   1.201   6.227   0.425
 4377SOL     OW14029   6.148   7.004   6.511
 4377SOL    HW114030   6.209   6.924   6.509
 4377SOL    HW214031   6.087   6.997   6.591
 4378SOL     OW14032   2.094   5.772   2.561
 4378SOL    HW114033   1.994   5.772   2.571
 4378SOL    HW214034   2.126   5.866   2.547
 4379SOL     OW14035   1.458   0.649   2.206
 4379SOL    HW114036   1.528   0.626   2.274
 4379SOL    HW214037   1.502   0.681   2.122
 4380SOL     OW14038   2.029   5.727   5.065
 4380SOL    HW114039   2.106   5.727   5.002
 4380SOL    HW214040   2.005   5.821   5.088
 4381SOL     OW14041   4.088   6.085   5.100
 4381SOL    HW114042   4.170   6.065   5.047
 4381SOL    HW214043   4.104   6.061   5.196
 4382SOL     OW14044   4.904   3.912   3.350
 4382SOL    HW114045   4.868   3.858   3.275
 4382SOL    HW214046   4.872   4.006   3.343
 4383SOL     OW14047   0.648   2.968   6.575
 4383SOL    HW114048   0.614   3.044   6.520
 4383SOL    HW214049   0.683   3.002   6.662
 4384SOL     OW14050   4.087   5.801   0.805
 4384SOL    HW114051   4.101   5.710   0.845
 4384SOL    HW214052   4.120   5.870   0.869
 4385SOL     OW14053   0.346   1.750   2.771
 4385SOL    HW114054   0.411   1.680   2.801
 4385SOL    HW214055   0.396   1.831   2.742
 4386SOL     OW14056   1.017   3.332   6.757
 4386SOL    HW114057   1.045   3.287   6.672
 4386SOL    HW214058   1.079   3.305   6.831
 4387SOL     OW14059   0.303   3.336   1.970
 4387SOL    HW114060   0.320   3.331   2.069
 4387SOL    HW214061   0.348   3.259   1.925
 4388SOL     OW14062   3.554   1.235   5.414
 4388SOL    HW114063   3.651   1.240   5.437
 4388SOL    HW214064   3.509   1.320   5.439
 4389SOL     OW14065   4.918   2.453   3.130
 4389SOL    HW114066   4.885   2.421   3.219
 4389SOL    HW214067   4.897   2.550   3.119
 4390SOL     OW14068   4.595   2.639   2.096
 4390SOL    HW114069   4.496   2.640   2.085
 4390SOL    HW214070   4.623   2.717   2.153
 4391SOL     OW14071   1.121   5.545   0.485
 4391SOL    HW114072   1.056   5.520   0.557
 4391SOL    HW214073   1.212   5.556   0.524
 4392SOL     OW14074   5.118   3.104   4.433
 4392SOL    HW114075   5.073   3.133   4.517
 4392SOL    HW214076   5.178   3.177   4.399
 4393SOL     OW14077   4.623   6.270   3.289
 4393SOL    HW114078   4.669   6.194   3.243
 4393SOL    HW214079   4.532   6.241   3.318
 4394SOL     OW14080   5.001   0.052   2.232
 4394SOL    HW114081   4.992   0.024   2.136
 4394SOL    HW214082   5.097   0.065   2.254
 4395SOL     OW14083   5.275   1.901   2.396
 4395SOL    HW114084   5.352   1.860   2.347
 4395SOL    HW214085   5.210   1.937   2.330
 4396SOL     OW14086   1.422   0.560   3.768
 4396SOL    HW114087   1.342   0.595   3.720
 4396SOL    HW214088   1.431   0.605   3.857
 4397SOL     OW14089   6.556   0.292   5.535
 4397SOL    HW114090   6.554   0.366   5.603
 4397SOL    HW214091   6.480   0.230   5.552
 4398SOL     OW14092   0.116   4.775   4.310
 4398SOL    HW114093   0.163   4.809   4.229
 4398SOL    HW214094   0.075   4.852   4.360
 4399SOL     OW14095   2.626   1.592   1.313
 4399SOL    HW114096   2.711   1.644   1.325
 4399SOL    HW214097   2.591   1.565   1.403
 4400SOL     OW14098   3.526   6.489   4.842
 4400SOL    HW114099   3.524   6.465   4.745
 4400SOL    HW214100   3.619   6.482   4.877
 4401SOL     OW14101   5.542   6.115   4.219
 4401SOL    HW114102   5.624   6.155   4.177
 4401SOL    HW214103   5.509   6.176   4.291
 4402SOL     OW14104   0.139   6.860   2.668
 4402SOL    HW114105   0.074   6.843   2.742
 4402SOL    HW214106   0.233   6.856   2.704
 4403SOL     OW14107   0.592   0.461   3.262
 4403SOL    HW114108   0.662   0.525   3.293
 4403SOL    HW214109   0.565   0.402   3.338
 4404SOL     OW14110   1.509   4.321   3.431
 4404SOL    HW114111   1.512   4.226   3.461
 4404SOL    HW214112   1.563   4.378   3.493
 4405SOL     OW14113   3.249   4.176   5.417
 4405SOL    HW114114   3.301   4.206   5.497
 4405SOL    HW214115   3.269   4.236   5.340
 4406SOL     OW14116   5.353   3.891   1.359
 4406SOL    HW114117   5.430   3.917   1.417
 4406SOL    HW214118   5.364   3.932   1.268
 4407SOL     OW14119   6.048   6.977   0.059
 4407SOL    HW114120   6.099   0.021   0.004
 4407SOL    HW214121   6.034   6.894   0.005
 4408SOL     OW14122   4.456   5.760   6.737
 4408SOL    HW114123   4.419   5.781   6.828
 4408SOL    HW214124   4.399   5.690   6.694
 4409SOL     OW14125   3.254   1.251   1.817
 4409SOL    HW114126   3.289   1.344   1.825
 4409SOL    HW214127   3.156   1.253   1.799
 4410SOL     OW14128   2.722   5.319   1.928
 4410SOL    HW114129   2.682   5.391   1.871
 4410SOL    HW214130   2.690   5.229   1.897
 4411SOL     OW14131   3.929   3.071   2.642
 4411SOL    HW114132   3.834   3.043   2.656
 4411SOL    HW214133   3.961   3.039   2.553
 4412SOL     OW14134   3.867   2.000   6.747
 4412SOL    HW114135   3.927   1.952   6.811
 4412SOL    HW214136   3.811   1.934   6.697
 4413SOL     OW14137   4.160   6.046   4.732
 4413SOL    HW114138   4.123   5.974   4.790
 4413SOL    HW214139   4.229   6.098   4.783
 4414SOL     OW14140   3.671   4.855   1.675
 4414SOL    HW114141   3.690   4.935   1.732
 4414SOL    HW214142   3.636   4.781   1.732
 4415SOL     OW14143   5.381   2.672   0.074
 4415SOL    HW114144   5.425   2.744   0.129
 4415SOL    HW214145   5.325   2.614   0.134
 4416SOL     OW14146   4.044   0.533   3.558
 4416SOL    HW114147   4.097   0.505   3.639
 4416SOL    HW214148   4.058   0.630   3.541
 4417SOL     OW14149   0.359   6.628   1.921
 4417SOL    HW114150   0.305   6.701   1.878
 4417SOL    HW214151   0.453   6.633   1.889
 4418SOL     OW14152   4.360   6.854   3.158
 4418SOL    HW114153   4.295   6.836   3.232
 4418SOL    HW214154   4.451   6.825   3.185
 4419SOL     OW14155   0.264   5.017   6.425
 4419SOL    HW114156   0.166   5.004   6.438
 4419SOL    HW214157   0.287   5.113   6.443
 4420SOL     OW14158   5.126   1.859   6.534
 4420SOL    HW114159   5.112   1.770   6.490
 4420SOL    HW214160   5.037   1.903   6.549
 4421SOL     OW14161   1.656   1.678   4.056
 4421SOL    HW114162   1.747   1.718   4.048
 4421SOL    HW214163   1.609   1.683   3.968
 4422SOL     OW14164   2.267   3.724   5.911
 4422SOL    HW114165   2.340   3.759   5.969
 4422SOL    HW214166   2.286   3.747   5.816
 4423SOL     OW14167   1.038   2.001   6.497
 4423SOL    HW114168   0.943   2.027   6.514
 4423SOL    HW214169   1.073   1.950   6.576
 4424SOL     OW14170   6.484   0.131   3.187
 4424SOL    HW114171   6.392   0.120   3.151
 4424SOL    HW214172   6.521   0.042   3.212
 4425SOL     OW14173   4.585   4.721   6.456
 4425SOL    HW114174   4.539   4.801   6.496
 4425SOL    HW214175   4.646   4.751   6.383
 4426SOL     OW14176   0.476   0.452   6.224
 4426SOL    HW114177   0.425   0.443   6.138
 4426SOL    HW214178   0.573   0.432   6.207
 4427SOL     OW14179   1.022   0.454   3.682
 4427SOL    HW114180   0.949   0.398   3.719
 4427SOL    HW214181   1.069   0.405   3.609
 4428SOL     OW14182   2.526   5.471   3.305
 4428SOL    HW114183   2.553   5.562   3.275
 4428SOL    HW214184   2.498   5.417   3.226
 4429SOL     OW14185   4.119   6.755   2.921
 4429SOL    HW114186   4.153   6.807   2.999
 4429SOL    HW214187   4.023   6.731   2.936
 4430SOL     OW14188   1.944   1.255   1.771
 4430SOL    HW114189   1.980   1.254   1.864
 4430SOL    HW214190   1.924   1.162   1.741
 4431SOL     OW14191   2.178   2.415   2.910
 4431SOL    HW114192   2.164   2.319   2.888
 4431SOL    HW214193   2.103   2.469   2.871
 4432SOL     OW14194   3.089   4.001   3.000
 4432SOL    HW114195   3.160   4.055   3.046
 4432SOL    HW214196   3.116   3.905   3.002
 4433SOL     OW14197   6.543   6.866   2.811
 4433SOL    HW114198   6.614   6.818   2.760
 4433SOL    HW214199   6.569   6.961   2.823
 4434SOL     OW14200   5.861   2.458   4.452
 4434SOL    HW114201   5.878   2.512   4.535
 4434SOL    HW214202   5.929   2.481   4.383
 4435SOL     OW14203   3.694   3.094   1.617
 4435SOL    HW114204   3.612   3.086   1.675
 4435SOL    HW214205   3.763   3.028   1.648
 4436SOL     OW14206   4.864   1.941   6.552
 4436SOL    HW114207   4.802   1.876   6.596
 4436SOL    HW214208   4.812   2.023   6.525
 4437SOL     OW14209   3.321   0.724   4.891
 4437SOL    HW114210   3.362   0.768   4.970
 4437SOL    HW214211   3.230   0.690   4.915
 4438SOL     OW14212   4.364   3.024   6.667
 4438SOL    HW114213   4.418   3.101   6.702
 4438SOL    HW214214   4.291   3.002   6.732
 4439SOL     OW14215   2.099   5.966   2.081
 4439SOL    HW114216   2.099   5.880   2.132
 4439SOL    HW214217   2.170   6.027   2.118
 4440SOL     OW14218   0.709   0.001   6.193
 4440SOL    HW114219   0.675   6.942   6.240
 4440SOL    HW214220   0.692   7.015   6.095
 4441SOL     OW14221   6.171   2.722   2.841
 4441SOL    HW114222   6.138   2.687   2.929
 4441SOL    HW214223   6.106   2.790   2.805
 4442SOL     OW14224   2.922   6.772   2.693
 4442SOL    HW114225   2.893   6.707   2.623
 4442SOL    HW214226   2.994   6.731   2.749
 4443SOL     OW14227   2.687   1.691   5.398
 4443SOL    HW114228   2.722   1.764   5.458
 4443SOL    HW214229   2.668   1.729   5.308
 4444SOL     OW14230   5.660   1.089   1.528
 4444SOL    HW114231   5.588   1.021   1.538
 4444SOL    HW214232   5.658   1.152   1.605
 4445SOL     OW14233   1.681   0.995   6.529
 4445SOL    HW114234   1.773   1.026   6.553
 4445SOL    HW214235   1.667   1.005   6.430
 4446SOL     OW14236   6.538   6.929   3.388
 4446SOL    HW114237   6.578   6.886   3.307
 4446SOL    HW214238   6.444   6.897   3.400
 4447SOL     OW14239   5.717   2.609   5.612
 4447SOL    HW114240   5.722   2.519   5.655
 4447SOL    HW214241   5.801   2.627   5.561
 4448SOL     OW14242   2.680   3.672   6.715
 4448SOL    HW114243   2.604   3.613   6.688
 4448SOL    HW214244   2.708   3.650   6.808
 4449SOL     OW14245   1.307   1.148   5.054
 4449SOL    HW114246   1.272   1.054   5.060
 4449SOL    HW214247   1.330   1.181   5.146
 4450SOL     OW14248   3.880   4.016   3.336
 4450SOL    HW114249   3.961   3.964   3.361
 4450SOL    HW214250   3.846   4.067   3.415
 4451SOL     OW14251   6.218   4.273   2.443
 4451SOL    HW114252   6.176   4.186   2.420
 4451SOL    HW214253   6.151   4.332   2.488
 4452SOL     OW14254   6.292   6.235   6.703
 4452SOL    HW114255   6.213   6.249   6.764
 4452SOL    HW214256   6.262   6.241   6.608
 4453SOL     OW14257   5.549   2.159   1.321
 4453SOL    HW114258   5.532   2.205   1.234
 4453SOL    HW214259   5.478   2.185   1.386
 4454SOL     OW14260   5.310   3.113   1.566
 4454SOL    HW114261   5.210   3.110   1.576
 4454SOL    HW214262   5.337   3.201   1.525
 4455SOL     OW14263   4.230   1.229   2.176
 4455SOL    HW114264   4.203   1.323   2.155
 4455SOL    HW214265   4.216   1.171   2.095
 4456SOL     OW14266   1.082   5.595   3.120
 4456SOL    HW114267   1.105   5.499   3.140
 4456SOL    HW214268   0.993   5.617   3.160
 4457SOL     OW14269   5.275   2.240   6.433
 4457SOL    HW114270   5.371   2.250   6.457
 4457SOL    HW214271   5.268   2.209   6.338
 4458SOL     OW14272   3.819   2.251   5.974
 4458SOL    HW114273   3.740   2.311   5.986
 4458SOL    HW214274   3.816   2.210   5.883
 4459SOL     OW14275   4.769   6.070   4.806
 4459SOL    HW114276   4.685   6.019   4.784
 4459SOL    HW214277   4.766   6.160   4.762
 4460SOL     OW14278   2.407   1.783   6.277
 4460SOL    HW114279   2.387   1.880   6.295
 4460SOL    HW214280   2.482   1.753   6.337
 4461SOL     OW14281   2.265   0.321   2.104
 4461SOL    HW114282   2.221   0.387   2.165
 4461SOL    HW214283   2.275   0.360   2.013
 4462SOL     OW14284   0.021   5.267   1.748
 4462SOL    HW114285   6.990   5.328   1.807
 4462SOL    HW214286   0.118   5.284   1.762
 4463SOL     OW14287   0.911   3.697   6.219
 4463SOL    HW114288   0.971   3.755   6.163
 4463SOL    HW214289   0.960   3.664   6.299
 4464SOL     OW14290   5.688   3.365   6.698
 4464SOL    HW114291   5.606   3.333   6.651
 4464SOL    HW214292   5.662   3.408   6.785
 4465SOL     OW14293   1.385   6.461   2.254
 4465SOL    HW114294   1.470   6.472   2.306
 4465SOL    HW214295   1.307   6.475   2.314
 4466SOL     OW14296   0.668   2.100   3.622
 4466SOL    HW114297   0.656   2.061   3.531
 4466SOL    HW214298   0.578   2.117   3.663
 4467SOL     OW14299   1.091   6.684   3.300
 4467SOL    HW114300   1.142   6.758   3.344
 4467SOL    HW214301   0.994   6.694   3.321
 4468SOL     OW14302   1.458   2.294   0.664
 4468SOL    HW114303   1.388   2.227   0.641
 4468SOL    HW214304   1.475   2.353   0.585
 4469SOL     OW14305   4.032   0.450   0.403
 4469SOL    HW114306   3.941   0.432   0.366
 4469SOL    HW214307   4.097   0.385   0.365
 4470SOL     OW14308   4.748   4.637   0.963
 4470SOL    HW114309   4.674   4.699   0.989
 4470SOL    HW214310   4.827   4.691   0.935
 4471SOL     OW14311   6.018   3.568   0.911
 4471SOL    HW114312   6.031   3.609   0.821
 4471SOL    HW214313   5.988   3.473   0.900
 4472SOL     OW14314   1.483   3.968   2.701
 4472SOL    HW114315   1.444   4.001   2.615
 4472SOL    HW214316   1.462   4.033   2.774
 4473SOL     OW14317   0.430   6.552   4.447
 4473SOL    HW114318   0.385   6.536   4.535
 4473SOL    HW214319   0.440   6.465   4.399
 4474SOL     OW14320   4.721   0.293   3.177
 4474SOL    HW114321   4.744   0.351   3.255
 4474SOL    HW214322   4.627   0.310   3.149
 4475SOL     OW14323   1.517   3.761   0.377
 4475SOL    HW114324   1.524   3.708   0.293
 4475SOL    HW214325   1.596   3.821   0.387
 4476SOL     OW14326   5.030   6.117   1.787
 4476SOL    HW114327   4.958   6.142   1.722
 4476SOL    HW214328   4.997   6.047   1.849
 4477SOL     OW14329   1.246   1.738   0.821
 4477SOL    HW114330   1.307   1.680   0.875
 4477SOL    HW214331   1.257   1.717   0.724
 4478SOL     OW14332   2.248   6.241   1.918
 4478SOL    HW114333   2.345   6.245   1.941
 4478SOL    HW214334   2.200   6.316   1.964
 4479SOL     OW14335   0.876   6.954   5.589
 4479SOL    HW114336   0.975   6.954   5.602
 4479SOL    HW214337   0.848   6.866   5.550
 4480SOL     OW14338   0.669   5.061   3.861
 4480SOL    HW114339   0.617   4.981   3.891
 4480SOL    HW214340   0.644   5.140   3.917
 4481SOL     OW14341   1.417   6.324   4.454
 4481SOL    HW114342   1.400   6.420   4.476
 4481SOL    HW214343   1.404   6.268   4.536
 4482SOL     OW14344   0.145   4.388   4.103
 4482SOL    HW114345   0.076   4.457   4.123
 4482SOL    HW214346   0.175   4.345   4.187
 4483SOL     OW14347   5.596   2.863   2.443
 4483SOL    HW114348   5.577   2.856   2.541
 4483SOL    HW214349   5.551   2.944   2.405
 4484SOL     OW14350   4.462   2.896   5.413
 4484SOL    HW114351   4.421   2.827   5.353
 4484SOL    HW214352   4.391   2.961   5.442
 4485SOL     OW14353   5.291   2.015   6.668
 4485SOL    HW114354   5.240   1.954   6.608
 4485SOL    HW214355   5.324   2.094   6.615
 4486SOL     OW14356   6.108   2.942   4.136
 4486SOL    HW114357   6.071   3.026   4.096
 4486SOL    HW214358   6.062   2.924   4.223
 4487SOL     OW14359   3.293   2.864   6.363
 4487SOL    HW114360   3.224   2.936   6.369
 4487SOL    HW214361   3.304   2.820   6.452
 4488SOL     OW14362   0.109   1.107   4.346
 4488SOL    HW114363   0.061   1.093   4.260
 4488SOL    HW214364   0.177   1.035   4.358
 4489SOL     OW14365   6.400   6.812   4.387
 4489SOL    HW114366   6.410   6.713   4.395
 4489SOL    HW214367   6.328   6.834   4.321
 4490SOL     OW14368   6.570   1.815   2.940
 4490SOL    HW114369   6.661   1.824   2.982
 4490SOL    HW214370   6.500   1.836   3.008
 4491SOL     OW14371   0.916   3.365   3.028
 4491SOL    HW114372   0.965   3.290   3.071
 4491SOL    HW214373   0.858   3.410   3.096
 4492SOL     OW14374   4.918   3.369   6.891
 4492SOL    HW114375   4.897   3.278   6.928
 4492SOL    HW214376   4.833   3.419   6.875
 4493SOL     OW14377   5.729   4.946   4.432
 4493SOL    HW114378   5.743   5.030   4.485
 4493SOL    HW214379   5.662   4.963   4.359
 4494SOL     OW14380   6.259   4.024   4.571
 4494SOL    HW114381   6.233   3.964   4.495
 4494SOL    HW214382   6.178   4.070   4.607
 4495SOL     OW14383   4.930   6.378   0.955
 4495SOL    HW114384   4.893   6.292   0.919
 4495SOL    HW214385   4.908   6.385   1.052
 4496SOL     OW14386   4.913   4.009   5.388
 4496SOL    HW114387   5.005   4.034   5.416
 4496SOL    HW214388   4.910   3.910   5.370
 4497SOL     OW14389   6.288   4.978   0.676
 4497SOL    HW114390   6.284   4.881   0.650
 4497SOL    HW214391   6.196   5.011   0.696
 4498SOL     OW14392   6.656   3.537   0.047
 4498SOL    HW114393   6.669   3.523   0.145
 4498SOL    HW214394   6.637   3.634   0.030
 4499SOL     OW14395   6.901   2.520   6.141
 4499SOL    HW114396   6.919   2.592   6.209
 4499SOL    HW214397   6.950   2.542   6.057
 4500SOL     OW14398   2.962   3.944   4.949
 4500SOL    HW114399   3.006   3.994   4.875
 4500SOL    HW214400   2.867   3.924   4.924
 4501SOL     OW14401   0.209   4.432   5.447
 4501SOL    HW114402   0.245   4.478   5.366
 4501SOL    HW214403   0.124   4.385   5.424
 4502SOL     OW14404   0.281   2.583   0.344
 4502SOL    HW114405   0.357   2.575   0.279
 4502SOL    HW214406   0.270   2.679   0.371
 4503SOL     OW14407   1.168   1.700   3.943
 4503SOL    HW114408   1.082   1.743   3.969
 4503SOL    HW214409   1.227   1.768   3.900
 4504SOL     OW14410   5.118   1.892   4.261
 4504SOL    HW114411   5.050   1.953   4.220
 4504SOL    HW214412   5.193   1.945   4.299
 4505SOL     OW14413   1.772   6.167   5.954
 4505SOL    HW114414   1.869   6.164   5.976
 4505SOL    HW214415   1.730   6.247   5.996
 4506SOL     OW14416   4.627   0.325   5.522
 4506SOL    HW114417   4.629   0.403   5.585
 4506SOL    HW214418   4.709   0.270   5.535
 4507SOL     OW14419   6.044   4.625   0.565
 4507SOL    HW114420   6.008   4.550   0.620
 4507SOL    HW214421   5.975   4.696   0.556
 4508SOL     OW14422   1.081   4.023   0.511
 4508SOL    HW114423   1.175   3.996   0.531
 4508SOL    HW214424   1.077   4.063   0.420
 4509SOL     OW14425   2.483   1.697   3.919
 4509SOL    HW114426   2.492   1.616   3.977
 4509SOL    HW214427   2.540   1.687   3.838
 4510SOL     OW14428   4.168   6.352   5.297
 4510SOL    HW114429   4.160   6.428   5.361
 4510SOL    HW214430   4.086   6.347   5.240
 4511SOL     OW14431   6.107   2.348   0.719
 4511SOL    HW114432   6.155   2.321   0.803
 4511SOL    HW214433   6.105   2.271   0.655
 4512SOL     OW14434   3.156   5.755   6.659
 4512SOL    HW114435   3.071   5.708   6.681
 4512SOL    HW214436   3.183   5.813   6.737
 4513SOL     OW14437   4.936   1.112   1.761
 4513SOL    HW114438   4.942   1.023   1.807
 4513SOL    HW214439   4.967   1.184   1.824
 4514SOL     OW14440   3.439   1.551   5.061
 4514SOL    HW114441   3.529   1.541   5.103
 4514SOL    HW214442   3.387   1.621   5.110
 4515SOL     OW14443   0.469   5.328   1.155
 4515SOL    HW114444   0.524   5.252   1.190
 4515SOL    HW214445   0.392   5.292   1.103
 4516SOL     OW14446   0.870   0.719   5.149
 4516SOL    HW114447   0.784   0.715   5.097
 4516SOL    HW214448   0.903   0.813   5.151
 4517SOL     OW14449   3.267   6.757   5.237
 4517SOL    HW114450   3.225   6.839   5.199
 4517SOL    HW214451   3.349   6.782   5.289
 4518SOL     OW14452   1.331   2.115   4.541
 4518SOL    HW114453   1.391   2.189   4.512
 4518SOL    HW214454   1.296   2.134   4.633
 4519SOL     OW14455   0.137   2.885   3.891
 4519SOL    HW114456   0.082   2.946   3.833
 4519SOL    HW214457   0.076   2.832   3.950
 4520SOL     OW14458   7.014   3.945   3.099
 4520SOL    HW114459   7.016   4.041   3.071
 4520SOL    HW214460   7.007   3.887   3.018
 4521SOL     OW14461   5.681   1.965   0.059
 4521SOL    HW114462   5.690   2.056   0.098
 4521SOL    HW214463   5.728   1.899   0.118
 4522SOL     OW14464   6.013   0.084   3.843
 4522SOL    HW114465   6.021   0.148   3.767
 4522SOL    HW214466   6.052   0.126   3.925
 4523SOL     OW14467   3.432   3.935   0.536
 4523SOL    HW114468   3.379   4.018   0.552
 4523SOL    HW214469   3.523   3.959   0.505
 4524SOL     OW14470   5.794   0.212   4.616
 4524SOL    HW114471   5.815   0.165   4.530
 4524SOL    HW214472   5.849   0.295   4.622
 4525SOL     OW14473   6.417   1.483   5.444
 4525SOL    HW114474   6.413   1.554   5.515
 4525SOL    HW214475   6.436   1.526   5.356
 4526SOL     OW14476   4.790   0.049   0.821
 4526SOL    HW114477   4.744   0.025   0.907
 4526SOL    HW214478   4.887   0.027   0.828
 4527SOL     OW14479   4.968   0.682   2.620
 4527SOL    HW114480   5.033   0.737   2.673
 4527SOL    HW214481   4.899   0.645   2.681
 4528SOL     OW14482   5.734   0.151   0.364
 4528SOL    HW114483   5.668   0.226   0.373
 4528SOL    HW214484   5.709   0.094   0.286
 4529SOL     OW14485   3.658   6.426   3.029
 4529SOL    HW114486   3.661   6.341   3.082
 4529SOL    HW214487   3.623   6.499   3.087
 4530SOL     OW14488   0.811   3.510   5.355
 4530SOL    HW114489   0.798   3.603   5.392
 4530SOL    HW214490   0.723   3.475   5.323
 4531SOL     OW14491   0.227   3.859   4.209
 4531SOL    HW114492   0.191   3.828   4.120
 4531SOL    HW214493   0.269   3.781   4.256
 4532SOL     OW14494   6.185   1.260   0.714
 4532SOL    HW114495   6.157   1.172   0.674
 4532SOL    HW214496   6.238   1.311   0.647
 4533SOL     OW14497   2.239   5.557   2.425
 4533SOL    HW114498   2.328   5.551   2.469
 4533SOL    HW214499   2.182   5.625   2.472
 4534SOL     OW14500   6.009   3.470   5.015
 4534SOL    HW114501   6.060   3.409   5.076
 4534SOL    HW214502   6.035   3.450   4.920
 4535SOL     OW14503   4.968   2.899   2.002
 4535SOL    HW114504   5.031   2.976   2.014
 4535SOL    HW214505   4.875   2.929   2.024
 4536SOL     OW14506   6.405   0.695   4.631
 4536SOL    HW114507   6.388   0.604   4.592
 4536SOL    HW214508   6.393   0.692   4.730
 4537SOL     OW14509   3.739   2.725   6.726
 4537SOL    HW114510   3.757   2.821   6.747
 4537SOL    HW214511   3.820   2.671   6.748
 4538SOL     OW14512   2.973   1.306   2.943
 4538SOL    HW114513   2.989   1.273   2.850
 4538SOL    HW214514   2.987   1.231   3.008
 4539SOL     OW14515   2.093   1.815   2.968
 4539SOL    HW114516   2.073   1.838   2.873
 4539SOL    HW214517   2.045   1.731   2.993
 4540SOL     OW14518   3.725   3.254   4.056
 4540SOL    HW114519   3.756   3.311   4.132
 4540SOL    HW214520   3.634   3.218   4.077
 4541SOL     OW14521   4.601   1.679   1.197
 4541SOL    HW114522   4.630   1.666   1.102
 4541SOL    HW214523   4.606   1.591   1.245
 4542SOL     OW14524   5.217   0.072   2.416
 4542SOL    HW114525   5.284   0.144   2.396
 4542SOL    HW214526   5.207   0.063   2.516
 4543SOL     OW14527   5.433   1.299   1.070
 4543SOL    HW114528   5.514   1.344   1.108
 4543SOL    HW214529   5.372   1.368   1.032
 4544SOL     OW14530   3.503   5.009   6.446
 4544SOL    HW114531   3.407   5.004   6.474
 4544SOL    HW214532   3.509   5.002   6.347
 4545SOL     OW14533   3.879   2.148   5.595
 4545SOL    HW114534   3.827   2.085   5.654
 4545SOL    HW214535   3.972   2.115   5.584
 4546SOL     OW14536   1.182   6.457   6.680
 4546SOL    HW114537   1.224   6.525   6.740
 4546SOL    HW214538   1.131   6.503   6.607
 4547SOL     OW14539   4.877   2.013   2.015
 4547SOL    HW114540   4.786   2.046   2.039
 4547SOL    HW214541   4.871   1.927   1.966
 4548SOL     OW14542   1.214   4.138   3.602
 4548SOL    HW114543   1.145   4.183   3.545
 4548SOL    HW214544   1.238   4.198   3.678
 4549SOL     OW14545   6.710   2.903   2.487
 4549SOL    HW114546   6.807   2.880   2.498
 4549SOL    HW214547   6.654   2.839   2.540
 4550SOL     OW14548   1.352   5.781   4.299
 4550SOL    HW114549   1.320   5.743   4.212
 4550SOL    HW214550   1.356   5.880   4.292
 4551SOL     OW14551   0.752   2.286   5.996
 4551SOL    HW114552   0.727   2.191   6.017
 4551SOL    HW214553   0.799   2.289   5.907
 4552SOL     OW14554   0.254   3.349   4.740
 4552SOL    HW114555   0.352   3.335   4.748
 4552SOL    HW214556   0.229   3.364   4.645
 4553SOL     OW14557   4.875   4.458   0.422
 4553SOL    HW114558   4.904   4.483   0.515
 4553SOL    HW214559   4.816   4.530   0.385
 4554SOL     OW14560   5.184   6.827   2.304
 4554SOL    HW114561   5.140   6.850   2.217
 4554SOL    HW214562   5.200   6.912   2.356
 4555SOL     OW14563   5.112   2.363   6.663
 4555SOL    HW114564   5.150   2.321   6.580
 4555SOL    HW214565   5.051   2.298   6.708
 4556SOL     OW14566   4.708   1.254   3.639
 4556SOL    HW114567   4.616   1.277   3.671
 4556SOL    HW214568   4.764   1.338   3.638
 4557SOL     OW14569   5.341   6.723   5.892
 4557SOL    HW114570   5.246   6.723   5.922
 4557SOL    HW214571   5.376   6.817   5.894
 4558SOL     OW14572   6.319   3.092   6.515
 4558SOL    HW114573   6.344   3.123   6.607
 4558SOL    HW214574   6.344   3.161   6.448
 4559SOL     OW14575   1.235   6.511   1.415
 4559SOL    HW114576   1.306   6.565   1.460
 4559SOL    HW214577   1.277   6.449   1.349
 4560SOL     OW14578   5.030   3.356   2.957
 4560SOL    HW114579   5.018   3.267   3.001
 4560SOL    HW214580   5.128   3.373   2.944
 4561SOL     OW14581   3.421   0.402   6.610
 4561SOL    HW114582   3.477   0.407   6.527
 4561SOL    HW214583   3.383   0.492   6.630
 4562SOL     OW14584   2.799   5.229   6.667
 4562SOL    HW114585   2.775   5.143   6.711
 4562SOL    HW214586   2.724   5.294   6.677
 4563SOL     OW14587   5.945   2.186   6.954
 4563SOL    HW114588   5.925   2.191   0.029
 4563SOL    HW214589   5.865   2.219   6.902
 4564SOL     OW14590   1.498   5.902   0.126
 4564SOL    HW114591   1.492   5.855   0.214
 4564SOL    HW214592   1.492   6.001   0.140
 4565SOL     OW14593   1.623   0.024   5.654
 4565SOL    HW114594   1.604   0.122   5.660
 4565SOL    HW214595   1.710   0.004   5.700
 4566SOL     OW14596   6.875   1.324   6.952
 4566SOL    HW114597   6.900   1.348   6.858
 4566SOL    HW214598   6.878   1.406   7.009
 4567SOL     OW14599   6.612   1.194   1.016
 4567SOL    HW114600   6.561   1.252   1.080
 4567SOL    HW214601   6.669   1.252   0.958
 4568SOL     OW14602   3.383   4.353   5.751
 4568SOL    HW114603   3.318   4.425   5.727
 4568SOL    HW214604   3.454   4.347   5.681
 4569SOL     OW14605   0.818   1.932   4.262
 4569SOL    HW114606   0.917   1.920   4.272
 4569SOL    HW214607   0.783   1.872   4.190
 4570SOL     OW14608   0.392   5.433   3.936
 4570SOL    HW114609   0.436   5.351   3.974
 4570SOL    HW214610   0.455   5.510   3.941
 4571SOL     OW14611   3.664   3.160   4.670
 4571SOL    HW114612   3.736   3.223   4.701
 4571SOL    HW214613   3.691   3.066   4.689
 4572SOL     OW14614   1.912   0.074   1.835
 4572SOL    HW114615   1.932   0.068   1.737
 4572SOL    HW214616   1.902   7.005   1.873
 4573SOL     OW14617   5.450   6.723   0.858
 4573SOL    HW114618   5.455   6.796   0.789
 4573SOL    HW214619   5.449   6.634   0.811
 4574SOL     OW14620   0.151   4.568   1.691
 4574SOL    HW114621   0.076   4.577   1.625
 4574SOL    HW214622   0.164   4.655   1.739
 4575SOL     OW14623   6.406   0.104   2.403
 4575SOL    HW114624   6.307   0.092   2.403
 4575SOL    HW214625   6.428   0.199   2.381
 4576SOL     OW14626   2.867   5.747   5.926
 4576SOL    HW114627   2.936   5.688   5.967
 4576SOL    HW214628   2.798   5.771   5.995
 4577SOL     OW14629   1.200   3.188   3.585
 4577SOL    HW114630   1.164   3.159   3.497
 4577SOL    HW214631   1.300   3.195   3.579
 4578SOL     OW14632   6.550   3.857   3.915
 4578SOL    HW114633   6.642   3.821   3.896
 4578SOL    HW214634   6.483   3.784   3.901
 4579SOL     OW14635   5.592   2.097   3.624
 4579SOL    HW114636   5.549   2.079   3.536
 4579SOL    HW214637   5.668   2.160   3.612
 4580SOL     OW14638   6.690   5.935   1.017
 4580SOL    HW114639   6.733   5.990   1.089
 4580SOL    HW214640   6.676   5.842   1.051
 4581SOL     OW14641   2.953   5.139   2.533
 4581SOL    HW114642   2.899   5.172   2.610
 4581SOL    HW214643   2.893   5.120   2.456
 4582SOL     OW14644   5.019   6.423   2.748
 4582SOL    HW114645   4.968   6.416   2.662
 4582SOL    HW214646   5.038   6.519   2.767
 4583SOL     OW14647   3.728   1.870   5.556
 4583SOL    HW114648   3.730   1.834   5.649
 4583SOL    HW214649   3.749   1.797   5.491
 4584SOL     OW14650   0.676   5.525   5.381
 4584SOL    HW114651   0.697   5.619   5.405
 4584SOL    HW214652   0.577   5.515   5.369
 4585SOL     OW14653   3.724   6.122   2.561
 4585SOL    HW114654   3.760   6.029   2.566
 4585SOL    HW214655   3.687   6.149   2.650
 4586SOL     OW14656   3.385   5.228   2.289
 4586SOL    HW114657   3.339   5.160   2.346
 4586SOL    HW214658   3.369   5.208   2.193
 4587SOL     OW14659   2.430   3.908   1.340
 4587SOL    HW114660   2.350   3.852   1.360
 4587SOL    HW214661   2.509   3.848   1.323
 4588SOL     OW14662   4.133   3.458   4.673
 4588SOL    HW114663   4.103   3.541   4.720
 4588SOL    HW214664   4.152   3.478   4.577
 4589SOL     OW14665   6.547   2.123   4.577
 4589SOL    HW114666   6.555   2.153   4.482
 4589SOL    HW214667   6.608   2.178   4.634
 4590SOL     OW14668   4.324   5.318   2.393
 4590SOL    HW114669   4.353   5.223   2.403
 4590SOL    HW214670   4.330   5.364   2.482
 4591SOL     OW14671   5.614   6.038   5.376
 4591SOL    HW114672   5.640   5.996   5.463
 4591SOL    HW214673   5.528   5.998   5.344
 4592SOL     OW14674   3.981   2.429   6.500
 4592SOL    HW114675   3.955   2.388   6.413
 4592SOL    HW214676   4.081   2.433   6.507
 4593SOL     OW14677   3.810   6.381   2.307
 4593SOL    HW114678   3.876   6.339   2.369
 4593SOL    HW214679   3.740   6.429   2.360
 4594SOL     OW14680   2.604   1.626   2.199
 4594SOL    HW114681   2.630   1.537   2.163
 4594SOL    HW214682   2.523   1.617   2.257
 4595SOL     OW14683   3.974   3.273   6.057
 4595SOL    HW114684   3.975   3.181   6.019
 4595SOL    HW214685   4.066   3.299   6.086
 4596SOL     OW14686   5.490   0.311   1.851
 4596SOL    HW114687   5.493   0.411   1.853
 4596SOL    HW214688   5.448   0.277   1.935
 4597SOL     OW14689   5.545   4.327   6.628
 4597SOL    HW114690   5.462   4.301   6.578
 4597SOL    HW214691   5.520   4.358   6.720
 4598SOL     OW14692   2.658   4.892   6.832
 4598SOL    HW114693   2.699   4.802   6.822
 4598SOL    HW214694   2.610   4.916   6.748
 4599SOL     OW14695   1.812   4.170   0.932
 4599SOL    HW114696   1.905   4.206   0.922
 4599SOL    HW214697   1.754   4.238   0.977
 4600SOL     OW14698   2.942   5.547   1.350
 4600SOL    HW114699   3.006   5.592   1.413
 4600SOL    HW214700   2.951   5.586   1.259
 4601SOL     OW14701   1.505   6.471   5.305
 4601SOL    HW114702   1.422   6.487   5.251
 4601SOL    HW214703   1.580   6.526   5.268
 4602SOL     OW14704   1.804   0.653   1.850
 4602SOL    HW114705   1.851   0.570   1.880
 4602SOL    HW214706   1.720   0.628   1.803
 4603SOL     OW14707   3.315   0.127   1.213
 4603SOL    HW114708   3.318   0.076   1.299
 4603SOL    HW214709   3.307   0.225   1.234
 4604SOL     OW14710   3.562   6.789   1.893
 4604SOL    HW114711   3.603   6.788   1.802
 4604SOL    HW214712   3.600   6.864   1.947
 4605SOL     OW14713   5.196   6.939   4.664
 4605SOL    HW114714   5.279   6.923   4.717
 4605SOL    HW214715   5.160   0.007   4.685
 4606SOL     OW14716   0.036   6.218   5.591
 4606SOL    HW114717   0.111   6.191   5.651
 4606SOL    HW214718   0.073   6.245   5.502
 4607SOL     OW14719   3.530   2.165   1.491
 4607SOL    HW114720   3.470   2.088   1.510
 4607SOL    HW214721   3.486   2.250   1.518
 4608SOL     OW14722   1.818   3.740   5.382
 4608SOL    HW114723   1.768   3.725   5.467
 4608SOL    HW214724   1.895   3.801   5.398
 4609SOL     OW14725   4.664   6.832   6.749
 4609SOL    HW114726   4.761   6.843   6.727
 4609SOL    HW214727   4.610   6.848   6.666
 4610SOL     OW14728   0.187   3.318   6.681
 4610SOL    HW114729   0.112   3.263   6.717
 4610SOL    HW214730   0.271   3.294   6.730
 4611SOL     OW14731   0.539   4.207   0.287
 4611SOL    HW114732   0.490   4.129   0.247
 4611SOL    HW214733   0.500   4.227   0.377
 4612SOL     OW14734   2.301   6.701   6.699
 4612SOL    HW114735   2.382   6.714   6.755
 4612SOL    HW214736   2.232   6.769   6.724
 4613SOL     OW14737   3.216   5.079   2.535
 4613SOL    HW114738   3.117   5.090   2.527
 4613SOL    HW214739   3.255   5.162   2.576
 4614SOL     OW14740   1.912   5.400   0.224
 4614SOL    HW114741   2.011   5.394   0.237
 4614SOL    HW214742   1.879   5.317   0.180
 4615SOL     OW14743   0.560   2.809   0.508
 4615SOL    HW114744   0.472   2.830   0.550
 4615SOL    HW214745   0.633   2.820   0.575
 4616SOL     OW14746   5.187   1.077   6.853
 4616SOL    HW114747   5.094   1.044   6.872
 4616SOL    HW214748   5.227   1.113   6.938
 4617SOL     OW14749   0.504   2.663   1.844
 4617SOL    HW114750   0.480   2.610   1.763
 4617SOL    HW214751   0.430   2.728   1.865
 4618SOL     OW14752   1.018   2.161   6.267
 4618SOL    HW114753   1.043   2.107   6.347
 4618SOL    HW214754   0.954   2.234   6.294
 4619SOL     OW14755   3.492   0.793   3.474
 4619SOL    HW114756   3.404   0.838   3.463
 4619SOL    HW214757   3.557   0.828   3.406
 4620SOL     OW14758   2.369   4.426   6.472
 4620SOL    HW114759   2.345   4.522   6.487
 4620SOL    HW214760   2.465   4.420   6.444
 4621SOL     OW14761   0.598   6.358   5.753
 4621SOL    HW114762   0.602   6.324   5.847
 4621SOL    HW214763   0.634   6.288   5.691
 4622SOL     OW14764   1.777   3.835   0.647
 4622SOL    HW114765   1.749   3.929   0.670
 4622SOL    HW214766   1.877   3.831   0.641
 4623SOL     OW14767   6.682   4.984   1.746
 4623SOL    HW114768   6.648   4.919   1.815
 4623SOL    HW214769   6.699   5.072   1.789
 4624SOL     OW14770   5.050   0.225   4.733
 4624SOL    HW114771   5.121   0.286   4.768
 4624SOL    HW214772   4.981   0.279   4.684
 4625SOL     OW14773   1.119   3.824   6.821
 4625SOL    HW114774   1.027   3.820   6.781
 4625SOL    HW214775   1.166   3.737   6.803
 4626SOL     OW14776   6.845   5.273   1.329
 4626SOL    HW114777   6.836   5.313   1.420
 4626SOL    HW214778   6.940   5.244   1.315
 4627SOL     OW14779   3.379   6.385   5.886
 4627SOL    HW114780   3.302   6.326   5.912
 4627SOL    HW214781   3.443   6.333   5.829
 4628SOL     OW14782   0.017   4.257   2.044
 4628SOL    HW114783   6.977   4.326   2.079
 4628SOL    HW214784   0.101   4.302   2.013
 4629SOL     OW14785   2.050   4.661   5.607
 4629SOL    HW114786   2.109   4.580   5.611
 4629SOL    HW214787   2.095   4.737   5.652
 4630SOL     OW14788   2.008   6.533   2.691
 4630SOL    HW114789   2.044   6.523   2.784
 4630SOL    HW214790   2.081   6.560   2.629
 4631SOL     OW14791   2.998   6.739   2.285
 4631SOL    HW114792   2.981   6.798   2.206
 4631SOL    HW214793   2.913   6.694   2.312
 4632SOL     OW14794   5.226   5.623   3.891
 4632SOL    HW114795   5.171   5.659   3.816
 4632SOL    HW214796   5.235   5.692   3.963
 4633SOL     OW14797   6.263   2.126   4.647
 4633SOL    HW114798   6.356   2.129   4.611
 4633SOL    HW214799   6.260   2.175   4.735
 4634SOL     OW14800   3.396   4.586   0.739
 4634SOL    HW114801   3.328   4.538   0.682
 4634SOL    HW214802   3.367   4.584   0.834
 4635SOL     OW14803   5.216   3.681   1.467
 4635SOL    HW114804   5.252   3.762   1.421
 4635SOL    HW214805   5.244   3.682   1.563
 4636SOL     OW14806   2.590   5.491   0.590
 4636SOL    HW114807   2.505   5.545   0.590
 4636SOL    HW214808   2.610   5.460   0.683
 4637SOL     OW14809   1.325   1.510   5.383
 4637SOL    HW114810   1.424   1.500   5.392
 4637SOL    HW214811   1.303   1.607   5.370
 4638SOL     OW14812   5.517   3.564   5.645
 4638SOL    HW114813   5.442   3.582   5.582
 4638SOL    HW214814   5.534   3.466   5.650
 4639SOL     OW14815   0.338   3.852   5.302
 4639SOL    HW114816   0.282   3.930   5.274
 4639SOL    HW214817   0.307   3.770   5.254
 4640SOL     OW14818   5.419   4.175   2.725
 4640SOL    HW114819   5.512   4.211   2.731
 4640SOL    HW214820   5.364   4.234   2.665
 4641SOL     OW14821   2.094   5.089   5.109
 4641SOL    HW114822   2.083   4.996   5.142
 4641SOL    HW214823   2.166   5.092   5.040
 4642SOL     OW14824   6.017   6.072   4.672
 4642SOL    HW114825   5.968   6.155   4.646
 4642SOL    HW214826   6.012   6.005   4.599
 4643SOL     OW14827   3.960   2.212   1.903
 4643SOL    HW114828   4.003   2.225   1.813
 4643SOL    HW214829   3.862   2.231   1.895
 4644SOL     OW14830   2.322   5.862   5.173
 4644SOL    HW114831   2.371   5.775   5.162
 4644SOL    HW214832   2.366   5.932   5.118
 4645SOL     OW14833   2.060   6.025   4.498
 4645SOL    HW114834   2.008   5.941   4.485
 4645SOL    HW214835   2.035   6.067   4.585
 4646SOL     OW14836   3.976   0.890   1.802
 4646SOL    HW114837   4.010   0.798   1.817
 4646SOL    HW214838   3.895   0.906   1.858
 4647SOL     OW14839   6.171   0.278   4.034
 4647SOL    HW114840   6.260   0.315   4.060
 4647SOL    HW214841   6.101   0.350   4.038
 4648SOL     OW14842   2.287   5.862   2.892
 4648SOL    HW114843   2.354   5.896   2.827
 4648SOL    HW214844   2.261   5.768   2.868
 4649SOL     OW14845   4.896   0.868   6.077
 4649SOL    HW114846   4.909   0.930   6.000
 4649SOL    HW214847   4.943   0.782   6.058
 4650SOL     OW14848   5.991   4.773   2.473
 4650SOL    HW114849   5.937   4.854   2.451
 4650SOL    HW214850   5.981   4.705   2.399
 4651SOL     OW14851   0.249   2.389   1.932
 4651SOL    HW114852   0.211   2.481   1.946
 4651SOL    HW214853   0.239   2.364   1.836
 4652SOL     OW14854   6.956   6.538   5.800
 4652SOL    HW114855   0.029   6.523   5.777
 4652SOL    HW214856   6.929   6.473   5.871
 4653SOL     OW14857   0.222   6.187   6.952
 4653SOL    HW114858   0.281   6.154   0.003
 4653SOL    HW214859   0.231   6.286   6.944
 4654SOL     OW14860   1.164   1.006   6.913
 4654SOL    HW114861   1.206   1.091   6.882
 4654SOL    HW214862   1.153   0.944   6.835
 4655SOL     OW14863   0.220   4.776   3.290
 4655SOL    HW114864   0.273   4.757   3.207
 4655SOL    HW214865   0.125   4.797   3.265
 4656SOL     OW14866   1.966   6.795   3.536
 4656SOL    HW114867   2.046   6.739   3.555
 4656SOL    HW214868   1.975   6.882   3.584
 4657SOL     OW14869   5.202   0.229   0.801
 4657SOL    HW114870   5.120   0.284   0.813
 4657SOL    HW214871   5.197   0.148   0.860
 4658SOL     OW14872   5.292   0.259   3.422
 4658SOL    HW114873   5.357   0.276   3.347
 4658SOL    HW214874   5.310   0.170   3.462
 4659SOL     OW14875   1.800   2.541   5.015
 4659SOL    HW114876   1.720   2.518   4.958
 4659SOL    HW214877   1.785   2.510   5.108
 4660SOL     OW14878   6.999   0.700   5.965
 4660SOL    HW114879   6.960   0.784   5.927
 4660SOL    HW214880   0.061   0.722   6.014
 4661SOL     OW14881   3.482   4.127   4.254
 4661SOL    HW114882   3.394   4.084   4.238
 4661SOL    HW214883   3.529   4.143   4.167
 4662SOL     OW14884   5.075   0.078   5.111
 4662SOL    HW114885   4.998   0.065   5.048
 4662SOL    HW214886   5.072   0.009   5.183
 4663SOL     OW14887   0.303   2.185   2.719
 4663SOL    HW114888   0.210   2.190   2.755
 4663SOL    HW214889   0.341   2.278   2.714
 4664SOL     OW14890   2.841   2.132   6.956
 4664SOL    HW114891   2.762   2.193   6.949
 4664SOL    HW214892   2.810   2.037   6.943
 4665SOL     OW14893   5.042   0.513   0.137
 4665SOL    HW114894   5.031   0.464   0.050
 4665SOL    HW214895   5.117   0.471   0.188
 4666SOL     OW14896   2.238   1.464   0.631
 4666SOL    HW114897   2.185   1.533   0.582
 4666SOL    HW214898   2.335   1.490   0.631
 4667SOL     OW14899   0.551   5.170   6.289
 4667SOL    HW114900   0.474   5.230   6.269
 4667SOL    HW214901   0.627   5.224   6.325
 4668SOL     OW14902   6.610   1.674   4.202
 4668SOL    HW114903   6.523   1.662   4.251
 4668SOL    HW214904   6.658   1.587   4.198
 4669SOL     OW14905   1.464   0.558   0.440
 4669SOL    HW114906   1.400   0.543   0.515
 4669SOL    HW214907   1.514   0.474   0.421
 4670SOL     OW14908   2.320   2.110   3.997
 4670SOL    HW114909   2.268   2.109   4.082
 4670SOL    HW214910   2.411   2.071   4.013
 4671SOL     OW14911   5.783   3.313   1.481
 4671SOL    HW114912   5.830   3.225   1.483
 4671SOL    HW214913   5.796   3.356   1.392
 4672SOL     OW14914   1.565   3.721   5.991
 4672SOL    HW114915   1.541   3.702   6.086
 4672SOL    HW214916   1.577   3.820   5.979
 4673SOL     OW14917   4.140   0.981   2.588
 4673SOL    HW114918   4.159   0.883   2.600
 4673SOL    HW214919   4.043   0.997   2.605
 4674SOL     OW14920   4.403   5.553   5.740
 4674SOL    HW114921   4.406   5.652   5.754
 4674SOL    HW214922   4.319   5.517   5.782
 4675SOL     OW14923   1.088   4.020   0.244
 4675SOL    HW114924   1.110   4.106   0.200
 4675SOL    HW214925   1.051   3.956   0.176
 4676SOL     OW14926   1.127   5.613   3.800
 4676SOL    HW114927   1.066   5.615   3.720
 4676SOL    HW214928   1.211   5.564   3.776
 4677SOL     OW14929   1.652   2.984   6.999
 4677SOL    HW114930   1.689   3.062   0.027
 4677SOL    HW214931   1.596   2.928   0.037
 4678SOL     OW14932   2.329   4.944   2.603
 4678SOL    HW114933   2.423   4.934   2.634
 4678SOL    HW214934   2.275   4.866   2.634
 4679SOL     OW14935   5.182   0.091   1.816
 4679SOL    HW114936   5.279   0.068   1.818
 4679SOL    HW214937   5.161   0.140   1.732
 4680SOL     OW14938   2.065   1.416   1.587
 4680SOL    HW114939   2.155   1.380   1.563
 4680SOL    HW214940   2.021   1.354   1.652
 4681SOL     OW14941   5.445   4.504   1.325
 4681SOL    HW114942   5.472   4.468   1.415
 4681SOL    HW214943   5.465   4.436   1.255
 4682SOL     OW14944   3.846   3.344   6.788
 4682SOL    HW114945   3.937   3.386   6.781
 4682SOL    HW214946   3.818   3.311   6.698
 4683SOL     OW14947   6.151   4.266   3.385
 4683SOL    HW114948   6.214   4.288   3.311
 4683SOL    HW214949   6.187   4.301   3.472
 4684SOL     OW14950   4.990   6.405   0.014
 4684SOL    HW114951   4.950   6.482   0.063
 4684SOL    HW214952   5.070   6.371   0.064
 4685SOL     OW14953   2.516   3.275   5.897
 4685SOL    HW114954   2.574   3.337   5.844
 4685SOL    HW214955   2.474   3.208   5.836
 4686SOL     OW14956   2.828   6.044   0.414
 4686SOL    HW114957   2.890   6.061   0.337
 4686SOL    HW214958   2.750   6.107   0.409
 4687SOL     OW14959   3.192   0.604   2.739
 4687SOL    HW114960   3.119   0.667   2.714
 4687SOL    HW214961   3.184   0.521   2.683
 4688SOL     OW14962   5.818   3.386   5.655
 4688SOL    HW114963   5.720   3.378   5.639
 4688SOL    HW214964   5.837   3.469   5.707
 4689SOL     OW14965   5.681   0.968   1.189
 4689SOL    HW114966   5.730   1.051   1.216
 4689SOL    HW214967   5.731   0.888   1.220
 4690SOL     OW14968   2.710   1.497   0.608
 4690SOL    HW114969   2.765   1.453   0.537
 4690SOL    HW214970   2.758   1.578   0.642
 4691SOL     OW14971   7.021   4.209   1.689
 4691SOL    HW114972   0.026   4.260   1.770
 4691SOL    HW214973   0.076   4.199   1.627
 4692SOL     OW14974   6.154   3.853   2.913
 4692SOL    HW114975   6.181   3.761   2.886
 4692SOL    HW214976   6.155   3.913   2.833
 4693SOL     OW14977   1.700   0.755   3.757
 4693SOL    HW114978   1.618   0.761   3.813
 4693SOL    HW214979   1.751   0.672   3.780
 4694SOL     OW14980   2.225   1.523   6.923
 4694SOL    HW114981   2.169   1.595   6.882
 4694SOL    HW214982   2.303   1.563   6.969
 4695SOL     OW14983   0.881   6.307   1.774
 4695SOL    HW114984   0.921   6.376   1.834
 4695SOL    HW214985   0.916   6.320   1.681
 4696SOL     OW14986   1.139   5.069   5.971
 4696SOL    HW114987   1.212   5.110   5.917
 4696SOL    HW214988   1.055   5.064   5.916
 4697SOL     OW14989   3.114   4.945   0.730
 4697SOL    HW114990   3.210   4.917   0.728
 4697SOL    HW214991   3.101   5.026   0.672
 4698SOL     OW14992   5.737   1.229   3.306
 4698SOL    HW114993   5.739   1.129   3.304
 4698SOL    HW214994   5.696   1.260   3.391
 4699SOL     OW14995   1.180   6.983   2.980
 4699SOL    HW114996   1.188   6.883   2.984
 4699SOL    HW214997   1.088   7.009   2.953
 4700SOL     OW14998   5.722   2.194   2.718
 4700SOL    HW114999   5.694   2.154   2.805
 4700SOL    HW215000   5.657   2.265   2.692
 4701SOL     OW15001   3.378   1.875   1.805
 4701SOL    HW115002   3.352   1.971   1.818
 4701SOL    HW215003   3.333   1.819   1.873
 4702SOL     OW15004   5.033   4.710   6.274
 4702SOL    HW115005   5.102   4.782   6.286
 4702SOL    HW215006   5.064   4.645   6.204
 4703SOL     OW15007   0.826   4.961   3.438
 4703SOL    HW115008   0.807   4.965   3.340
 4703SOL    HW215009   0.920   4.991   3.455
 4704SOL     OW15010   0.794   5.102   5.535
 4704SOL    HW115011   0.834   5.158   5.463
 4704SOL    HW215012   0.793   5.006   5.506
 4705SOL     OW15013   3.386   2.713   1.546
 4705SOL    HW115014   3.294   2.692   1.513
 4705SOL    HW215015   3.439   2.754   1.471
 4706SOL     OW15016   1.744   0.942   0.517
 4706SOL    HW115017   1.748   1.026   0.464
 4706SOL    HW215018   1.725   0.865   0.455
 4707SOL     OW15019   1.772   6.826   1.351
 4707SOL    HW115020   1.847   6.857   1.409
 4707SOL    HW215021   1.798   6.835   1.255
 4708SOL     OW15022   0.688   2.983   4.161
 4708SOL    HW115023   0.615   3.051   4.164
 4708SOL    HW215024   0.677   2.917   4.235
 4709SOL     OW15025   4.609   3.753   5.393
 4709SOL    HW115026   4.632   3.843   5.355
 4709SOL    HW215027   4.633   3.682   5.326
 4710SOL     OW15028   6.026   6.282   4.114
 4710SOL    HW115029   6.065   6.348   4.178
 4710SOL    HW215030   6.075   6.288   4.027
 4711SOL     OW15031   6.120   3.191   2.996
 4711SOL    HW115032   6.129   3.238   3.084
 4711SOL    HW215033   6.094   3.095   3.013
 4712SOL     OW15034   4.477   4.140   5.403
 4712SOL    HW115035   4.484   4.239   5.390
 4712SOL    HW215036   4.537   4.093   5.338
 4713SOL     OW15037   5.758   4.384   1.265
 4713SOL    HW115038   5.739   4.482   1.257
 4713SOL    HW215039   5.829   4.368   1.333
 4714SOL     OW15040   5.647   0.767   5.854
 4714SOL    HW115041   5.706   0.835   5.898
 4714SOL    HW215042   5.565   0.754   5.909
 4715SOL     OW15043   6.264   1.311   1.517
 4715SOL    HW115044   6.327   1.252   1.467
 4715SOL    HW215045   6.260   1.401   1.474
 4716SOL     OW15046   4.152   4.275   5.687
 4716SOL    HW115047   4.091   4.234   5.619
 4716SOL    HW215048   4.237   4.304   5.642
 4717SOL     OW15049   2.727   5.386   5.280
 4717SOL    HW115050   2.675   5.451   5.224
 4717SOL    HW215051   2.800   5.346   5.225
 4718SOL     OW15052   4.918   4.234   0.952
 4718SOL    HW115053   4.905   4.293   0.873
 4718SOL    HW215054   4.857   4.264   1.026
 4719SOL     OW15055   6.749   3.736   3.818
 4719SOL    HW115056   6.839   3.692   3.810
 4719SOL    HW215057   6.704   3.735   3.729
 4720SOL     OW15058   2.822   4.104   6.552
 4720SOL    HW115059   2.782   4.019   6.519
 4720SOL    HW215060   2.758   4.180   6.537
 4721SOL     OW15061   6.581   3.743   2.823
 4721SOL    HW115062   6.575   3.711   2.729
 4721SOL    HW215063   6.551   3.670   2.885
 4722SOL     OW15064   1.568   4.653   6.986
 4722SOL    HW115065   1.513   4.571   6.974
 4722SOL    HW215066   1.566   4.681   0.060
 4723SOL     OW15067   3.920   4.036   6.617
 4723SOL    HW115068   3.952   4.010   6.709
 4723SOL    HW215069   3.902   3.953   6.564
 4724SOL     OW15070   1.569   0.001   4.675
 4724SOL    HW115071   1.512   6.942   4.689
 4724SOL    HW215072   1.541   0.047   4.591
 4725SOL     OW15073   5.694   6.035   0.289
 4725SOL    HW115074   5.636   5.990   0.222
 4725SOL    HW215075   5.737   5.967   0.348
 4726SOL     OW15076   1.356   3.016   5.306
 4726SOL    HW115077   1.425   2.943   5.309
 4726SOL    HW215078   1.345   3.055   5.397
 4727SOL     OW15079   1.185   5.449   0.214
 4727SOL    HW115080   1.209   5.541   0.183
 4727SOL    HW215081   1.189   5.446   0.314
 4728SOL     OW15082   6.432   1.100   4.313
 4728SOL    HW115083   6.409   1.046   4.395
 4728SOL    HW215084   6.401   1.194   4.326
 4729SOL     OW15085   6.224   1.066   0.959
 4729SOL    HW115086   6.300   1.065   0.893
 4729SOL    HW215087   6.147   1.115   0.919
 4730SOL     OW15088   3.475   0.468   4.970
 4730SOL    HW115089   3.429   0.549   4.935
 4730SOL    HW215090   3.560   0.453   4.918
 4731SOL     OW15091   3.288   0.802   0.594
 4731SOL    HW115092   3.333   0.849   0.670
 4731SOL    HW215093   3.315   0.705   0.595
 4732SOL     OW15094   0.446   4.436   4.379
 4732SOL    HW115095   0.494   4.394   4.302
 4732SOL    HW215096   0.506   4.501   4.425
 4733SOL     OW15097   2.151   3.622   3.146
 4733SOL    HW115098   2.130   3.530   3.177
 4733SOL    HW215099   2.164   3.622   3.047
 4734SOL     OW15100   5.033   3.965   6.707
 4734SOL    HW115101   4.938   3.934   6.699
 4734SOL    HW215102   5.092   3.888   6.728
 4735SOL     OW15103   7.016   6.795   4.897
 4735SOL    HW115104   0.074   6.737   4.907
 4735SOL    HW215105   6.996   6.807   4.800
 4736SOL     OW15106   6.342   1.673   3.269
 4736SOL    HW115107   6.424   1.731   3.272
 4736SOL    HW215108   6.281   1.697   3.345
 4737SOL     OW15109   2.286   4.855   1.099
 4737SOL    HW115110   2.321   4.770   1.138
 4737SOL    HW215111   2.222   4.897   1.162
 4738SOL     OW15112   2.041   6.497   3.988
 4738SOL    HW115113   2.053   6.572   3.923
 4738SOL    HW215114   1.994   6.421   3.943
 4739SOL     OW15115   5.755   3.185   3.849
 4739SOL    HW115116   5.676   3.226   3.896
 4739SOL    HW215117   5.811   3.258   3.809
 4740SOL     OW15118   0.204   0.765   1.417
 4740SOL    HW115119   0.168   0.752   1.509
 4740SOL    HW215120   0.139   0.819   1.363
 4741SOL     OW15121   4.746   4.817   1.555
 4741SOL    HW115122   4.813   4.744   1.565
 4741SOL    HW215123   4.672   4.803   1.621
 4742SOL     OW15124   2.886   6.258   1.708
 4742SOL    HW115125   2.871   6.178   1.766
 4742SOL    HW215126   2.899   6.230   1.613
 4743SOL     OW15127   2.507   2.220   0.345
 4743SOL    HW115128   2.455   2.295   0.384
 4743SOL    HW215129   2.451   2.137   0.344
 4744SOL     OW15130   1.742   2.888   5.537
 4744SOL    HW115131   1.775   2.868   5.629
 4744SOL    HW215132   1.808   2.856   5.470
 4745SOL     OW15133   3.054   6.045   5.057
 4745SOL    HW115134   3.050   6.020   4.960
 4745SOL    HW215135   2.968   6.089   5.083
 4746SOL     OW15136   6.702   0.011   0.641
 4746SOL    HW115137   6.616   0.039   0.599
 4746SOL    HW215138   6.763   6.996   0.571
 4747SOL     OW15139   6.064   2.651   0.863
 4747SOL    HW115140   6.052   2.733   0.920
 4747SOL    HW215141   6.076   2.571   0.923
 4748SOL     OW15142   1.434   1.158   1.376
 4748SOL    HW115143   1.505   1.090   1.395
 4748SOL    HW215144   1.460   1.246   1.413
 4749SOL     OW15145   1.749   6.472   6.846
 4749SOL    HW115146   1.681   6.452   6.776
 4749SOL    HW215147   1.838   6.435   6.818
 4750SOL     OW15148   0.143   0.359   4.694
 4750SOL    HW115149   0.140   0.373   4.793
 4750SOL    HW215150   0.196   0.276   4.674
 4751SOL     OW15151   1.289   4.146   6.535
 4751SOL    HW115152   1.337   4.066   6.500
 4751SOL    HW215153   1.220   4.118   6.602
 4752SOL     OW15154   2.912   5.760   1.708
 4752SOL    HW115155   2.907   5.685   1.774
 4752SOL    HW215156   2.999   5.756   1.658
 4753SOL     OW15157   5.675   6.546   5.116
 4753SOL    HW115158   5.732   6.489   5.175
 4753SOL    HW215159   5.582   6.511   5.116
 4754SOL     OW15160   0.328   0.456   5.964
 4754SOL    HW115161   0.352   0.493   5.874
 4754SOL    HW215162   0.340   0.356   5.963
 4755SOL     OW15163   2.273   1.496   6.399
 4755SOL    HW115164   2.204   1.425   6.413
 4755SOL    HW215165   2.283   1.550   6.483
 4756SOL     OW15166   5.080   2.778   1.345
 4756SOL    HW115167   5.088   2.833   1.262
 4756SOL    HW215168   5.041   2.688   1.322
 4757SOL     OW15169   1.929   2.496   1.133
 4757SOL    HW115170   1.829   2.497   1.141
 4757SOL    HW215171   1.966   2.415   1.179
 4758SOL     OW15172   5.241   5.056   5.076
 4758SOL    HW115173   5.289   5.016   4.998
 4758SOL    HW215174   5.149   5.018   5.082
 4759SOL     OW15175   5.349   5.268   5.987
 4759SOL    HW115176   5.282   5.265   5.912
 4759SOL    HW215177   5.439   5.242   5.953
 4760SOL     OW15178   1.535   1.395   1.458
 4760SOL    HW115179   1.598   1.361   1.528
 4760SOL    HW215180   1.540   1.494   1.454
 4761SOL     OW15181   0.184   7.003   6.693
 4761SOL    HW115182   0.243   0.040   6.640
 4761SOL    HW215183   0.173   0.018   6.785
 4762SOL     OW15184   2.184   5.646   1.865
 4762SOL    HW115185   2.217   5.593   1.787
 4762SOL    HW215186   2.204   5.743   1.849
 4763SOL     OW15187   6.050   6.015   3.544
 4763SOL    HW115188   6.131   6.073   3.555
 4763SOL    HW215189   6.059   5.933   3.600
 4764SOL     OW15190   3.776   3.384   4.334
 4764SOL    HW115191   3.865   3.388   4.380
 4764SOL    HW215192   3.704   3.368   4.401
 4765SOL     OW15193   5.104   5.746   4.839
 4765SOL    HW115194   5.050   5.801   4.775
 4765SOL    HW215195   5.173   5.694   4.788
 4766SOL     OW15196   2.816   0.202   3.265
 4766SOL    HW115197   2.778   0.189   3.173
 4766SOL    HW215198   2.863   0.119   3.294
 4767SOL     OW15199   4.382   6.312   6.619
 4767SOL    HW115200   4.443   6.295   6.541
 4767SOL    HW215201   4.435   6.352   6.694
 4768SOL     OW15202   6.689   0.640   5.381
 4768SOL    HW115203   6.708   0.546   5.351
 4768SOL    HW215204   6.663   0.695   5.301
 4769SOL     OW15205   3.963   6.863   1.448
 4769SOL    HW115206   3.901   6.941   1.458
 4769SOL    HW215207   4.015   6.873   1.363
 4770SOL     OW15208   2.812   0.728   3.194
 4770SOL    HW115209   2.743   0.702   3.127
 4770SOL    HW215210   2.832   0.650   3.254
 4771SOL     OW15211   4.076   4.043   5.350
 4771SOL    HW115212   4.154   3.981   5.348
 4771SOL    HW215213   4.014   4.020   5.275
 4772SOL     OW15214   2.786   2.273   1.619
 4772SOL    HW115215   2.799   2.218   1.701
 4772SOL    HW215216   2.811   2.368   1.638
 4773SOL     OW15217   0.093   5.832   3.609
 4773SOL    HW115218   0.143   5.782   3.680
 4773SOL    HW215219   0.132   5.813   3.519
 4774SOL     OW15220   0.483   3.721   1.438
 4774SOL    HW115221   0.466   3.727   1.340
 4774SOL    HW215222   0.582   3.723   1.455
 4775SOL     OW15223   4.186   0.219   2.430
 4775SOL    HW115224   4.229   0.134   2.461
 4775SOL    HW215225   4.102   0.235   2.483
 4776SOL     OW15226   3.117   5.557   2.092
 4776SOL    HW115227   3.091   5.464   2.065
 4776SOL    HW215228   3.179   5.553   2.170
 4777SOL     OW15229   2.862   3.898   1.012
 4777SOL    HW115230   2.944   3.950   1.033
 4777SOL    HW215231   2.851   3.824   1.079
 4778SOL     OW15232   4.746   4.245   2.024
 4778SOL    HW115233   4.768   4.158   1.978
 4778SOL    HW215234   4.654   4.273   1.999
 4779SOL     OW15235   5.764   0.813   2.841
 4779SOL    HW115236   5.811   0.760   2.912
 4779SOL    HW215237   5.689   0.758   2.804
 4780SOL     OW15238   0.698   6.808   6.846
 4780SOL    HW115239   0.752   6.724   6.850
 4780SOL    HW215240   0.714   6.862   6.929
 4781SOL     OW15241   2.624   5.381   1.551
 4781SOL    HW115242   2.541   5.391   1.606
 4781SOL    HW215243   2.607   5.414   1.459
 4782SOL     OW15244   5.716   6.166   6.599
 4782SOL    HW115245   5.724   6.253   6.647
 4782SOL    HW215246   5.798   6.152   6.543
 4783SOL     OW15247   5.429   4.366   1.078
 4783SOL    HW115248   5.483   4.306   1.018
 4783SOL    HW215249   5.392   4.442   1.025
 4784SOL     OW15250   5.385   4.932   4.640
 4784SOL    HW115251   5.474   4.887   4.653
 4784SOL    HW215252   5.335   4.885   4.567
 4785SOL     OW15253   6.996   6.623   1.713
 4785SOL    HW115254   0.021   6.668   1.637
 4785SOL    HW215255   0.016   6.534   1.730
 4786SOL     OW15256   1.927   3.348   2.162
 4786SOL    HW115257   1.902   3.357   2.259
 4786SOL    HW215258   1.921   3.437   2.118
 4787SOL     OW15259   3.245   2.152   3.431
 4787SOL    HW115260   3.186   2.181   3.356
 4787SOL    HW215261   3.204   2.181   3.518
 4788SOL     OW15262   1.262   5.339   4.219
 4788SOL    HW115263   1.257   5.404   4.144
 4788SOL    HW215264   1.198   5.264   4.203
 4789SOL     OW15265   5.752   0.571   0.040
 4789SOL    HW115266   5.680   0.561   6.994
 4789SOL    HW215267   5.837   0.530   0.005
 4790SOL     OW15268   5.640   2.286   6.308
 4790SOL    HW115269   5.664   2.382   6.319
 4790SOL    HW215270   5.615   2.248   6.397
 4791SOL     OW15271   5.421   6.914   2.100
 4791SOL    HW115272   5.396   6.825   2.060
 4791SOL    HW215273   5.364   6.931   2.180
 4792SOL     OW15274   2.053   2.487   2.481
 4792SOL    HW115275   2.046   2.497   2.580
 4792SOL    HW215276   2.150   2.486   2.454
 4793SOL     OW15277   1.101   6.825   6.617
 4793SOL    HW115278   1.021   6.767   6.628
 4793SOL    HW215279   1.097   6.871   6.528
 4794SOL     OW15280   2.944   0.461   2.392
 4794SOL    HW115281   2.905   0.390   2.451
 4794SOL    HW215282   3.015   0.510   2.442
 4795SOL     OW15283   6.400   2.968   4.094
 4795SOL    HW115284   6.301   2.956   4.100
 4795SOL    HW215285   6.435   2.997   4.182
 4796SOL     OW15286   5.903   4.545   0.804
 4796SOL    HW115287   5.885   4.636   0.766
 4796SOL    HW215288   5.955   4.553   0.888
 4797SOL     OW15289   0.297   4.566   5.208
 4797SOL    HW115290   0.391   4.599   5.206
 4797SOL    HW215291   0.239   4.626   5.152
 4798SOL     OW15292   6.965   4.160   4.237
 4798SOL    HW115293   0.022   4.216   4.261
 4798SOL    HW215294   6.881   4.211   4.257
 4799SOL     OW15295   4.261   1.538   5.170
 4799SOL    HW115296   4.173   1.571   5.137
 4799SOL    HW215297   4.263   1.438   5.170
 4800SOL     OW15298   2.179   2.387   5.122
 4800SOL    HW115299   2.258   2.412   5.179
 4800SOL    HW215300   2.115   2.463   5.118
 4801SOL     OW15301   1.019   1.904   0.814
 4801SOL    HW115302   1.109   1.862   0.802
 4801SOL    HW215303   0.949   1.833   0.811
 4802SOL     OW15304   2.862   0.455   1.952
 4802SOL    HW115305   2.816   0.414   1.872
 4802SOL    HW215306   2.856   0.393   2.029
 4803SOL     OW15307   1.047   0.119   0.488
 4803SOL    HW115308   1.092   0.209   0.494
 4803SOL    HW215309   0.956   0.125   0.530
 4804SOL     OW15310   3.817   5.320   6.650
 4804SOL    HW115311   3.896   5.314   6.589
 4804SOL    HW215312   3.734   5.296   6.600
 4805SOL     OW15313   6.886   1.922   0.932
 4805SOL    HW115314   6.816   1.855   0.906
 4805SOL    HW215315   6.855   1.975   1.011
 4806SOL     OW15316   0.735   2.842   3.199
 4806SOL    HW115317   0.762   2.914   3.262
 4806SOL    HW215318   0.768   2.865   3.107
 4807SOL     OW15319   0.442   6.825   1.101
 4807SOL    HW115320   0.360   6.806   1.046
 4807SOL    HW215321   0.452   6.755   1.171
 4808SOL     OW15322   5.028   3.231   1.111
 4808SOL    HW115323   4.957   3.200   1.047
 4808SOL    HW215324   5.118   3.209   1.073
 4809SOL     OW15325   3.580   5.492   6.691
 4809SOL    HW115326   3.569   5.504   6.592
 4809SOL    HW215327   3.676   5.472   6.712
 4810SOL     OW15328   0.838   6.882   1.351
 4810SOL    HW115329   0.768   6.902   1.282
 4810SOL    HW215330   0.908   6.822   1.311
 4811SOL     OW15331   3.781   5.094   1.825
 4811SOL    HW115332   3.869   5.075   1.782
 4811SOL    HW215333   3.794   5.105   1.923
 4812SOL     OW15334   0.025   5.671   4.269
 4812SOL    HW115335   0.076   5.671   4.355
 4812SOL    HW215336   0.089   5.657   4.193
 4813SOL     OW15337   5.131   2.277   2.748
 4813SOL    HW115338   5.033   2.280   2.732
 4813SOL    HW215339   5.180   2.303   2.664
 4814SOL     OW15340   0.188   4.040   1.266
 4814SOL    HW115341   0.217   4.118   1.321
 4814SOL    HW215342   0.254   4.026   1.191
 4815SOL     OW15343   4.822   6.034   1.225
 4815SOL    HW115344   4.870   6.082   1.298
 4815SOL    HW215345   4.774   5.955   1.263
 4816SOL     OW15346   5.212   5.235   3.092
 4816SOL    HW115347   5.207   5.309   3.026
 4816SOL    HW215348   5.121   5.195   3.105
 4817SOL     OW15349   1.023   2.693   6.358
 4817SOL    HW115350   1.020   2.792   6.369
 4817SOL    HW215351   0.960   2.650   6.422
 4818SOL     OW15352   0.214   6.981   3.915
 4818SOL    HW115353   0.301   0.006   3.905
 4818SOL    HW215354   0.186   6.943   3.827
 4819SOL     OW15355   1.511   3.471   0.697
 4819SOL    HW115356   1.573   3.533   0.745
 4819SOL    HW215357   1.559   3.386   0.674
 4820SOL     OW15358   7.016   2.979   1.918
 4820SOL    HW115359   6.955   2.975   1.839
 4820SOL    HW215360   0.079   2.932   1.897
 4821SOL     OW15361   6.854   5.828   2.589
 4821SOL    HW115362   6.776   5.885   2.612
 4821SOL    HW215363   6.939   5.880   2.602
 4822SOL     OW15364   1.614   3.799   4.503
 4822SOL    HW115365   1.636   3.883   4.453
 4822SOL    HW215366   1.589   3.727   4.438
 4823SOL     OW15367   2.125   2.848   2.134
 4823SOL    HW115368   2.116   2.948   2.125
 4823SOL    HW215369   2.070   2.803   2.064
 4824SOL     OW15370   5.820   1.329   5.401
 4824SOL    HW115371   5.823   1.344   5.302
 4824SOL    HW215372   5.913   1.316   5.435
 4825SOL     OW15373   1.640   6.606   4.086
 4825SOL    HW115374   1.546   6.625   4.116
 4825SOL    HW215375   1.704   6.654   4.146
 4826SOL     OW15376   4.460   0.576   1.820
 4826SOL    HW115377   4.526   0.612   1.754
 4826SOL    HW215378   4.508   0.546   1.902
 4827SOL     OW15379   0.032   1.598   1.243
 4827SOL    HW115380   0.001   1.525   1.182
 4827SOL    HW215381   0.036   1.684   1.193
 4828SOL     OW15382   4.770   0.454   3.389
 4828SOL    HW115383   4.697   0.520   3.370
 4828SOL    HW215384   4.855   0.503   3.409
 4829SOL     OW15385   3.840   0.145   5.205
 4829SOL    HW115386   3.761   0.120   5.260
 4829SOL    HW215387   3.815   0.218   5.141
 4830SOL     OW15388   3.125   5.811   3.163
 4830SOL    HW115389   3.191   5.835   3.091
 4830SOL    HW215390   3.053   5.881   3.166
 4831SOL     OW15391   2.960   4.818   6.097
 4831SOL    HW115392   2.956   4.889   6.169
 4831SOL    HW215393   3.033   4.841   6.033
 4832SOL     OW15394   3.455   3.213   4.331
 4832SOL    HW115395   3.449   3.287   4.264
 4832SOL    HW215396   3.482   3.252   4.420
 4833SOL     OW15397   0.338   2.706   3.809
 4833SOL    HW115398   0.265   2.772   3.827
 4833SOL    HW215399   0.357   2.704   3.711
 4834SOL     OW15400   1.399   5.292   1.638
 4834SOL    HW115401   1.450   5.376   1.652
 4834SOL    HW215402   1.449   5.233   1.575
 4835SOL     OW15403   6.641   2.291   5.390
 4835SOL    HW115404   6.559   2.256   5.344
 4835SOL    HW215405   6.639   2.391   5.391
 4836SOL     OW15406   5.438   1.258   5.389
 4836SOL    HW115407   5.403   1.276   5.297
 4836SOL    HW215408   5.468   1.162   5.395
 4837SOL     OW15409   0.141   4.562   4.483
 4837SOL    HW115410   0.046   4.548   4.510
 4837SOL    HW215411   0.145   4.630   4.409
 4838SOL     OW15412   1.888   4.304   6.579
 4838SOL    HW115413   1.838   4.218   6.569
 4838SOL    HW215414   1.951   4.316   6.502
 4839SOL     OW15415   2.547   1.285   6.976
 4839SOL    HW115416   2.575   1.189   6.972
 4839SOL    HW215417   2.466   1.294   0.010
 4840SOL     OW15418   5.618   3.345   4.903
 4840SOL    HW115419   5.664   3.307   4.983
 4840SOL    HW215420   5.528   3.379   4.929
 4841SOL     OW15421   3.252   5.608   2.623
 4841SOL    HW115422   3.282   5.693   2.581
 4841SOL    HW215423   3.330   5.547   2.634
 4842SOL     OW15424   2.775   5.466   2.991
 4842SOL    HW115425   2.785   5.434   2.897
 4842SOL    HW215426   2.705   5.538   2.994
 4843SOL     OW15427   0.568   1.633   1.996
 4843SOL    HW115428   0.535   1.574   1.921
 4843SOL    HW215429   0.493   1.649   2.060
 4844SOL     OW15430   1.046   5.659   4.636
 4844SOL    HW115431   1.138   5.694   4.619
 4844SOL    HW215432   1.052   5.571   4.681
 4845SOL     OW15433   4.827   3.894   5.032
 4845SOL    HW115434   4.816   3.794   5.028
 4845SOL    HW215435   4.860   3.928   4.945
 4846SOL     OW15436   6.864   3.773   4.588
 4846SOL    HW115437   6.906   3.718   4.660
 4846SOL    HW215438   6.930   3.842   4.557
 4847SOL     OW15439   2.389   6.339   6.047
 4847SOL    HW115440   2.371   6.242   6.068
 4847SOL    HW215441   2.304   6.391   6.059
 4848SOL     OW15442   3.307   1.113   4.228
 4848SOL    HW115443   3.404   1.132   4.243
 4848SOL    HW215444   3.298   1.031   4.172
 4849SOL     OW15445   1.879   6.852   1.107
 4849SOL    HW115446   1.813   6.836   1.033
 4849SOL    HW215447   1.903   6.949   1.109
 4850SOL     OW15448   4.383   0.052   0.425
 4850SOL    HW115449   4.366   6.988   0.471
 4850SOL    HW215450   4.394   0.037   0.327
 4851SOL     OW15451   3.589   4.886   6.681
 4851SOL    HW115452   3.573   4.926   6.590
 4851SOL    HW215453   3.684   4.857   6.689
 4852SOL     OW15454   4.883   5.475   4.608
 4852SOL    HW115455   4.933   5.409   4.664
 4852SOL    HW215456   4.948   5.526   4.552
 4853SOL     OW15457   4.170   0.017   2.009
 4853SOL    HW115458   4.133   6.951   2.034
 4853SOL    HW215459   4.132   0.087   2.069
 4854SOL     OW15460   5.795   6.322   1.607
 4854SOL    HW115461   5.797   6.415   1.570
 4854SOL    HW215462   5.709   6.278   1.580
 4855SOL     OW15463   5.643   4.936   5.427
 4855SOL    HW115464   5.576   4.961   5.357
 4855SOL    HW215465   5.733   4.969   5.400
 4856SOL     OW15466   0.042   3.721   3.260
 4856SOL    HW115467   0.007   3.788   3.194
 4856SOL    HW215468   7.007   3.640   3.260
 4857SOL     OW15469   2.704   2.079   4.920
 4857SOL    HW115470   2.701   2.179   4.908
 4857SOL    HW215471   2.764   2.040   4.850
 4858SOL     OW15472   0.784   5.980   3.931
 4858SOL    HW115473   0.723   5.959   3.854
 4858SOL    HW215474   0.743   6.052   3.988
 4859SOL     OW15475   1.090   6.268   2.281
 4859SOL    HW115476   0.994   6.288   2.302
 4859SOL    HW215477   1.125   6.336   2.216
 4860SOL     OW15478   4.122   5.560   1.102
 4860SOL    HW115479   4.198   5.574   1.039
 4860SOL    HW215480   4.058   5.493   1.064
 4861SOL     OW15481   0.269   4.664   6.638
 4861SOL    HW115482   0.369   4.668   6.645
 4861SOL    HW215483   0.242   4.578   6.594
 4862SOL     OW15484   2.410   5.313   5.352
 4862SOL    HW115485   2.455   5.312   5.441
 4862SOL    HW215486   2.312   5.328   5.364
 4863SOL     OW15487   4.695   1.968   2.930
 4863SOL    HW115488   4.774   2.015   2.971
 4863SOL    HW215489   4.695   1.983   2.831
 4864SOL     OW15490   2.296   1.442   1.413
 4864SOL    HW115491   2.258   1.534   1.421
 4864SOL    HW215492   2.281   1.408   1.320
 4865SOL     OW15493   3.596   5.934   5.269
 4865SOL    HW115494   3.565   5.974   5.184
 4865SOL    HW215495   3.675   5.985   5.303
 4866SOL     OW15496   6.516   4.442   1.652
 4866SOL    HW115497   6.444   4.487   1.706
 4866SOL    HW215498   6.569   4.511   1.603
 4867SOL     OW15499   5.136   6.137   3.498
 4867SOL    HW115500   5.111   6.047   3.463
 4867SOL    HW215501   5.136   6.136   3.598
 4868SOL     OW15502   0.789   5.986   0.972
 4868SOL    HW115503   0.886   6.010   0.960
 4868SOL    HW215504   0.780   5.886   0.973
 4869SOL     OW15505   6.147   0.477   0.899
 4869SOL    HW115506   6.118   0.573   0.898
 4869SOL    HW215507   6.095   0.428   0.969
 4870SOL     OW15508   6.567   6.614   1.712
 4870SOL    HW115509   6.608   6.622   1.621
 4870SOL    HW215510   6.637   6.587   1.778
 4871SOL     OW15511   0.672   3.719   3.990
 4871SOL    HW115512   0.697   3.689   4.082
 4871SOL    HW215513   0.752   3.714   3.930
 4872SOL     OW15514   0.781   0.627   3.380
 4872SOL    HW115515   0.762   0.725   3.377
 4872SOL    HW215516   0.763   0.592   3.472
 4873SOL     OW15517   0.231   5.673   5.523
 4873SOL    HW115518   0.167   5.619   5.579
 4873SOL    HW215519   0.201   5.768   5.520
 4874SOL     OW15520   4.901   3.781   3.124
 4874SOL    HW115521   5.001   3.780   3.117
 4874SOL    HW215522   4.863   3.846   3.058
 4875SOL     OW15523   6.160   2.499   6.924
 4875SOL    HW115524   6.226   2.463   6.858
 4875SOL    HW215525   6.099   2.564   6.879
 4876SOL     OW15526   0.725   1.394   6.612
 4876SOL    HW115527   0.791   1.321   6.592
 4876SOL    HW215528   0.743   1.432   6.702
 4877SOL     OW15529   6.406   1.533   1.152
 4877SOL    HW115530   6.457   1.450   1.174
 4877SOL    HW215531   6.466   1.598   1.106
 4878SOL     OW15532   0.017   1.796   1.467
 4878SOL    HW115533   0.010   1.843   1.379
 4878SOL    HW215534   0.020   1.697   1.452
 4879SOL     OW15535   4.276   5.463   3.466
 4879SOL    HW115536   4.297   5.557   3.494
 4879SOL    HW215537   4.269   5.459   3.366
 4880SOL     OW15538   5.625   2.067   6.124
 4880SOL    HW115539   5.609   2.147   6.182
 4880SOL    HW215540   5.660   1.991   6.178
 4881SOL     OW15541   3.421   6.151   6.128
 4881SOL    HW115542   3.385   6.232   6.084
 4881SOL    HW215543   3.489   6.177   6.197
 4882SOL     OW15544   5.516   0.700   5.610
 4882SOL    HW115545   5.523   0.766   5.536
 4882SOL    HW215546   5.559   0.738   5.692
 4883SOL     OW15547   0.143   5.797   1.308
 4883SOL    HW115548   0.192   5.712   1.328
 4883SOL    HW215549   0.201   5.856   1.251
 4884SOL     OW15550   3.364   6.755   1.519
 4884SOL    HW115551   3.439   6.703   1.480
 4884SOL    HW215552   3.316   6.698   1.587
 4885SOL     OW15553   2.156   0.011   1.996
 4885SOL    HW115554   2.162   0.108   2.017
 4885SOL    HW215555   2.116   7.021   1.905
 4886SOL     OW15556   6.328   0.733   6.451
 4886SOL    HW115557   6.306   0.778   6.538
 4886SOL    HW215558   6.350   0.636   6.469
 4887SOL     OW15559   0.402   1.817   4.526
 4887SOL    HW115560   0.341   1.760   4.471
 4887SOL    HW215561   0.371   1.814   4.622
 4888SOL     OW15562   2.582   5.106   2.274
 4888SOL    HW115563   2.628   5.051   2.204
 4888SOL    HW215564   2.591   5.203   2.252
 4889SOL     OW15565   1.352   2.756   0.443
 4889SOL    HW115566   1.410   2.837   0.451
 4889SOL    HW215567   1.350   2.708   0.531
 4890SOL     OW15568   1.299   0.762   4.742
 4890SOL    HW115569   1.208   0.729   4.767
 4890SOL    HW215570   1.337   0.702   4.671
 4891SOL     OW15571   1.260   4.264   0.426
 4891SOL    HW115572   1.181   4.282   0.484
 4891SOL    HW215573   1.343   4.261   0.482
 4892SOL     OW15574   1.072   5.678   1.476
 4892SOL    HW115575   1.150   5.622   1.447
 4892SOL    HW215576   1.065   5.758   1.417
 4893SOL     OW15577   0.030   3.494   6.571
 4893SOL    HW115578   7.017   3.447   6.491
 4893SOL    HW215579   0.111   3.445   6.604
 4894SOL     OW15580   2.504   0.755   3.116
 4894SOL    HW115581   2.469   0.687   3.179
 4894SOL    HW215582   2.475   0.734   3.023
 4895SOL     OW15583   0.410   3.382   0.694
 4895SOL    HW115584   0.470   3.325   0.638
 4895SOL    HW215585   0.448   3.391   0.786
 4896SOL     OW15586   4.083   5.281   4.314
 4896SOL    HW115587   3.987   5.276   4.288
 4896SOL    HW215588   4.114   5.376   4.310
 4897SOL     OW15589   3.220   5.500   6.281
 4897SOL    HW115590   3.184   5.568   6.217
 4897SOL    HW215591   3.216   5.410   6.239
 4898SOL     OW15592   5.596   2.364   5.487
 4898SOL    HW115593   5.683   2.315   5.495
 4898SOL    HW215594   5.612   2.462   5.497
 4899SOL     OW15595   5.686   3.871   4.288
 4899SOL    HW115596   5.628   3.909   4.216
 4899SOL    HW215597   5.762   3.932   4.307
 4900SOL     OW15598   0.958   6.605   5.188
 4900SOL    HW115599   0.896   6.532   5.218
 4900SOL    HW215600   0.905   6.681   5.151
 4901SOL     OW15601   1.557   6.735   3.644
 4901SOL    HW115602   1.479   6.775   3.692
 4901SOL    HW215603   1.620   6.695   3.711
 4902SOL     OW15604   2.926   4.862   2.038
 4902SOL    HW115605   2.973   4.886   1.953
 4902SOL    HW215606   2.889   4.770   2.030
 4903SOL     OW15607   4.810   6.898   6.443
 4903SOL    HW115608   4.859   6.856   6.367
 4903SOL    HW215609   4.864   6.888   6.527
 4904SOL     OW15610   3.234   5.969   3.829
 4904SOL    HW115611   3.146   5.960   3.783
 4904SOL    HW215612   3.295   6.024   3.772
 4905SOL     OW15613   6.087   3.432   2.327
 4905SOL    HW115614   6.174   3.482   2.315
 4905SOL    HW215615   6.039   3.427   2.239
 4906SOL     OW15616   5.832   0.644   0.800
 4906SOL    HW115617   5.870   0.710   0.866
 4906SOL    HW215618   5.757   0.593   0.843
 4907SOL     OW15619   3.060   1.141   2.184
 4907SOL    HW115620   3.026   1.109   2.272
 4907SOL    HW215621   3.106   1.229   2.197
 4908SOL     OW15622   3.248   5.814   6.945
 4908SOL    HW115623   3.295   5.830   0.009
 4908SOL    HW215624   3.166   5.872   6.941
 4909SOL     OW15625   6.834   0.111   5.196
 4909SOL    HW115626   6.738   0.084   5.182
 4909SOL    HW215627   6.886   0.031   5.228
 4910SOL     OW15628   6.118   0.049   4.962
 4910SOL    HW115629   6.166   6.984   4.958
 4910SOL    HW215630   6.098   0.071   5.058
 4911SOL     OW15631   6.603   2.722   5.904
 4911SOL    HW115632   6.565   2.655   5.969
 4911SOL    HW215633   6.592   2.686   5.811
 4912SOL     OW15634   2.277   2.338   2.216
 4912SOL    HW115635   2.216   2.382   2.149
 4912SOL    HW215636   2.312   2.406   2.279
 4913SOL     OW15637   2.960   3.511   2.760
 4913SOL    HW115638   3.034   3.552   2.814
 4913SOL    HW215639   2.931   3.575   2.689
 4914SOL     OW15640   2.178   6.528   3.538
 4914SOL    HW115641   2.227   6.548   3.623
 4914SOL    HW215642   2.237   6.476   3.477
 4915SOL     OW15643   3.157   5.791   3.437
 4915SOL    HW115644   3.157   5.806   3.338
 4915SOL    HW215645   3.081   5.732   3.463
 4916SOL     OW15646   2.671   1.270   2.338
 4916SOL    HW115647   2.712   1.326   2.410
 4916SOL    HW215648   2.668   1.322   2.252
 4917SOL     OW15649   1.756   5.303   0.656
 4917SOL    HW115650   1.770   5.218   0.605
 4917SOL    HW215651   1.845   5.339   0.684
 4918SOL     OW15652   2.481   0.611   2.171
 4918SOL    HW115653   2.518   0.702   2.148
 4918SOL    HW215654   2.437   0.572   2.091
 4919SOL     OW15655   2.633   2.457   1.814
 4919SOL    HW115656   2.589   2.547   1.819
 4919SOL    HW215657   2.718   2.458   1.866
 4920SOL     OW15658   4.594   0.493   6.884
 4920SOL    HW115659   4.581   0.398   6.914
 4920SOL    HW215660   4.539   0.509   6.801
 4921SOL     OW15661   1.569   5.127   1.791
 4921SOL    HW115662   1.501   5.200   1.785
 4921SOL    HW215663   1.526   5.039   1.771
 4922SOL     OW15664   1.605   2.697   6.219
 4922SOL    HW115665   1.688   2.732   6.177
 4922SOL    HW215666   1.565   2.767   6.278
 4923SOL     OW15667   4.070   1.156   0.545
 4923SOL    HW115668   4.011   1.238   0.549
 4923SOL    HW215669   4.076   1.116   0.636
 4924SOL     OW15670   0.506   3.708   4.469
 4924SOL    HW115671   0.572   3.776   4.437
 4924SOL    HW215672   0.454   3.673   4.391
 4925SOL     OW15673   3.883   6.044   6.894
 4925SOL    HW115674   3.959   5.982   6.879
 4925SOL    HW215675   3.917   6.138   6.900
 4926SOL     OW15676   4.841   2.403   1.761
 4926SOL    HW115677   4.750   2.396   1.802
 4926SOL    HW215678   4.845   2.484   1.703
 4927SOL     OW15679   3.594   3.456   3.205
 4927SOL    HW115680   3.648   3.402   3.269
 4927SOL    HW215681   3.616   3.552   3.215
 4928SOL     OW15682   0.595   6.015   0.617
 4928SOL    HW115683   0.600   6.063   0.705
 4928SOL    HW215684   0.630   6.074   0.545
 4929SOL     OW15685   0.790   5.276   4.160
 4929SOL    HW115686   0.781   5.320   4.249
 4929SOL    HW215687   0.834   5.340   4.096
 4930SOL     OW15688   0.091   1.764   0.940
 4930SOL    HW115689   0.016   1.830   0.950
 4930SOL    HW215690   0.151   1.770   1.020
 4931SOL     OW15691   6.960   0.942   1.016
 4931SOL    HW115692   0.018   1.000   1.003
 4931SOL    HW215693   6.945   0.887   0.934
 4932SOL     OW15694   2.821   2.540   1.388
 4932SOL    HW115695   2.803   2.534   1.486
 4932SOL    HW215696   2.735   2.553   1.339
 4933SOL     OW15697   3.077   1.141   4.394
 4933SOL    HW115698   3.149   1.127   4.326
 4933SOL    HW215699   3.004   1.073   4.380
 4934SOL     OW15700   1.379   6.189   5.006
 4934SOL    HW115701   1.321   6.271   5.013
 4934SOL    HW215702   1.433   6.180   5.090
 4935SOL     OW15703   1.346   1.338   0.756
 4935SOL    HW115704   1.364   1.364   0.851
 4935SOL    HW215705   1.282   1.262   0.755
 4936SOL     OW15706   3.819   5.322   0.603
 4936SOL    HW115707   3.724   5.302   0.578
 4936SOL    HW215708   3.830   5.420   0.619
 4937SOL     OW15709   0.526   3.273   6.569
 4937SOL    HW115710   0.496   3.201   6.633
 4937SOL    HW215711   0.461   3.280   6.494
 4938SOL     OW15712   3.452   4.395   1.335
 4938SOL    HW115713   3.494   4.324   1.392
 4938SOL    HW215714   3.456   4.366   1.239
 4939SOL     OW15715   1.885   1.906   1.965
 4939SOL    HW115716   1.965   1.845   1.965
 4939SOL    HW215717   1.913   1.997   1.997
 4940SOL     OW15718   6.826   1.962   5.131
 4940SOL    HW115719   6.829   2.026   5.207
 4940SOL    HW215720   6.856   2.008   5.047
 4941SOL     OW15721   3.868   2.016   5.299
 4941SOL    HW115722   3.806   2.012   5.378
 4941SOL    HW215723   3.962   2.004   5.329
 4942SOL     OW15724   6.827   1.705   3.764
 4942SOL    HW115725   6.773   1.775   3.716
 4942SOL    HW215726   6.766   1.648   3.819
 4943SOL     OW15727   5.278   3.292   6.296
 4943SOL    HW115728   5.322   3.227   6.234
 4943SOL    HW215729   5.232   3.363   6.243
 4944SOL     OW15730   1.525   5.114   0.891
 4944SOL    HW115731   1.612   5.152   0.920
 4944SOL    HW215732   1.535   5.015   0.878
 4945SOL     OW15733   1.808   1.274   4.983
 4945SOL    HW115734   1.751   1.191   4.975
 4945SOL    HW215735   1.787   1.320   5.069
 4946SOL     OW15736   2.385   4.891   6.957
 4946SOL    HW115737   2.404   4.816   7.020
 4946SOL    HW215738   2.443   4.883   6.876
 4947SOL     OW15739   1.480   1.136   1.703
 4947SOL    HW115740   1.394   1.106   1.662
 4947SOL    HW215741   1.462   1.210   1.767
 4948SOL     OW15742   1.349   2.781   1.871
 4948SOL    HW115743   1.392   2.723   1.801
 4948SOL    HW215744   1.272   2.830   1.830
 4949SOL     OW15745   6.982   4.085   6.853
 4949SOL    HW115746   7.021   4.074   6.945
 4949SOL    HW215747   0.027   4.125   6.792
 4950SOL     OW15748   2.429   3.643   5.354
 4950SOL    HW115749   2.492   3.719   5.340
 4950SOL    HW215750   2.351   3.651   5.292
 4951SOL     OW15751   4.882   5.576   3.363
 4951SOL    HW115752   4.949   5.586   3.437
 4951SOL    HW215753   4.791   5.594   3.398
 4952SOL     OW15754   0.226   6.643   5.903
 4952SOL    HW115755   0.251   6.725   5.851
 4952SOL    HW215756   0.215   6.566   5.840
 4953SOL     OW15757   0.597   2.025   4.917
 4953SOL    HW115758   0.525   2.078   4.962
 4953SOL    HW215759   0.612   2.061   4.825
 4954SOL     OW15760   3.390   4.317   5.248
 4954SOL    HW115761   3.464   4.379   5.276
 4954SOL    HW215762   3.414   4.275   5.160
 4955SOL     OW15763   3.467   5.274   6.796
 4955SOL    HW115764   3.539   5.224   6.844
 4955SOL    HW215765   3.501   5.365   6.771
 4956SOL     OW15766   2.601   0.377   4.515
 4956SOL    HW115767   2.563   0.460   4.474
 4956SOL    HW215768   2.676   0.402   4.576
 4957SOL     OW15769   6.137   4.268   6.927
 4957SOL    HW115770   6.051   4.254   6.977
 4957SOL    HW215771   6.119   4.265   6.829
 4958SOL     OW15772   3.498   5.982   0.333
 4958SOL    HW115773   3.581   6.028   0.363
 4958SOL    HW215774   3.482   6.004   0.236
 4959SOL     OW15775   0.612   3.136   2.813
 4959SOL    HW115776   0.585   3.158   2.906
 4959SOL    HW215777   0.711   3.150   2.802
 4960SOL     OW15778   4.458   5.520   4.284
 4960SOL    HW115779   4.541   5.505   4.338
 4960SOL    HW215780   4.476   5.592   4.216
 4961SOL     OW15781   4.241   1.121   6.961
 4961SOL    HW115782   4.326   1.070   6.958
 4961SOL    HW215783   4.169   1.064   7.001
 4962SOL     OW15784   1.242   4.205   1.440
 4962SOL    HW115785   1.188   4.181   1.359
 4962SOL    HW215786   1.329   4.157   1.438
 4963SOL     OW15787   1.153   3.850   6.454
 4963SOL    HW115788   1.212   3.866   6.533
 4963SOL    HW215789   1.209   3.844   6.372
 4964SOL     OW15790   2.943   6.765   4.672
 4964SOL    HW115791   2.877   6.823   4.624
 4964SOL    HW215792   3.019   6.743   4.611
 4965SOL     OW15793   1.854   6.013   3.124
 4965SOL    HW115794   1.900   6.027   3.212
 4965SOL    HW215795   1.918   6.029   3.049
 4966SOL     OW15796   3.326   6.492   4.197
 4966SOL    HW115797   3.398   6.439   4.151
 4966SOL    HW215798   3.257   6.518   4.130
 4967SOL     OW15799   4.438   4.689   4.781
 4967SOL    HW115800   4.503   4.762   4.802
 4967SOL    HW215801   4.417   4.638   4.864
 4968SOL     OW15802   6.063   2.593   3.072
 4968SOL    HW115803   5.975   2.610   3.116
 4968SOL    HW215804   6.058   2.509   3.018
 4969SOL     OW15805   0.779   6.353   3.208
 4969SOL    HW115806   0.779   6.373   3.306
 4969SOL    HW215807   0.838   6.274   3.189
 4970SOL     OW15808   0.558   1.877   1.532
 4970SOL    HW115809   0.635   1.849   1.590
 4970SOL    HW215810   0.484   1.913   1.589
 4971SOL     OW15811   6.711   6.054   3.025
 4971SOL    HW115812   6.705   5.981   3.094
 4971SOL    HW215813   6.631   6.113   3.032
 4972SOL     OW15814   1.431   4.524   1.260
 4972SOL    HW115815   1.405   4.492   1.351
 4972SOL    HW215816   1.366   4.490   1.192
 4973SOL     OW15817   6.709   0.648   0.871
 4973SOL    HW115818   6.787   0.678   0.817
 4973SOL    HW215819   6.734   0.567   0.924
 4974SOL     OW15820   3.355   5.711   5.231
 4974SOL    HW115821   3.260   5.741   5.226
 4974SOL    HW215822   3.413   5.770   5.174
 4975SOL     OW15823   5.960   4.081   0.908
 4975SOL    HW115824   5.897   4.145   0.951
 4975SOL    HW215825   5.922   3.989   0.912
 4976SOL     OW15826   1.902   7.002   3.772
 4976SOL    HW115827   1.907   6.988   3.871
 4976SOL    HW215828   1.975   0.040   3.743
 4977SOL     OW15829   1.815   4.595   6.061
 4977SOL    HW115830   1.819   4.563   5.966
 4977SOL    HW215831   1.736   4.655   6.073
 4978SOL     OW15832   5.169   4.703   4.585
 4978SOL    HW115833   5.225   4.681   4.664
 4978SOL    HW215834   5.082   4.653   4.591
 4979SOL     OW15835   2.397   0.149   6.258
 4979SOL    HW115836   2.473   0.102   6.213
 4979SOL    HW215837   2.314   0.095   6.246
 4980SOL     OW15838   5.443   3.771   3.151
 4980SOL    HW115839   5.502   3.737   3.078
 4980SOL    HW215840   5.431   3.699   3.220
 4981SOL     OW15841   3.329   4.868   2.011
 4981SOL    HW115842   3.246   4.813   2.021
 4981SOL    HW215843   3.397   4.817   1.958
 4982SOL     OW15844   4.319   1.404   6.182
 4982SOL    HW115845   4.415   1.424   6.161
 4982SOL    HW215846   4.271   1.380   6.097
 4983SOL     OW15847   6.297   5.587   3.020
 4983SOL    HW115848   6.387   5.591   2.977
 4983SOL    HW215849   6.296   5.512   3.087
 4984SOL     OW15850   5.079   4.649   2.785
 4984SOL    HW115851   5.046   4.685   2.872
 4984SOL    HW215852   5.133   4.720   2.738
 4985SOL     OW15853   5.523   6.781   2.500
 4985SOL    HW115854   5.475   6.738   2.424
 4985SOL    HW215855   5.622   6.779   2.482
 4986SOL     OW15856   0.460   4.873   2.780
 4986SOL    HW115857   0.407   4.870   2.695
 4986SOL    HW215858   0.476   4.780   2.813
 4987SOL     OW15859   0.629   0.834   2.643
 4987SOL    HW115860   0.684   0.918   2.642
 4987SOL    HW215861   0.535   0.855   2.618
 4988SOL     OW15862   5.722   6.736   3.727
 4988SOL    HW115863   5.717   6.807   3.797
 4988SOL    HW215864   5.793   6.760   3.660
 4989SOL     OW15865   4.290   0.448   2.527
 4989SOL    HW115866   4.250   0.389   2.458
 4989SOL    HW215867   4.389   0.435   2.530
 4990SOL     OW15868   4.679   2.201   5.426
 4990SOL    HW115869   4.688   2.301   5.422
 4990SOL    HW215870   4.601   2.172   5.371
 4991SOL     OW15871   1.359   5.403   4.807
 4991SOL    HW115872   1.410   5.444   4.732
 4991SOL    HW215873   1.405   5.320   4.838
 4992SOL     OW15874   0.347   2.001   3.274
 4992SOL    HW115875   0.394   2.089   3.285
 4992SOL    HW215876   0.287   2.006   3.194
 4993SOL     OW15877   3.774   6.374   4.390
 4993SOL    HW115878   3.724   6.296   4.353
 4993SOL    HW215879   3.761   6.453   4.330
 4994SOL     OW15880   3.011   4.669   5.602
 4994SOL    HW115881   2.958   4.611   5.540
 4994SOL    HW215882   2.997   4.765   5.577
 4995SOL     OW15883   0.439   0.235   5.499
 4995SOL    HW115884   0.509   0.217   5.568
 4995SOL    HW215885   0.349   0.231   5.542
 4996SOL     OW15886   6.967   1.026   4.679
 4996SOL    HW115887   0.007   0.956   4.644
 4996SOL    HW215888   6.910   1.060   4.605
 4997SOL     OW15889   3.866   2.183   1.015
 4997SOL    HW115890   3.872   2.104   0.955
 4997SOL    HW215891   3.920   2.167   1.098
 4998SOL     OW15892   0.948   3.571   3.906
 4998SOL    HW115893   0.954   3.497   3.839
 4998SOL    HW215894   1.000   3.546   3.988
 4999SOL     OW15895   0.922   4.204   4.338
 4999SOL    HW115896   0.859   4.146   4.287
 4999SOL    HW215897   0.992   4.240   4.277
 5000SOL     OW15898   2.873   5.600   3.350
 5000SOL    HW115899   2.897   5.525   3.412
 5000SOL    HW215900   2.897   5.575   3.256
 5001SOL     OW15901   0.696   5.300   2.876
 5001SOL    HW115902   0.610   5.250   2.887
 5001SOL    HW215903   0.677   5.398   2.874
 5002SOL     OW15904   0.417   3.259   3.496
 5002SOL    HW115905   0.502   3.295   3.535
 5002SOL    HW215906   0.394   3.311   3.414
 5003SOL     OW15907   3.980   6.862   4.098
 5003SOL    HW115908   3.996   6.797   4.024
 5003SOL    HW215909   4.008   6.821   4.185
 5004SOL     OW15910   2.297   6.349   6.366
 5004SOL    HW115911   2.293   6.425   6.301
 5004SOL    HW215912   2.265   6.379   6.455
 5005SOL     OW15913   3.680   2.808   7.019
 5005SOL    HW115914   3.769   2.765   0.015
 5005SOL    HW215915   3.694   2.889   6.962
 5006SOL     OW15916   5.537   2.103   2.121
 5006SOL    HW115917   5.626   2.058   2.130
 5006SOL    HW215918   5.474   2.042   2.073
 5007SOL     OW15919   6.095   6.668   1.885
 5007SOL    HW115920   6.158   6.622   1.822
 5007SOL    HW215921   6.133   6.667   1.977
 5008SOL     OW15922   5.386   6.657   2.016
 5008SOL    HW115923   5.437   6.588   2.068
 5008SOL    HW215924   5.299   6.618   1.985
 5009SOL     OW15925   0.248   2.210   0.709
 5009SOL    HW115926   0.223   2.269   0.633
 5009SOL    HW215927   0.297   2.263   0.778
 5010SOL     OW15928   3.968   3.453   0.288
 5010SOL    HW115929   3.929   3.364   0.266
 5010SOL    HW215930   3.897   3.514   0.321
 5011SOL     OW15931   2.253   3.714   6.769
 5011SOL    HW115932   2.201   3.629   6.759
 5011SOL    HW215933   2.217   3.783   6.706
 5012SOL     OW15934   6.183   1.748   5.165
 5012SOL    HW115935   6.141   1.688   5.233
 5012SOL    HW215936   6.278   1.721   5.150
 5013SOL     OW15937   5.766   0.348   5.750
 5013SOL    HW115938   5.752   0.297   5.665
 5013SOL    HW215939   5.844   0.310   5.799
 5014SOL     OW15940   6.552   3.444   1.326
 5014SOL    HW115941   6.643   3.480   1.306
 5014SOL    HW215942   6.532   3.454   1.423
 5015SOL     OW15943   5.732   6.920   4.233
 5015SOL    HW115944   5.704   6.890   4.142
 5015SOL    HW215945   5.718   7.018   4.242
 5016SOL     OW15946   1.498   3.617   5.092
 5016SOL    HW115947   1.420   3.670   5.060
 5016SOL    HW215948   1.578   3.677   5.100
 5017SOL     OW15949   0.924   2.646   1.801
 5017SOL    HW115950   0.976   2.585   1.742
 5017SOL    HW215951   0.873   2.592   1.868
 5018SOL     OW15952   0.814   6.264   1.343
 5018SOL    HW115953   0.774   6.175   1.364
 5018SOL    HW215954   0.884   6.254   1.273
 5019SOL     OW15955   1.268   5.192   5.253
 5019SOL    HW115956   1.365   5.197   5.228
 5019SOL    HW215957   1.256   5.227   5.346
 5020SOL     OW15958   1.632   6.861   4.372
 5020SOL    HW115959   1.705   6.804   4.409
 5020SOL    HW215960   1.546   6.841   4.420
 5021SOL     OW15961   1.695   1.360   1.183
 5021SOL    HW115962   1.731   1.334   1.273
 5021SOL    HW215963   1.662   1.455   1.187
 5022SOL     OW15964   0.570   3.357   1.690
 5022SOL    HW115965   0.582   3.281   1.626
 5022SOL    HW215966   0.657   3.403   1.704
 5023SOL     OW15967   7.017   4.712   2.760
 5023SOL    HW115968   7.008   4.731   2.662
 5023SOL    HW215969   0.065   4.642   2.773
 5024SOL     OW15970   4.575   3.765   1.516
 5024SOL    HW115971   4.517   3.824   1.571
 5024SOL    HW215972   4.570   3.793   1.420
 5025SOL     OW15973   4.210   1.003   3.431
 5025SOL    HW115974   4.137   1.067   3.404
 5025SOL    HW215975   4.246   1.030   3.520
 5026SOL     OW15976   5.023   6.391   4.981
 5026SOL    HW115977   5.028   6.296   5.013
 5026SOL    HW215978   5.115   6.427   4.968
 5027SOL     OW15979   5.186   0.423   6.853
 5027SOL    HW115980   5.230   0.513   6.850
 5027SOL    HW215981   5.159   0.396   6.761
 5028SOL     OW15982   0.680   2.043   2.869
 5028SOL    HW115983   0.742   2.012   2.941
 5028SOL    HW215984   0.644   2.134   2.893
 5029SOL     OW15985   6.464   1.447   2.443
 5029SOL    HW115986   6.425   1.523   2.497
 5029SOL    HW215987   6.460   1.363   2.497
 5030SOL     OW15988   0.174   4.888   6.993
 5030SOL    HW115989   0.166   4.961   6.925
 5030SOL    HW215990   0.161   4.800   6.947
 5031SOL     OW15991   0.037   0.563   5.712
 5031SOL    HW115992   0.017   0.599   5.803
 5031SOL    HW215993   0.057   0.465   5.717
 5032SOL     OW15994   3.244   3.474   5.664
 5032SOL    HW115995   3.251   3.532   5.583
 5032SOL    HW215996   3.306   3.396   5.654
 5033SOL     OW15997   2.007   1.427   0.030
 5033SOL    HW115998   2.095   1.454   7.012
 5033SOL    HW215999   1.949   1.387   6.982
 5034SOL     OW16000   4.149   6.190   4.373
 5034SOL    HW116001   4.203   6.115   4.412
 5034SOL    HW216002   4.155   6.187   4.274
 5035SOL     OW16003   1.135   5.094   4.211
 5035SOL    HW116004   1.161   5.021   4.274
 5035SOL    HW216005   1.049   5.071   4.166
 5036SOL     OW16006   6.787   2.662   5.009
 5036SOL    HW116007   6.817   2.743   4.959
 5036SOL    HW216008   6.719   2.612   4.955
 5037SOL     OW16009   4.394   4.279   1.065
 5037SOL    HW116010   4.296   4.295   1.073
 5037SOL    HW216011   4.435   4.278   1.156
 5038SOL     OW16012   3.530   3.566   3.600
 5038SOL    HW116013   3.448   3.548   3.546
 5038SOL    HW216014   3.573   3.650   3.567
 5039SOL     OW16015   0.673   3.357   6.866
 5039SOL    HW116016   0.650   3.417   6.943
 5039SOL    HW216017   0.626   3.389   6.784
 5040SOL     OW16018   1.256   5.362   6.388
 5040SOL    HW116019   1.324   5.305   6.435
 5040SOL    HW216020   1.165   5.343   6.425
 5041SOL     OW16021   0.175   2.987   2.220
 5041SOL    HW116022   0.089   2.948   2.186
 5041SOL    HW216023   0.163   3.014   2.316
 5042SOL     OW16024   0.270   3.477   6.240
 5042SOL    HW116025   0.231   3.394   6.281
 5042SOL    HW216026   0.356   3.454   6.195
 5043SOL     OW16027   3.835   0.161   0.610
 5043SOL    HW116028   3.882   0.217   0.678
 5043SOL    HW216029   3.738   0.155   0.634
 5044SOL     OW16030   6.154   5.318   1.020
 5044SOL    HW116031   6.079   5.379   0.994
 5044SOL    HW216032   6.239   5.371   1.025
 5045SOL     OW16033   6.194   3.564   6.061
 5045SOL    HW116034   6.128   3.635   6.036
 5045SOL    HW216035   6.169   3.525   6.149
 5046SOL     OW16036   3.304   3.256   3.440
 5046SOL    HW116037   3.228   3.194   3.421
 5046SOL    HW216038   3.330   3.304   3.356
 5047SOL     OW16039   2.189   3.878   3.277
 5047SOL    HW116040   2.124   3.889   3.352
 5047SOL    HW216041   2.170   3.793   3.228
 5048SOL     OW16042   1.118   0.944   5.829
 5048SOL    HW116043   1.092   0.859   5.783
 5048SOL    HW216044   1.063   1.020   5.793
 5049SOL     OW16045   6.052   0.497   6.172
 5049SOL    HW116046   5.981   0.558   6.136
 5049SOL    HW216047   6.013   0.407   6.190
 5050SOL     OW16048   1.887   1.350   0.580
 5050SOL    HW116049   1.796   1.332   0.617
 5050SOL    HW216050   1.897   1.448   0.563
 5051SOL     OW16051   3.582   4.750   1.446
 5051SOL    HW116052   3.491   4.709   1.454
 5051SOL    HW216053   3.605   4.797   1.531
 5052SOL     OW16054   3.794   1.312   5.191
 5052SOL    HW116055   3.791   1.365   5.106
 5052SOL    HW216056   3.811   1.373   5.268
 5053SOL     OW16057   0.842   6.340   2.402
 5053SOL    HW116058   0.837   6.434   2.368
 5053SOL    HW216059   0.772   6.285   2.358
 5054SOL     OW16060   4.317   4.695   4.060
 5054SOL    HW116061   4.369   4.611   4.064
 5054SOL    HW216062   4.258   4.702   4.141
 5055SOL     OW16063   6.426   2.827   6.464
 5055SOL    HW116064   6.523   2.836   6.486
 5055SOL    HW216065   6.378   2.911   6.489
 5056SOL     OW16066   5.097   3.675   5.059
 5056SOL    HW116067   5.001   3.650   5.070
 5056SOL    HW216068   5.121   3.672   4.962
 5057SOL     OW16069   1.065   6.685   2.990
 5057SOL    HW116070   0.989   6.633   2.952
 5057SOL    HW216071   1.060   6.684   3.090
 5058SOL     OW16072   3.107   4.630   6.320
 5058SOL    HW116073   3.077   4.691   6.247
 5058SOL    HW216074   3.080   4.536   6.299
 5059SOL     OW16075   0.431   0.481   2.787
 5059SOL    HW116076   0.469   0.449   2.874
 5059SOL    HW216077   0.490   0.450   2.712
 5060SOL     OW16078   6.260   1.809   5.915
 5060SOL    HW116079   6.264   1.823   5.816
 5060SOL    HW216080   6.211   1.884   5.957
 5061SOL     OW16081   4.929   3.319   0.187
 5061SOL    HW116082   4.932   3.249   0.116
 5061SOL    HW216083   4.927   3.276   0.277
 5062SOL     OW16084   0.401   0.082   1.359
 5062SOL    HW116085   0.371   0.167   1.401
 5062SOL    HW216086   0.487   0.052   1.401
 5063SOL     OW16087   1.217   6.912   2.166
 5063SOL    HW116088   1.204   7.009   2.183
 5063SOL    HW216089   1.303   6.882   2.207
 5064SOL     OW16090   4.700   3.408   0.306
 5064SOL    HW116091   4.759   3.378   0.231
 5064SOL    HW216092   4.749   3.399   0.392
 5065SOL     OW16093   2.777   6.985   5.772
 5065SOL    HW116094   2.804   6.983   5.676
 5065SOL    HW216095   2.857   6.962   5.829
 5066SOL     OW16096   5.911   4.851   1.257
 5066SOL    HW116097   5.937   4.948   1.258
 5066SOL    HW216098   5.948   4.806   1.338
 5067SOL     OW16099   5.118   1.092   0.397
 5067SOL    HW116100   5.088   1.115   0.304
 5067SOL    HW216101   5.066   1.144   0.463
 5068SOL     OW16102   2.743   4.931   0.096
 5068SOL    HW116103   2.764   4.834   0.109
 5068SOL    HW216104   2.695   4.943   0.009
 5069SOL     OW16105   0.675   4.495   2.579
 5069SOL    HW116106   0.692   4.441   2.662
 5069SOL    HW216107   0.579   4.522   2.577
 5070SOL     OW16108   4.864   3.086   3.763
 5070SOL    HW116109   4.826   2.996   3.788
 5070SOL    HW216110   4.956   3.094   3.800
 5071SOL     OW16111   4.773   2.149   6.408
 5071SOL    HW116112   4.825   2.081   6.357
 5071SOL    HW216113   4.745   2.223   6.347
 5072SOL     OW16114   0.382   4.392   1.551
 5072SOL    HW116115   0.399   4.392   1.452
 5072SOL    HW216116   0.411   4.480   1.590
 5073SOL     OW16117   5.098   0.363   2.758
 5073SOL    HW116118   5.135   0.444   2.805
 5073SOL    HW216119   5.117   0.370   2.660
 5074SOL     OW16120   2.431   4.039   6.447
 5074SOL    HW116121   2.465   4.078   6.361
 5074SOL    HW216122   2.371   4.105   6.493
 5075SOL     OW16123   0.263   5.666   5.017
 5075SOL    HW116124   0.271   5.572   4.985
 5075SOL    HW216125   0.224   5.723   4.943
 5076SOL     OW16126   3.574   0.729   0.827
 5076SOL    HW116127   3.623   0.774   0.753
 5076SOL    HW216128   3.611   0.637   0.840
 5077SOL     OW16129   0.462   2.362   3.559
 5077SOL    HW116130   0.441   2.401   3.649
 5077SOL    HW216131   0.527   2.421   3.512
 5078SOL     OW16132   1.868   1.955   4.420
 5078SOL    HW116133   1.962   1.988   4.410
 5078SOL    HW216134   1.812   1.988   4.344
 5079SOL     OW16135   3.491   4.727   5.643
 5079SOL    HW116136   3.454   4.819   5.639
 5079SOL    HW216137   3.415   4.661   5.652
 5080SOL     OW16138   5.557   0.008   5.769
 5080SOL    HW116139   5.605   6.947   5.793
 5080SOL    HW216140   5.585   0.038   5.678
 5081SOL     OW16141   3.750   3.734   3.171
 5081SOL    HW116142   3.670   3.794   3.171
 5081SOL    HW216143   3.827   3.781   3.212
 5082SOL     OW16144   5.337   5.872   4.926
 5082SOL    HW116145   5.360   5.808   5.000
 5082SOL    HW216146   5.247   5.849   4.890
 5083SOL     OW16147   1.560   6.343   1.895
 5083SOL    HW116148   1.620   6.311   1.821
 5083SOL    HW216149   1.510   6.424   1.864
 5084SOL     OW16150   1.510   6.030   4.137
 5084SOL    HW116151   1.579   6.027   4.209
 5084SOL    HW216152   1.555   6.053   4.050
 5085SOL     OW16153   5.953   1.930   6.484
 5085SOL    HW116154   5.976   1.985   6.564
 5085SOL    HW216155   6.032   1.926   6.422
 5086SOL     OW16156   6.362   5.048   3.822
 5086SOL    HW116157   6.330   4.959   3.789
 5086SOL    HW216158   6.285   5.102   3.855
 5087SOL     OW16159   6.994   5.490   5.418
 5087SOL    HW116160   6.948   5.578   5.427
 5087SOL    HW216161   0.042   5.496   5.348
 5088SOL     OW16162   5.568   0.402   6.113
 5088SOL    HW116163   5.631   0.470   6.149
 5088SOL    HW216164   5.480   0.445   6.094
 5089SOL     OW16165   5.611   3.687   2.927
 5089SOL    HW116166   5.606   3.697   2.828
 5089SOL    HW216167   5.680   3.618   2.950
 5090SOL     OW16168   2.079   5.453   1.537
 5090SOL    HW116169   2.135   5.441   1.619
 5090SOL    HW216170   2.138   5.457   1.456
 5091SOL     OW16171   1.474   6.299   2.753
 5091SOL    HW116172   1.407   6.373   2.749
 5091SOL    HW216173   1.436   6.223   2.807
 5092SOL     OW16174   4.252   2.249   1.261
 5092SOL    HW116175   4.286   2.159   1.234
 5092SOL    HW216176   4.156   2.241   1.289
 5093SOL     OW16177   0.914   2.079   1.886
 5093SOL    HW116178   0.949   2.016   1.955
 5093SOL    HW216179   0.907   2.171   1.925
 5094SOL     OW16180   0.845   6.118   4.952
 5094SOL    HW116181   0.883   6.210   4.945
 5094SOL    HW216182   0.911   6.052   4.914
 5095SOL     OW16183   2.982   0.124   4.783
 5095SOL    HW116184   2.893   0.166   4.801
 5095SOL    HW216185   3.028   0.173   4.709
 5096SOL     OW16186   4.631   4.203   0.724
 5096SOL    HW116187   4.628   4.147   0.641
 5096SOL    HW216188   4.618   4.145   0.804
 5097SOL     OW16189   1.383   6.308   6.173
 5097SOL    HW116190   1.346   6.391   6.130
 5097SOL    HW216191   1.328   6.283   6.252
 5098SOL     OW16192   0.148   1.767   2.996
 5098SOL    HW116193   0.084   1.691   2.989
 5098SOL    HW216194   0.174   1.797   2.905
 5099SOL     OW16195   1.612   0.561   5.476
 5099SOL    HW116196   1.674   0.567   5.398
 5099SOL    HW216197   1.583   0.653   5.503
 5100SOL     OW16198   5.832   6.492   0.011
 5100SOL    HW116199   5.799   6.398   0.019
 5100SOL    HW216200   5.847   6.514   6.938
 5101SOL     OW16201   4.153   6.271   0.193
 5101SOL    HW116202   4.226   6.229   0.247
 5101SOL    HW216203   4.078   6.206   0.180
 5102SOL     OW16204   3.821   6.071   5.306
 5102SOL    HW116205   3.914   6.035   5.298
 5102SOL    HW216206   3.824   6.170   5.316
 5103SOL     OW16207   0.200   0.070   4.189
 5103SOL    HW116208   0.181   0.006   4.115
 5103SOL    HW216209   0.146   0.153   4.177
 5104SOL     OW16210   1.583   0.654   1.664
 5104SOL    HW116211   1.505   0.617   1.714
 5104SOL    HW216212   1.617   0.586   1.600
 5105SOL     OW16213   3.447   3.728   6.454
 5105SOL    HW116214   3.384   3.691   6.523
 5105SOL    HW216215   3.394   3.771   6.380
 5106SOL     OW16216   3.636   0.557   2.148
 5106SOL    HW116217   3.581   0.476   2.128
 5106SOL    HW216218   3.577   0.632   2.175
 5107SOL     OW16219   2.170   0.076   5.751
 5107SOL    HW116220   2.194   0.173   5.742
 5107SOL    HW216221   2.154   0.037   5.661
 5108SOL     OW16222   3.288   3.576   4.315
 5108SOL    HW116223   3.241   3.566   4.228
 5108SOL    HW216224   3.323   3.670   4.324
 5109SOL     OW16225   0.099   1.256   1.285
 5109SOL    HW116226   0.014   1.280   1.238
 5109SOL    HW216227   0.142   1.340   1.319
 5110SOL     OW16228   1.918   5.558   5.799
 5110SOL    HW116229   1.917   5.600   5.708
 5110SOL    HW216230   1.826   5.528   5.823
 5111SOL     OW16231   1.534   1.368   0.504
 5111SOL    HW116232   1.565   1.307   0.577
 5111SOL    HW216233   1.464   1.322   0.449
 5112SOL     OW16234   0.436   5.993   4.014
 5112SOL    HW116235   0.513   6.048   4.045
 5112SOL    HW216236   0.462   5.940   3.934
 5113SOL     OW16237   1.426   0.382   0.045
 5113SOL    HW116238   1.359   0.432   0.099
 5113SOL    HW216239   1.379   0.328   6.998
 5114SOL     OW16240   3.609   5.061   6.915
 5114SOL    HW116241   3.681   5.059   6.985
 5114SOL    HW216242   3.635   5.003   6.839
 5115SOL     OW16243   1.462   3.470   5.346
 5115SOL    HW116244   1.438   3.536   5.274
 5115SOL    HW216245   1.449   3.377   5.311
 5116SOL     OW16246   6.552   4.617   0.735
 5116SOL    HW116247   6.581   4.584   0.645
 5116SOL    HW216248   6.614   4.689   0.765
 5117SOL     OW16249   2.449   4.461   4.517
 5117SOL    HW116250   2.378   4.433   4.453
 5117SOL    HW216251   2.417   4.448   4.611
 5118SOL     OW16252   4.290   6.392   0.681
 5118SOL    HW116253   4.247   6.367   0.768
 5118SOL    HW216254   4.376   6.439   0.699
 5119SOL     OW16255   6.047   0.005   2.089
 5119SOL    HW116256   6.054   7.006   1.992
 5119SOL    HW216257   6.116   6.977   2.140
 5120SOL     OW16258   5.142   1.911   2.661
 5120SOL    HW116259   5.054   1.864   2.665
 5120SOL    HW216260   5.141   1.977   2.586
 5121SOL     OW16261   0.552   3.500   5.318
 5121SOL    HW116262   0.535   3.531   5.412
 5121SOL    HW216263   0.471   3.455   5.282
 5122SOL     OW16264   2.563   6.781   3.822
 5122SOL    HW116265   2.549   6.832   3.738
 5122SOL    HW216266   2.540   6.685   3.807
 5123SOL     OW16267   5.349   4.745   1.747
 5123SOL    HW116268   5.358   4.782   1.655
 5123SOL    HW216269   5.281   4.671   1.747
 5124SOL     OW16270   2.548   6.673   6.864
 5124SOL    HW116271   2.579   6.736   6.935
 5124SOL    HW216272   2.620   6.607   6.843
 5125SOL     OW16273   0.086   3.017   4.590
 5125SOL    HW116274   0.096   2.919   4.573
 5125SOL    HW216275   0.039   3.059   4.512
 5126SOL     OW16276   5.817   3.877   6.523
 5126SOL    HW116277   5.742   3.877   6.590
 5126SOL    HW216278   5.902   3.847   6.568
 5127SOL     OW16279   5.656   2.978   6.475
 5127SOL    HW116280   5.734   3.011   6.422
 5127SOL    HW216281   5.622   2.893   6.436
 5128SOL     OW16282   0.155   0.700   6.801
 5128SOL    HW116283   0.100   0.665   6.877
 5128SOL    HW216284   0.110   0.678   6.715
 5129SOL     OW16285   4.325   2.060   2.360
 5129SOL    HW116286   4.338   2.013   2.448
 5129SOL    HW216287   4.244   2.119   2.365
 5130SOL     OW16288   1.052   6.011   3.928
 5130SOL    HW116289   1.083   5.989   4.021
 5130SOL    HW216290   0.953   6.006   3.924
 5131SOL     OW16291   3.126   5.025   3.480
 5131SOL    HW116292   3.218   4.992   3.461
 5131SOL    HW216293   3.131   5.110   3.532
 5132SOL     OW16294   3.592   1.450   6.696
 5132SOL    HW116295   3.674   1.506   6.699
 5132SOL    HW216296   3.606   1.374   6.632
 5133SOL     OW16297   4.475   4.484   6.448
 5133SOL    HW116298   4.389   4.488   6.499
 5133SOL    HW216299   4.527   4.568   6.465
 5134SOL     OW16300   6.853   6.190   1.164
 5134SOL    HW116301   6.786   6.249   1.120
 5134SOL    HW216302   6.844   6.198   1.264
 5135SOL     OW16303   6.539   2.922   2.254
 5135SOL    HW116304   6.582   2.892   2.339
 5135SOL    HW216305   6.570   3.015   2.233
 5136SOL     OW16306   1.542   0.810   6.238
 5136SOL    HW116307   1.465   0.776   6.293
 5136SOL    HW216308   1.569   0.740   6.173
 5137SOL     OW16309   5.703   0.972   4.104
 5137SOL    HW116310   5.801   0.967   4.126
 5137SOL    HW216311   5.687   1.044   4.038
 5138SOL     OW16312   3.016   3.271   3.679
 5138SOL    HW116313   2.973   3.322   3.605
 5138SOL    HW216314   3.010   3.323   3.764
 5139SOL     OW16315   2.519   0.166   4.660
 5139SOL    HW116316   2.420   0.152   4.649
 5139SOL    HW216317   2.548   0.242   4.601
 5140SOL     OW16318   4.219   2.429   6.600
 5140SOL    HW116319   4.245   2.333   6.604
 5140SOL    HW216320   4.300   2.486   6.609
 5141SOL     OW16321   6.460   2.770   1.774
 5141SOL    HW116322   6.391   2.830   1.815
 5141SOL    HW216323   6.546   2.780   1.824
 5142SOL     OW16324   0.075   0.146   2.924
 5142SOL    HW116325   0.036   0.057   2.899
 5142SOL    HW216326   0.003   0.215   2.921
 5143SOL     OW16327   0.292   6.439   2.909
 5143SOL    HW116328   0.222   6.504   2.940
 5143SOL    HW216329   0.371   6.444   2.970
 5144SOL     OW16330   2.436   2.714   5.573
 5144SOL    HW116331   2.510   2.754   5.519
 5144SOL    HW216332   2.465   2.703   5.668
 5145SOL     OW16333   2.607   6.073   6.929
 5145SOL    HW116334   2.582   6.165   6.897
 5145SOL    HW216335   2.543   6.044   7.000
 5146SOL     OW16336   4.775   4.797   6.263
 5146SOL    HW116337   4.867   4.759   6.267
 5146SOL    HW216338   4.743   4.799   6.168
 5147SOL     OW16339   4.684   2.657   3.518
 5147SOL    HW116340   4.600   2.618   3.556
 5147SOL    HW216341   4.762   2.599   3.540
 5148SOL     OW16342   0.954   0.145   0.070
 5148SOL    HW116343   0.955   0.223   0.008
 5148SOL    HW216344   0.930   0.175   0.162
 5149SOL     OW16345   4.928   4.874   3.659
 5149SOL    HW116346   4.999   4.804   3.664
 5149SOL    HW216347   4.876   4.863   3.575
 5150SOL     OW16348   0.031   6.074   3.744
 5150SOL    HW116349   0.078   6.033   3.666
 5150SOL    HW216350   0.041   6.014   3.824
 5151SOL     OW16351   5.985   5.167   1.966
 5151SOL    HW116352   6.065   5.227   1.953
 5151SOL    HW216353   5.980   5.102   1.890
 5152SOL     OW16354   1.016   1.532   0.197
 5152SOL    HW116355   0.961   1.573   0.125
 5152SOL    HW216356   1.023   1.433   0.183
 5153SOL     OW16357   1.036   1.594   1.106
 5153SOL    HW116358   1.099   1.548   1.042
 5153SOL    HW216359   1.054   1.561   1.199
 5154SOL     OW16360   6.921   3.161   0.172
 5154SOL    HW116361   6.987   3.235   0.164
 5154SOL    HW216362   6.904   3.140   0.268
 5155SOL     OW16363   1.684   1.580   0.413
 5155SOL    HW116364   1.634   1.499   0.443
 5155SOL    HW216365   1.693   1.578   0.313
 5156SOL     OW16366   5.146   5.981   5.565
 5156SOL    HW116367   5.168   6.070   5.527
 5156SOL    HW216368   5.136   5.914   5.491
 5157SOL     OW16369   2.991   0.356   0.960
 5157SOL    HW116370   3.007   0.324   0.867
 5157SOL    HW216371   3.051   0.309   1.024
 5158SOL     OW16372   2.518   2.161   2.123
 5158SOL    HW116373   2.431   2.205   2.141
 5158SOL    HW216374   2.539   2.166   2.026
 5159SOL     OW16375   6.640   2.958   5.622
 5159SOL    HW116376   6.661   2.861   5.608
 5159SOL    HW216377   6.559   2.983   5.569
 5160SOL     OW16378   6.658   6.400   3.404
 5160SOL    HW116379   6.744   6.354   3.426
 5160SOL    HW216380   6.608   6.419   3.488
 5161SOL     OW16381   0.883   3.819   0.496
 5161SOL    HW116382   0.964   3.877   0.498
 5161SOL    HW216383   0.826   3.843   0.418
 5162SOL     OW16384   0.596   6.870   3.362
 5162SOL    HW116385   0.664   6.902   3.295
 5162SOL    HW216386   0.505   6.899   3.334
 5163SOL     OW16387   2.922   6.936   2.079
 5163SOL    HW116388   2.961   6.947   1.988
 5163SOL    HW216389   2.851   7.005   2.093
 5164SOL     OW16390   3.139   3.568   0.434
 5164SOL    HW116391   3.086   3.645   0.468
 5164SOL    HW216392   3.234   3.596   0.420
 5165SOL     OW16393   1.659   4.195   6.300
 5165SOL    HW116394   1.749   4.193   6.343
 5165SOL    HW216395   1.664   4.251   6.217
 5166SOL     OW16396   1.751   5.480   0.979
 5166SOL    HW116397   1.838   5.442   0.947
 5166SOL    HW216398   1.766   5.526   1.067
 5167SOL     OW16399   5.416   3.276   5.253
 5167SOL    HW116400   5.355   3.277   5.174
 5167SOL    HW216401   5.433   3.182   5.281
 5168SOL     OW16402   4.309   2.223   2.744
 5168SOL    HW116403   4.228   2.184   2.788
 5168SOL    HW216404   4.343   2.300   2.798
 5169SOL     OW16405   3.858   6.165   4.023
 5169SOL    HW116406   3.844   6.139   3.928
 5169SOL    HW216407   3.815   6.097   4.083
 5170SOL     OW16408   1.318   3.404   6.678
 5170SOL    HW116409   1.323   3.368   6.771
 5170SOL    HW216410   1.408   3.396   6.634
 5171SOL     OW16411   2.128   6.193   5.055
 5171SOL    HW116412   2.223   6.176   5.030
 5171SOL    HW216413   2.090   6.111   5.098
 5172SOL     OW16414   6.591   5.087   4.760
 5172SOL    HW116415   6.547   5.102   4.672
 5172SOL    HW216416   6.536   5.127   4.833
 5173SOL     OW16417   4.667   3.823   5.857
 5173SOL    HW116418   4.722   3.906   5.844
 5173SOL    HW216419   4.611   3.806   5.776
 5174SOL     OW16420   2.433   6.516   3.390
 5174SOL    HW116421   2.423   6.564   3.303
 5174SOL    HW216422   2.513   6.550   3.439
 5175SOL     OW16423   3.282   3.686   0.048
 5175SOL    HW116424   3.311   3.648   6.983
 5175SOL    HW216425   3.343   3.652   0.120
 5176SOL     OW16426   5.991   6.114   6.902
 5176SOL    HW116427   5.990   6.022   6.861
 5176SOL    HW216428   6.034   6.109   6.992
 5177SOL     OW16429   6.135   0.103   0.263
 5177SOL    HW116430   6.088   0.029   0.215
 5177SOL    HW216431   6.089   0.190   0.244
 5178SOL     OW16432   0.613   4.848   2.194
 5178SOL    HW116433   0.686   4.780   2.192
 5178SOL    HW216434   0.599   4.880   2.288
 5179SOL     OW16435   5.394   5.701   2.508
 5179SOL    HW116436   5.351   5.743   2.588
 5179SOL    HW216437   5.423   5.771   2.444
 5180SOL     OW16438   2.568   6.769   2.513
 5180SOL    HW116439   2.525   6.853   2.548
 5180SOL    HW216440   2.545   6.692   2.573
 5181SOL     OW16441   0.386   0.190   5.953
 5181SOL    HW116442   0.297   0.146   5.949
 5181SOL    HW216443   0.451   0.130   5.999
 5182SOL     OW16444   2.826   5.787   3.535
 5182SOL    HW116445   2.811   5.717   3.464
 5182SOL    HW216446   2.761   5.772   3.610
 5183SOL     OW16447   4.073   1.741   3.571
 5183SOL    HW116448   4.057   1.688   3.654
 5183SOL    HW216449   3.993   1.734   3.512
 5184SOL     OW16450   2.896   1.133   3.745
 5184SOL    HW116451   2.849   1.075   3.812
 5184SOL    HW216452   2.881   1.229   3.769
 5185SOL     OW16453   6.249   0.571   1.870
 5185SOL    HW116454   6.211   0.479   1.856
 5185SOL    HW216455   6.293   0.576   1.959
 5186SOL     OW16456   6.730   3.331   6.717
 5186SOL    HW116457   6.669   3.278   6.775
 5186SOL    HW216458   6.784   3.393   6.773
 5187SOL     OW16459   1.812   4.863   5.401
 5187SOL    HW116460   1.805   4.815   5.489
 5187SOL    HW216461   1.725   4.909   5.381
 5188SOL     OW16462   6.042   6.664   2.352
 5188SOL    HW116463   6.138   6.636   2.350
 5188SOL    HW216464   6.036   6.761   2.373
 5189SOL     OW16465   5.395   6.855   6.244
 5189SOL    HW116466   5.307   6.893   6.273
 5189SOL    HW216467   5.383   6.759   6.218
 5190SOL     OW16468   1.445   4.094   0.728
 5190SOL    HW116469   1.544   4.101   0.722
 5190SOL    HW216470   1.403   4.183   0.713
 5191SOL     OW16471   3.531   4.907   2.532
 5191SOL    HW116472   3.466   4.904   2.608
 5191SOL    HW216473   3.623   4.890   2.565
 5192SOL     OW16474   1.769   4.859   2.248
 5192SOL    HW116475   1.724   4.871   2.159
 5192SOL    HW216476   1.868   4.866   2.236
 5193SOL     OW16477   5.311   0.275   5.593
 5193SOL    HW116478   5.323   0.195   5.535
 5193SOL    HW216479   5.226   0.322   5.569
 5194SOL     OW16480   5.513   2.242   6.563
 5194SOL    HW116481   5.610   2.219   6.559
 5194SOL    HW216482   5.481   2.238   6.657
 5195SOL     OW16483   6.975   0.175   4.430
 5195SOL    HW116484   7.022   0.087   4.440
 5195SOL    HW216485   6.956   0.213   4.520
 5196SOL     OW16486   5.640   6.360   2.624
 5196SOL    HW116487   5.568   6.365   2.554
 5196SOL    HW216488   5.719   6.311   2.587
 5197SOL     OW16489   1.226   3.730   5.337
 5197SOL    HW116490   1.146   3.744   5.395
 5197SOL    HW216491   1.301   3.692   5.391
 5198SOL     OW16492   5.903   5.581   2.932
 5198SOL    HW116493   5.899   5.639   3.013
 5198SOL    HW216494   5.821   5.594   2.877
 5199SOL     OW16495   6.979   4.606   1.522
 5199SOL    HW116496   7.017   4.616   1.430
 5199SOL    HW216497   6.950   4.695   1.556
 5200SOL     OW16498   0.280   3.911   4.861
 5200SOL    HW116499   0.335   3.994   4.851
 5200SOL    HW216500   0.334   3.839   4.904
 5201SOL     OW16501   1.976   5.297   3.967
 5201SOL    HW116502   2.000   5.248   4.051
 5201SOL    HW216503   1.970   5.232   3.892
 5202SOL     OW16504   0.348   5.009   1.318
 5202SOL    HW116505   0.289   5.088   1.331
 5202SOL    HW216506   0.303   4.942   1.258
 5203SOL     OW16507   0.933   2.659   0.428
 5203SOL    HW116508   0.999   2.693   0.361
 5203SOL    HW216509   0.845   2.642   0.383
 5204SOL     OW16510   4.799   4.793   6.968
 5204SOL    HW116511   4.725   4.747   6.920
 5204SOL    HW216512   4.783   4.892   6.968
 5205SOL     OW16513   1.703   0.409   2.047
 5205SOL    HW116514   1.635   0.350   2.003
 5205SOL    HW216515   1.724   0.373   2.138
 5206SOL     OW16516   0.300   4.391   5.935
 5206SOL    HW116517   0.307   4.460   5.863
 5206SOL    HW216518   0.377   4.327   5.927
 5207SOL     OW16519   1.803   4.472   4.173
 5207SOL    HW116520   1.847   4.474   4.263
 5207SOL    HW216521   1.872   4.460   4.102
 5208SOL     OW16522   4.171   1.814   6.504
 5208SOL    HW116523   4.090   1.857   6.462
 5208SOL    HW216524   4.211   1.749   6.439
 5209SOL     OW16525   5.183   6.409   3.036
 5209SOL    HW116526   5.124   6.342   3.080
 5209SOL    HW216527   5.143   6.439   2.950
 5210SOL     OW16528   4.806   5.337   3.631
 5210SOL    HW116529   4.755   5.408   3.680
 5210SOL    HW216530   4.880   5.380   3.579
 5211SOL     OW16531   3.901   3.157   3.038
 5211SOL    HW116532   3.830   3.209   2.991
 5211SOL    HW216533   3.902   3.063   3.004
 5212SOL     OW16534   0.957   2.371   0.413
 5212SOL    HW116535   0.940   2.467   0.438
 5212SOL    HW216536   0.878   2.335   0.365
 5213SOL     OW16537   4.492   2.036   6.261
 5213SOL    HW116538   4.463   1.979   6.185
 5213SOL    HW216539   4.414   2.052   6.322
 5214SOL     OW16540   5.655   1.580   5.463
 5214SOL    HW116541   5.573   1.572   5.520
 5214SOL    HW216542   5.705   1.494   5.464
 5215SOL     OW16543   4.924   4.974   2.689
 5215SOL    HW116544   4.865   5.050   2.661
 5215SOL    HW216545   4.871   4.889   2.690
 5216SOL     OW16546   4.887   5.042   0.787
 5216SOL    HW116547   4.946   4.986   0.729
 5216SOL    HW216548   4.891   5.008   0.881
 5217SOL     OW16549   2.524   4.815   4.215
 5217SOL    HW116550   2.531   4.721   4.249
 5217SOL    HW216551   2.548   4.817   4.118
 5218SOL     OW16552   1.735   6.697   3.845
 5218SOL    HW116553   1.812   6.751   3.879
 5218SOL    HW216554   1.690   6.652   3.922
 5219SOL     OW16555   3.319   6.442   7.021
 5219SOL    HW116556   3.260   6.363   0.015
 5219SOL    HW216557   3.262   6.524   7.010
 5220SOL     OW16558   0.839   6.536   2.944
 5220SOL    HW116559   0.755   6.577   2.910
 5220SOL    HW216560   0.821   6.492   3.032
 5221SOL     OW16561   5.008   1.284   4.719
 5221SOL    HW116562   5.064   1.202   4.726
 5221SOL    HW216563   5.057   1.353   4.665
 5222SOL     OW16564   1.745   0.659   3.216
 5222SOL    HW116565   1.688   0.584   3.184
 5222SOL    HW216566   1.807   0.626   3.287
 5223SOL     OW16567   4.553   0.139   1.705
 5223SOL    HW116568   4.499   0.063   1.666
 5223SOL    HW216569   4.494   0.197   1.760
 5224SOL     OW16570   5.725   2.042   2.477
 5224SOL    HW116571   5.765   1.950   2.475
 5224SOL    HW216572   5.721   2.074   2.572
 5225SOL     OW16573   5.656   6.046   4.615
 5225SOL    HW116574   5.709   5.999   4.544
 5225SOL    HW216575   5.663   5.997   4.701
 5226SOL     OW16576   1.540   6.114   3.875
 5226SOL    HW116577   1.440   6.103   3.868
 5226SOL    HW216578   1.577   6.142   3.787
 5227SOL     OW16579   6.039   4.599   3.155
 5227SOL    HW116580   6.067   4.529   3.090
 5227SOL    HW216581   5.992   4.673   3.106
 5228SOL     OW16582   5.355   1.260   0.700
 5228SOL    HW116583   5.377   1.349   0.740
 5228SOL    HW216584   5.315   1.201   0.770
 5229SOL     OW16585   1.154   4.002   5.291
 5229SOL    HW116586   1.217   4.080   5.286
 5229SOL    HW216587   1.206   3.917   5.293
 5230SOL     OW16588   0.321   0.183   0.186
 5230SOL    HW116589   0.358   0.092   0.168
 5230SOL    HW216590   0.226   0.186   0.154
 5231SOL     OW16591   3.944   3.083   3.341
 5231SOL    HW116592   4.019   3.144   3.317
 5231SOL    HW216593   3.900   3.051   3.257
 5232SOL     OW16594   4.674   2.710   6.638
 5232SOL    HW116595   4.636   2.778   6.701
 5232SOL    HW216596   4.689   2.624   6.687
 5233SOL     OW16597   1.142   0.172   2.550
 5233SOL    HW116598   1.214   0.186   2.617
 5233SOL    HW216599   1.153   0.238   2.475
 5234SOL     OW16600   3.766   6.882   0.858
 5234SOL    HW116601   3.864   6.880   0.874
 5234SOL    HW216602   3.719   6.831   0.930
 5235SOL     OW16603   0.751   2.903   1.064
 5235SOL    HW116604   0.785   2.810   1.077
 5235SOL    HW216605   0.795   2.944   0.983
 5236SOL     OW16606   5.164   3.512   1.069
 5236SOL    HW116607   5.108   3.498   1.150
 5236SOL    HW216608   5.105   3.527   0.990
 5237SOL     OW16609   2.472   2.102   5.318
 5237SOL    HW116610   2.393   2.086   5.259
 5237SOL    HW216611   2.461   2.189   5.366
 5238SOL     OW16612   1.972   4.639   1.126
 5238SOL    HW116613   2.048   4.636   1.061
 5238SOL    HW216614   1.895   4.688   1.085
 5239SOL     OW16615   3.001   3.340   3.953
 5239SOL    HW116616   2.940   3.410   3.989
 5239SOL    HW216617   3.039   3.286   4.029
 5240SOL     OW16618   3.390   2.071   5.036
 5240SOL    HW116619   3.476   2.104   5.075
 5240SOL    HW216620   3.328   2.149   5.022
 5241SOL     OW16621   1.820   6.186   6.735
 5241SOL    HW116622   1.738   6.147   6.694
 5241SOL    HW216623   1.848   6.130   6.812
 5242SOL     OW16624   6.025   1.362   5.625
 5242SOL    HW116625   6.124   1.376   5.611
 5242SOL    HW216626   6.007   1.348   5.722
 5243SOL     OW16627   1.683   4.608   1.241
 5243SOL    HW116628   1.606   4.550   1.267
 5243SOL    HW216629   1.769   4.557   1.251
 5244SOL     OW16630   5.063   4.167   5.577
 5244SOL    HW116631   5.063   4.266   5.595
 5244SOL    HW216632   5.058   4.117   5.663
 5245SOL     OW16633   4.765   4.108   6.906
 5245SOL    HW116634   4.833   4.070   6.969
 5245SOL    HW216635   4.747   4.043   6.832
 5246SOL     OW16636   1.299   3.236   2.966
 5246SOL    HW116637   1.274   3.140   2.954
 5246SOL    HW216638   1.221   3.285   3.005
 5247SOL     OW16639   1.019   5.489   0.938
 5247SOL    HW116640   1.019   5.399   0.982
 5247SOL    HW216641   1.028   5.560   1.008
 5248SOL     OW16642   5.320   0.971   5.844
 5248SOL    HW116643   5.302   0.887   5.793
 5248SOL    HW216644   5.397   1.020   5.801
 5249SOL     OW16645   1.134   5.166   4.802
 5249SOL    HW116646   1.111   5.195   4.709
 5249SOL    HW216647   1.232   5.146   4.807
 5250SOL     OW16648   0.622   1.336   6.346
 5250SOL    HW116649   0.636   1.392   6.427
 5250SOL    HW216650   0.674   1.251   6.355
 5251SOL     OW16651   6.382   2.914   1.528
 5251SOL    HW116652   6.290   2.877   1.519
 5251SOL    HW216653   6.433   2.862   1.597
 5252SOL     OW16654   4.084   5.785   0.535
 5252SOL    HW116655   4.074   5.788   0.635
 5252SOL    HW216656   4.060   5.874   0.496
 5253SOL     OW16657   5.861   3.525   4.035
 5253SOL    HW116658   5.896   3.436   4.004
 5253SOL    HW216659   5.785   3.554   3.977
 5254SOL     OW16660   4.827   1.081   3.920
 5254SOL    HW116661   4.799   1.107   3.828
 5254SOL    HW216662   4.782   0.996   3.946
 5255SOL     OW16663   3.075   6.594   5.166
 5255SOL    HW116664   3.062   6.513   5.224
 5255SOL    HW216665   3.159   6.640   5.191
 5256SOL     OW16666   5.564   6.587   3.973
 5256SOL    HW116667   5.562   6.557   4.068
 5256SOL    HW216668   5.507   6.527   3.917
 5257SOL     OW16669   3.803   0.143   1.153
 5257SOL    HW116670   3.896   0.117   1.126
 5257SOL    HW216671   3.804   0.237   1.189
 5258SOL     OW16672   5.469   3.781   2.432
 5258SOL    HW116673   5.388   3.728   2.406
 5258SOL    HW216674   5.444   3.849   2.501
 5259SOL     OW16675   4.746   5.185   2.617
 5259SOL    HW116676   4.735   5.193   2.518
 5259SOL    HW216677   4.656   5.191   2.661
 5260SOL     OW16678   5.411   3.669   1.054
 5260SOL    HW116679   5.330   3.613   1.033
 5260SOL    HW216680   5.439   3.653   1.148
 5261SOL     OW16681   1.280   2.476   4.745
 5261SOL    HW116682   1.311   2.474   4.650
 5261SOL    HW216683   1.223   2.557   4.761
 5262SOL     OW16684   2.885   6.702   1.838
 5262SOL    HW116685   2.789   6.721   1.857
 5262SOL    HW216686   2.932   6.787   1.815
 5263SOL     OW16687   1.570   6.891   6.479
 5263SOL    HW116688   1.492   6.882   6.541
 5263SOL    HW216689   1.575   6.811   6.419
 5264SOL     OW16690   0.353   2.407   0.883
 5264SOL    HW116691   0.420   2.481   0.884
 5264SOL    HW216692   0.306   2.404   0.971
 5265SOL     OW16693   5.228   4.496   1.700
 5265SOL    HW116694   5.227   4.405   1.742
 5265SOL    HW216695   5.169   4.497   1.620
 5266SOL     OW16696   1.384   6.745   1.503
 5266SOL    HW116697   1.393   6.777   1.409
 5266SOL    HW216698   1.416   6.818   1.565
 5267SOL     OW16699   4.740   4.760   5.009
 5267SOL    HW116700   4.688   4.803   4.935
 5267SOL    HW216701   4.751   4.663   4.990
 5268SOL     OW16702   5.733   5.378   5.214
 5268SOL    HW116703   5.726   5.478   5.214
 5268SOL    HW216704   5.829   5.352   5.220
 5269SOL     OW16705   2.278   5.456   4.093
 5269SOL    HW116706   2.210   5.395   4.051
 5269SOL    HW216707   2.241   5.494   4.178
 5270SOL     OW16708   6.206   2.585   1.955
 5270SOL    HW116709   6.219   2.684   1.961
 5270SOL    HW216710   6.143   2.563   1.881
 5271SOL     OW16711   5.106   4.447   4.877
 5271SOL    HW116712   5.160   4.522   4.838
 5271SOL    HW216713   5.162   4.365   4.884
 5272SOL     OW16714   0.896   0.468   5.020
 5272SOL    HW116715   0.882   0.545   5.082
 5272SOL    HW216716   0.963   0.405   5.061
 5273SOL     OW16717   0.464   1.583   3.884
 5273SOL    HW116718   0.479   1.628   3.972
 5273SOL    HW216719   0.541   1.522   3.864
 5274SOL     OW16720   6.492   5.303   4.134
 5274SOL    HW116721   6.532   5.211   4.129
 5274SOL    HW216722   6.564   5.371   4.127
 5275SOL     OW16723   2.061   0.098   6.998
 5275SOL    HW116724   2.089   0.130   0.066
 5275SOL    HW216725   2.121   0.137   6.929
 5276SOL     OW16726   0.099   6.746   1.483
 5276SOL    HW116727   0.124   6.843   1.489
 5276SOL    HW216728   0.101   6.716   1.388
 5277SOL     OW16729   0.919   1.854   3.547
 5277SOL    HW116730   0.835   1.846   3.494
 5277SOL    HW216731   0.897   1.888   3.639
 5278SOL     OW16732   0.527   5.204   5.513
 5278SOL    HW116733   0.537   5.270   5.439
 5278SOL    HW216734   0.617   5.172   5.542
 5279SOL     OW16735   1.691   5.716   6.609
 5279SOL    HW116736   1.716   5.653   6.682
 5279SOL    HW216737   1.656   5.664   6.531
 5280SOL     OW16738   4.186   5.513   4.587
 5280SOL    HW116739   4.276   5.502   4.545
 5280SOL    HW216740   4.119   5.534   4.515
 5281SOL     OW16741   2.153   0.571   5.047
 5281SOL    HW116742   2.136   0.554   5.144
 5281SOL    HW216743   2.201   0.493   5.008
 5282SOL     OW16744   1.287   0.878   2.312
 5282SOL    HW116745   1.337   0.815   2.253
 5282SOL    HW216746   1.198   0.838   2.335
 5283SOL     OW16747   0.070   1.066   4.044
 5283SOL    HW116748   6.994   1.054   4.030
 5283SOL    HW216749   0.112   1.097   3.959
 5284SOL     OW16750   4.990   2.253   1.936
 5284SOL    HW116751   4.935   2.295   1.865
 5284SOL    HW216752   4.949   2.165   1.962
 5285SOL     OW16753   0.638   2.650   3.782
 5285SOL    HW116754   0.703   2.651   3.858
 5285SOL    HW216755   0.566   2.717   3.799
 5286SOL     OW16756   6.058   2.694   1.294
 5286SOL    HW116757   6.077   2.757   1.369
 5286SOL    HW216758   6.119   2.615   1.300
 5287SOL     OW16759   2.912   5.009   1.173
 5287SOL    HW116760   2.934   5.099   1.209
 5287SOL    HW216761   2.820   4.983   1.203
 5288SOL     OW16762   5.080   0.459   2.482
 5288SOL    HW116763   5.031   0.427   2.401
 5288SOL    HW216764   5.045   0.549   2.509
 5289SOL     OW16765   1.745   4.780   6.535
 5289SOL    HW116766   1.830   4.803   6.582
 5289SOL    HW216767   1.741   4.682   6.518
 5290SOL     OW16768   1.492   2.808   5.648
 5290SOL    HW116769   1.431   2.730   5.632
 5290SOL    HW216770   1.526   2.842   5.561
 5291SOL     OW16771   2.572   4.640   4.949
 5291SOL    HW116772   2.666   4.622   4.978
 5291SOL    HW216773   2.514   4.653   5.029
 5292SOL     OW16774   6.948   4.174   6.393
 5292SOL    HW116775   6.951   4.087   6.443
 5292SOL    HW216776   6.862   4.221   6.413
 5293SOL     OW16777   2.327   5.770   4.558
 5293SOL    HW116778   2.394   5.732   4.493
 5293SOL    HW216779   2.235   5.739   4.533
 5294SOL     OW16780   3.960   0.669   5.135
 5294SOL    HW116781   3.896   0.688   5.061
 5294SOL    HW216782   4.024   0.597   5.107
 5295SOL     OW16783   3.286   0.687   1.907
 5295SOL    HW116784   3.276   0.738   1.993
 5295SOL    HW216785   3.195   0.664   1.871
 5296SOL     OW16786   3.787   4.121   0.888
 5296SOL    HW116787   3.761   4.025   0.877
 5296SOL    HW216788   3.842   4.131   0.971
 5297SOL     OW16789   2.388   4.273   0.596
 5297SOL    HW116790   2.416   4.295   0.502
 5297SOL    HW216791   2.453   4.208   0.635
 5298SOL     OW16792   2.198   0.059   0.405
 5298SOL    HW116793   2.123   7.017   0.392
 5298SOL    HW216794   2.182   0.140   0.349
 5299SOL     OW16795   3.022   2.266   0.398
 5299SOL    HW116796   3.064   2.259   0.489
 5299SOL    HW216797   2.924   2.249   0.405
 5300SOL     OW16798   2.187   4.523   0.015
 5300SOL    HW116799   2.278   4.526   0.057
 5300SOL    HW216800   2.163   4.428   7.019
 5301SOL     OW16801   4.624   0.364   6.222
 5301SOL    HW116802   4.670   0.450   6.245
 5301SOL    HW216803   4.542   0.384   6.168
 5302SOL     OW16804   5.393   5.704   3.469
 5302SOL    HW116805   5.400   5.656   3.382
 5302SOL    HW216806   5.484   5.730   3.501
 5303SOL     OW16807   6.796   5.011   6.538
 5303SOL    HW116808   6.866   4.948   6.573
 5303SOL    HW216809   6.765   5.071   6.612
 5304SOL     OW16810   6.411   1.095   1.356
 5304SOL    HW116811   6.485   1.040   1.318
 5304SOL    HW216812   6.323   1.057   1.325
 5305SOL     OW16813   1.367   5.590   2.665
 5305SOL    HW116814   1.453   5.594   2.717
 5305SOL    HW216815   1.343   5.494   2.650
 5306SOL     OW16816   6.902   3.863   5.586
 5306SOL    HW116817   6.871   3.937   5.645
 5306SOL    HW216818   6.959   3.900   5.513
 5307SOL     OW16819   4.922   2.336   0.591
 5307SOL    HW116820   4.873   2.252   0.616
 5307SOL    HW216821   4.864   2.415   0.611
 5308SOL     OW16822   1.350   4.877   2.958
 5308SOL    HW116823   1.383   4.790   2.922
 5308SOL    HW216824   1.285   4.860   3.032
 5309SOL     OW16825   4.418   5.956   3.397
 5309SOL    HW116826   4.514   5.960   3.369
 5309SOL    HW216827   4.401   6.023   3.469
 5310SOL     OW16828   6.138   3.113   2.714
 5310SOL    HW116829   6.083   3.030   2.709
 5310SOL    HW216830   6.139   3.147   2.809
 5311SOL     OW16831   6.137   0.011   0.697
 5311SOL    HW116832   6.050   6.996   0.728
 5311SOL    HW216833   6.140   0.109   0.715
 5312SOL     OW16834   0.376   6.379   1.563
 5312SOL    HW116835   0.460   6.386   1.509
 5312SOL    HW216836   0.354   6.469   1.602
 5313SOL     OW16837   6.373   5.289   5.281
 5313SOL    HW116838   6.326   5.208   5.315
 5313SOL    HW216839   6.305   5.356   5.250
 5314SOL     OW16840   6.007   6.871   1.103
 5314SOL    HW116841   6.010   6.851   1.201
 5314SOL    HW216842   6.099   6.889   1.069
 5315SOL     OW16843   4.224   1.632   3.361
 5315SOL    HW116844   4.182   1.702   3.419
 5315SOL    HW216845   4.213   1.542   3.402
 5316SOL     OW16846   0.656   2.808   4.922
 5316SOL    HW116847   0.683   2.722   4.879
 5316SOL    HW216848   0.608   2.789   5.008
 5317SOL     OW16849   6.301   1.351   5.781
 5317SOL    HW116850   6.367   1.278   5.797
 5317SOL    HW216851   6.265   1.384   5.868
 5318SOL     OW16852   6.152   3.502   0.150
 5318SOL    HW116853   6.095   3.484   0.070
 5318SOL    HW216854   6.216   3.576   0.130
 5319SOL     OW16855   4.344   6.966   1.034
 5319SOL    HW116856   4.312   7.018   1.113
 5319SOL    HW216857   4.361   0.006   0.958
 5320SOL     OW16858   3.364   6.215   1.358
 5320SOL    HW116859   3.342   6.122   1.386
 5320SOL    HW216860   3.457   6.238   1.385
 5321SOL     OW16861   1.593   4.623   5.150
 5321SOL    HW116862   1.500   4.628   5.188
 5321SOL    HW216863   1.603   4.691   5.078
 5322SOL     OW16864   5.441   0.007   1.851
 5322SOL    HW116865   5.439   6.977   1.936
 5322SOL    HW216866   5.472   6.971   1.776
 5323SOL     OW16867   4.394   1.773   5.190
 5323SOL    HW116868   4.362   1.836   5.120
 5323SOL    HW216869   4.335   1.692   5.192
 5324SOL     OW16870   2.790   2.569   0.087
 5324SOL    HW116871   2.771   2.495   0.022
 5324SOL    HW216872   2.767   2.539   0.180
 5325SOL     OW16873   2.619   1.890   5.217
 5325SOL    HW116874   2.704   1.931   5.184
 5325SOL    HW216875   2.557   1.962   5.247
 5326SOL     OW16876   6.440   6.093   2.556
 5326SOL    HW116877   6.419   6.059   2.464
 5326SOL    HW216878   6.359   6.139   2.594
 5327SOL     OW16879   5.441   2.715   4.927
 5327SOL    HW116880   5.493   2.646   4.978
 5327SOL    HW216881   5.457   2.805   4.968
 5328SOL     OW16882   3.730   4.080   6.324
 5328SOL    HW116883   3.719   4.024   6.407
 5328SOL    HW216884   3.697   4.029   6.245
 5329SOL     OW16885   1.240   5.702   6.454
 5329SOL    HW116886   1.170   5.658   6.398
 5329SOL    HW216887   1.301   5.633   6.492
 5330SOL     OW16888   3.640   3.172   0.496
 5330SOL    HW116889   3.660   3.080   0.530
 5330SOL    HW216890   3.660   3.239   0.567
 5331SOL     OW16891   6.366   1.272   6.295
 5331SOL    HW116892   6.450   1.313   6.259
 5331SOL    HW216893   6.351   1.302   6.389
 5332SOL     OW16894   1.464   4.889   1.664
 5332SOL    HW116895   1.514   4.824   1.608
 5332SOL    HW216896   1.399   4.840   1.722
 5333SOL     OW16897   1.374   6.954   3.797
 5333SOL    HW116898   1.465   6.986   3.821
 5333SOL    HW216899   1.327   6.922   3.879
 5334SOL     OW16900   3.137   0.177   4.549
 5334SOL    HW116901   3.147   0.079   4.566
 5334SOL    HW216902   3.227   0.221   4.554
 5335SOL     OW16903   0.031   5.534   0.985
 5335SOL    HW116904   7.005   5.448   0.968
 5335SOL    HW216905   0.036   5.550   1.084
 5336SOL     OW16906   1.801   3.402   2.429
 5336SOL    HW116907   1.738   3.326   2.439
 5336SOL    HW216908   1.871   3.397   2.500
 5337SOL     OW16909   4.851   3.980   0.978
 5337SOL    HW116910   4.889   4.069   0.953
 5337SOL    HW216911   4.902   3.942   1.056
 5338SOL     OW16912   6.630   2.059   0.347
 5338SOL    HW116913   6.691   1.999   0.296
 5338SOL    HW216914   6.535   2.044   0.317
 5339SOL     OW16915   6.768   1.525   3.448
 5339SOL    HW116916   6.794   1.583   3.371
 5339SOL    HW216917   6.729   1.582   3.521
 5340SOL     OW16918   5.457   3.032   0.094
 5340SOL    HW116919   5.546   3.060   0.058
 5340SOL    HW216920   5.385   3.083   0.048
 5341SOL     OW16921   4.086   1.809   5.652
 5341SOL    HW116922   4.167   1.834   5.706
 5341SOL    HW216923   4.105   1.823   5.555
 5342SOL     OW16924   4.020   0.320   5.307
 5342SOL    HW116925   4.114   0.315   5.272
 5342SOL    HW216926   3.956   0.294   5.235
 5343SOL     OW16927   3.812   3.389   2.315
 5343SOL    HW116928   3.790   3.421   2.223
 5343SOL    HW216929   3.741   3.326   2.346
 5344SOL     OW16930   1.579   2.857   3.408
 5344SOL    HW116931   1.586   2.768   3.363
 5344SOL    HW216932   1.642   2.859   3.486
 5345SOL     OW16933   4.606   6.617   1.010
 5345SOL    HW116934   4.612   6.625   1.110
 5345SOL    HW216935   4.683   6.664   0.968
 5346SOL     OW16936   3.286   6.058   3.374
 5346SOL    HW116937   3.295   6.000   3.293
 5346SOL    HW216938   3.191   6.087   3.384
 5347SOL     OW16939   0.249   1.640   1.672
 5347SOL    HW116940   0.274   1.735   1.653
 5347SOL    HW216941   0.151   1.633   1.688
 5348SOL     OW16942   1.063   1.252   0.235
 5348SOL    HW116943   1.003   1.248   0.315
 5348SOL    HW216944   1.147   1.202   0.254
 5349SOL     OW16945   0.020   1.502   0.623
 5349SOL    HW116946   0.020   1.405   0.598
 5349SOL    HW216947   6.951   1.529   0.653
 5350SOL     OW16948   2.691   0.836   6.331
 5350SOL    HW116949   2.787   0.836   6.301
 5350SOL    HW216950   2.633   0.796   6.260
 5351SOL     OW16951   5.132   6.125   1.123
 5351SOL    HW116952   5.168   6.213   1.153
 5351SOL    HW216953   5.122   6.126   1.024
 5352SOL     OW16954   2.381   5.586   3.576
 5352SOL    HW116955   2.456   5.614   3.517
 5352SOL    HW216956   2.408   5.597   3.672
 5353SOL     OW16957   4.539   5.642   4.902
 5353SOL    HW116958   4.510   5.709   4.834
 5353SOL    HW216959   4.531   5.681   4.993
 5354SOL     OW16960   1.717   4.968   1.984
 5354SOL    HW116961   1.657   4.983   1.905
 5354SOL    HW216962   1.808   4.943   1.952
 5355SOL     OW16963   4.549   1.682   3.491
 5355SOL    HW116964   4.588   1.621   3.423
 5355SOL    HW216965   4.514   1.764   3.446
 5356SOL     OW16966   5.915   3.940   1.537
 5356SOL    HW116967   5.848   3.877   1.498
 5356SOL    HW216968   5.968   3.894   1.608
 5357SOL     OW16969   3.900   0.051   0.379
 5357SOL    HW116970   3.851   0.120   0.327
 5357SOL    HW216971   3.911   0.081   0.474
 5358SOL     OW16972   4.328   2.369   0.749
 5358SOL    HW116973   4.292   2.388   0.840
 5358SOL    HW216974   4.275   2.419   0.681
 5359SOL     OW16975   2.331   2.120   1.055
 5359SOL    HW116976   2.270   2.040   1.049
 5359SOL    HW216977   2.404   2.101   1.122
 5360SOL     OW16978   3.824   6.502   5.770
 5360SOL    HW116979   3.881   6.435   5.723
 5360SOL    HW216980   3.730   6.494   5.740
 5361SOL     OW16981   1.964   1.400   5.234
 5361SOL    HW116982   2.002   1.398   5.141
 5361SOL    HW216983   2.032   1.367   5.299
 5362SOL     OW16984   4.627   4.978   3.000
 5362SOL    HW116985   4.584   4.980   3.090
 5362SOL    HW216986   4.618   5.067   2.957
 5363SOL     OW16987   1.027   5.241   6.176
 5363SOL    HW116988   1.066   5.181   6.105
 5363SOL    HW216989   1.044   5.201   6.266
 5364SOL     OW16990   6.548   6.006   0.787
 5364SOL    HW116991   6.532   5.970   0.879
 5364SOL    HW216992   6.643   6.036   0.779
 5365SOL     OW16993   4.361   2.630   6.122
 5365SOL    HW116994   4.336   2.713   6.071
 5365SOL    HW216995   4.347   2.550   6.065
 5366SOL     OW16996   4.011   4.395   0.487
 5366SOL    HW116997   3.981   4.330   0.557
 5366SOL    HW216998   3.943   4.468   0.477
 5367SOL     OW16999   0.283   4.761   1.166
 5367SOL    HW117000   0.342   4.781   1.087
 5367SOL    HW217001   0.316   4.678   1.212
 5368SOL     OW17002   5.392   2.449   2.970
 5368SOL    HW117003   5.293   2.434   2.977
 5368SOL    HW217004   5.411   2.547   2.976
 5369SOL     OW17005   2.502   4.729   3.203
 5369SOL    HW117006   2.440   4.652   3.217
 5369SOL    HW217007   2.466   4.788   3.131
 5370SOL     OW17008   3.782   3.269   1.391
 5370SOL    HW117009   3.874   3.253   1.427
 5370SOL    HW217010   3.715   3.223   1.449
 5371SOL     OW17011   1.696   4.498   4.771
 5371SOL    HW117012   1.719   4.418   4.716
 5371SOL    HW217013   1.704   4.475   4.868
 5372SOL     OW17014   2.948   4.810   2.686
 5372SOL    HW117015   2.931   4.824   2.589
 5372SOL    HW217016   2.873   4.757   2.725
 5373SOL     OW17017   3.215   4.891   4.550
 5373SOL    HW117018   3.253   4.960   4.612
 5373SOL    HW217019   3.136   4.848   4.592
 5374SOL     OW17020   2.204   2.954   6.474
 5374SOL    HW117021   2.208   2.945   6.374
 5374SOL    HW217022   2.176   2.868   6.514
 5375SOL     OW17023   1.602   4.372   5.021
 5375SOL    HW117024   1.598   4.459   5.070
 5375SOL    HW217025   1.689   4.327   5.040
 5376SOL     OW17026   1.580   3.455   1.893
 5376SOL    HW117027   1.545   3.545   1.920
 5376SOL    HW217028   1.618   3.409   1.973
 5377SOL     OW17029   0.174   7.003   1.508
 5377SOL    HW117030   0.238   0.007   1.435
 5377SOL    HW217031   0.132   0.062   1.547
 5378SOL     OW17032   6.261   0.564   7.003
 5378SOL    HW117033   6.343   0.584   6.949
 5378SOL    HW217034   6.261   0.619   0.063
 5379SOL     OW17035   0.323   5.426   3.383
 5379SOL    HW117036   0.225   5.410   3.393
 5379SOL    HW217037   0.358   5.373   3.306
 5380SOL     OW17038   2.116   0.076   3.666
 5380SOL    HW117039   2.169   0.013   3.609
 5380SOL    HW217040   2.177   0.121   3.731
 5381SOL     OW17041   6.082   4.398   1.011
 5381SOL    HW117042   6.093   4.309   1.056
 5381SOL    HW217043   6.031   4.386   0.925
 5382SOL     OW17044   3.327   0.799   1.156
 5382SOL    HW117045   3.423   0.804   1.130
 5382SOL    HW217046   3.314   0.842   1.246
 5383SOL     OW17047   2.722   2.086   5.448
 5383SOL    HW117048   2.634   2.124   5.421
 5383SOL    HW217049   2.768   2.048   5.367
 5384SOL     OW17050   6.392   6.614   4.619
 5384SOL    HW117051   6.402   6.555   4.539
 5384SOL    HW217052   6.477   6.664   4.634
 5385SOL     OW17053   2.973   3.742   2.548
 5385SOL    HW117054   2.992   3.774   2.455
 5385SOL    HW217055   3.002   3.812   2.613
 5386SOL     OW17056   4.562   6.389   4.150
 5386SOL    HW117057   4.645   6.432   4.114
 5386SOL    HW217058   4.482   6.441   4.120
 5387SOL     OW17059   3.083   5.263   2.086
 5387SOL    HW117060   3.035   5.292   2.003
 5387SOL    HW217061   3.020   5.214   2.146
 5388SOL     OW17062   5.689   6.346   2.260
 5388SOL    HW117063   5.596   6.359   2.296
 5388SOL    HW217064   5.756   6.371   2.330
 5389SOL     OW17065   4.402   1.159   1.829
 5389SOL    HW117066   4.466   1.212   1.883
 5389SOL    HW217067   4.368   1.082   1.882
 5390SOL     OW17068   5.666   4.881   4.774
 5390SOL    HW117069   5.706   4.856   4.862
 5390SOL    HW217070   5.710   4.964   4.740
 5391SOL     OW17071   2.620   3.575   0.468
 5391SOL    HW117072   2.587   3.483   0.489
 5391SOL    HW217073   2.674   3.610   0.545
 5392SOL     OW17074   5.752   2.917   1.536
 5392SOL    HW117075   5.687   2.917   1.460
 5392SOL    HW217076   5.710   2.961   1.615
 5393SOL     OW17077   6.921   6.888   6.998
 5393SOL    HW117078   6.892   6.920   0.066
 5393SOL    HW217079   7.017   6.863   7.000
 5394SOL     OW17080   0.717   3.843   6.472
 5394SOL    HW117081   0.713   3.749   6.437
 5394SOL    HW217082   0.627   3.885   6.464
 5395SOL     OW17083   4.333   0.487   0.864
 5395SOL    HW117084   4.378   0.571   0.832
 5395SOL    HW217085   4.236   0.504   0.878
 5396SOL     OW17086   4.947   3.802   2.201
 5396SOL    HW117087   4.906   3.864   2.268
 5396SOL    HW217088   4.904   3.712   2.208
 5397SOL     OW17089   6.637   3.274   1.657
 5397SOL    HW117090   6.733   3.287   1.683
 5397SOL    HW217091   6.593   3.364   1.649
 5398SOL     OW17092   3.193   2.508   1.693
 5398SOL    HW117093   3.293   2.508   1.685
 5398SOL    HW217094   3.158   2.415   1.678
 5399SOL     OW17095   2.172   6.358   0.881
 5399SOL    HW117096   2.179   6.398   0.789
 5399SOL    HW217097   2.251   6.386   0.935
 5400SOL     OW17098   2.765   4.511   0.522
 5400SOL    HW117099   2.858   4.545   0.508
 5400SOL    HW217100   2.728   4.479   0.435
 5401SOL     OW17101   6.049   3.478   1.769
 5401SOL    HW117102   6.111   3.403   1.744
 5401SOL    HW217103   5.961   3.440   1.796
 5402SOL     OW17104   2.560   6.048   1.764
 5402SOL    HW117105   2.505   6.013   1.840
 5402SOL    HW217106   2.650   6.075   1.798
 5403SOL     OW17107   6.905   3.264   6.473
 5403SOL    HW117108   6.870   3.236   6.562
 5403SOL    HW217109   6.898   3.187   6.409
 5404SOL     OW17110   1.394   2.785   3.937
 5404SOL    HW117111   1.332   2.741   4.001
 5404SOL    HW217112   1.390   2.884   3.949
 5405SOL     OW17113   0.201   5.049   6.158
 5405SOL    HW117114   0.176   4.960   6.121
 5405SOL    HW217115   0.278   5.039   6.221
 5406SOL     OW17116   1.579   2.058   0.267
 5406SOL    HW117117   1.659   2.010   0.232
 5406SOL    HW217118   1.582   2.154   0.239
 5407SOL     OW17119   4.253   3.513   0.313
 5407SOL    HW117120   4.225   3.572   0.389
 5407SOL    HW217121   4.172   3.476   0.268
 5408SOL     OW17122   2.476   0.720   5.497
 5408SOL    HW117123   2.380   0.696   5.488
 5408SOL    HW217124   2.521   0.713   5.407
 5409SOL     OW17125   5.261   0.613   3.065
 5409SOL    HW117126   5.264   0.693   3.004
 5409SOL    HW217127   5.350   0.567   3.063
 5410SOL     OW17128   3.340   2.126   1.894
 5410SOL    HW117129   3.283   2.135   1.975
 5410SOL    HW217130   3.431   2.162   1.913
 5411SOL     OW17131   6.594   4.901   6.170
 5411SOL    HW117132   6.635   4.931   6.083
 5411SOL    HW217133   6.653   4.832   6.212
 5412SOL     OW17134   5.288   3.156   0.810
 5412SOL    HW117135   5.224   3.093   0.767
 5412SOL    HW217136   5.286   3.144   0.909
 5413SOL     OW17137   3.162   2.105   1.400
 5413SOL    HW117138   3.227   2.177   1.426
 5413SOL    HW217139   3.178   2.025   1.457
 5414SOL     OW17140   4.417   1.346   4.790
 5414SOL    HW117141   4.436   1.405   4.712
 5414SOL    HW217142   4.330   1.299   4.777
 5415SOL     OW17143   0.341   5.936   1.176
 5415SOL    HW117144   0.324   5.942   1.078
 5415SOL    HW217145   0.432   5.897   1.191
 5416SOL     OW17146   4.214   4.863   4.820
 5416SOL    HW117147   4.279   4.789   4.835
 5416SOL    HW217148   4.144   4.862   4.892
 5417SOL     OW17149   3.691   6.773   5.289
 5417SOL    HW117150   3.756   6.826   5.342
 5417SOL    HW217151   3.598   6.788   5.325
 5418SOL     OW17152   3.570   0.134   2.467
 5418SOL    HW117153   3.660   0.130   2.425
 5418SOL    HW217154   3.515   0.057   2.435
 5419SOL     OW17155   3.334   4.776   0.158
 5419SOL    HW117156   3.321   4.845   0.086
 5419SOL    HW217157   3.360   4.689   0.116
 5420SOL     OW17158   1.872   2.606   3.511
 5420SOL    HW117159   1.881   2.539   3.437
 5420SOL    HW217160   1.963   2.638   3.538
 5421SOL     OW17161   1.617   3.890   1.308
 5421SOL    HW117162   1.540   3.839   1.269
 5421SOL    HW217163   1.699   3.834   1.305
 5422SOL     OW17164   1.361   4.481   1.508
 5422SOL    HW117165   1.310   4.565   1.523
 5422SOL    HW217166   1.301   4.402   1.525
 5423SOL     OW17167   6.134   2.914   6.395
 5423SOL    HW117168   6.145   2.926   6.296
 5423SOL    HW217169   6.201   2.969   6.443
 5424SOL     OW17170   4.989   3.434   4.437
 5424SOL    HW117171   5.076   3.399   4.402
 5424SOL    HW217172   4.961   3.380   4.515
 5425SOL     OW17173   4.048   1.137   5.023
 5425SOL    HW117174   4.006   1.220   4.986
 5425SOL    HW217175   4.098   1.090   4.951
 5426SOL     OW17176   5.528   6.487   4.739
 5426SOL    HW117177   5.564   6.575   4.769
 5426SOL    HW217178   5.580   6.455   4.660
 5427SOL     OW17179   4.510   5.734   6.301
 5427SOL    HW117180   4.595   5.706   6.345
 5427SOL    HW217181   4.518   5.721   6.202
 5428SOL     OW17182   0.556   0.471   1.016
 5428SOL    HW117183   0.601   0.465   0.927
 5428SOL    HW217184   0.463   0.436   1.008
 5429SOL     OW17185   1.715   1.815   6.973
 5429SOL    HW117186   1.786   1.807   6.902
 5429SOL    HW217187   1.626   1.798   6.933
 5430SOL     OW17188   0.488   2.379   6.125
 5430SOL    HW117189   0.500   2.288   6.164
 5430SOL    HW217190   0.555   2.394   6.053
 5431SOL     OW17191   3.170   6.741   6.679
 5431SOL    HW117192   3.097   6.785   6.732
 5431SOL    HW217193   3.198   6.657   6.724
 5432SOL     OW17194   5.297   6.870   0.172
 5432SOL    HW117195   5.361   6.843   0.101
 5432SOL    HW217196   5.307   6.968   0.190
 5433SOL     OW17197   0.046   1.549   4.631
 5433SOL    HW117198   0.056   1.510   4.539
 5433SOL    HW217199   0.129   1.598   4.656
 5434SOL     OW17200   2.834   0.183   6.004
 5434SOL    HW117201   2.805   0.231   5.922
 5434SOL    HW217202   2.762   0.189   6.073
 5435SOL     OW17203   4.283   6.591   1.733
 5435SOL    HW117204   4.242   6.636   1.654
 5435SOL    HW217205   4.315   6.660   1.799
 5436SOL     OW17206   4.498   4.740   3.188
 5436SOL    HW117207   4.420   4.778   3.238
 5436SOL    HW217208   4.471   4.719   3.094
 5437SOL     OW17209   2.940   4.310   0.126
 5437SOL    HW117210   2.936   4.212   0.105
 5437SOL    HW217211   2.954   4.362   0.042
 5438SOL     OW17212   6.467   2.432   1.344
 5438SOL    HW117213   6.373   2.455   1.322
 5438SOL    HW217214   6.500   2.494   1.416
 5439SOL     OW17215   1.488   2.145   1.293
 5439SOL    HW117216   1.573   2.197   1.281
 5439SOL    HW217217   1.411   2.203   1.265
 5440SOL     OW17218   1.267   1.727   1.316
 5440SOL    HW117219   1.255   1.764   1.224
 5440SOL    HW217220   1.209   1.647   1.328
 5441SOL     OW17221   3.677   2.105   4.048
 5441SOL    HW117222   3.592   2.159   4.044
 5441SOL    HW217223   3.687   2.066   4.139
 5442SOL     OW17224   4.135   6.506   2.109
 5442SOL    HW117225   4.071   6.429   2.104
 5442SOL    HW217226   4.211   6.491   2.046
 5443SOL     OW17227   3.065   6.965   5.025
 5443SOL    HW117228   3.022   6.880   4.996
 5443SOL    HW217229   3.047   0.013   4.957
 5444SOL     OW17230   0.823   6.852   3.945
 5444SOL    HW117231   0.881   6.928   3.972
 5444SOL    HW217232   0.777   6.874   3.859
 5445SOL     OW17233   6.400   3.937   2.999
 5445SOL    HW117234   6.309   3.916   2.962
 5445SOL    HW217235   6.454   3.853   3.003
 5446SOL     OW17236   5.751   6.194   4.881
 5446SOL    HW117237   5.737   6.095   4.872
 5446SOL    HW217238   5.830   6.221   4.827
 5447SOL     OW17239   3.734   2.603   0.306
 5447SOL    HW117240   3.763   2.670   0.374
 5447SOL    HW217241   3.637   2.583   0.318
 5448SOL     OW17242   5.050   2.206   5.594
 5448SOL    HW117243   4.985   2.282   5.593
 5448SOL    HW217244   5.059   2.169   5.502
 5449SOL     OW17245   1.018   3.066   0.033
 5449SOL    HW117246   1.005   2.967   0.041
 5449SOL    HW217247   1.113   3.085   0.011
 5450SOL     OW17248   1.964   0.984   1.679
 5450SOL    HW117249   1.907   0.911   1.640
 5450SOL    HW217250   2.026   1.020   1.609
 5451SOL     OW17251   0.706   5.990   3.203
 5451SOL    HW117252   0.612   5.957   3.209
 5451SOL    HW217253   0.726   6.047   3.282
 5452SOL     OW17254   2.016   4.172   0.179
 5452SOL    HW117255   1.969   4.092   0.141
 5452SOL    HW217256   2.065   4.220   0.106
 5453SOL     OW17257   6.223   3.932   0.574
 5453SOL    HW117258   6.267   4.014   0.537
 5453SOL    HW217259   6.263   3.851   0.532
 5454SOL     OW17260   7.008   4.757   6.288
 5454SOL    HW117261   6.911   4.778   6.301
 5454SOL    HW217262   0.010   4.769   6.192
 5455SOL     OW17263   0.069   3.161   1.141
 5455SOL    HW117264   0.110   3.197   1.058
 5455SOL    HW217265   0.121   3.081   1.172
 5456SOL     OW17266   3.051   0.732   6.623
 5456SOL    HW117267   2.965   0.782   6.611
 5456SOL    HW217268   3.044   0.674   6.704
 5457SOL     OW17269   5.551   2.525   0.689
 5457SOL    HW117270   5.639   2.482   0.712
 5457SOL    HW217271   5.564   2.624   0.682
 5458SOL     OW17272   0.997   4.520   0.109
 5458SOL    HW117273   0.974   4.426   0.083
 5458SOL    HW217274   0.956   4.540   0.198
 5459SOL     OW17275   2.134   5.118   0.201
 5459SOL    HW117276   2.077   5.071   0.269
 5459SOL    HW217277   2.150   5.212   0.231
 5460SOL     OW17278   3.023   0.528   1.239
 5460SOL    HW117279   2.991   0.600   1.300
 5460SOL    HW217280   2.961   0.450   1.245
 5461SOL     OW17281   4.741   6.407   4.911
 5461SOL    HW117282   4.676   6.364   4.973
 5461SOL    HW217283   4.834   6.381   4.938
 5462SOL     OW17284   1.681   0.517   0.739
 5462SOL    HW117285   1.654   0.613   0.733
 5462SOL    HW217286   1.611   0.460   0.696
 5463SOL     OW17287   5.841   2.479   0.671
 5463SOL    HW117288   5.843   2.577   0.694
 5463SOL    HW217289   5.922   2.434   0.710
 5464SOL     OW17290   1.759   0.901   4.041
 5464SOL    HW117291   1.688   0.831   4.042
 5464SOL    HW217292   1.751   0.957   4.123
 5465SOL     OW17293   3.644   0.194   4.589
 5465SOL    HW117294   3.686   0.153   4.670
 5465SOL    HW217295   3.714   0.239   4.533
 5466SOL     OW17296   4.777   4.155   4.601
 5466SOL    HW117297   4.811   4.153   4.507
 5466SOL    HW217298   4.724   4.238   4.616
 5467SOL     OW17299   5.576   1.128   2.680
 5467SOL    HW117300   5.550   1.099   2.588
 5467SOL    HW217301   5.496   1.167   2.726
 5468SOL     OW17302   4.714   1.770   4.741
 5468SOL    HW117303   4.699   1.825   4.823
 5468SOL    HW217304   4.779   1.817   4.681
 5469SOL     OW17305   3.972   4.692   6.271
 5469SOL    HW117306   3.897   4.758   6.265
 5469SOL    HW217307   4.038   4.710   6.198
 5470SOL     OW17308   2.107   4.982   3.694
 5470SOL    HW117309   2.082   4.944   3.605
 5470SOL    HW217310   2.024   4.999   3.747
 5471SOL     OW17311   6.077   5.756   1.199
 5471SOL    HW117312   6.069   5.718   1.291
 5471SOL    HW217313   6.014   5.707   1.138
 5472SOL     OW17314   4.254   3.931   6.379
 5472SOL    HW117315   4.311   3.931   6.296
 5472SOL    HW217316   4.209   4.020   6.388
 5473SOL     OW17317   1.483   3.457   3.734
 5473SOL    HW117318   1.408   3.410   3.779
 5473SOL    HW217319   1.570   3.424   3.771
 5474SOL     OW17320   2.056   5.148   4.171
 5474SOL    HW117321   2.137   5.090   4.174
 5474SOL    HW217322   2.064   5.222   4.237
 5475SOL     OW17323   3.265   2.123   1.082
 5475SOL    HW117324   3.262   2.157   0.988
 5475SOL    HW217325   3.259   2.201   1.146
 5476SOL     OW17326   1.307   3.009   6.274
 5476SOL    HW117327   1.217   2.966   6.273
 5476SOL    HW217328   1.308   3.088   6.213
 5477SOL     OW17329   2.140   3.068   3.401
 5477SOL    HW117330   2.091   3.048   3.485
 5477SOL    HW217331   2.203   2.993   3.380
 5478SOL     OW17332   4.995   6.142   5.773
 5478SOL    HW117333   5.009   6.048   5.741
 5478SOL    HW217334   5.062   6.202   5.728
 5479SOL     OW17335   4.912   0.391   4.562
 5479SOL    HW117336   4.835   0.433   4.609
 5479SOL    HW217337   4.888   0.376   4.466
 5480SOL     OW17338   0.870   4.044   4.631
 5480SOL    HW117339   0.821   4.053   4.545
 5480SOL    HW217340   0.843   4.119   4.692
 5481SOL     OW17341   3.427   6.993   4.700
 5481SOL    HW117342   3.371   6.949   4.770
 5481SOL    HW217343   3.485   0.040   4.744
 5482SOL     OW17344   3.430   4.450   1.642
 5482SOL    HW117345   3.497   4.500   1.698
 5482SOL    HW217346   3.463   4.357   1.627
 5483SOL     OW17347   0.555   2.601   5.795
 5483SOL    HW117348   0.614   2.600   5.715
 5483SOL    HW217349   0.558   2.691   5.838
 5484SOL     OW17350   4.541   0.774   4.278
 5484SOL    HW117351   4.491   0.768   4.365
 5484SOL    HW217352   4.492   0.723   4.208
 5485SOL     OW17353   2.877   6.698   5.597
 5485SOL    HW117354   2.795   6.743   5.634
 5485SOL    HW217355   2.849   6.618   5.543
 5486SOL     OW17356   2.930   5.789   4.714
 5486SOL    HW117357   2.881   5.828   4.793
 5486SOL    HW217358   2.879   5.807   4.631
 5487SOL     OW17359   2.498   4.814   5.974
 5487SOL    HW117360   2.533   4.746   5.911
 5487SOL    HW217361   2.574   4.870   6.008
 5488SOL     OW17362   6.145   0.972   0.593
 5488SOL    HW117363   6.054   1.014   0.599
 5488SOL    HW217364   6.136   0.872   0.601
 5489SOL     OW17365   6.791   3.119   2.300
 5489SOL    HW117366   6.770   3.131   2.398
 5489SOL    HW217367   6.812   3.208   2.260
 5490SOL     OW17368   1.054   6.789   2.604
 5490SOL    HW117369   1.118   6.810   2.678
 5490SOL    HW217370   0.996   6.712   2.631
 5491SOL     OW17371   6.818   3.802   0.935
 5491SOL    HW117372   6.757   3.880   0.926
 5491SOL    HW217373   6.775   3.734   0.995
 5492SOL     OW17374   0.645   1.199   5.476
 5492SOL    HW117375   0.562   1.169   5.430
 5492SOL    HW217376   0.709   1.234   5.408
 5493SOL     OW17377   4.165   3.752   1.781
 5493SOL    HW117378   4.111   3.697   1.718
 5493SOL    HW217379   4.125   3.748   1.872
 5494SOL     OW17380   6.167   4.067   5.193
 5494SOL    HW117381   6.106   4.013   5.251
 5494SOL    HW217382   6.118   4.148   5.160
 5495SOL     OW17383   6.123   0.288   0.705
 5495SOL    HW117384   6.037   0.316   0.662
 5495SOL    HW217385   6.139   0.344   0.787
 5496SOL     OW17386   4.183   0.727   4.365
 5496SOL    HW117387   4.200   0.751   4.269
 5496SOL    HW217388   4.095   0.681   4.372
 5497SOL     OW17389   1.008   0.689   6.347
 5497SOL    HW117390   0.965   0.760   6.403
 5497SOL    HW217391   0.949   0.608   6.346
 5498SOL     OW17392   0.723   5.257   1.996
 5498SOL    HW117393   0.758   5.350   2.008
 5498SOL    HW217394   0.799   5.196   1.973
 5499SOL     OW17395   1.017   0.257   5.175
 5499SOL    HW117396   0.945   0.249   5.243
 5499SOL    HW217397   0.999   0.195   5.099
 5500SOL     OW17398   2.344   0.779   0.448
 5500SOL    HW117399   2.306   0.751   0.360
 5500SOL    HW217400   2.318   0.713   0.518
 5501SOL     OW17401   3.980   2.607   6.777
 5501SOL    HW117402   4.043   2.676   6.812
 5501SOL    HW217403   4.027   2.550   6.710
 5502SOL     OW17404   4.321   1.805   0.333
 5502SOL    HW117405   4.256   1.848   0.396
 5502SOL    HW217406   4.411   1.847   0.345
 5503SOL     OW17407   0.292   3.573   0.529
 5503SOL    HW117408   0.245   3.652   0.569
 5503SOL    HW217409   0.341   3.524   0.601
 5504SOL     OW17410   3.886   0.898   6.491
 5504SOL    HW117411   3.853   0.805   6.501
 5504SOL    HW217412   3.955   0.917   6.561
 5505SOL     OW17413   2.566   4.580   4.306
 5505SOL    HW117414   2.665   4.585   4.317
 5505SOL    HW217415   2.527   4.527   4.382
 5506SOL     OW17416   0.235   3.741   6.539
 5506SOL    HW117417   0.273   3.731   6.447
 5506SOL    HW217418   0.155   3.680   6.549
 5507SOL     OW17419   2.910   0.384   6.759
 5507SOL    HW117420   2.854   0.320   6.812
 5507SOL    HW217421   2.899   0.366   6.662
 5508SOL     OW17422   0.427   0.813   6.807
 5508SOL    HW117423   0.428   0.835   6.710
 5508SOL    HW217424   0.339   0.771   6.831
 5509SOL     OW17425   0.129   5.576   0.281
 5509SOL    HW117426   0.048   5.565   0.225
 5509SOL    HW217427   0.106   5.564   0.377
 5510SOL     OW17428   3.744   5.317   6.933
 5510SOL    HW117429   3.758   5.276   6.843
 5510SOL    HW217430   3.814   5.284   6.996
 5511SOL     OW17431   0.751   1.456   5.519
 5511SOL    HW117432   0.708   1.366   5.527
 5511SOL    HW217433   0.681   1.527   5.520
 5512SOL     OW17434   3.680   0.812   2.475
 5512SOL    HW117435   3.583   0.799   2.496
 5512SOL    HW217436   3.720   0.725   2.447
 5513SOL     OW17437   4.002   5.016   6.695
 5513SOL    HW117438   3.954   5.068   6.624
 5513SOL    HW217439   4.098   5.006   6.670
 5514SOL     OW17440   2.600   0.411   6.135
 5514SOL    HW117441   2.516   0.409   6.188
 5514SOL    HW217442   2.679   0.403   6.197
 5515SOL     OW17443   2.653   5.655   2.078
 5515SOL    HW117444   2.562   5.697   2.086
 5515SOL    HW217445   2.670   5.597   2.158
 5516SOL     OW17446   2.452   2.683   5.118
 5516SOL    HW117447   2.383   2.628   5.166
 5516SOL    HW217448   2.442   2.779   5.144
 5517SOL     OW17449   1.726   3.531   3.170
 5517SOL    HW117450   1.696   3.466   3.100
 5517SOL    HW217451   1.706   3.624   3.141
 5518SOL     OW17452   4.748   4.218   5.604
 5518SOL    HW117453   4.786   4.241   5.694
 5518SOL    HW217454   4.797   4.140   5.566
 5519SOL     OW17455   4.770   2.361   3.762
 5519SOL    HW117456   4.861   2.324   3.780
 5519SOL    HW217457   4.701   2.292   3.784
 5520SOL     OW17458   5.090   6.662   1.894
 5520SOL    HW117459   5.014   6.604   1.927
 5520SOL    HW217460   5.122   6.628   1.806
 5521SOL     OW17461   6.007   6.189   1.505
 5521SOL    HW117462   5.975   6.117   1.444
 5521SOL    HW217463   5.929   6.234   1.548
 5522SOL     OW17464   6.107   5.723   0.653
 5522SOL    HW117465   6.078   5.815   0.680
 5522SOL    HW217466   6.117   5.719   0.554
 5523SOL     OW17467   5.493   0.995   2.385
 5523SOL    HW117468   5.414   1.056   2.395
 5523SOL    HW217469   5.464   0.901   2.403
 5524SOL     OW17470   2.858   0.978   4.360
 5524SOL    HW117471   2.856   0.954   4.457
 5524SOL    HW217472   2.792   1.051   4.342
 5525SOL     OW17473   6.193   1.725   1.127
 5525SOL    HW117474   6.269   1.660   1.132
 5525SOL    HW217475   6.109   1.680   1.156
 5526SOL     OW17476   4.427   5.139   3.238
 5526SOL    HW117477   4.502   5.205   3.243
 5526SOL    HW217478   4.366   5.164   3.163
 5527SOL     OW17479   5.932   1.942   3.979
 5527SOL    HW117480   5.861   2.011   3.994
 5527SOL    HW217481   5.939   1.922   3.882
 5528SOL     OW17482   0.835   1.595   1.407
 5528SOL    HW117483   0.925   1.552   1.411
 5528SOL    HW217484   0.846   1.694   1.402
 5529SOL     OW17485   3.728   0.643   1.915
 5529SOL    HW117486   3.709   0.614   2.009
 5529SOL    HW217487   3.664   0.715   1.889
 5530SOL     OW17488   6.605   2.383   1.115
 5530SOL    HW117489   6.533   2.393   1.047
 5530SOL    HW217490   6.568   2.397   1.206
 5531SOL     OW17491   2.813   4.153   1.393
 5531SOL    HW117492   2.911   4.165   1.374
 5531SOL    HW217493   2.760   4.211   1.332
 5532SOL     OW17494   1.896   3.294   1.282
 5532SOL    HW117495   1.949   3.209   1.277
 5532SOL    HW217496   1.812   3.284   1.229
 5533SOL     OW17497   4.479   1.911   3.822
 5533SOL    HW117498   4.558   1.850   3.814
 5533SOL    HW217499   4.401   1.860   3.860
 5534SOL     OW17500   0.841   1.183   4.626
 5534SOL    HW117501   0.920   1.194   4.565
 5534SOL    HW217502   0.853   1.242   4.706
 5535SOL     OW17503   0.562   2.173   3.226
 5535SOL    HW117504   0.659   2.192   3.242
 5535SOL    HW217505   0.533   2.220   3.142
 5536SOL     OW17506   3.823   0.285   4.412
 5536SOL    HW117507   3.884   0.324   4.481
 5536SOL    HW217508   3.877   0.231   4.347
 5537SOL     OW17509   3.519   0.815   3.189
 5537SOL    HW117510   3.605   0.832   3.141
 5537SOL    HW217511   3.479   0.903   3.215
 5538SOL     OW17512   4.481   5.787   4.572
 5538SOL    HW117513   4.580   5.790   4.558
 5538SOL    HW217514   4.450   5.692   4.573
 5539SOL     OW17515   2.210   3.738   0.250
 5539SOL    HW117516   2.165   3.697   0.330
 5539SOL    HW217517   2.154   3.721   0.168
 5540SOL     OW17518   5.546   4.778   2.199
 5540SOL    HW117519   5.555   4.778   2.100
 5540SOL    HW217520   5.528   4.871   2.231
 5541SOL     OW17521   4.483   1.526   5.361
 5541SOL    HW117522   4.564   1.476   5.330
 5541SOL    HW217523   4.420   1.539   5.285
 5542SOL     OW17524   5.137   4.433   5.682
 5542SOL    HW117525   5.160   4.499   5.753
 5542SOL    HW217526   5.127   4.480   5.595
 5543SOL     OW17527   6.535   2.303   5.813
 5543SOL    HW117528   6.610   2.335   5.871
 5543SOL    HW217529   6.453   2.357   5.833
 5544SOL     OW17530   5.909   1.188   5.817
 5544SOL    HW117531   6.000   1.147   5.808
 5544SOL    HW217532   5.861   1.182   5.729
 5545SOL     OW17533   3.194   2.145   2.148
 5545SOL    HW117534   3.111   2.191   2.120
 5545SOL    HW217535   3.184   2.111   2.242
 5546SOL     OW17536   1.996   5.138   5.709
 5546SOL    HW117537   2.002   5.164   5.805
 5546SOL    HW217538   1.959   5.045   5.702
 5547SOL     OW17539   3.963   5.609   4.982
 5547SOL    HW117540   3.974   5.623   4.883
 5547SOL    HW217541   3.954   5.512   5.001
 5548SOL     OW17542   0.105   3.581   5.357
 5548SOL    HW117543   0.026   3.636   5.329
 5548SOL    HW217544   0.080   3.524   5.435
 5549SOL     OW17545   2.958   4.589   6.591
 5549SOL    HW117546   2.987   4.581   6.495
 5549SOL    HW217547   2.988   4.676   6.628
 5550SOL     OW17548   3.765   6.525   1.446
 5550SOL    HW117549   3.861   6.535   1.421
 5550SOL    HW217550   3.757   6.504   1.543
 5551SOL     OW17551   0.786   1.227   3.273
 5551SOL    HW117552   0.716   1.218   3.202
 5551SOL    HW217553   0.830   1.139   3.288
 5552SOL     OW17554   0.407   2.887   2.109
 5552SOL    HW117555   0.461   2.970   2.118
 5552SOL    HW217556   0.361   2.867   2.196
 5553SOL     OW17557   4.859   6.056   0.085
 5553SOL    HW117558   4.883   6.114   0.163
 5553SOL    HW217559   4.880   6.104   0.000
 5554SOL     OW17560   2.889   1.882   4.722
 5554SOL    HW117561   2.915   1.855   4.630
 5554SOL    HW217562   2.923   1.975   4.740
 5555SOL     OW17563   0.089   5.871   2.636
 5555SOL    HW117564   0.121   5.937   2.569
 5555SOL    HW217565   0.161   5.853   2.703
 5556SOL     OW17566   0.397   1.029   4.748
 5556SOL    HW117567   0.301   1.028   4.718
 5556SOL    HW217568   0.406   0.972   4.830
 5557SOL     OW17569   2.522   0.367   3.687
 5557SOL    HW117570   2.569   0.323   3.610
 5557SOL    HW217571   2.448   0.424   3.651
 5558SOL     OW17572   5.050   2.818   4.595
 5558SOL    HW117573   5.113   2.842   4.521
 5558SOL    HW217574   5.101   2.776   4.671
 5559SOL     OW17575   1.655   0.646   1.345
 5559SOL    HW117576   1.735   0.628   1.287
 5559SOL    HW217577   1.672   0.727   1.401
 5560SOL     OW17578   0.053   0.801   4.046
 5560SOL    HW117579   0.074   0.899   4.048
 5560SOL    HW217580   0.058   0.769   3.951
 5561SOL     OW17581   1.497   3.752   3.650
 5561SOL    HW117582   1.465   3.658   3.636
 5561SOL    HW217583   1.555   3.755   3.731
 5562SOL     OW17584   2.244   2.522   5.652
 5562SOL    HW117585   2.163   2.529   5.594
 5562SOL    HW217586   2.306   2.598   5.633
 5563SOL     OW17587   4.158   5.022   1.189
 5563SOL    HW117588   4.153   5.070   1.102
 5563SOL    HW217589   4.115   4.932   1.180
 5564SOL     OW17590   6.108   4.554   1.698
 5564SOL    HW117591   6.070   4.540   1.790
 5564SOL    HW217592   6.208   4.556   1.703
 5565SOL     OW17593   3.043   3.364   5.452
 5565SOL    HW117594   3.087   3.453   5.459
 5565SOL    HW217595   2.962   3.371   5.393
 5566SOL     OW17596   2.063   4.254   0.878
 5566SOL    HW117597   2.074   4.207   0.791
 5566SOL    HW217598   2.104   4.345   0.872
 5567SOL     OW17599   1.758   5.911   2.160
 5567SOL    HW117600   1.798   5.844   2.221
 5567SOL    HW217601   1.671   5.943   2.197
 5568SOL     OW17602   3.702   2.050   1.267
 5568SOL    HW117603   3.631   2.064   1.336
 5568SOL    HW217604   3.714   2.135   1.215
 5569SOL     OW17605   5.803   1.808   0.241
 5569SOL    HW117606   5.729   1.763   0.290
 5569SOL    HW217607   5.825   1.755   0.159
 5570SOL     OW17608   6.488   4.006   5.899
 5570SOL    HW117609   6.486   4.033   5.995
 5570SOL    HW217610   6.439   3.919   5.889
 5571SOL     OW17611   6.701   4.536   6.161
 5571SOL    HW117612   6.607   4.508   6.139
 5571SOL    HW217613   6.736   4.595   6.089
 5572SOL     OW17614   5.062   2.605   5.661
 5572SOL    HW117615   5.047   2.665   5.739
 5572SOL    HW217616   5.152   2.622   5.622
 5573SOL     OW17617   0.874   3.957   0.756
 5573SOL    HW117618   0.956   3.927   0.804
 5573SOL    HW217619   0.878   3.927   0.661
 5574SOL     OW17620   0.099   5.870   4.875
 5574SOL    HW117621   0.068   5.911   4.961
 5574SOL    HW217622   0.043   5.790   4.854
 5575SOL     OW17623   1.720   1.224   0.956
 5575SOL    HW117624   1.705   1.265   1.046
 5575SOL    HW217625   1.713   1.125   0.963
 5576SOL     OW17626   6.428   6.078   6.907
 5576SOL    HW117627   6.434   6.132   6.822
 5576SOL    HW217628   6.451   5.983   6.888
 5577SOL     OW17629   2.126   3.941   5.198
 5577SOL    HW117630   2.223   3.945   5.174
 5577SOL    HW217631   2.071   3.977   5.123
 5578SOL     OW17632   4.123   2.040   5.905
 5578SOL    HW117633   4.121   2.111   5.835
 5578SOL    HW217634   4.032   2.001   5.916
 5579SOL     OW17635   5.009   4.801   0.570
 5579SOL    HW117636   5.027   4.703   0.579
 5579SOL    HW217637   5.091   4.847   0.535
 5580SOL     OW17638   5.087   1.071   1.352
 5580SOL    HW117639   5.171   1.113   1.319
 5580SOL    HW217640   5.010   1.133   1.334
 5581SOL     OW17641   2.880   2.632   0.432
 5581SOL    HW117642   2.859   2.637   0.530
 5581SOL    HW217643   2.799   2.600   0.383
 5582SOL     OW17644   3.773   3.328   3.396
 5582SOL    HW117645   3.733   3.246   3.438
 5582SOL    HW217646   3.866   3.308   3.367
 5583SOL     OW17647   3.489   0.641   0.397
 5583SOL    HW117648   3.543   0.558   0.411
 5583SOL    HW217649   3.528   0.694   0.322
 5584SOL     OW17650   5.994   2.890   2.683
 5584SOL    HW117651   5.923   2.941   2.730
 5584SOL    HW217652   5.965   2.871   2.589
 5585SOL     OW17653   6.594   7.003   4.402
 5585SOL    HW117654   6.536   6.923   4.393
 5585SOL    HW217655   6.681   6.976   4.444
 5586SOL     OW17656   2.256   1.077   6.607
 5586SOL    HW117657   2.224   1.138   6.679
 5586SOL    HW217658   2.304   1.131   6.537
 5587SOL     OW17659   3.526   0.356   3.861
 5587SOL    HW117660   3.460   0.404   3.918
 5587SOL    HW217661   3.587   0.422   3.817
 5588SOL     OW17662   4.369   0.100   6.035
 5588SOL    HW117663   4.425   0.144   5.965
 5588SOL    HW217664   4.302   0.166   6.071
 5589SOL     OW17665   3.743   2.948   6.434
 5589SOL    HW117666   3.647   2.974   6.434
 5589SOL    HW217667   3.759   2.878   6.364
 5590SOL     OW17668   0.221   6.724   3.383
 5590SOL    HW117669   0.296   6.787   3.361
 5590SOL    HW217670   0.134   6.769   3.366
 5591SOL     OW17671   4.745   0.763   0.016
 5591SOL    HW117672   4.739   0.698   6.964
 5591SOL    HW217673   4.841   0.775   0.042
 5592SOL     OW17674   2.680   2.095   3.013
 5592SOL    HW117675   2.670   2.054   2.923
 5592SOL    HW217676   2.724   2.029   3.075
 5593SOL     OW17677   1.149   2.998   5.104
 5593SOL    HW117678   1.146   3.071   5.035
 5593SOL    HW217679   1.198   3.031   5.185
 5594SOL     OW17680   2.604   0.668   6.694
 5594SOL    HW117681   2.621   0.621   6.607
 5594SOL    HW217682   2.664   0.630   6.765
 5595SOL     OW17683   0.220   1.337   5.457
 5595SOL    HW117684   0.141   1.363   5.401
 5595SOL    HW217685   0.245   1.412   5.518
 5596SOL     OW17686   4.880   1.539   2.848
 5596SOL    HW117687   4.918   1.615   2.900
 5596SOL    HW217688   4.807   1.496   2.900
 5597SOL     OW17689   0.362   1.052   6.160
 5597SOL    HW117690   0.308   0.979   6.202
 5597SOL    HW217691   0.322   1.141   6.185
 5598SOL     OW17692   6.856   2.501   3.934
 5598SOL    HW117693   6.845   2.470   3.840
 5598SOL    HW217694   6.805   2.441   3.996
 5599SOL     OW17695   4.726   2.867   3.349
 5599SOL    HW117696   4.749   2.958   3.385
 5599SOL    HW217697   4.678   2.815   3.420
 5600SOL     OW17698   2.394   1.311   1.984
 5600SOL    HW117699   2.427   1.318   2.079
 5600SOL    HW217700   2.382   1.403   1.947
 5601SOL     OW17701   6.233   2.940   5.295
 5601SOL    HW117702   6.136   2.955   5.312
 5601SOL    HW217703   6.245   2.892   5.208
 5602SOL     OW17704   6.687   2.215   2.271
 5602SOL    HW117705   6.770   2.232   2.219
 5602SOL    HW217706   6.610   2.206   2.208
 5603SOL     OW17707   4.383   0.874   5.532
 5603SOL    HW117708   4.335   0.871   5.620
 5603SOL    HW217709   4.405   0.969   5.510
 5604SOL     OW17710   1.111   0.289   3.464
 5604SOL    HW117711   1.154   0.234   3.536
 5604SOL    HW217712   1.159   0.273   3.377
 5605SOL     OW17713   4.139   6.595   4.161
 5605SOL    HW117714   4.070   6.523   4.156
 5605SOL    HW217715   4.165   6.610   4.256
 5606SOL     OW17716   4.717   2.707   0.384
 5606SOL    HW117717   4.635   2.728   0.332
 5606SOL    HW217718   4.798   2.716   0.325
 5607SOL     OW17719   6.365   2.251   2.780
 5607SOL    HW117720   6.380   2.189   2.702
 5607SOL    HW217721   6.300   2.322   2.753
 5608SOL     OW17722   5.099   0.811   3.449
 5608SOL    HW117723   5.163   0.735   3.455
 5608SOL    HW217724   5.019   0.792   3.505
 5609SOL     OW17725   0.070   0.425   0.612
 5609SOL    HW117726   6.996   0.432   0.636
 5609SOL    HW217727   0.115   0.513   0.628
 5610SOL     OW17728   4.953   5.479   1.073
 5610SOL    HW117729   4.913   5.416   1.007
 5610SOL    HW217730   4.881   5.517   1.132
 5611SOL     OW17731   6.201   5.342   1.872
 5611SOL    HW117732   6.167   5.416   1.814
 5611SOL    HW217733   6.249   5.275   1.816
 5612SOL     OW17734   3.758   2.353   0.157
 5612SOL    HW117735   3.703   2.432   0.187
 5612SOL    HW217736   3.786   2.366   0.062
 5613SOL     OW17737   5.754   4.823   6.323
 5613SOL    HW117738   5.660   4.790   6.309
 5613SOL    HW217739   5.790   4.788   6.409
 5614SOL     OW17740   4.899   3.437   3.775
 5614SOL    HW117741   4.841   3.357   3.760
 5614SOL    HW217742   4.922   3.478   3.687
 5615SOL     OW17743   0.157   2.482   2.906
 5615SOL    HW117744   0.211   2.453   2.827
 5615SOL    HW217745   0.154   2.582   2.910
 5616SOL     OW17746   1.634   3.010   2.671
 5616SOL    HW117747   1.635   3.025   2.770
 5616SOL    HW217748   1.705   2.944   2.647
 5617SOL     OW17749   1.794   5.260   6.040
 5617SOL    HW117750   1.769   5.356   6.050
 5617SOL    HW217751   1.893   5.251   6.029
 5618SOL     OW17752   5.098   6.897   2.020
 5618SOL    HW117753   5.102   6.813   1.966
 5618SOL    HW217754   5.150   6.969   1.973
 5619SOL     OW17755   3.255   2.954   3.635
 5619SOL    HW117756   3.353   2.932   3.640
 5619SOL    HW217757   3.218   2.961   3.727
 5620SOL     OW17758   4.691   4.602   4.543
 5620SOL    HW117759   4.647   4.610   4.454
 5620SOL    HW217760   4.737   4.688   4.566
 5621SOL     OW17761   0.277   2.521   6.542
 5621SOL    HW117762   0.191   2.470   6.540
 5621SOL    HW217763   0.296   2.558   6.451
 5622SOL     OW17764   4.755   5.866   3.745
 5622SOL    HW117765   4.722   5.811   3.822
 5622SOL    HW217766   4.854   5.857   3.737
 5623SOL     OW17767   4.942   5.128   4.301
 5623SOL    HW117768   4.846   5.155   4.302
 5623SOL    HW217769   4.962   5.072   4.381
 5624SOL     OW17770   5.440   5.314   3.231
 5624SOL    HW117771   5.517   5.272   3.183
 5624SOL    HW217772   5.354   5.281   3.191
 5625SOL     OW17773   1.867   5.832   5.526
 5625SOL    HW117774   1.940   5.867   5.585
 5625SOL    HW217775   1.787   5.891   5.532
 5626SOL     OW17776   0.794   4.512   6.647
 5626SOL    HW117777   0.809   4.543   6.553
 5626SOL    HW217778   0.827   4.419   6.658
 5627SOL     OW17779   1.044   5.624   6.726
 5627SOL    HW117780   0.994   5.628   6.812
 5627SOL    HW217781   1.132   5.579   6.740
 5628SOL     OW17782   2.661   3.310   0.695
 5628SOL    HW117783   2.622   3.228   0.652
 5628SOL    HW217784   2.749   3.331   0.652
 5629SOL     OW17785   5.871   3.568   2.614
 5629SOL    HW117786   5.793   3.556   2.552
 5629SOL    HW217787   5.910   3.478   2.635
 5630SOL     OW17788   1.120   4.109   6.742
 5630SOL    HW117789   1.141   4.018   6.778
 5630SOL    HW217790   1.181   4.176   6.786
 5631SOL     OW17791   3.611   1.666   1.825
 5631SOL    HW117792   3.692   1.707   1.784
 5631SOL    HW217793   3.529   1.710   1.787
 5632SOL     OW17794   4.902   6.631   5.842
 5632SOL    HW117795   4.857   6.542   5.834
 5632SOL    HW217796   4.867   6.691   5.770
 5633SOL     OW17797   0.931   5.174   5.311
 5633SOL    HW117798   0.982   5.138   5.233
 5633SOL    HW217799   0.907   5.270   5.294
 5634SOL     OW17800   2.281   0.631   1.372
 5634SOL    HW117801   2.232   0.565   1.428
 5634SOL    HW217802   2.265   0.612   1.275
 5635SOL     OW17803   2.995   0.873   0.995
 5635SOL    HW117804   2.971   0.968   1.017
 5635SOL    HW217805   3.065   0.873   0.923
 5636SOL     OW17806   5.410   1.525   5.997
 5636SOL    HW117807   5.420   1.456   5.925
 5636SOL    HW217808   5.470   1.603   5.978
 5637SOL     OW17809   5.103   6.672   4.572
 5637SOL    HW117810   5.144   6.664   4.481
 5637SOL    HW217811   5.109   6.767   4.603
 5638SOL     OW17812   6.399   5.062   1.285
 5638SOL    HW117813   6.469   5.053   1.214
 5638SOL    HW217814   6.324   5.119   1.251
 5639SOL     OW17815   2.286   0.506   1.872
 5639SOL    HW117816   2.350   0.520   1.796
 5639SOL    HW217817   2.217   0.577   1.871
 5640SOL     OW17818   3.263   6.854   2.600
 5640SOL    HW117819   3.237   6.808   2.685
 5640SOL    HW217820   3.220   6.944   2.596
 5641SOL     OW17821   6.390   4.506   3.609
 5641SOL    HW117822   6.355   4.596   3.586
 5641SOL    HW217823   6.314   4.443   3.624
 5642SOL     OW17824   1.914   3.566   6.720
 5642SOL    HW117825   1.960   3.492   6.671
 5642SOL    HW217826   1.836   3.598   6.666
 5643SOL     OW17827   4.876   2.210   4.931
 5643SOL    HW117828   4.833   2.214   5.021
 5643SOL    HW217829   4.832   2.276   4.870
 5644SOL     OW17830   4.401   1.131   4.970
 5644SOL    HW117831   4.360   1.048   4.933
 5644SOL    HW217832   4.432   1.190   4.895
 5645SOL     OW17833   6.223   5.657   3.959
 5645SOL    HW117834   6.250   5.648   4.055
 5645SOL    HW217835   6.136   5.611   3.944
 5646SOL     OW17836   0.652   6.148   4.097
 5646SOL    HW117837   0.628   6.226   4.039
 5646SOL    HW217838   0.700   6.181   4.178
 5647SOL     OW17839   5.885   5.043   6.141
 5647SOL    HW117840   5.902   4.965   6.081
 5647SOL    HW217841   5.847   5.011   6.228
 5648SOL     OW17842   1.805   1.614   5.256
 5648SOL    HW117843   1.874   1.541   5.263
 5648SOL    HW217844   1.805   1.652   5.164
 5649SOL     OW17845   1.175   0.583   5.245
 5649SOL    HW117846   1.149   0.487   5.237
 5649SOL    HW217847   1.093   0.638   5.259
 5650SOL     OW17848   6.547   4.926   0.056
 5650SOL    HW117849   6.530   4.965   0.147
 5650SOL    HW217850   6.497   4.840   0.047
 5651SOL     OW17851   6.500   1.283   2.840
 5651SOL    HW117852   6.439   1.226   2.784
 5651SOL    HW217853   6.451   1.366   2.868
 5652SOL     OW17854   5.198   4.713   0.300
 5652SOL    HW117855   5.142   4.767   0.237
 5652SOL    HW217856   5.174   4.616   0.291
 5653SOL     OW17857   1.979   6.449   6.176
 5653SOL    HW117858   1.927   6.499   6.107
 5653SOL    HW217859   1.918   6.422   6.250
 5654SOL     OW17860   0.937   5.784   5.613
 5654SOL    HW117861   0.865   5.813   5.676
 5654SOL    HW217862   1.021   5.835   5.633
 5655SOL     OW17863   0.159   3.775   3.962
 5655SOL    HW117864   0.226   3.751   3.891
 5655SOL    HW217865   0.127   3.869   3.946
 5656SOL     OW17866   3.121   4.831   6.631
 5656SOL    HW117867   3.173   4.753   6.666
 5656SOL    HW217868   3.184   4.904   6.606
 5657SOL     OW17869   4.296   6.119   1.922
 5657SOL    HW117870   4.328   6.209   1.949
 5657SOL    HW217871   4.196   6.120   1.912
 5658SOL     OW17872   4.545   6.606   5.309
 5658SOL    HW117873   4.603   6.553   5.371
 5658SOL    HW217874   4.592   6.690   5.282
 5659SOL     OW17875   3.736   3.288   2.809
 5659SOL    HW117876   3.797   3.304   2.732
 5659SOL    HW217877   3.704   3.193   2.808
 5660SOL     OW17878   5.905   6.965   0.853
 5660SOL    HW117879   5.805   6.970   0.855
 5660SOL    HW217880   5.938   6.925   0.939
 5661SOL     OW17881   6.918   5.648   4.916
 5661SOL    HW117882   6.830   5.651   4.962
 5661SOL    HW217883   6.975   5.576   4.956
 5662SOL     OW17884   2.203   4.199   4.311
 5662SOL    HW117885   2.180   4.286   4.356
 5662SOL    HW217886   2.266   4.216   4.236
 5663SOL     OW17887   1.343   3.946   0.155
 5663SOL    HW117888   1.257   3.988   0.185
 5663SOL    HW217889   1.379   3.889   0.229
 5664SOL     OW17890   0.388   4.729   3.102
 5664SOL    HW117891   0.472   4.736   3.156
 5664SOL    HW217892   0.411   4.736   3.005
 5665SOL     OW17893   2.330   2.043   6.301
 5665SOL    HW117894   2.406   2.099   6.268
 5665SOL    HW217895   2.248   2.063   6.248
 5666SOL     OW17896   6.102   5.518   0.178
 5666SOL    HW117897   6.148   5.581   0.115
 5666SOL    HW217898   6.123   5.424   0.151
 5667SOL     OW17899   0.425   5.555   3.589
 5667SOL    HW117900   0.505   5.513   3.633
 5667SOL    HW217901   0.394   5.498   3.514
 5668SOL     OW17902   5.903   2.330   5.178
 5668SOL    HW117903   5.842   2.254   5.201
 5668SOL    HW217904   5.941   2.368   5.262
 5669SOL     OW17905   0.032   3.385   5.565
 5669SOL    HW117906   6.956   3.379   5.575
 5669SOL    HW217907   0.069   3.294   5.545
 5670SOL     OW17908   1.682   4.162   3.759
 5670SOL    HW117909   1.647   4.148   3.852
 5670SOL    HW217910   1.610   4.142   3.692
 5671SOL     OW17911   1.751   1.127   5.519
 5671SOL    HW117912   1.738   1.038   5.562
 5671SOL    HW217913   1.836   1.125   5.466
 5672SOL     OW17914   5.406   4.664   5.485
 5672SOL    HW117915   5.481   4.610   5.523
 5672SOL    HW217916   5.350   4.700   5.559
 5673SOL     OW17917   1.400   0.626   1.868
 5673SOL    HW117918   1.434   0.698   1.928
 5673SOL    HW217919   1.342   0.666   1.797
 5674SOL     OW17920   6.489   3.669   1.142
 5674SOL    HW117921   6.454   3.596   1.200
 5674SOL    HW217922   6.531   3.739   1.200
 5675SOL     OW17923   4.153   2.115   5.593
 5675SOL    HW117924   4.127   2.204   5.556
 5675SOL    HW217925   4.178   2.054   5.519
 5676SOL     OW17926   3.011   0.290   1.398
 5676SOL    HW117927   2.968   0.296   1.488
 5676SOL    HW217928   3.053   0.200   1.387
 5677SOL     OW17929   6.955   0.160   4.160
 5677SOL    HW117930   6.954   0.183   4.258
 5677SOL    HW217931   6.890   0.086   4.143
 5678SOL     OW17932   1.498   5.619   3.295
 5678SOL    HW117933   1.567   5.691   3.301
 5678SOL    HW217934   1.484   5.578   3.385
 5679SOL     OW17935   2.043   6.439   5.187
 5679SOL    HW117936   2.007   6.509   5.125
 5679SOL    HW217937   2.086   6.367   5.134
 5680SOL     OW17938   2.148   0.006   6.354
 5680SOL    HW117939   2.090   6.952   6.381
 5680SOL    HW217940   2.091   0.084   6.327
 5681SOL     OW17941   0.657   3.589   0.795
 5681SOL    HW117942   0.715   3.552   0.867
 5681SOL    HW217943   0.591   3.652   0.835
 5682SOL     OW17944   1.092   3.919   3.934
 5682SOL    HW117945   1.148   3.894   3.855
 5682SOL    HW217946   1.137   3.888   4.018
 5683SOL     OW17947   3.548   2.478   5.402
 5683SOL    HW117948   3.471   2.497   5.463
 5683SOL    HW217949   3.571   2.560   5.350
 5684SOL     OW17950   3.373   3.875   3.355
 5684SOL    HW117951   3.389   3.860   3.258
 5684SOL    HW217952   3.366   3.787   3.403
 5685SOL     OW17953   6.869   5.136   2.070
 5685SOL    HW117954   6.777   5.102   2.092
 5685SOL    HW217955   6.864   5.235   2.053
 5686SOL     OW17956   3.197   6.095   7.004
 5686SOL    HW117957   3.102   6.063   7.012
 5686SOL    HW217958   3.218   6.113   6.908
 5687SOL     OW17959   5.100   5.312   5.816
 5687SOL    HW117960   5.145   5.381   5.760
 5687SOL    HW217961   5.063   5.240   5.757
 5688SOL     OW17962   5.904   1.835   1.834
 5688SOL    HW117963   5.847   1.769   1.883
 5688SOL    HW217964   5.846   1.906   1.793
 5689SOL     OW17965   3.541   2.548   0.616
 5689SOL    HW117966   3.561   2.645   0.631
 5689SOL    HW217967   3.528   2.531   0.519
 5690SOL     OW17968   5.029   6.616   1.386
 5690SOL    HW117969   5.114   6.566   1.373
 5690SOL    HW217970   5.007   6.668   1.303
 5691SOL     OW17971   1.800   0.311   2.280
 5691SOL    HW117972   1.823   0.354   2.367
 5691SOL    HW217973   1.731   0.240   2.295
 5692SOL     OW17974   5.307   3.016   6.700
 5692SOL    HW117975   5.358   3.089   6.654
 5692SOL    HW217976   5.292   2.941   6.636
 5693SOL     OW17977   4.549   2.623   3.183
 5693SOL    HW117978   4.526   2.533   3.220
 5693SOL    HW217979   4.600   2.675   3.252
 5694SOL     OW17980   0.076   1.589   4.181
 5694SOL    HW117981   0.102   1.647   4.258
 5694SOL    HW217982   0.130   1.615   4.101
 5695SOL     OW17983   1.770   3.521   3.436
 5695SOL    HW117984   1.726   3.609   3.452
 5695SOL    HW217985   1.768   3.499   3.338
 5696SOL     OW17986   3.058   6.984   5.323
 5696SOL    HW117987   3.053   6.958   5.227
 5696SOL    HW217988   3.123   0.037   5.333
 5697SOL     OW17989   6.578   3.185   0.296
 5697SOL    HW117990   6.584   3.107   0.234
 5697SOL    HW217991   6.644   3.255   0.267
 5698SOL     OW17992   0.347   4.261   2.195
 5698SOL    HW117993   0.363   4.234   2.100
 5698SOL    HW217994   0.271   4.326   2.199
 5699SOL     OW17995   5.960   0.978   5.286
 5699SOL    HW117996   5.876   0.969   5.232
 5699SOL    HW217997   6.027   1.033   5.236
 5700SOL     OW17998   1.223   5.641   3.439
 5700SOL    HW117999   1.221   5.720   3.378
 5700SOL    HW218000   1.318   5.614   3.456
 5701SOL     OW18001   5.807   5.109   1.520
 5701SOL    HW118002   5.781   5.013   1.519
 5701SOL    HW218003   5.871   5.128   1.446
 5702SOL     OW18004   1.826   0.620   6.596
 5702SOL    HW118005   1.812   0.568   6.680
 5702SOL    HW218006   1.914   0.668   6.602
 5703SOL     OW18007   3.929   4.142   0.639
 5703SOL    HW118008   3.887   4.152   0.729
 5703SOL    HW218009   4.028   4.154   0.647
 5704SOL     OW18010   3.486   5.419   3.489
 5704SOL    HW118011   3.576   5.376   3.494
 5704SOL    HW218012   3.473   5.478   3.569
 5705SOL     OW18013   5.923   1.268   1.739
 5705SOL    HW118014   5.960   1.360   1.722
 5705SOL    HW218015   5.955   1.205   1.668
 5706SOL     OW18016   1.860   1.317   6.831
 5706SOL    HW118017   1.844   1.223   6.860
 5706SOL    HW218018   1.819   1.331   6.741
 5707SOL     OW18019   3.153   2.445   0.045
 5707SOL    HW118020   3.114   2.356   0.023
 5707SOL    HW218021   3.137   2.465   0.142
 5708SOL     OW18022   5.298   6.793   1.665
 5708SOL    HW118023   5.325   6.711   1.614
 5708SOL    HW218024   5.198   6.798   1.669
 5709SOL     OW18025   1.548   0.854   2.875
 5709SOL    HW118026   1.492   0.773   2.860
 5709SOL    HW218027   1.584   0.886   2.787
 5710SOL     OW18028   3.178   3.408   6.476
 5710SOL    HW118029   3.107   3.392   6.408
 5710SOL    HW218030   3.229   3.323   6.492
 5711SOL     OW18031   3.912   1.127   3.922
 5711SOL    HW118032   3.854   1.203   3.891
 5711SOL    HW218033   3.919   1.059   3.850
 5712SOL     OW18034   6.711   6.009   6.367
 5712SOL    HW118035   6.779   5.982   6.299
 5712SOL    HW218036   6.626   5.957   6.352
 5713SOL     OW18037   6.385   1.928   2.786
 5713SOL    HW118038   6.471   1.895   2.824
 5713SOL    HW218039   6.403   1.981   2.703
 5714SOL     OW18040   1.748   1.071   6.950
 5714SOL    HW118041   1.697   0.992   6.983
 5714SOL    HW218042   1.845   1.062   6.975
 5715SOL     OW18043   1.478   6.534   3.436
 5715SOL    HW118044   1.514   6.594   3.507
 5715SOL    HW218045   1.446   6.448   3.477
 5716SOL     OW18046   2.408   3.217   6.235
 5716SOL    HW118047   2.412   3.242   6.139
 5716SOL    HW218048   2.313   3.198   6.261
 5717SOL     OW18049   0.613   3.892   0.847
 5717SOL    HW118050   0.700   3.899   0.798
 5717SOL    HW218051   0.542   3.939   0.794
 5718SOL     OW18052   2.404   4.349   5.525
 5718SOL    HW118053   2.329   4.415   5.519
 5718SOL    HW218054   2.399   4.286   5.448
 5719SOL     OW18055   3.558   1.034   6.480
 5719SOL    HW118056   3.595   1.041   6.387
 5719SOL    HW218057   3.526   0.940   6.496
 5720SOL     OW18058   1.538   4.881   4.360
 5720SOL    HW118059   1.613   4.828   4.322
 5720SOL    HW218060   1.526   4.965   4.306
 5721SOL     OW18061   0.765   4.427   1.404
 5721SOL    HW118062   0.674   4.390   1.419
 5721SOL    HW218063   0.797   4.472   1.488
 5722SOL     OW18064   5.491   0.258   4.482
 5722SOL    HW118065   5.502   0.265   4.581
 5722SOL    HW218066   5.394   0.257   4.460
 5723SOL     OW18067   2.235   5.108   0.769
 5723SOL    HW118068   2.282   5.105   0.857
 5723SOL    HW218069   2.255   5.195   0.724
 5724SOL     OW18070   5.177   1.880   6.890
 5724SOL    HW118071   5.211   1.937   6.816
 5724SOL    HW218072   5.163   1.787   6.857
 5725SOL     OW18073   5.006   5.163   6.295
 5725SOL    HW118074   4.977   5.200   6.207
 5725SOL    HW218075   4.930   5.164   6.359
 5726SOL     OW18076   5.590   3.398   6.127
 5726SOL    HW118077   5.559   3.333   6.058
 5726SOL    HW218078   5.614   3.484   6.083
 5727SOL     OW18079   6.556   1.943   4.091
 5727SOL    HW118080   6.592   1.865   4.142
 5727SOL    HW218081   6.466   1.920   4.055
 5728SOL     OW18082   6.330   0.555   6.140
 5728SOL    HW118083   6.236   0.530   6.116
 5728SOL    HW218084   6.329   0.634   6.201
 5729SOL     OW18085   0.379   2.313   5.885
 5729SOL    HW118086   0.393   2.337   5.981
 5729SOL    HW218087   0.460   2.338   5.832
 5730SOL     OW18088   5.243   4.486   6.127
 5730SOL    HW118089   5.275   4.393   6.105
 5730SOL    HW218090   5.317   4.536   6.173
 5731SOL     OW18091   3.382   0.877   4.038
 5731SOL    HW118092   3.425   0.965   4.018
 5731SOL    HW218093   3.367   0.827   3.953
 5732SOL     OW18094   5.662   4.180   4.730
 5732SOL    HW118095   5.613   4.262   4.702
 5732SOL    HW218096   5.700   4.194   4.822
 5733SOL     OW18097   3.022   1.241   0.408
 5733SOL    HW118098   2.981   1.257   0.317
 5733SOL    HW218099   2.951   1.252   0.478
 5734SOL     OW18100   2.499   6.106   5.797
 5734SOL    HW118101   2.474   6.194   5.757
 5734SOL    HW218102   2.598   6.102   5.812
 5735SOL     OW18103   3.996   0.615   1.868
 5735SOL    HW118104   4.040   0.551   1.931
 5735SOL    HW218105   3.897   0.601   1.868
 5736SOL     OW18106   5.006   4.440   6.567
 5736SOL    HW118107   5.096   4.469   6.534
 5736SOL    HW218108   4.943   4.519   6.567
 5737SOL     OW18109   3.948   5.410   0.875
 5737SOL    HW118110   3.967   5.450   0.785
 5737SOL    HW218111   3.869   5.349   0.867
 5738SOL     OW18112   3.096   1.427   7.000
 5738SOL    HW118113   3.047   1.350   0.018
 5738SOL    HW218114   3.046   1.512   7.018
 5739SOL     OW18115   2.155   0.709   5.532
 5739SOL    HW118116   2.214   0.692   5.611
 5739SOL    HW218117   2.088   0.780   5.555
 5740SOL     OW18118   5.483   3.108   2.372
 5740SOL    HW118119   5.568   3.150   2.339
 5740SOL    HW218120   5.412   3.178   2.380
 5741SOL     OW18121   0.194   3.664   4.531
 5741SOL    HW118122   0.238   3.608   4.461
 5741SOL    HW218123   0.239   3.753   4.537
 5742SOL     OW18124   5.149   0.510   4.068
 5742SOL    HW118125   5.175   0.606   4.073
 5742SOL    HW218126   5.199   0.458   4.137
 5743SOL     OW18127   4.169   3.501   6.366
 5743SOL    HW118128   4.178   3.595   6.399
 5743SOL    HW218129   4.213   3.493   6.276
 5744SOL     OW18130   5.806   6.853   2.673
 5744SOL    HW118131   5.802   6.889   2.580
 5744SOL    HW218132   5.714   6.850   2.712
 5745SOL     OW18133   1.938   2.164   2.094
 5745SOL    HW118134   2.026   2.149   2.138
 5745SOL    HW218135   1.886   2.232   2.146
 5746SOL     OW18136   4.373   0.324   3.665
 5746SOL    HW118137   4.341   0.418   3.678
 5746SOL    HW218138   4.414   0.314   3.575
 5747SOL     OW18139   0.599   6.163   0.855
 5747SOL    HW118140   0.538   6.233   0.891
 5747SOL    HW218141   0.641   6.113   0.931
 5748SOL     OW18142   0.789   5.713   0.392
 5748SOL    HW118143   0.775   5.773   0.471
 5748SOL    HW218144   0.797   5.769   0.309
 5749SOL     OW18145   1.726   5.878   5.834
 5749SOL    HW118146   1.728   5.972   5.802
 5749SOL    HW218147   1.640   5.835   5.806
 5750SOL     OW18148   6.222   4.768   4.311
 5750SOL    HW118149   6.162   4.736   4.238
 5750SOL    HW218150   6.233   4.867   4.304
 5751SOL     OW18151   1.818   3.683   4.262
 5751SOL    HW118152   1.818   3.759   4.327
 5751SOL    HW218153   1.902   3.629   4.274
 5752SOL     OW18154   5.357   0.441   0.531
 5752SOL    HW118155   5.368   0.349   0.492
 5752SOL    HW218156   5.273   0.444   0.584
 5753SOL     OW18157   3.462   4.160   5.016
 5753SOL    HW118158   3.499   4.087   4.960
 5753SOL    HW218159   3.363   4.148   5.026
 5754SOL     OW18160   1.013   5.915   1.316
 5754SOL    HW118161   0.918   5.933   1.292
 5754SOL    HW218162   1.037   5.967   1.398
 5755SOL     OW18163   1.365   2.584   6.696
 5755SOL    HW118164   1.295   2.626   6.753
 5755SOL    HW218165   1.324   2.551   6.611
 5756SOL     OW18166   5.893   5.994   1.272
 5756SOL    HW118167   5.945   5.914   1.242
 5756SOL    HW218168   5.921   6.074   1.219
 5757SOL     OW18169   6.216   6.869   4.182
 5757SOL    HW118170   6.122   6.837   4.194
 5757SOL    HW218171   6.264   6.809   4.119
 5758SOL     OW18172   0.085   0.312   2.525
 5758SOL    HW118173   0.002   0.280   2.479
 5758SOL    HW218174   0.165   0.291   2.469
 5759SOL     OW18175   4.070   0.092   1.090
 5759SOL    HW118176   4.058   0.158   1.165
 5759SOL    HW218177   4.108   0.139   1.010
 5760SOL     OW18178   0.871   3.013   1.326
 5760SOL    HW118179   0.850   3.052   1.416
 5760SOL    HW218180   0.787   3.005   1.273
 5761SOL     OW18181   5.682   6.316   4.587
 5761SOL    HW118182   5.775   6.344   4.611
 5761SOL    HW218183   5.667   6.221   4.615
 5762SOL     OW18184   5.924   5.089   6.860
 5762SOL    HW118185   5.881   4.999   6.867
 5762SOL    HW218186   5.981   5.105   6.940
 5763SOL     OW18187   5.362   0.179   0.467
 5763SOL    HW118188   5.377   0.147   0.373
 5763SOL    HW218189   5.274   0.144   0.501
 5764SOL     OW18190   4.164   6.163   4.087
 5764SOL    HW118191   4.067   6.163   4.062
 5764SOL    HW218192   4.218   6.198   4.011
 5765SOL     OW18193   6.493   5.566   1.375
 5765SOL    HW118194   6.526   5.638   1.437
 5765SOL    HW218195   6.415   5.520   1.417
 5766SOL     OW18196   0.327   2.030   4.378
 5766SOL    HW118197   0.385   2.111   4.366
 5766SOL    HW218198   0.384   1.951   4.402
 5767SOL     OW18199   2.640   0.340   0.324
 5767SOL    HW118200   2.600   0.396   0.397
 5767SOL    HW218201   2.570   0.277   0.289
 5768SOL     OW18202   0.617   6.696   4.803
 5768SOL    HW118203   0.617   6.681   4.704
 5768SOL    HW218204   0.629   6.608   4.849
 5769SOL     OW18205   1.354   4.572   6.367
 5769SOL    HW118206   1.392   4.486   6.403
 5769SOL    HW218207   1.353   4.641   6.440
 5770SOL     OW18208   2.207   4.733   1.703
 5770SOL    HW118209   2.292   4.782   1.683
 5770SOL    HW218210   2.209   4.642   1.662
 5771SOL     OW18211   2.085   5.331   3.684
 5771SOL    HW118212   2.142   5.296   3.759
 5771SOL    HW218213   2.138   5.334   3.600
 5772SOL     OW18214   4.025   0.551   2.269
 5772SOL    HW118215   4.120   0.579   2.279
 5772SOL    HW218216   4.008   0.526   2.174
 5773SOL     OW18217   4.121   2.128   2.931
 5773SOL    HW118218   4.164   2.070   2.999
 5773SOL    HW218219   4.103   2.075   2.848
 5774SOL     OW18220   0.173   6.334   2.631
 5774SOL    HW118221   0.074   6.329   2.643
 5774SOL    HW218222   0.217   6.350   2.719
 5775SOL     OW18223   0.042   5.650   1.951
 5775SOL    HW118224   0.100   5.635   1.871
 5775SOL    HW218225   0.083   5.605   2.031
 5776SOL     OW18226   2.066   0.356   4.098
 5776SOL    HW118227   1.986   0.310   4.058
 5776SOL    HW218228   2.115   0.405   4.026
 5777SOL     OW18229   2.087   6.647   3.227
 5777SOL    HW118230   1.997   6.684   3.202
 5777SOL    HW218231   2.081   6.607   3.319
 5778SOL     OW18232   0.802   1.454   0.511
 5778SOL    HW118233   0.745   1.488   0.586
 5778SOL    HW218234   0.870   1.523   0.487
 5779SOL     OW18235   5.621   2.494   0.019
 5779SOL    HW118236   5.695   2.560   0.028
 5779SOL    HW218237   5.534   2.539   0.037
 5780SOL     OW18238   5.574   5.595   3.807
 5780SOL    HW118239   5.480   5.628   3.819
 5780SOL    HW218240   5.576   5.495   3.818
 5781SOL     OW18241   0.772   4.126   5.673
 5781SOL    HW118242   0.844   4.114   5.606
 5781SOL    HW218243   0.793   4.205   5.732
 5782SOL     OW18244   0.007   1.224   0.577
 5782SOL    HW118245   0.051   1.158   0.638
 5782SOL    HW218246   0.038   1.209   0.483
 5783SOL     OW18247   1.804   1.749   1.550
 5783SOL    HW118248   1.739   1.689   1.597
 5783SOL    HW218249   1.793   1.843   1.583
 5784SOL     OW18250   0.520   6.320   6.636
 5784SOL    HW118251   0.530   6.222   6.617
 5784SOL    HW218252   0.571   6.373   6.569
 5785SOL     OW18253   1.607   1.646   0.716
 5785SOL    HW118254   1.591   1.588   0.636
 5785SOL    HW218255   1.704   1.670   0.720
 5786SOL     OW18256   6.346   4.229   0.976
 5786SOL    HW118257   6.324   4.231   1.074
 5786SOL    HW218258   6.337   4.136   0.942
 5787SOL     OW18259   3.056   1.885   5.865
 5787SOL    HW118260   3.063   1.786   5.880
 5787SOL    HW218261   3.095   1.934   5.943
 5788SOL     OW18262   3.344   0.920   2.781
 5788SOL    HW118263   3.415   0.989   2.769
 5788SOL    HW218264   3.303   0.900   2.692
 5789SOL     OW18265   4.028   4.939   5.771
 5789SOL    HW118266   4.111   4.885   5.780
 5789SOL    HW218267   3.977   4.939   5.857
 5790SOL     OW18268   0.837   2.759   3.999
 5790SOL    HW118269   0.779   2.828   4.042
 5790SOL    HW218270   0.933   2.780   4.015
 5791SOL     OW18271   2.918   0.282   2.597
 5791SOL    HW118272   2.878   0.196   2.568
 5791SOL    HW218273   2.903   0.295   2.695
 5792SOL     OW18274   6.792   2.189   3.211
 5792SOL    HW118275   6.856   2.151   3.277
 5792SOL    HW218276   6.784   2.288   3.224
 5793SOL     OW18277   6.196   1.016   3.846
 5793SOL    HW118278   6.242   1.092   3.802
 5793SOL    HW218279   6.234   1.001   3.937
 5794SOL     OW18280   3.699   3.589   6.782
 5794SOL    HW118281   3.744   3.669   6.821
 5794SOL    HW218282   3.739   3.506   6.821
 5795SOL     OW18283   5.857   4.239   5.709
 5795SOL    HW118284   5.889   4.333   5.698
 5795SOL    HW218285   5.934   4.181   5.736
 5796SOL     OW18286   3.565   2.141   6.947
 5796SOL    HW118287   3.661   2.114   6.955
 5796SOL    HW218288   3.515   2.071   6.896
 5797SOL     OW18289   3.444   1.903   4.821
 5797SOL    HW118290   3.442   1.931   4.917
 5797SOL    HW218291   3.360   1.933   4.776
 5798SOL     OW18292   6.799   4.517   5.288
 5798SOL    HW118293   6.772   4.487   5.379
 5798SOL    HW218294   6.727   4.574   5.248
 5799SOL     OW18295   5.610   6.854   3.434
 5799SOL    HW118296   5.537   6.786   3.445
 5799SOL    HW218297   5.649   6.876   3.523
 5800SOL     OW18298   5.627   4.882   0.470
 5800SOL    HW118299   5.630   4.805   0.405
 5800SOL    HW218300   5.533   4.915   0.478
 5801SOL     OW18301   1.129   0.961   3.859
 5801SOL    HW118302   1.119   1.060   3.852
 5801SOL    HW218303   1.068   0.927   3.931
 5802SOL     OW18304   0.268   3.976   6.127
 5802SOL    HW118305   0.233   3.884   6.146
 5802SOL    HW218306   0.367   3.973   6.114
 5803SOL     OW18307   1.345   4.580   0.873
 5803SOL    HW118308   1.320   4.668   0.834
 5803SOL    HW218309   1.444   4.577   0.888
 5804SOL     OW18310   5.918   4.047   4.306
 5804SOL    HW118311   5.934   4.096   4.392
 5804SOL    HW218312   6.000   3.996   4.281
 5805SOL     OW18313   5.248   3.727   6.178
 5805SOL    HW118314   5.208   3.641   6.209
 5805SOL    HW218315   5.309   3.710   6.100
 5806SOL     OW18316   0.267   6.575   0.375
 5806SOL    HW118317   0.294   6.602   0.283
 5806SOL    HW218318   0.172   6.600   0.391
 5807SOL     OW18319   1.497   3.496   1.166
 5807SOL    HW118320   1.515   3.553   1.086
 5807SOL    HW218321   1.506   3.551   1.249
 5808SOL     OW18322   5.643   4.594   2.377
 5808SOL    HW118323   5.599   4.669   2.328
 5808SOL    HW218324   5.604   4.507   2.347
 5809SOL     OW18325   0.062   3.432   4.521
 5809SOL    HW118326   7.013   3.407   4.587
 5809SOL    HW218327   0.083   3.529   4.529
 5810SOL     OW18328   3.140   1.515   3.483
 5810SOL    HW118329   3.210   1.577   3.447
 5810SOL    HW218330   3.179   1.424   3.496
 5811SOL     OW18331   2.789   0.234   4.265
 5811SOL    HW118332   2.694   0.241   4.295
 5811SOL    HW218333   2.798   0.161   4.198
 5812SOL     OW18334   4.862   0.192   3.502
 5812SOL    HW118335   4.950   0.190   3.456
 5812SOL    HW218336   4.816   0.280   3.483
 5813SOL     OW18337   1.661   1.000   5.219
 5813SOL    HW118338   1.749   1.034   5.250
 5813SOL    HW218339   1.657   0.901   5.232
 5814SOL     OW18340   6.830   4.895   1.359
 5814SOL    HW118341   6.752   4.909   1.419
 5814SOL    HW218342   6.812   4.816   1.300
 5815SOL     OW18343   3.730   1.893   3.100
 5815SOL    HW118344   3.659   1.961   3.078
 5815SOL    HW218345   3.819   1.928   3.069
 5816SOL     OW18346   4.649   0.940   0.191
 5816SOL    HW118347   4.654   0.905   0.284
 5816SOL    HW218348   4.687   0.872   0.128
 5817SOL     OW18349   5.164   3.045   5.701
 5817SOL    HW118350   5.129   3.059   5.609
 5817SOL    HW218351   5.120   3.110   5.764
 5818SOL     OW18352   5.541   0.152   6.003
 5818SOL    HW118353   5.513   0.248   5.998
 5818SOL    HW218354   5.512   0.104   5.920
 5819SOL     OW18355   5.589   0.569   1.254
 5819SOL    HW118356   5.590   0.527   1.344
 5819SOL    HW218357   5.542   0.657   1.259
 5820SOL     OW18358   5.383   6.694   3.434
 5820SOL    HW118359   5.296   6.695   3.386
 5820SOL    HW218360   5.443   6.625   3.394
 5821SOL     OW18361   3.037   0.618   1.830
 5821SOL    HW118362   2.972   0.575   1.892
 5821SOL    HW218363   3.075   0.549   1.768
 5822SOL     OW18364   0.566   1.928   2.432
 5822SOL    HW118365   0.560   1.945   2.530
 5822SOL    HW218366   0.637   1.985   2.392
 5823SOL     OW18367   1.567   1.640   4.588
 5823SOL    HW118368   1.532   1.624   4.496
 5823SOL    HW218369   1.526   1.574   4.651
 5824SOL     OW18370   5.847   6.609   3.282
 5824SOL    HW118371   5.866   6.524   3.332
 5824SOL    HW218372   5.830   6.683   3.347
 5825SOL     OW18373   2.472   0.655   0.000
 5825SOL    HW118374   2.551   0.682   6.968
 5825SOL    HW218375   2.399   0.723   7.012
 5826SOL     OW18376   6.747   6.237   4.950
 5826SOL    HW118377   6.666   6.295   4.951
 5826SOL    HW218378   6.719   6.141   4.941
 5827SOL     OW18379   0.616   5.677   4.884
 5827SOL    HW118380   0.585   5.695   4.791
 5827SOL    HW218381   0.593   5.754   4.943
 5828SOL     OW18382   0.368   3.456   2.836
 5828SOL    HW118383   0.274   3.467   2.867
 5828SOL    HW218384   0.372   3.390   2.761
 5829SOL     OW18385   2.746   1.264   1.655
 5829SOL    HW118386   2.721   1.168   1.658
 5829SOL    HW218387   2.823   1.281   1.717
 5830SOL     OW18388   3.505   1.030   5.860
 5830SOL    HW118389   3.495   1.123   5.895
 5830SOL    HW218390   3.442   1.016   5.784
 5831SOL     OW18391   5.709   6.858   2.988
 5831SOL    HW118392   5.782   6.926   2.999
 5831SOL    HW218393   5.626   6.890   3.033
 5832SOL     OW18394   4.229   3.565   4.981
 5832SOL    HW118395   4.251   3.606   4.892
 5832SOL    HW218396   4.173   3.628   5.034
 5833SOL     OW18397   3.215   3.564   4.079
 5833SOL    HW118398   3.241   3.555   3.983
 5833SOL    HW218399   3.117   3.548   4.089
 5834SOL     OW18400   5.838   1.683   0.768
 5834SOL    HW118401   5.841   1.675   0.868
 5834SOL    HW218402   5.766   1.748   0.743
 5835SOL     OW18403   5.063   2.284   3.760
 5835SOL    HW118404   5.056   2.306   3.858
 5835SOL    HW218405   5.158   2.268   3.736
 5836SOL     OW18406   3.664   6.316   1.927
 5836SOL    HW118407   3.624   6.228   1.904
 5836SOL    HW218408   3.592   6.385   1.937
 5837SOL     OW18409   4.772   4.241   0.322
 5837SOL    HW118410   4.829   4.207   0.249
 5837SOL    HW218411   4.816   4.320   0.366
 5838SOL     OW18412   1.457   1.618   5.649
 5838SOL    HW118413   1.524   1.627   5.575
 5838SOL    HW218414   1.483   1.541   5.707
 5839SOL     OW18415   6.685   3.090   3.129
 5839SOL    HW118416   6.638   3.153   3.067
 5839SOL    HW218417   6.654   3.106   3.223
 5840SOL     OW18418   1.780   5.188   6.918
 5840SOL    HW118419   1.874   5.204   6.886
 5840SOL    HW218420   1.782   5.158   7.013
 5841SOL     OW18421   6.230   2.947   3.628
 5841SOL    HW118422   6.298   2.909   3.566
 5841SOL    HW218423   6.258   2.931   3.723
 5842SOL     OW18424   4.341   3.002   0.949
 5842SOL    HW118425   4.387   3.091   0.939
 5842SOL    HW218426   4.264   3.011   1.012
 5843SOL     OW18427   1.808   2.813   2.613
 5843SOL    HW118428   1.848   2.839   2.525
 5843SOL    HW218429   1.771   2.720   2.607
 5844SOL     OW18430   0.518   6.028   6.053
 5844SOL    HW118431   0.521   5.975   6.138
 5844SOL    HW218432   0.476   5.973   5.981
 5845SOL     OW18433   1.233   2.422   4.052
 5845SOL    HW118434   1.150   2.439   3.998
 5845SOL    HW218435   1.262   2.508   4.095
 5846SOL     OW18436   7.020   2.459   5.457
 5846SOL    HW118437   6.985   2.449   5.364
 5846SOL    HW218438   7.004   2.552   5.489
 5847SOL     OW18439   1.989   2.558   2.769
 5847SOL    HW118440   2.032   2.640   2.809
 5847SOL    HW218441   1.901   2.542   2.813
 5848SOL     OW18442   1.662   5.064   3.046
 5848SOL    HW118443   1.685   5.057   2.949
 5848SOL    HW218444   1.731   5.018   3.101
 5849SOL     OW18445   1.715   0.376   5.895
 5849SOL    HW118446   1.638   0.372   5.832
 5849SOL    HW218447   1.783   0.307   5.869
 5850SOL     OW18448   1.010   4.610   2.346
 5850SOL    HW118449   0.994   4.650   2.256
 5850SOL    HW218450   0.937   4.637   2.409
 5851SOL     OW18451   6.085   4.050   2.394
 5851SOL    HW118452   6.098   3.951   2.398
 5851SOL    HW218453   5.995   4.074   2.430
 5852SOL     OW18454   3.984   5.974   2.163
 5852SOL    HW118455   3.936   5.938   2.083
 5852SOL    HW218456   3.958   5.923   2.244
 5853SOL     OW18457   2.798   4.484   5.972
 5853SOL    HW118458   2.851   4.443   5.898
 5853SOL    HW218459   2.700   4.471   5.955
 5854SOL     OW18460   6.917   1.722   5.866
 5854SOL    HW118461   6.839   1.784   5.868
 5854SOL    HW218462   6.951   1.715   5.772
 5855SOL     OW18463   1.490   1.129   4.735
 5855SOL    HW118464   1.393   1.106   4.738
 5855SOL    HW218465   1.522   1.151   4.828
 5856SOL     OW18466   2.073   5.375   3.196
 5856SOL    HW118467   2.087   5.290   3.145
 5856SOL    HW218468   2.137   5.378   3.273
 5857SOL     OW18469   6.851   2.545   4.674
 5857SOL    HW118470   6.782   2.474   4.662
 5857SOL    HW218471   6.838   2.616   4.604
 5858SOL     OW18472   3.339   1.076   2.386
 5858SOL    HW118473   3.435   1.049   2.399
 5858SOL    HW218474   3.332   1.139   2.309
 5859SOL     OW18475   6.775   6.581   1.211
 5859SOL    HW118476   6.724   6.662   1.182
 5859SOL    HW218477   6.849   6.563   1.146
 5860SOL     OW18478   1.530   4.441   1.743
 5860SOL    HW118479   1.461   4.374   1.771
 5860SOL    HW218480   1.492   4.501   1.672
 5861SOL     OW18481   5.396   2.485   4.324
 5861SOL    HW118482   5.492   2.507   4.342
 5861SOL    HW218483   5.362   2.545   4.251
 5862SOL     OW18484   4.091   5.080   2.715
 5862SOL    HW118485   4.017   5.084   2.782
 5862SOL    HW218486   4.132   4.988   2.715
 5863SOL     OW18487   2.062   0.701   6.110
 5863SOL    HW118488   2.041   0.790   6.069
 5863SOL    HW218489   2.095   0.638   6.040
 5864SOL     OW18490   4.105   4.236   1.651
 5864SOL    HW118491   4.094   4.160   1.587
 5864SOL    HW218492   4.176   4.212   1.718
 5865SOL     OW18493   5.087   0.803   3.175
 5865SOL    HW118494   5.064   0.823   3.270
 5865SOL    HW218495   5.187   0.809   3.163
 5866SOL     OW18496   4.020   6.321   5.635
 5866SOL    HW118497   4.116   6.293   5.636
 5866SOL    HW218498   3.964   6.248   5.597
 5867SOL     OW18499   0.765   3.082   1.744
 5867SOL    HW118500   0.718   3.020   1.807
 5867SOL    HW218501   0.838   3.130   1.793
 5868SOL     OW18502   1.429   0.213   5.995
 5868SOL    HW118503   1.424   0.282   5.922
 5868SOL    HW218504   1.407   0.123   5.957
 5869SOL     OW18505   2.569   4.692   4.676
 5869SOL    HW118506   2.556   4.597   4.647
 5869SOL    HW218507   2.600   4.694   4.771
 5870SOL     OW18508   5.144   5.184   4.121
 5870SOL    HW118509   5.061   5.158   4.171
 5870SOL    HW218510   5.196   5.102   4.098
 5871SOL     OW18511   3.776   2.816   0.488
 5871SOL    HW118512   3.842   2.885   0.516
 5871SOL    HW218513   3.706   2.805   0.559
 5872SOL     OW18514   3.842   5.912   6.007
 5872SOL    HW118515   3.890   5.988   5.961
 5872SOL    HW218516   3.746   5.913   5.980
 5873SOL     OW18517   3.224   3.327   6.930
 5873SOL    HW118518   3.152   3.296   6.868
 5873SOL    HW218519   3.196   3.308   0.002
 5874SOL     OW18520   2.468   3.594   1.650
 5874SOL    HW118521   2.449   3.530   1.724
 5874SOL    HW218522   2.393   3.660   1.642
 5875SOL     OW18523   3.488   2.035   0.164
 5875SOL    HW118524   3.508   2.059   0.259
 5875SOL    HW218525   3.537   2.098   0.104
 5876SOL     OW18526   3.058   3.767   6.711
 5876SOL    HW118527   3.069   3.852   6.763
 5876SOL    HW218528   2.993   3.782   6.637
 5877SOL     OW18529   6.507   0.694   1.994
 5877SOL    HW118530   6.443   0.695   2.071
 5877SOL    HW218531   6.600   0.709   2.029
 5878SOL     OW18532   4.638   4.757   2.139
 5878SOL    HW118533   4.548   4.790   2.110
 5878SOL    HW218534   4.706   4.828   2.123
 5879SOL     OW18535   3.562   3.038   6.172
 5879SOL    HW118536   3.658   3.058   6.191
 5879SOL    HW218537   3.505   3.067   6.249
 5880SOL     OW18538   4.925   3.129   5.545
 5880SOL    HW118539   4.847   3.078   5.582
 5880SOL    HW218540   4.906   3.227   5.548
 5881SOL     OW18541   1.341   6.551   2.000
 5881SOL    HW118542   1.247   6.585   2.010
 5881SOL    HW218543   1.371   6.511   2.086
 5882SOL     OW18544   1.413   5.749   6.122
 5882SOL    HW118545   1.391   5.656   6.151
 5882SOL    HW218546   1.511   5.756   6.102
 5883SOL     OW18547   0.126   4.055   0.945
 5883SOL    HW118548   0.089   4.124   0.883
 5883SOL    HW218549   0.062   4.043   1.022
 5884SOL     OW18550   6.298   1.852   3.990
 5884SOL    HW118551   6.259   1.775   3.939
 5884SOL    HW218552   6.242   1.871   4.071
 5885SOL     OW18553   0.513   5.364   0.006
 5885SOL    HW118554   0.439   5.430   7.019
 5885SOL    HW218555   0.578   5.374   6.953
 5886SOL     OW18556   1.482   4.059   3.577
 5886SOL    HW118557   1.389   4.093   3.565
 5886SOL    HW218558   1.483   3.960   3.561
 5887SOL     OW18559   2.061   3.015   0.855
 5887SOL    HW118560   1.988   3.083   0.846
 5887SOL    HW218561   2.023   2.923   0.851
 5888SOL     OW18562   3.125   0.028   1.034
 5888SOL    HW118563   3.126   6.954   1.063
 5888SOL    HW218564   3.203   0.076   1.074
 5889SOL     OW18565   6.932   0.661   1.389
 5889SOL    HW118566   6.986   0.615   1.319
 5889SOL    HW218567   6.965   0.636   1.480
 5890SOL     OW18568   2.802   6.277   2.412
 5890SOL    HW118569   2.746   6.202   2.448
 5890SOL    HW218570   2.773   6.298   2.318
 5891SOL     OW18571   2.467   3.509   0.706
 5891SOL    HW118572   2.539   3.440   0.715
 5891SOL    HW218573   2.394   3.474   0.648
 5892SOL     OW18574   0.924   3.480   0.896
 5892SOL    HW118575   0.998   3.525   0.846
 5892SOL    HW218576   0.882   3.411   0.838
 5893SOL     OW18577   0.895   5.588   1.971
 5893SOL    HW118578   0.995   5.598   1.975
 5893SOL    HW218579   0.854   5.640   2.046
 5894SOL     OW18580   2.000   5.813   5.893
 5894SOL    HW118581   1.980   5.720   5.861
 5894SOL    HW218582   1.914   5.861   5.910
 5895SOL     OW18583   5.562   2.882   4.419
 5895SOL    HW118584   5.464   2.882   4.441
 5895SOL    HW218585   5.590   2.789   4.394
 5896SOL     OW18586   5.994   2.538   1.796
 5896SOL    HW118587   5.963   2.631   1.775
 5896SOL    HW218588   5.917   2.484   1.829
 5897SOL     OW18589   4.502   1.705   0.827
 5897SOL    HW118590   4.485   1.748   0.738
 5897SOL    HW218591   4.585   1.743   0.868
 5898SOL     OW18592   2.078   1.579   5.675
 5898SOL    HW118593   2.086   1.479   5.680
 5898SOL    HW218594   2.120   1.611   5.591
 5899SOL     OW18595   6.723   5.120   5.523
 5899SOL    HW118596   6.752   5.034   5.481
 5899SOL    HW218597   6.700   5.186   5.452
 5900SOL     OW18598   6.180   6.270   3.232
 5900SOL    HW118599   6.271   6.230   3.239
 5900SOL    HW218600   6.171   6.318   3.144
 5901SOL     OW18601   2.166   0.345   5.857
 5901SOL    HW118602   2.147   0.286   5.935
 5901SOL    HW218603   2.257   0.386   5.867
 5902SOL     OW18604   4.994   4.455   5.168
 5902SOL    HW118605   4.965   4.491   5.079
 5902SOL    HW218606   4.928   4.386   5.199
 5903SOL     OW18607   6.201   1.931   6.346
 5903SOL    HW118608   6.122   1.955   6.290
 5903SOL    HW218609   6.282   1.980   6.313
 5904SOL     OW18610   1.992   4.223   2.587
 5904SOL    HW118611   1.934   4.252   2.664
 5904SOL    HW218612   2.018   4.303   2.533
 5905SOL     OW18613   6.142   1.303   4.601
 5905SOL    HW118614   6.050   1.306   4.640
 5905SOL    HW218615   6.200   1.246   4.658
 5906SOL     OW18616   5.013   0.327   5.231
 5906SOL    HW118617   4.927   0.378   5.223
 5906SOL    HW218618   5.020   0.262   5.155
 5907SOL     OW18619   1.744   2.725   6.890
 5907SOL    HW118620   1.758   2.800   6.955
 5907SOL    HW218621   1.669   2.748   6.828
 5908SOL     OW18622   4.465   3.281   6.221
 5908SOL    HW118623   4.514   3.368   6.217
 5908SOL    HW218624   4.522   3.209   6.181
 5909SOL     OW18625   6.926   5.061   4.397
 5909SOL    HW118626   6.871   5.035   4.476
 5909SOL    HW218627   6.903   5.003   4.319
 5910SOL     OW18628   2.331   4.077   1.535
 5910SOL    HW118629   2.330   4.033   1.625
 5910SOL    HW218630   2.378   4.018   1.470
 5911SOL     OW18631   6.534   6.271   6.158
 5911SOL    HW118632   6.543   6.317   6.246
 5911SOL    HW218633   6.476   6.190   6.170
 5912SOL     OW18634   6.615   3.888   6.740
 5912SOL    HW118635   6.665   3.838   6.668
 5912SOL    HW218636   6.647   3.982   6.743
 5913SOL     OW18637   1.953   1.500   5.970
 5913SOL    HW118638   1.995   1.539   5.889
 5913SOL    HW218639   1.951   1.400   5.962
 5914SOL     OW18640   1.775   6.112   0.301
 5914SOL    HW118641   1.703   6.135   0.234
 5914SOL    HW218642   1.860   6.157   0.274
 5915SOL     OW18643   4.831   2.615   2.553
 5915SOL    HW118644   4.893   2.613   2.474
 5915SOL    HW218645   4.783   2.702   2.557
 5916SOL     OW18646   3.870   0.207   6.020
 5916SOL    HW118647   3.836   0.130   5.966
 5916SOL    HW218648   3.793   0.261   6.054
 5917SOL     OW18649   3.159   3.757   3.117
 5917SOL    HW118650   3.201   3.814   3.188
 5917SOL    HW218651   3.083   3.705   3.157
 5918SOL     OW18652   2.156   3.299   4.250
 5918SOL    HW118653   2.151   3.318   4.348
 5918SOL    HW218654   2.182   3.204   4.235
 5919SOL     OW18655   1.772   2.941   6.487
 5919SOL    HW118656   1.865   2.919   6.456
 5919SOL    HW218657   1.777   3.011   6.558
 5920SOL     OW18658   3.696   0.061   7.005
 5920SOL    HW118659   3.695   6.990   0.017
 5920SOL    HW218660   3.626   0.071   6.933
 5921SOL     OW18661   4.020   4.916   5.042
 5921SOL    HW118662   4.090   4.974   5.084
 5921SOL    HW218663   3.992   4.846   5.107
 5922SOL     OW18664   6.157   4.506   2.894
 5922SOL    HW118665   6.177   4.596   2.855
 5922SOL    HW218666   6.127   4.445   2.821
 5923SOL     OW18667   0.301   6.568   3.674
 5923SOL    HW118668   0.226   6.525   3.724
 5923SOL    HW218669   0.264   6.638   3.612
 5924SOL     OW18670   5.163   2.400   4.793
 5924SOL    HW118671   5.222   2.400   4.712
 5924SOL    HW218672   5.191   2.325   4.854
 5925SOL     OW18673   5.672   5.814   1.142
 5925SOL    HW118674   5.644   5.845   1.051
 5925SOL    HW218675   5.707   5.892   1.194
 5926SOL     OW18676   3.620   5.054   1.261
 5926SOL    HW118677   3.591   4.980   1.322
 5926SOL    HW218678   3.540   5.092   1.214
 5927SOL     OW18679   2.992   5.567   2.737
 5927SOL    HW118680   3.001   5.571   2.836
 5927SOL    HW218681   3.073   5.609   2.695
 5928SOL     OW18682   1.607   0.103   2.594
 5928SOL    HW118683   1.701   0.097   2.563
 5928SOL    HW218684   1.588   0.028   2.657
 5929SOL     OW18685   1.370   6.852   6.658
 5929SOL    HW118686   1.273   6.839   6.638
 5929SOL    HW218687   1.398   6.788   6.730
 5930SOL     OW18688   6.689   1.329   4.460
 5930SOL    HW118689   6.616   1.379   4.507
 5930SOL    HW218690   6.766   1.390   4.443
 5931SOL     OW18691   6.717   5.517   1.212
 5931SOL    HW118692   6.748   5.425   1.234
 5931SOL    HW218693   6.628   5.534   1.257
 5932SOL     OW18694   3.051   0.036   0.756
 5932SOL    HW118695   3.098   0.031   0.844
 5932SOL    HW218696   3.092   6.993   0.693
 5933SOL     OW18697   6.721   3.859   3.244
 5933SOL    HW118698   6.798   3.875   3.182
 5933SOL    HW218699   6.712   3.936   3.307
 5934SOL     OW18700   3.857   3.512   3.002
 5934SOL    HW118701   3.943   3.483   3.044
 5934SOL    HW218702   3.795   3.544   3.073
 5935SOL     OW18703   4.182   3.543   3.989
 5935SOL    HW118704   4.265   3.511   3.943
 5935SOL    HW218705   4.116   3.468   3.995
 5936SOL     OW18706   5.327   5.481   6.147
 5936SOL    HW118707   5.333   5.400   6.087
 5936SOL    HW218708   5.258   5.543   6.111
 5937SOL     OW18709   1.989   3.520   1.072
 5937SOL    HW118710   1.982   3.435   1.124
 5937SOL    HW218711   1.955   3.506   0.979
 5938SOL     OW18712   1.531   4.425   2.688
 5938SOL    HW118713   1.565   4.435   2.594
 5938SOL    HW218714   1.536   4.329   2.715
 5939SOL     OW18715   3.834   7.013   2.820
 5939SOL    HW118716   3.899   0.040   2.878
 5939SOL    HW218717   3.876   6.991   2.732
 5940SOL     OW18718   3.991   6.226   2.962
 5940SOL    HW118719   3.999   6.257   3.057
 5940SOL    HW218720   3.981   6.306   2.902
 5941SOL     OW18721   6.234   4.971   2.570
 5941SOL    HW118722   6.270   5.060   2.542
 5941SOL    HW218723   6.134   4.971   2.560
 5942SOL     OW18724   4.129   2.905   6.220
 5942SOL    HW118725   4.113   2.807   6.226
 5942SOL    HW218726   4.220   2.926   6.257
 5943SOL     OW18727   1.429   5.789   0.368
 5943SOL    HW118728   1.477   5.849   0.432
 5943SOL    HW218729   1.330   5.800   0.379
 5944SOL     OW18730   5.171   1.678   2.509
 5944SOL    HW118731   5.207   1.770   2.494
 5944SOL    HW218732   5.245   1.611   2.504
 5945SOL     OW18733   6.406   4.754   5.738
 5945SOL    HW118734   6.422   4.844   5.778
 5945SOL    HW218735   6.485   4.726   5.684
 5946SOL     OW18736   4.517   2.849   5.684
 5946SOL    HW118737   4.564   2.937   5.688
 5946SOL    HW218738   4.513   2.817   5.589
 5947SOL     OW18739   4.338   3.505   1.664
 5947SOL    HW118740   4.352   3.596   1.626
 5947SOL    HW218741   4.355   3.507   1.763
 5948SOL     OW18742   3.788   4.909   2.612
 5948SOL    HW118743   3.834   4.969   2.677
 5948SOL    HW218744   3.819   4.815   2.625
 5949SOL     OW18745   4.557   4.777   1.326
 5949SOL    HW118746   4.467   4.780   1.369
 5949SOL    HW218747   4.624   4.818   1.387
 5950SOL     OW18748   6.445   2.571   4.177
 5950SOL    HW118749   6.519   2.510   4.148
 5950SOL    HW218750   6.467   2.665   4.151
 5951SOL     OW18751   1.982   5.839   3.767
 5951SOL    HW118752   1.926   5.866   3.845
 5951SOL    HW218753   2.013   5.745   3.779
 5952SOL     OW18754   0.128   6.343   4.391
 5952SOL    HW118755   0.072   6.421   4.364
 5952SOL    HW218756   0.071   6.275   4.436
 5953SOL     OW18757   6.909   3.057   6.325
 5953SOL    HW118758   6.873   3.101   6.243
 5953SOL    HW218759   6.995   3.010   6.303
 5954SOL     OW18760   0.390   4.960   0.102
 5954SOL    HW118761   0.298   4.947   0.065
 5954SOL    HW218762   0.446   4.880   0.083
 5955SOL     OW18763   4.909   5.343   1.690
 5955SOL    HW118764   4.845   5.376   1.619
 5955SOL    HW218765   5.000   5.380   1.673
 5956SOL     OW18766   5.639   2.238   0.111
 5956SOL    HW118767   5.602   2.321   0.070
 5956SOL    HW218768   5.735   2.251   0.133
 5957SOL     OW18769   5.876   6.394   6.329
 5957SOL    HW118770   5.942   6.381   6.255
 5957SOL    HW218771   5.922   6.435   6.408
 5958SOL     OW18772   6.612   5.771   2.228
 5958SOL    HW118773   6.591   5.726   2.315
 5958SOL    HW218774   6.703   5.812   2.233
 5959SOL     OW18775   1.960   1.895   6.302
 5959SOL    HW118776   1.925   1.981   6.339
 5959SOL    HW218777   1.899   1.863   6.229
 5960SOL     OW18778   3.295   0.397   3.630
 5960SOL    HW118779   3.295   0.400   3.730
 5960SOL    HW218780   3.275   0.304   3.599
 5961SOL     OW18781   2.982   1.037   5.106
 5961SOL    HW118782   2.988   1.127   5.063
 5961SOL    HW218783   2.902   0.988   5.071
 5962SOL     OW18784   5.024   5.091   2.410
 5962SOL    HW118785   5.037   5.121   2.316
 5962SOL    HW218786   5.102   5.121   2.465
 5963SOL     OW18787   3.929   3.871   2.560
 5963SOL    HW118788   3.990   3.872   2.640
 5963SOL    HW218789   3.954   3.795   2.500
 5964SOL     OW18790   0.383   4.989   5.593
 5964SOL    HW118791   0.423   5.080   5.579
 5964SOL    HW218792   0.385   4.966   5.691
 5965SOL     OW18793   2.630   2.425   5.709
 5965SOL    HW118794   2.680   2.511   5.701
 5965SOL    HW218795   2.591   2.417   5.800
 5966SOL     OW18796   3.029   5.930   4.282
 5966SOL    HW118797   3.112   5.905   4.233
 5966SOL    HW218798   2.999   6.021   4.252
 5967SOL     OW18799   4.686   6.470   2.649
 5967SOL    HW118800   4.657   6.566   2.645
 5967SOL    HW218801   4.763   6.456   2.587
 5968SOL     OW18802   6.524   2.416   3.402
 5968SOL    HW118803   6.450   2.444   3.463
 5968SOL    HW218804   6.543   2.319   3.415
 5969SOL     OW18805   6.058   3.679   3.188
 5969SOL    HW118806   6.062   3.616   3.111
 5969SOL    HW218807   6.018   3.766   3.158
 5970SOL     OW18808   1.591   3.247   3.057
 5970SOL    HW118809   1.616   3.153   3.030
 5970SOL    HW218810   1.502   3.270   3.019
 5971SOL     OW18811   2.216   6.884   2.646
 5971SOL    HW118812   2.297   6.927   2.686
 5971SOL    HW218813   2.221   6.890   2.546
 5972SOL     OW18814   4.897   6.636   0.148
 5972SOL    HW118815   4.958   6.692   0.204
 5972SOL    HW218816   4.810   6.625   0.194
 5973SOL     OW18817   1.245   4.776   3.223
 5973SOL    HW118818   1.300   4.706   3.268
 5973SOL    HW218819   1.161   4.735   3.186
 5974SOL     OW18820   0.139   3.983   0.140
 5974SOL    HW118821   0.136   3.886   0.115
 5974SOL    HW218822   0.233   4.009   0.161
 5975SOL     OW18823   2.627   3.026   0.970
 5975SOL    HW118824   2.568   2.967   1.026
 5975SOL    HW218825   2.612   3.122   0.996
 5976SOL     OW18826   2.895   3.255   4.882
 5976SOL    HW118827   2.938   3.281   4.969
 5976SOL    HW218828   2.820   3.191   4.900
 5977SOL     OW18829   1.267   3.876   2.304
 5977SOL    HW118830   1.247   3.974   2.305
 5977SOL    HW218831   1.219   3.831   2.379
 5978SOL     OW18832   5.573   4.791   1.921
 5978SOL    HW118833   5.655   4.796   1.864
 5978SOL    HW218834   5.492   4.788   1.862
 5979SOL     OW18835   6.595   1.033   3.213
 5979SOL    HW118836   6.611   0.939   3.245
 5979SOL    HW218837   6.657   1.095   3.261
 5980SOL     OW18838   5.833   4.492   0.184
 5980SOL    HW118839   5.913   4.470   0.240
 5980SOL    HW218840   5.829   4.428   0.107
 5981SOL     OW18841   5.342   1.224   2.411
 5981SOL    HW118842   5.249   1.257   2.421
 5981SOL    HW218843   5.394   1.287   2.353
 5982SOL     OW18844   6.897   1.915   6.739
 5982SOL    HW118845   6.948   1.962   6.667
 5982SOL    HW218846   6.887   1.976   6.818
 5983SOL     OW18847   1.748   1.052   4.263
 5983SOL    HW118848   1.846   1.054   4.280
 5983SOL    HW218849   1.699   1.060   4.351
 5984SOL     OW18850   0.368   6.139   5.096
 5984SOL    HW118851   0.433   6.129   5.172
 5984SOL    HW218852   0.275   6.140   5.132
 5985SOL     OW18853   4.456   1.848   4.321
 5985SOL    HW118854   4.448   1.862   4.420
 5985SOL    HW218855   4.518   1.772   4.303
 5986SOL     OW18856   3.453   2.957   2.516
 5986SOL    HW118857   3.389   2.987   2.445
 5986SOL    HW218858   3.527   2.903   2.474
 5987SOL     OW18859   4.128   6.715   4.922
 5987SOL    HW118860   4.028   6.721   4.914
 5987SOL    HW218861   4.153   6.686   5.014
 5988SOL     OW18862   4.187   6.707   4.422
 5988SOL    HW118863   4.099   6.726   4.466
 5988SOL    HW218864   4.230   6.629   4.466
 5989SOL     OW18865   3.100   0.509   5.942
 5989SOL    HW118866   3.123   0.414   5.924
 5989SOL    HW218867   3.001   0.519   5.949
 5990SOL     OW18868   3.173   5.143   1.526
 5990SOL    HW118869   3.250   5.080   1.517
 5990SOL    HW218870   3.195   5.214   1.592
 5991SOL     OW18871   3.033   5.121   4.672
 5991SOL    HW118872   3.034   5.148   4.769
 5991SOL    HW218873   3.013   5.024   4.664
 5992SOL     OW18874   4.531   0.264   4.135
 5992SOL    HW118875   4.523   0.172   4.097
 5992SOL    HW218876   4.486   0.329   4.073
 5993SOL     OW18877   2.634   6.297   5.572
 5993SOL    HW118878   2.666   6.203   5.587
 5993SOL    HW218879   2.562   6.296   5.502
 5994SOL     OW18880   6.364   2.345   2.489
 5994SOL    HW118881   6.297   2.397   2.542
 5994SOL    HW218882   6.453   2.390   2.492
 5995SOL     OW18883   0.054   4.925   0.894
 5995SOL    HW118884   7.019   4.941   0.814
 5995SOL    HW218885   0.143   4.968   0.880
 5996SOL     OW18886   6.920   5.106   5.716
 5996SOL    HW118887   7.003   5.075   5.670
 5996SOL    HW218888   6.847   5.118   5.649
 5997SOL     OW18889   0.720   7.002   2.317
 5997SOL    HW118890   0.646   6.942   2.347
 5997SOL    HW218891   0.790   7.007   2.389
 5998SOL     OW18892   5.543   2.374   2.601
 5998SOL    HW118893   5.516   2.467   2.626
 5998SOL    HW218894   5.482   2.309   2.646
 5999SOL     OW18895   1.740   2.040   2.439
 5999SOL    HW118896   1.756   2.103   2.516
 5999SOL    HW218897   1.797   1.959   2.450
 6000SOL     OW18898   4.519   5.667   2.143
 6000SOL    HW118899   4.488   5.676   2.237
 6000SOL    HW218900   4.514   5.756   2.097
 6001SOL     OW18901   6.863   2.220   6.686
 6001SOL    HW118902   6.779   2.260   6.723
 6001SOL    HW218903   6.840   2.143   6.626
 6002SOL     OW18904   1.941   0.320   1.991
 6002SOL    HW118905   1.932   0.234   1.939
 6002SOL    HW218906   1.850   0.355   2.013
 6003SOL     OW18907   4.709   4.251   4.941
 6003SOL    HW118908   4.657   4.248   4.856
 6003SOL    HW218909   4.681   4.175   5.000
 6004SOL     OW18910   0.263   3.115   2.474
 6004SOL    HW118911   0.180   3.094   2.527
 6004SOL    HW218912   0.323   3.174   2.528
 6005SOL     OW18913   3.041   5.593   3.021
 6005SOL    HW118914   2.945   5.563   3.011
 6005SOL    HW218915   3.044   5.682   3.067
 6006SOL     OW18916   2.885   6.891   6.496
 6006SOL    HW118917   2.969   6.840   6.479
 6006SOL    HW218918   2.832   6.897   6.411
 6007SOL     OW18919   5.978   2.384   4.195
 6007SOL    HW118920   6.015   2.314   4.256
 6007SOL    HW218921   6.034   2.388   4.112
 6008SOL     OW18922   2.797   4.617   6.207
 6008SOL    HW118923   2.769   4.572   6.121
 6008SOL    HW218924   2.861   4.691   6.186
 6009SOL     OW18925   2.507   1.684   4.450
 6009SOL    HW118926   2.570   1.613   4.482
 6009SOL    HW218927   2.419   1.675   4.497
 6010SOL     OW18928   1.561   4.056   3.107
 6010SOL    HW118929   1.605   3.979   3.152
 6010SOL    HW218930   1.472   4.072   3.149
 6011SOL     OW18931   4.848   3.200   2.624
 6011SOL    HW118932   4.814   3.266   2.691
 6011SOL    HW218933   4.907   3.133   2.670
 6012SOL     OW18934   6.624   3.101   0.913
 6012SOL    HW118935   6.703   3.052   0.877
 6012SOL    HW218936   6.638   3.121   1.010
 6013SOL     OW18937   5.485   0.942   3.063
 6013SOL    HW118938   5.431   0.936   2.979
 6013SOL    HW218939   5.582   0.926   3.041
 6014SOL     OW18940   6.278   0.338   0.448
 6014SOL    HW118941   6.288   0.428   0.490
 6014SOL    HW218942   6.206   0.287   0.494
 6015SOL     OW18943   5.888   1.667   4.035
 6015SOL    HW118944   5.918   1.762   4.037
 6015SOL    HW218945   5.852   1.645   3.945
 6016SOL     OW18946   1.816   0.721   5.272
 6016SOL    HW118947   1.837   0.809   5.313
 6016SOL    HW218948   1.834   0.724   5.174
 6017SOL     OW18949   6.438   5.400   2.681
 6017SOL    HW118950   6.439   5.424   2.778
 6017SOL    HW218951   6.453   5.483   2.627
 6018SOL     OW18952   2.464   3.765   0.836
 6018SOL    HW118953   2.498   3.755   0.930
 6018SOL    HW218954   2.488   3.684   0.783
 6019SOL     OW18955   3.726   0.399   4.206
 6019SOL    HW118956   3.788   0.476   4.192
 6019SOL    HW218957   3.753   0.349   4.288
 6020SOL     OW18958   3.887   0.672   2.678
 6020SOL    HW118959   3.880   0.772   2.668
 6020SOL    HW218960   3.893   0.648   2.775
 6021SOL     OW18961   4.374   1.500   2.367
 6021SOL    HW118962   4.302   1.529   2.430
 6021SOL    HW218963   4.338   1.492   2.275
 6022SOL     OW18964   4.368   1.447   3.565
 6022SOL    HW118965   4.403   1.381   3.498
 6022SOL    HW218966   4.404   1.538   3.545
 6023SOL     OW18967   0.288   1.368   2.786
 6023SOL    HW118968   0.310   1.363   2.689
 6023SOL    HW218969   0.223   1.442   2.802
 6024SOL     OW18970   0.487   4.935   1.988
 6024SOL    HW118971   0.542   4.993   1.928
 6024SOL    HW218972   0.540   4.910   2.069
 6025SOL     OW18973   4.546   1.438   0.958
 6025SOL    HW118974   4.578   1.396   0.873
 6025SOL    HW218975   4.481   1.511   0.938
 6026SOL     OW18976   6.816   4.865   5.430
 6026SOL    HW118977   6.850   4.863   5.336
 6026SOL    HW218978   6.885   4.824   5.490
 6027SOL     OW18979   2.937   4.101   6.810
 6027SOL    HW118980   2.889   4.126   6.725
 6027SOL    HW218981   3.025   4.059   6.787
 6028SOL     OW18982   1.301   3.342   0.206
 6028SOL    HW118983   1.340   3.391   0.284
 6028SOL    HW218984   1.352   3.258   0.190
 6029SOL     OW18985   2.434   6.304   1.546
 6029SOL    HW118986   2.483   6.368   1.606
 6029SOL    HW218987   2.472   6.311   1.453
 6030SOL     OW18988   1.774   0.832   1.566
 6030SOL    HW118989   1.722   0.912   1.536
 6030SOL    HW218990   1.718   0.776   1.627
 6031SOL     OW18991   5.051   6.595   5.542
 6031SOL    HW118992   5.068   6.577   5.445
 6031SOL    HW218993   5.136   6.628   5.585
 6032SOL     OW18994   0.887   2.703   2.728
 6032SOL    HW118995   0.860   2.611   2.699
 6032SOL    HW218996   0.811   2.766   2.715
 6033SOL     OW18997   0.679   1.030   4.026
 6033SOL    HW118998   0.621   1.073   4.096
 6033SOL    HW218999   0.627   1.018   3.942
 6034SOL     OW19000   1.930   4.058   4.663
 6034SOL    HW119001   1.920   4.027   4.757
 6034SOL    HW219002   2.022   4.037   4.630
 6035SOL     OW19003   6.201   0.214   3.677
 6035SOL    HW119004   6.158   0.289   3.627
 6035SOL    HW219005   6.291   0.196   3.638
 6036SOL     OW19006   0.829   6.083   5.394
 6036SOL    HW119007   0.916   6.034   5.391
 6036SOL    HW219008   0.812   6.126   5.305
 6037SOL     OW19009   6.112   6.229   4.868
 6037SOL    HW119010   6.077   6.171   4.795
 6037SOL    HW219011   6.183   6.290   4.832
 6038SOL     OW19012   5.979   3.761   6.058
 6038SOL    HW119013   5.970   3.744   6.156
 6038SOL    HW219014   5.991   3.859   6.042
 6039SOL     OW19015   3.385   3.353   2.381
 6039SOL    HW119016   3.298   3.311   2.355
 6039SOL    HW219017   3.367   3.432   2.440
 6040SOL     OW19018   0.272   1.997   6.998
 6040SOL    HW119019   0.233   2.081   6.961
 6040SOL    HW219020   0.297   2.012   0.071
 6041SOL     OW19021   1.207   2.282   7.016
 6041SOL    HW119022   1.221   2.303   0.090
 6041SOL    HW219023   1.287   2.311   6.964
 6042SOL     OW19024   4.642   5.305   3.184
 6042SOL    HW119025   4.612   5.392   3.223
 6042SOL    HW219026   4.675   5.320   3.091
 6043SOL     OW19027   1.192   4.620   4.547
 6043SOL    HW119028   1.236   4.547   4.494
 6043SOL    HW219029   1.256   4.696   4.559
 6044SOL     OW19030   0.485   0.864   1.466
 6044SOL    HW119031   0.396   0.818   1.457
 6044SOL    HW219032   0.485   0.947   1.411
 6045SOL     OW19033   6.810   4.083   1.818
 6045SOL    HW119034   6.897   4.102   1.772
 6045SOL    HW219035   6.810   4.127   1.908
 6046SOL     OW19036   3.007   2.304   0.687
 6046SOL    HW119037   3.018   2.403   0.685
 6046SOL    HW219038   2.917   2.279   0.649
 6047SOL     OW19039   6.398   0.096   4.221
 6047SOL    HW119040   6.322   0.110   4.283
 6047SOL    HW219041   6.463   0.031   4.262
 6048SOL     OW19042   4.275   6.913   5.116
 6048SOL    HW119043   4.355   6.969   5.141
 6048SOL    HW219044   4.294   6.817   5.134
 6049SOL     OW19045   5.738   4.573   6.759
 6049SOL    HW119046   5.757   4.483   6.720
 6049SOL    HW219047   5.716   4.638   6.686
 6050SOL     OW19048   4.264   4.636   5.587
 6050SOL    HW119049   4.260   4.735   5.568
 6050SOL    HW219050   4.181   4.608   5.636
 6051SOL     OW19051   1.920   1.973   3.141
 6051SOL    HW119052   2.012   1.939   3.120
 6051SOL    HW219053   1.918   2.008   3.234
 6052SOL     OW19054   6.931   1.324   0.859
 6052SOL    HW119055   6.978   1.237   0.876
 6052SOL    HW219056   6.998   1.396   0.846
 6053SOL     OW19057   1.687   6.536   6.543
 6053SOL    HW119058   1.779   6.515   6.577
 6053SOL    HW219059   1.665   6.631   6.564
 6054SOL     OW19060   1.913   4.176   0.438
 6054SOL    HW119061   1.937   4.204   0.346
 6054SOL    HW219062   1.995   4.168   0.494
 6055SOL     OW19063   4.921   0.813   5.174
 6055SOL    HW119064   4.946   0.748   5.247
 6055SOL    HW219065   4.996   0.878   5.161
 6056SOL     OW19066   4.532   2.129   6.610
 6056SOL    HW119067   4.592   2.121   6.689
 6056SOL    HW219068   4.584   2.112   6.526
 6057SOL     OW19069   3.004   1.259   4.921
 6057SOL    HW119070   3.014   1.229   4.827
 6057SOL    HW219071   2.925   1.319   4.929
 6058SOL     OW19072   5.735   2.135   3.985
 6058SOL    HW119073   5.736   2.172   4.078
 6058SOL    HW219074   5.654   2.169   3.937
 6059SOL     OW19075   5.500   4.450   6.851
 6059SOL    HW119076   5.411   4.468   6.893
 6059SOL    HW219077   5.558   4.531   6.861
 6060SOL     OW19078   4.141   5.461   5.872
 6060SOL    HW119079   4.078   5.386   5.848
 6060SOL    HW219080   4.129   5.486   5.968
 6061SOL     OW19081   3.221   1.651   6.419
 6061SOL    HW119082   3.174   1.679   6.503
 6061SOL    HW219083   3.203   1.554   6.402
 6062SOL     OW19084   1.905   0.446   4.566
 6062SOL    HW119085   1.941   0.475   4.477
 6062SOL    HW219086   1.861   0.524   4.610
 6063SOL     OW19087   4.475   0.689   6.343
 6063SOL    HW119088   4.420   0.611   6.373
 6063SOL    HW219089   4.487   0.686   6.244
 6064SOL     OW19090   0.974   5.665   3.557
 6064SOL    HW119091   1.057   5.676   3.503
 6064SOL    HW219092   0.933   5.576   3.537
 6065SOL     OW19093   0.159   0.154   0.429
 6065SOL    HW119094   0.247   0.152   0.382
 6065SOL    HW219095   0.117   0.244   0.418
 6066SOL     OW19096   4.188   2.524   0.563
 6066SOL    HW119097   4.156   2.616   0.586
 6066SOL    HW219098   4.114   2.472   0.521
 6067SOL     OW19099   6.141   1.504   6.371
 6067SOL    HW119100   6.161   1.574   6.302
 6067SOL    HW219101   6.227   1.469   6.408
 6068SOL     OW19102   4.409   2.438   4.626
 6068SOL    HW119103   4.488   2.490   4.658
 6068SOL    HW219104   4.356   2.407   4.704
 6069SOL     OW19105   6.892   4.414   5.035
 6069SOL    HW119106   6.867   4.462   5.119
 6069SOL    HW219107   6.854   4.321   5.036
 6070SOL     OW19108   3.996   2.435   5.781
 6070SOL    HW119109   4.084   2.390   5.796
 6070SOL    HW219110   3.985   2.511   5.845
 6071SOL     OW19111   4.099   6.067   5.365
 6071SOL    HW119112   4.136   6.159   5.377
 6071SOL    HW219113   4.128   6.009   5.440
 6072SOL     OW19114   0.139   2.064   1.604
 6072SOL    HW119115   0.069   1.993   1.593
 6072SOL    HW219116   0.170   2.095   1.515
 6073SOL     OW19117   6.307   2.643   0.751
 6073SOL    HW119118   6.217   2.623   0.790
 6073SOL    HW219119   6.298   2.664   0.654
 6074SOL     OW19120   0.525   6.981   5.074
 6074SOL    HW119121   0.562   7.015   4.988
 6074SOL    HW219122   0.480   0.032   5.123
 6075SOL     OW19123   5.607   3.879   0.223
 6075SOL    HW119124   5.576   3.861   0.129
 6075SOL    HW219125   5.581   3.802   0.281
 6076SOL     OW19126   2.219   5.957   3.977
 6076SOL    HW119127   2.194   5.880   4.036
 6076SOL    HW219128   2.162   5.957   3.895
 6077SOL     OW19129   6.022   6.237   2.163
 6077SOL    HW119130   5.975   6.319   2.195
 6077SOL    HW219131   6.092   6.211   2.229
 6078SOL     OW19132   2.771   4.736   4.026
 6078SOL    HW119133   2.838   4.760   3.955
 6078SOL    HW219134   2.735   4.645   4.008
 6079SOL     OW19135   2.674   1.725   6.370
 6079SOL    HW119136   2.693   1.701   6.275
 6079SOL    HW219137   2.711   1.816   6.389
 6080SOL     OW19138   5.626   2.391   1.659
 6080SOL    HW119139   5.711   2.365   1.706
 6080SOL    HW219140   5.611   2.490   1.669
 6081SOL     OW19141   6.647   3.348   3.810
 6081SOL    HW119142   6.582   3.411   3.852
 6081SOL    HW219143   6.602   3.295   3.738
 6082SOL     OW19144   4.103   1.324   3.126
 6082SOL    HW119145   4.084   1.421   3.134
 6082SOL    HW219146   4.120   1.301   3.030
 6083SOL     OW19147   1.507   6.434   6.715
 6083SOL    HW119148   1.418   6.476   6.732
 6083SOL    HW219149   1.536   6.454   6.622
 6084SOL     OW19150   0.013   5.375   5.723
 6084SOL    HW119151   6.974   5.297   5.732
 6084SOL    HW219152   0.015   5.405   5.628
 6085SOL     OW19153   5.462   3.574   0.274
 6085SOL    HW119154   5.488   3.576   0.177
 6085SOL    HW219155   5.541   3.548   0.329
 6086SOL     OW19156   3.306   1.989   4.373
 6086SOL    HW119157   3.398   2.024   4.351
 6086SOL    HW219158   3.293   1.989   4.472
 6087SOL     OW19159   5.623   6.710   6.465
 6087SOL    HW119160   5.652   6.806   6.470
 6087SOL    HW219161   5.524   6.705   6.477
 6088SOL     OW19162   1.144   6.931   5.251
 6088SOL    HW119163   1.093   6.953   5.168
 6088SOL    HW219164   1.108   6.984   5.327
 6089SOL     OW19165   6.770   3.477   1.013
 6089SOL    HW119166   6.798   3.415   1.087
 6089SOL    HW219167   6.671   3.471   1.001
 6090SOL     OW19168   0.851   5.294   4.943
 6090SOL    HW119169   0.842   5.198   4.969
 6090SOL    HW219170   0.831   5.352   5.022
 6091SOL     OW19171   6.457   1.636   1.867
 6091SOL    HW119172   6.489   1.653   1.773
 6091SOL    HW219173   6.359   1.616   1.865
 6092SOL     OW19174   1.888   1.801   2.429
 6092SOL    HW119175   1.955   1.862   2.387
 6092SOL    HW219176   1.873   1.722   2.370
 6093SOL     OW19177   1.296   2.481   1.009
 6093SOL    HW119178   1.365   2.423   0.965
 6093SOL    HW219179   1.336   2.525   1.090
 6094SOL     OW19180   0.912   1.107   1.803
 6094SOL    HW119181   0.838   1.054   1.761
 6094SOL    HW219182   0.924   1.080   1.898
 6095SOL     OW19183   6.365   3.224   6.295
 6095SOL    HW119184   6.278   3.266   6.270
 6095SOL    HW219185   6.437   3.259   6.235
 6096SOL     OW19186   3.890   2.071   3.585
 6096SOL    HW119187   3.907   1.974   3.569
 6096SOL    HW219188   3.806   2.081   3.639
 6097SOL     OW19189   2.565   1.549   2.474
 6097SOL    HW119190   2.565   1.645   2.502
 6097SOL    HW219191   2.659   1.515   2.473
 6098SOL     OW19192   2.156   2.367   5.881
 6098SOL    HW119193   2.101   2.422   5.944
 6098SOL    HW219194   2.183   2.423   5.803
 6099SOL     OW19195   6.364   6.206   5.237
 6099SOL    HW119196   6.297   6.273   5.205
 6099SOL    HW219197   6.356   6.123   5.182
 6100SOL     OW19198   6.322   2.620   0.084
 6100SOL    HW119199   6.312   2.571   0.170
 6100SOL    HW219200   6.258   2.583   0.017
 6101SOL     OW19201   6.782   1.083   5.370
 6101SOL    HW119202   6.710   1.081   5.440
 6101SOL    HW219203   6.799   0.989   5.339
 6102SOL     OW19204   2.833   0.599   4.493
 6102SOL    HW119205   2.856   0.502   4.488
 6102SOL    HW219206   2.848   0.642   4.404
 6103SOL     OW19207   6.189   6.907   5.437
 6103SOL    HW119208   6.195   6.830   5.501
 6103SOL    HW219209   6.093   6.931   5.423
 6104SOL     OW19210   6.540   1.872   6.792
 6104SOL    HW119211   6.501   1.783   6.813
 6104SOL    HW219212   6.517   1.937   6.865
 6105SOL     OW19213   3.402   5.927   5.053
 6105SOL    HW119214   3.348   5.878   4.985
 6105SOL    HW219215   3.459   5.996   5.008
 6106SOL     OW19216   3.189   5.032   5.993
 6106SOL    HW119217   3.246   4.950   5.986
 6106SOL    HW219218   3.181   5.076   5.904
 6107SOL     OW19219   2.022   4.837   5.238
 6107SOL    HW119220   1.951   4.861   5.304
 6107SOL    HW219221   1.981   4.814   5.151
 6108SOL     OW19222   0.665   2.148   4.353
 6108SOL    HW119223   0.742   2.085   4.349
 6108SOL    HW219224   0.697   2.238   4.382
 6109SOL     OW19225   5.657   4.013   1.127
 6109SOL    HW119226   5.697   3.966   1.206
 6109SOL    HW219227   5.562   3.983   1.114
 6110SOL     OW19228   3.207   1.693   4.627
 6110SOL    HW119229   3.254   1.672   4.541
 6110SOL    HW219230   3.263   1.660   4.703
 6111SOL     OW19231   1.365   4.974   3.339
 6111SOL    HW119232   1.309   4.904   3.294
 6111SOL    HW219233   1.454   4.935   3.363
 6112SOL     OW19234   0.708   1.616   3.056
 6112SOL    HW119235   0.648   1.665   3.119
 6112SOL    HW219236   0.776   1.563   3.108
 6113SOL     OW19237   1.764   6.554   5.532
 6113SOL    HW119238   1.787   6.632   5.474
 6113SOL    HW219239   1.697   6.497   5.486
 6114SOL     OW19240   4.510   5.817   0.660
 6114SOL    HW119241   4.454   5.755   0.716
 6114SOL    HW219242   4.521   5.904   0.709
 6115SOL     OW19243   5.220   5.213   2.564
 6115SOL    HW119244   5.298   5.151   2.566
 6115SOL    HW219245   5.249   5.304   2.592
 6116SOL     OW19246   3.648   1.224   1.911
 6116SOL    HW119247   3.567   1.186   1.956
 6116SOL    HW219248   3.727   1.166   1.929
 6117SOL     OW19249   5.770   6.922   4.774
 6117SOL    HW119250   5.765   7.022   4.777
 6117SOL    HW219251   5.852   6.895   4.725
 6118SOL     OW19252   6.113   0.633   3.474
 6118SOL    HW119253   6.207   0.655   3.446
 6118SOL    HW219254   6.057   0.716   3.469
 6119SOL     OW19255   6.825   5.244   4.832
 6119SOL    HW119256   6.877   5.211   4.911
 6119SOL    HW219257   6.754   5.178   4.809
 6120SOL     OW19258   2.838   0.365   2.863
 6120SOL    HW119259   2.931   0.374   2.898
 6120SOL    HW219260   2.792   0.290   2.910
 6121SOL     OW19261   0.251   2.363   4.131
 6121SOL    HW119262   0.182   2.323   4.072
 6121SOL    HW219263   0.335   2.308   4.127
 6122SOL     OW19264   4.104   5.636   3.303
 6122SOL    HW119265   4.012   5.667   3.283
 6122SOL    HW219266   4.158   5.713   3.339
 6123SOL     OW19267   5.997   1.153   2.518
 6123SOL    HW119268   6.009   1.170   2.616
 6123SOL    HW219269   5.998   1.055   2.501
 6124SOL     OW19270   3.518   0.158   5.818
 6124SOL    HW119271   3.423   0.188   5.825
 6124SOL    HW219272   3.521   0.060   5.801
 6125SOL     OW19273   2.458   5.974   1.993
 6125SOL    HW119274   2.412   5.886   2.004
 6125SOL    HW219275   2.479   6.013   2.083
 6126SOL     OW19276   4.983   5.061   3.054
 6126SOL    HW119277   4.931   5.030   3.133
 6126SOL    HW219278   4.926   5.055   2.972
 6127SOL     OW19279   2.007   5.736   1.446
 6127SOL    HW119280   1.974   5.752   1.353
 6127SOL    HW219281   2.046   5.644   1.451
 6128SOL     OW19282   5.437   1.912   0.535
 6128SOL    HW119283   5.365   1.873   0.477
 6128SOL    HW219284   5.434   2.012   0.529
 6129SOL     OW19285   6.131   4.620   3.403
 6129SOL    HW119286   6.208   4.557   3.390
 6129SOL    HW219287   6.079   4.627   3.318
 6130SOL     OW19288   5.089   3.381   2.559
 6130SOL    HW119289   5.021   3.353   2.492
 6130SOL    HW219290   5.043   3.411   2.642
 6131SOL     OW19291   6.149   1.078   5.734
 6131SOL    HW119292   6.093   1.011   5.684
 6131SOL    HW219293   6.199   1.134   5.668
 6132SOL     OW19294   4.455   2.841   0.751
 6132SOL    HW119295   4.506   2.772   0.802
 6132SOL    HW219296   4.394   2.890   0.813
 6133SOL     OW19297   0.763   4.083   1.437
 6133SOL    HW119298   0.834   4.096   1.367
 6133SOL    HW219299   0.794   4.124   1.523
 6134SOL     OW19300   4.601   3.535   6.499
 6134SOL    HW119301   4.652   3.473   6.558
 6134SOL    HW219302   4.535   3.586   6.554
 6135SOL     OW19303   5.938   0.212   1.494
 6135SOL    HW119304   6.033   0.188   1.478
 6135SOL    HW219305   5.879   0.136   1.467
 6136SOL     OW19306   0.983   1.945   1.652
 6136SOL    HW119307   1.076   1.908   1.658
 6136SOL    HW219308   0.970   2.013   1.724
 6137SOL     OW19309   2.991   6.468   5.831
 6137SOL    HW119310   3.060   6.513   5.888
 6137SOL    HW219311   2.945   6.535   5.775
 6138SOL     OW19312   3.736   5.973   2.895
 6138SOL    HW119313   3.699   6.063   2.875
 6138SOL    HW219314   3.747   5.921   2.810
 6139SOL     OW19315   1.873   4.717   4.619
 6139SOL    HW119316   1.832   4.645   4.675
 6139SOL    HW219317   1.844   4.806   4.653
 6140SOL     OW19318   1.731   6.547   1.345
 6140SOL    HW119319   1.798   6.479   1.373
 6140SOL    HW219320   1.758   6.637   1.378
 6141SOL     OW19321   6.442   5.641   6.202
 6141SOL    HW119322   6.437   5.542   6.193
 6141SOL    HW219323   6.351   5.680   6.194
 6142SOL     OW19324   0.042   4.648   1.253
 6142SOL    HW119325   0.055   4.591   1.171
 6142SOL    HW219326   0.102   4.727   1.248
 6143SOL     OW19327   5.584   5.257   6.397
 6143SOL    HW119328   5.517   5.309   6.450
 6143SOL    HW219329   5.537   5.184   6.347
 6144SOL     OW19330   0.360   4.576   4.071
 6144SOL    HW119331   0.304   4.493   4.079
 6144SOL    HW219332   0.419   4.568   3.991
 6145SOL     OW19333   5.268   5.793   2.759
 6145SOL    HW119334   5.170   5.781   2.742
 6145SOL    HW219335   5.283   5.880   2.806
 6146SOL     OW19336   5.750   1.517   3.816
 6146SOL    HW119337   5.746   1.562   3.727
 6146SOL    HW219338   5.832   1.460   3.821
 6147SOL     OW19339   1.803   3.626   2.761
 6147SOL    HW119340   1.769   3.532   2.757
 6147SOL    HW219341   1.777   3.667   2.849
 6148SOL     OW19342   6.295   6.282   4.342
 6148SOL    HW119343   6.373   6.265   4.402
 6148SOL    HW219344   6.272   6.198   4.293
 6149SOL     OW19345   2.824   5.821   2.927
 6149SOL    HW119346   2.744   5.769   2.898
 6149SOL    HW219347   2.870   5.859   2.847
 6150SOL     OW19348   4.769   5.851   5.812
 6150SOL    HW119349   4.762   5.845   5.712
 6150SOL    HW219350   4.680   5.831   5.852
 6151SOL     OW19351   4.893   2.432   5.540
 6151SOL    HW119352   4.953   2.504   5.575
 6151SOL    HW219353   4.809   2.429   5.594
 6152SOL     OW19354   6.426   4.516   6.444
 6152SOL    HW119355   6.452   4.496   6.539
 6152SOL    HW219356   6.383   4.607   6.440
 6153SOL     OW19357   4.026   3.599   1.616
 6153SOL    HW119358   3.960   3.582   1.543
 6153SOL    HW219359   4.116   3.565   1.589
 6154SOL     OW19360   5.498   3.370   2.618
 6154SOL    HW119361   5.422   3.392   2.679
 6154SOL    HW219362   5.570   3.323   2.670
 6155SOL     OW19363   0.272   3.645   5.059
 6155SOL    HW119364   0.359   3.690   5.038
 6155SOL    HW219365   0.218   3.635   4.975
 6156SOL     OW19366   6.220   7.016   3.454
 6156SOL    HW119367   6.236   6.933   3.399
 6156SOL    HW219368   6.195   6.990   3.547
 6157SOL     OW19369   2.476   1.111   3.728
 6157SOL    HW119370   2.472   1.125   3.827
 6157SOL    HW219371   2.534   1.182   3.687
 6158SOL     OW19372   4.842   1.399   5.721
 6158SOL    HW119373   4.844   1.498   5.733
 6158SOL    HW219374   4.919   1.358   5.769
 6159SOL     OW19375   5.276   2.755   6.867
 6159SOL    HW119376   5.312   2.726   6.955
 6159SOL    HW219377   5.269   2.855   6.864
 6160SOL     OW19378   5.552   6.058   1.861
 6160SOL    HW119379   5.558   6.132   1.794
 6160SOL    HW219380   5.512   6.092   1.946
 6161SOL     OW19381   5.405   0.413   5.822
 6161SOL    HW119382   5.367   0.371   5.739
 6161SOL    HW219383   5.505   0.407   5.819
 6162SOL     OW19384   6.637   4.709   5.153
 6162SOL    HW119385   6.717   4.727   5.095
 6162SOL    HW219386   6.564   4.774   5.131
 6163SOL     OW19387   6.788   4.019   2.340
 6163SOL    HW119388   6.836   4.057   2.419
 6163SOL    HW219389   6.690   4.038   2.347
 6164SOL     OW19390   3.891   1.981   0.810
 6164SOL    HW119391   3.793   1.969   0.790
 6164SOL    HW219392   3.930   1.894   0.839
 6165SOL     OW19393   3.430   6.023   0.079
 6165SOL    HW119394   3.480   5.955   0.025
 6165SOL    HW219395   3.354   6.059   0.025
 6166SOL     OW19396   2.867   1.575   5.794
 6166SOL    HW119397   2.803   1.510   5.750
 6166SOL    HW219398   2.816   1.636   5.854
 6167SOL     OW19399   0.450   4.140   3.413
 6167SOL    HW119400   0.526   4.077   3.427
 6167SOL    HW219401   0.378   4.094   3.360
 6168SOL     OW19402   0.076   3.399   2.892
 6168SOL    HW119403   0.053   3.481   2.839
 6168SOL    HW219404   7.016   3.365   2.938
 6169SOL     OW19405   1.728   3.956   2.471
 6169SOL    HW119406   1.820   3.974   2.439
 6169SOL    HW219407   1.729   3.946   2.571
 6170SOL     OW19408   0.477   3.126   5.303
 6170SOL    HW119409   0.381   3.144   5.280
 6170SOL    HW219410   0.536   3.181   5.244
 6171SOL     OW19411   6.928   0.439   6.546
 6171SOL    HW119412   6.882   0.463   6.460
 6171SOL    HW219413   6.914   0.342   6.566
 6172SOL     OW19414   0.273   3.407   3.290
 6172SOL    HW119415   0.192   3.404   3.349
 6172SOL    HW219416   0.277   3.494   3.242
 6173SOL     OW19417   6.981   6.848   3.345
 6173SOL    HW119418   0.014   6.902   3.283
 6173SOL    HW219419   6.912   6.907   3.387
 6174SOL     OW19420   5.335   3.920   2.660
 6174SOL    HW119421   5.323   4.019   2.671
 6174SOL    HW219422   5.421   3.891   2.703
 6175SOL     OW19423   2.399   2.304   5.629
 6175SOL    HW119424   2.327   2.374   5.629
 6175SOL    HW219425   2.488   2.348   5.629
 6176SOL     OW19426   4.381   3.998   5.609
 6176SOL    HW119427   4.397   4.046   5.522
 6176SOL    HW219428   4.395   4.061   5.685
 6177SOL     OW19429   6.044   0.913   2.001
 6177SOL    HW119430   6.111   0.903   1.928
 6177SOL    HW219431   6.092   0.922   2.089
 6178SOL     OW19432   3.828   4.257   1.373
 6178SOL    HW119433   3.832   4.269   1.473
 6178SOL    HW219434   3.876   4.333   1.329
 6179SOL     OW19435   5.475   5.313   2.871
 6179SOL    HW119436   5.571   5.318   2.898
 6179SOL    HW219437   5.427   5.249   2.931
 6180SOL     OW19438   2.639   4.120   0.078
 6180SOL    HW119439   2.599   4.036   0.115
 6180SOL    HW219440   2.724   4.098   0.030
 6181SOL     OW19441   4.921   5.224   6.051
 6181SOL    HW119442   4.919   5.322   6.067
 6181SOL    HW219443   5.007   5.199   6.006
 6182SOL     OW19444   3.484   2.504   0.345
 6182SOL    HW119445   3.401   2.539   0.388
 6182SOL    HW219446   3.470   2.497   0.246
 6183SOL     OW19447   0.761   1.336   1.267
 6183SOL    HW119448   0.747   1.434   1.251
 6183SOL    HW219449   0.766   1.319   1.365
 6184SOL     OW19450   2.703   0.547   5.657
 6184SOL    HW119451   2.614   0.589   5.637
 6184SOL    HW219452   2.776   0.600   5.613
 6185SOL     OW19453   3.237   3.064   5.349
 6185SOL    HW119454   3.150   3.083   5.304
 6185SOL    HW219455   3.263   2.969   5.330
 6186SOL     OW19456   6.556   1.686   2.105
 6186SOL    HW119457   6.604   1.618   2.161
 6186SOL    HW219458   6.547   1.650   2.012
 6187SOL     OW19459   5.710   1.846   5.382
 6187SOL    HW119460   5.614   1.871   5.377
 6187SOL    HW219461   5.719   1.757   5.428
 6188SOL     OW19462   1.263   1.777   5.365
 6188SOL    HW119463   1.164   1.774   5.374
 6188SOL    HW219464   1.287   1.818   5.277
 6189SOL     OW19465   6.339   6.286   1.614
 6189SOL    HW119466   6.410   6.333   1.561
 6189SOL    HW219467   6.379   6.211   1.666
 6190SOL     OW19468   0.411   2.418   5.514
 6190SOL    HW119469   0.500   2.448   5.549
 6190SOL    HW219470   0.360   2.498   5.483
 6191SOL     OW19471   3.939   3.400   6.494
 6191SOL    HW119472   3.851   3.448   6.499
 6191SOL    HW219473   4.001   3.450   6.433
 6192SOL     OW19474   2.682   1.425   0.315
 6192SOL    HW119475   2.583   1.417   0.305
 6192SOL    HW219476   2.713   1.508   0.270
 6193SOL     OW19477   4.530   5.385   6.620
 6193SOL    HW119478   4.534   5.387   6.520
 6193SOL    HW219479   4.436   5.363   6.648
 6194SOL     OW19480   6.002   0.239   5.840
 6194SOL    HW119481   6.057   0.210   5.918
 6194SOL    HW219482   6.037   0.196   5.756
 6195SOL     OW19483   6.666   6.710   6.065
 6195SOL    HW119484   6.673   6.708   5.965
 6195SOL    HW219485   6.736   6.650   6.104
 6196SOL     OW19486   5.691   3.899   3.301
 6196SOL    HW119487   5.608   3.861   3.259
 6196SOL    HW219488   5.722   3.838   3.374
 6197SOL     OW19489   3.399   5.741   1.464
 6197SOL    HW119490   3.474   5.710   1.523
 6197SOL    HW219491   3.435   5.757   1.371
 6198SOL     OW19492   6.282   6.766   6.563
 6198SOL    HW119493   6.382   6.769   6.569
 6198SOL    HW219494   6.244   6.760   6.655
 6199SOL     OW19495   1.327   0.466   0.718
 6199SOL    HW119496   1.322   0.551   0.771
 6199SOL    HW219497   1.329   0.388   0.781
 6200SOL     OW19498   2.189   2.035   2.646
 6200SOL    HW119499   2.199   1.939   2.670
 6200SOL    HW219500   2.161   2.087   2.728
 6201SOL     OW19501   6.916   4.189   3.775
 6201SOL    HW119502   6.825   4.147   3.771
 6201SOL    HW219503   6.973   4.138   3.840
 6202SOL     OW19504   6.542   1.607   2.753
 6202SOL    HW119505   6.465   1.647   2.703
 6202SOL    HW219506   6.597   1.681   2.794
 6203SOL     OW19507   6.770   6.568   1.872
 6203SOL    HW119508   6.822   6.601   1.951
 6203SOL    HW219509   6.832   6.551   1.795
 6204SOL     OW19510   2.294   0.268   5.157
 6204SOL    HW119511   2.291   0.169   5.170
 6204SOL    HW219512   2.372   0.292   5.100
 6205SOL     OW19513   4.971   4.424   3.097
 6205SOL    HW119514   4.883   4.470   3.112
 6205SOL    HW219515   5.036   4.488   3.057
 6206SOL     OW19516   5.271   1.909   3.662
 6206SOL    HW119517   5.267   1.906   3.762
 6206SOL    HW219518   5.227   1.827   3.625
 6207SOL     OW19519   2.328   5.085   4.441
 6207SOL    HW119520   2.419   5.049   4.423
 6207SOL    HW219521   2.331   5.149   4.517
 6208SOL     OW19522   3.859   3.484   5.159
 6208SOL    HW119523   3.800   3.525   5.091
 6208SOL    HW219524   3.829   3.510   5.251
 6209SOL     OW19525   3.634   2.635   1.024
 6209SOL    HW119526   3.668   2.717   0.977
 6209SOL    HW219527   3.534   2.632   1.017
 6210SOL     OW19528   4.697   1.651   4.236
 6210SOL    HW119529   4.752   1.656   4.153
 6210SOL    HW219530   4.736   1.711   4.306
 6211SOL     OW19531   5.488   4.413   5.248
 6211SOL    HW119532   5.485   4.357   5.330
 6211SOL    HW219533   5.431   4.370   5.177
 6212SOL     OW19534   4.231   4.884   5.433
 6212SOL    HW119535   4.232   4.846   5.341
 6212SOL    HW219536   4.139   4.915   5.455
 6213SOL     OW19537   4.003   6.020   0.426
 6213SOL    HW119538   4.071   6.011   0.353
 6213SOL    HW219539   4.019   6.104   0.477
 6214SOL     OW19540   6.175   5.709   6.235
 6214SOL    HW119541   6.204   5.682   6.326
 6214SOL    HW219542   6.076   5.698   6.227
 6215SOL     OW19543   5.781   2.382   5.758
 6215SOL    HW119544   5.865   2.380   5.811
 6215SOL    HW219545   5.716   2.316   5.795
 6216SOL     OW19546   4.692   2.368   2.895
 6216SOL    HW119547   4.726   2.349   2.803
 6216SOL    HW219548   4.752   2.433   2.941
 6217SOL     OW19549   0.380   4.661   2.163
 6217SOL    HW119550   0.443   4.593   2.202
 6217SOL    HW219551   0.432   4.728   2.111
 6218SOL     OW19552   4.596   6.645   6.950
 6218SOL    HW119553   4.582   6.684   0.018
 6218SOL    HW219554   4.621   6.717   6.886
 6219SOL     OW19555   1.355   0.496   6.224
 6219SOL    HW119556   1.333   0.565   6.294
 6219SOL    HW219557   1.452   0.474   6.229
 6220SOL     OW19558   4.292   0.719   1.149
 6220SOL    HW119559   4.225   0.712   1.075
 6220SOL    HW219560   4.270   0.798   1.207
 6221SOL     OW19561   6.039   5.390   6.466
 6221SOL    HW119562   6.094   5.325   6.414
 6221SOL    HW219563   6.087   5.412   6.551
 6222SOL     OW19564   6.332   1.441   2.181
 6222SOL    HW119565   6.357   1.472   2.272
 6222SOL    HW219566   6.390   1.487   2.113
 6223SOL     OW19567   0.239   5.083   3.334
 6223SOL    HW119568   0.201   4.991   3.318
 6223SOL    HW219569   0.170   5.152   3.313
 6224SOL     OW19570   4.062   1.271   6.633
 6224SOL    HW119571   4.042   1.175   6.653
 6224SOL    HW219572   4.017   1.298   6.548
 6225SOL     OW19573   4.732   6.289   6.624
 6225SOL    HW119574   4.783   6.233   6.690
 6225SOL    HW219575   4.712   6.378   6.665
 6226SOL     OW19576   1.445   1.476   4.750
 6226SOL    HW119577   1.399   1.409   4.691
 6226SOL    HW219578   1.449   1.440   4.843
 6227SOL     OW19579   2.874   4.480   5.466
 6227SOL    HW119580   2.884   4.475   5.366
 6227SOL    HW219581   2.778   4.495   5.489
 6228SOL     OW19582   1.504   3.379   4.046
 6228SOL    HW119583   1.587   3.369   3.991
 6228SOL    HW219584   1.494   3.301   4.107
 6229SOL     OW19585   0.764   4.176   4.044
 6229SOL    HW119586   0.835   4.146   3.980
 6229SOL    HW219587   0.682   4.120   4.030
 6230SOL     OW19588   0.117   0.887   2.417
 6230SOL    HW119589   0.055   0.954   2.378
 6230SOL    HW219590   0.191   0.868   2.353
 6231SOL     OW19591   1.497   5.092   6.888
 6231SOL    HW119592   1.578   5.151   6.892
 6231SOL    HW219593   1.495   5.033   6.970
 6232SOL     OW19594   4.105   1.087   6.385
 6232SOL    HW119595   4.017   1.052   6.417
 6232SOL    HW219596   4.090   1.171   6.333
 6233SOL     OW19597   0.020   3.897   1.473
 6233SOL    HW119598   0.075   3.947   1.406
 6233SOL    HW219599   0.078   3.863   1.546
 6234SOL     OW19600   4.521   5.995   4.796
 6234SOL    HW119601   4.467   6.079   4.793
 6234SOL    HW219602   4.512   5.946   4.709
 6235SOL     OW19603   6.601   0.972   2.935
 6235SOL    HW119604   6.550   0.886   2.927
 6235SOL    HW219605   6.591   1.009   3.027
 6236SOL     OW19606   0.914   5.670   1.143
 6236SOL    HW119607   0.863   5.615   1.209
 6236SOL    HW219608   0.962   5.743   1.191
 6237SOL     OW19609   3.669   1.515   0.347
 6237SOL    HW119610   3.758   1.485   0.312
 6237SOL    HW219611   3.602   1.515   0.273
 6238SOL     OW19612   2.390   7.018   4.371
 6238SOL    HW119613   2.445   6.935   4.379
 6238SOL    HW219614   2.388   0.043   4.459
 6239SOL     OW19615   4.503   1.300   3.378
 6239SOL    HW119616   4.454   1.234   3.322
 6239SOL    HW219617   4.602   1.288   3.365
 6240SOL     OW19618   4.034   3.277   3.974
 6240SOL    HW119619   4.008   3.181   3.983
 6240SOL    HW219620   3.953   3.335   3.980
 6241SOL     OW19621   3.746   0.376   2.675
 6241SOL    HW119622   3.658   0.400   2.716
 6241SOL    HW219623   3.747   0.403   2.579
 6242SOL     OW19624   2.898   1.949   3.617
 6242SOL    HW119625   2.997   1.965   3.607
 6242SOL    HW219626   2.865   1.901   3.536
 6243SOL     OW19627   5.064   1.046   5.909
 6243SOL    HW119628   5.030   0.995   5.830
 6243SOL    HW219629   5.159   1.021   5.927
 6244SOL     OW19630   4.488   4.441   2.500
 6244SOL    HW119631   4.578   4.439   2.457
 6244SOL    HW219632   4.420   4.401   2.439
 6245SOL     OW19633   0.416   4.564   2.589
 6245SOL    HW119634   0.351   4.615   2.532
 6245SOL    HW219635   0.374   4.479   2.620
 6246SOL     OW19636   6.698   6.478   4.329
 6246SOL    HW119637   6.607   6.513   4.308
 6246SOL    HW219638   6.694   6.378   4.338
 6247SOL     OW19639   6.333   6.597   3.156
 6247SOL    HW119640   6.243   6.571   3.120
 6247SOL    HW219641   6.372   6.520   3.205
 6248SOL     OW19642   3.412   3.186   5.951
 6248SOL    HW119643   3.449   3.117   6.014
 6248SOL    HW219644   3.461   3.181   5.864
 6249SOL     OW19645   5.966   3.071   1.485
 6249SOL    HW119646   5.893   3.003   1.492
 6249SOL    HW219647   6.017   3.058   1.400
 6250SOL     OW19648   6.535   0.140   0.434
 6250SOL    HW119649   6.546   0.150   0.335
 6250SOL    HW219650   6.450   0.091   0.453
 6251SOL     OW19651   2.736   6.729   4.318
 6251SOL    HW119652   2.678   6.716   4.398
 6251SOL    HW219653   2.777   6.820   4.321
 6252SOL     OW19654   2.996   5.905   6.883
 6252SOL    HW119655   2.954   5.986   6.840
 6252SOL    HW219656   2.950   5.823   6.851
 6253SOL     OW19657   3.759   5.059   4.765
 6253SOL    HW119658   3.847   5.045   4.720
 6253SOL    HW219659   3.764   5.025   4.859
 6254SOL     OW19660   0.674   6.502   1.042
 6254SOL    HW119661   0.755   6.510   1.100
 6254SOL    HW219662   0.703   6.483   0.948
 6255SOL     OW19663   0.486   1.250   1.900
 6255SOL    HW119664   0.505   1.340   1.860
 6255SOL    HW219665   0.436   1.261   1.986
 6256SOL     OW19666   4.959   5.964   1.993
 6256SOL    HW119667   5.040   5.976   2.050
 6256SOL    HW219668   4.910   5.882   2.021
 6257SOL     OW19669   3.309   4.038   1.405
 6257SOL    HW119670   3.237   4.103   1.432
 6257SOL    HW219671   3.272   3.945   1.408
 6258SOL     OW19672   3.905   5.342   4.976
 6258SOL    HW119673   3.967   5.319   4.901
 6258SOL    HW219674   3.811   5.346   4.942
 6259SOL     OW19675   3.237   0.460   4.328
 6259SOL    HW119676   3.181   0.503   4.399
 6259SOL    HW219677   3.334   0.481   4.344
 6260SOL     OW19678   1.443   1.682   0.455
 6260SOL    HW119679   1.456   1.778   0.480
 6260SOL    HW219680   1.532   1.637   0.451
 6261SOL     OW19681   3.385   0.479   0.961
 6261SOL    HW119682   3.388   0.496   0.863
 6261SOL    HW219683   3.298   0.513   0.998
 6262SOL     OW19684   5.774   6.977   2.452
 6262SOL    HW119685   5.740   0.046   2.474
 6262SOL    HW219686   5.790   6.971   2.354
 6263SOL     OW19687   6.158   5.882   5.998
 6263SOL    HW119688   6.167   5.827   6.080
 6263SOL    HW219689   6.229   5.857   5.932
 6264SOL     OW19690   1.860   0.405   0.510
 6264SOL    HW119691   1.925   0.331   0.530
 6264SOL    HW219692   1.877   0.481   0.572
 6265SOL     OW19693   4.897   0.526   6.895
 6265SOL    HW119694   4.847   0.458   6.951
 6265SOL    HW219695   4.951   0.478   6.826
 6266SOL     OW19696   2.311   5.285   2.832
 6266SOL    HW119697   2.316   5.276   2.733
 6266SOL    HW219698   2.260   5.209   2.871
 6267SOL     OW19699   1.912   6.436   4.931
 6267SOL    HW119700   1.975   6.375   4.885
 6267SOL    HW219701   1.821   6.394   4.935
 6268SOL     OW19702   3.295   1.603   1.051
 6268SOL    HW119703   3.382   1.559   1.071
 6268SOL    HW219704   3.299   1.643   0.960
 6269SOL     OW19705   6.274   5.278   0.141
 6269SOL    HW119706   6.371   5.277   0.116
 6269SOL    HW219707   6.264   5.248   0.236
 6270SOL     OW19708   2.178   6.496   0.636
 6270SOL    HW119709   2.153   6.539   0.549
 6270SOL    HW219710   2.277   6.492   0.644
 6271SOL     OW19711   5.716   3.096   6.089
 6271SOL    HW119712   5.764   3.106   6.177
 6271SOL    HW219713   5.770   3.136   6.016
 6272SOL     OW19714   0.715   6.804   0.785
 6272SOL    HW119715   0.639   6.787   0.721
 6272SOL    HW219716   0.730   6.721   0.839
 6273SOL     OW19717   0.829   6.568   1.620
 6273SOL    HW119718   0.853   6.665   1.609
 6273SOL    HW219719   0.902   6.511   1.584
 6274SOL     OW19720   3.240   5.860   4.112
 6274SOL    HW119721   3.321   5.844   4.168
 6274SOL    HW219722   3.224   5.782   4.052
 6275SOL     OW19723   2.157   5.346   6.955
 6275SOL    HW119724   2.142   5.429   7.008
 6275SOL    HW219725   2.255   5.336   6.936
 6276SOL     OW19726   1.508   5.670   3.019
 6276SOL    HW119727   1.500   5.615   3.102
 6276SOL    HW219728   1.580   5.632   2.960
 6277SOL     OW19729   5.013   3.530   0.813
 6277SOL    HW119730   4.939   3.475   0.775
 6277SOL    HW219731   4.997   3.626   0.795
 6278SOL     OW19732   2.467   1.268   6.487
 6278SOL    HW119733   2.502   1.213   6.411
 6278SOL    HW219734   2.435   1.356   6.451
 6279SOL     OW19735   2.455   0.127   1.563
 6279SOL    HW119736   2.460   0.028   1.580
 6279SOL    HW219737   2.364   0.149   1.529
 6280SOL     OW19738   6.208   2.430   0.318
 6280SOL    HW119739   6.193   2.344   0.366
 6280SOL    HW219740   6.140   2.441   0.245
 6281SOL     OW19741   5.656   3.645   5.981
 6281SOL    HW119742   5.687   3.650   5.886
 6281SOL    HW219743   5.692   3.723   6.032
 6282SOL     OW19744   0.115   3.258   6.292
 6282SOL    HW119745   0.065   3.280   6.209
 6282SOL    HW219746   0.053   3.260   6.371
 6283SOL     OW19747   1.089   6.133   4.632
 6283SOL    HW119748   1.063   6.103   4.540
 6283SOL    HW219749   1.080   6.056   4.696
 6284SOL     OW19750   1.630   4.349   6.066
 6284SOL    HW119751   1.652   4.446   6.068
 6284SOL    HW219752   1.566   4.331   5.992
 6285SOL     OW19753   0.937   3.907   3.111
 6285SOL    HW119754   0.992   3.865   3.183
 6285SOL    HW219755   0.912   3.837   3.043
 6286SOL     OW19756   0.668   2.643   0.322
 6286SOL    HW119757   0.602   2.686   0.384
 6286SOL    HW219758   0.628   2.561   0.281
 6287SOL     OW19759   5.299   4.656   4.798
 6287SOL    HW119760   5.386   4.606   4.802
 6287SOL    HW219761   5.290   4.714   4.879
 6288SOL     OW19762   3.465   3.137   6.431
 6288SOL    HW119763   3.401   3.093   6.494
 6288SOL    HW219764   3.516   3.208   6.478
 6289SOL     OW19765   2.558   4.533   5.857
 6289SOL    HW119766   2.576   4.540   5.759
 6289SOL    HW219767   2.461   4.512   5.872
 6290SOL     OW19768   5.193   5.775   4.093
 6290SOL    HW119769   5.114   5.800   4.149
 6290SOL    HW219770   5.261   5.848   4.097
 6291SOL     OW19771   4.007   3.802   2.820
 6291SOL    HW119772   4.059   3.782   2.903
 6291SOL    HW219773   3.948   3.724   2.798
 6292SOL     OW19774   1.256   3.157   4.377
 6292SOL    HW119775   1.175   3.214   4.367
 6292SOL    HW219776   1.317   3.197   4.445
 6293SOL     OW19777   3.581   1.005   6.749
 6293SOL    HW119778   3.645   1.064   6.798
 6293SOL    HW219779   3.586   1.024   6.651
 6294SOL     OW19780   1.581   1.410   3.020
 6294SOL    HW119781   1.492   1.451   3.040
 6294SOL    HW219782   1.647   1.440   3.088
 6295SOL     OW19783   5.390   3.675   5.942
 6295SOL    HW119784   5.415   3.609   5.871
 6295SOL    HW219785   5.472   3.707   5.988
 6296SOL     OW19786   0.704   3.055   0.086
 6296SOL    HW119787   0.655   3.049   0.173
 6296SOL    HW219788   0.794   3.095   0.100
 6297SOL     OW19789   5.965   0.979   4.211
 6297SOL    HW119790   6.017   0.968   4.296
 6297SOL    HW219791   5.983   1.070   4.173
 6298SOL     OW19792   6.546   5.736   0.707
 6298SOL    HW119793   6.585   5.828   0.715
 6298SOL    HW219794   6.539   5.694   0.797
 6299SOL     OW19795   3.994   1.570   2.420
 6299SOL    HW119796   4.028   1.654   2.379
 6299SOL    HW219797   3.956   1.511   2.349
 6300SOL     OW19798   2.597   1.217   6.086
 6300SOL    HW119799   2.554   1.303   6.113
 6300SOL    HW219800   2.543   1.175   6.013
 6301SOL     OW19801   3.602   6.368   0.087
 6301SOL    HW119802   3.514   6.404   0.056
 6301SOL    HW219803   3.674   6.431   0.060
 6302SOL     OW19804   2.967   2.346   6.367
 6302SOL    HW119805   3.024   2.411   6.418
 6302SOL    HW219806   3.012   2.257   6.367
 6303SOL     OW19807   1.187   6.373   5.110
 6303SOL    HW119808   1.199   6.462   5.154
 6303SOL    HW219809   1.137   6.312   5.172
 6304SOL     OW19810   4.200   1.157   3.657
 6304SOL    HW119811   4.138   1.217   3.605
 6304SOL    HW219812   4.287   1.204   3.670
 6305SOL     OW19813   0.762   5.819   6.095
 6305SOL    HW119814   0.724   5.776   6.177
 6305SOL    HW219815   0.851   5.860   6.117
 6306SOL     OW19816   0.019   5.196   4.078
 6306SOL    HW119817   6.987   5.132   4.132
 6306SOL    HW219818   7.021   5.186   3.981
 6307SOL     OW19819   3.947   2.983   2.336
 6307SOL    HW119820   3.953   3.060   2.273
 6307SOL    HW219821   3.951   2.897   2.284
 6308SOL     OW19822   0.164   2.556   0.718
 6308SOL    HW119823   0.197   2.507   0.799
 6308SOL    HW219824   0.198   2.512   0.636
 6309SOL     OW19825   2.533   6.173   4.655
 6309SOL    HW119826   2.447   6.218   4.631
 6309SOL    HW219827   2.608   6.217   4.606
 6310SOL     OW19828   1.545   6.675   3.019
 6310SOL    HW119829   1.468   6.681   2.956
 6310SOL    HW219830   1.515   6.700   3.111
 6311SOL     OW19831   5.477   1.218   6.077
 6311SOL    HW119832   5.548   1.150   6.094
 6311SOL    HW219833   5.503   1.305   6.119
 6312SOL     OW19834   3.839   6.161   6.582
 6312SOL    HW119835   3.891   6.107   6.648
 6312SOL    HW219836   3.808   6.246   6.625
 6313SOL     OW19837   5.541   5.216   4.532
 6313SOL    HW119838   5.446   5.201   4.505
 6313SOL    HW219839   5.590   5.262   4.457
 6314SOL     OW19840   2.264   6.913   2.356
 6314SOL    HW119841   2.327   6.986   2.331
 6314SOL    HW219842   2.173   6.932   2.318
 6315SOL     OW19843   2.045   2.645   4.705
 6315SOL    HW119844   2.019   2.563   4.757
 6315SOL    HW219845   2.144   2.647   4.692
 6316SOL     OW19846   5.071   1.013   4.644
 6316SOL    HW119847   5.050   0.919   4.670
 6316SOL    HW219848   5.075   1.020   4.545
 6317SOL     OW19849   5.324   4.923   1.402
 6317SOL    HW119850   5.392   4.850   1.407
 6317SOL    HW219851   5.295   4.936   1.308
 6318SOL     OW19852   6.858   6.280   6.944
 6318SOL    HW119853   6.768   6.323   6.955
 6318SOL    HW219854   6.926   6.331   6.997
 6319SOL     OW19855   4.896   0.883   4.370
 6319SOL    HW119856   4.928   0.810   4.310
 6319SOL    HW219857   4.817   0.927   4.329
 6320SOL     OW19858   6.332   0.615   5.839
 6320SOL    HW119859   6.250   0.660   5.876
 6320SOL    HW219860   6.399   0.603   5.912
 6321SOL     OW19861   6.346   2.514   6.712
 6321SOL    HW119862   6.430   2.568   6.717
 6321SOL    HW219863   6.294   2.542   6.631
 6322SOL     OW19864   1.217   1.314   2.130
 6322SOL    HW119865   1.287   1.386   2.128
 6322SOL    HW219866   1.128   1.355   2.147
 6323SOL     OW19867   2.357   4.606   1.203
 6323SOL    HW119868   2.393   4.590   1.111
 6323SOL    HW219869   2.337   4.518   1.246
 6324SOL     OW19870   4.356   1.738   1.315
 6324SOL    HW119871   4.441   1.706   1.271
 6324SOL    HW219872   4.350   1.837   1.306
 6325SOL     OW19873   1.689   2.970   4.059
 6325SOL    HW119874   1.759   3.032   4.094
 6325SOL    HW219875   1.631   2.939   4.134
 6326SOL     OW19876   5.286   4.798   6.150
 6326SOL    HW119877   5.381   4.777   6.174
 6326SOL    HW219878   5.278   4.897   6.133
 6327SOL     OW19879   0.020   0.368   3.987
 6327SOL    HW119880   7.001   0.300   4.048
 6327SOL    HW219881   6.992   0.372   3.901
 6328SOL     OW19882   4.353   3.543   5.237
 6328SOL    HW119883   4.444   3.573   5.210
 6328SOL    HW219884   4.299   3.521   5.156
 6329SOL     OW19885   0.784   2.543   6.097
 6329SOL    HW119886   0.743   2.525   6.186
 6329SOL    HW219887   0.795   2.458   6.046
 6330SOL     OW19888   5.312   1.800   3.127
 6330SOL    HW119889   5.247   1.731   3.160
 6330SOL    HW219890   5.396   1.756   3.096
 6331SOL     OW19891   1.177   3.433   3.773
 6331SOL    HW119892   1.151   3.522   3.737
 6331SOL    HW219893   1.194   3.370   3.697
 6332SOL     OW19894   3.322   1.830   0.035
 6332SOL    HW119895   3.372   1.905   0.079
 6332SOL    HW219896   3.348   1.743   0.077
 6333SOL     OW19897   5.028   1.525   0.710
 6333SOL    HW119898   4.959   1.479   0.767
 6333SOL    HW219899   5.054   1.464   0.635
 6334SOL     OW19900   1.501   1.411   2.111
 6334SOL    HW119901   1.544   1.495   2.142
 6334SOL    HW219902   1.521   1.337   2.176
 6335SOL     OW19903   6.308   1.497   0.009
 6335SOL    HW119904   6.368   1.530   0.082
 6335SOL    HW219905   6.251   1.573   7.000
 6336SOL     OW19906   0.957   3.429   5.594
 6336SOL    HW119907   0.945   3.347   5.649
 6336SOL    HW219908   0.944   3.407   5.497
 6337SOL     OW19909   4.872   5.357   5.414
 6337SOL    HW119910   4.964   5.325   5.391
 6337SOL    HW219911   4.819   5.281   5.451
 6338SOL     OW19912   2.342   1.226   3.213
 6338SOL    HW119913   2.388   1.235   3.301
 6338SOL    HW219914   2.274   1.153   3.218
 6339SOL     OW19915   0.440   4.721   3.459
 6339SOL    HW119916   0.436   4.811   3.503
 6339SOL    HW219917   0.366   4.714   3.392
 6340SOL     OW19918   2.551   4.090   0.714
 6340SOL    HW119919   2.529   4.075   0.811
 6340SOL    HW219920   2.544   4.004   0.664
 6341SOL     OW19921   0.406   5.273   3.188
 6341SOL    HW119922   0.373   5.192   3.235
 6341SOL    HW219923   0.398   5.261   3.089
 6342SOL     OW19924   2.245   1.341   1.176
 6342SOL    HW119925   2.170   1.404   1.155
 6342SOL    HW219926   2.263   1.282   1.097
 6343SOL     OW19927   1.497   5.524   0.878
 6343SOL    HW119928   1.589   5.490   0.895
 6343SOL    HW219929   1.463   5.573   0.958
 6344SOL     OW19930   6.822   1.055   3.976
 6344SOL    HW119931   6.745   1.115   3.953
 6344SOL    HW219932   6.796   0.997   4.053
 6345SOL     OW19933   5.791   3.357   1.771
 6345SOL    HW119934   5.816   3.372   1.675
 6345SOL    HW219935   5.692   3.344   1.778
 6346SOL     OW19936   6.770   4.437   5.550
 6346SOL    HW119937   6.799   4.346   5.581
 6346SOL    HW219938   6.706   4.475   5.616
 6347SOL     OW19939   1.766   2.039   3.469
 6347SOL    HW119940   1.865   2.050   3.458
 6347SOL    HW219941   1.748   1.979   3.547
 6348SOL     OW19942   0.731   1.915   6.291
 6348SOL    HW119943   0.787   1.865   6.226
 6348SOL    HW219944   0.651   1.861   6.315
 6349SOL     OW19945   6.926   1.158   0.139
 6349SOL    HW119946   6.941   1.225   0.065
 6349SOL    HW219947   7.004   1.160   0.202
 6350SOL     OW19948   0.920   5.370   1.825
 6350SOL    HW119949   1.019   5.356   1.835
 6350SOL    HW219950   0.893   5.453   1.874
 6351SOL     OW19951   5.701   2.930   2.038
 6351SOL    HW119952   5.674   2.849   2.092
 6351SOL    HW219953   5.693   3.012   2.095
 6352SOL     OW19954   2.922   0.708   4.270
 6352SOL    HW119955   2.900   0.805   4.260
 6352SOL    HW219956   2.971   0.677   4.189
 6353SOL     OW19957   3.190   6.276   5.584
 6353SOL    HW119958   3.228   6.363   5.616
 6353SOL    HW219959   3.091   6.275   5.599
 6354SOL     OW19960   4.701   5.440   1.510
 6354SOL    HW119961   4.742   5.530   1.496
 6354SOL    HW219962   4.648   5.441   1.595
 6355SOL     OW19963   2.461   4.603   0.947
 6355SOL    HW119964   2.489   4.578   0.854
 6355SOL    HW219965   2.533   4.658   0.989
 6356SOL     OW19966   6.528   4.993   6.397
 6356SOL    HW119967   6.603   4.988   6.463
 6356SOL    HW219968   6.560   4.961   6.308
 6357SOL     OW19969   5.896   1.335   2.023
 6357SOL    HW119970   5.908   1.300   1.930
 6357SOL    HW219971   5.960   1.410   2.039
 6358SOL     OW19972   1.020   2.055   6.008
 6358SOL    HW119973   0.996   2.109   6.089
 6358SOL    HW219974   1.092   1.991   6.032
 6359SOL     OW19975   5.450   6.479   0.688
 6359SOL    HW119976   5.441   6.411   0.760
 6359SOL    HW219977   5.544   6.480   0.655
 6360SOL     OW19978   0.645   2.165   2.143
 6360SOL    HW119979   0.573   2.116   2.192
 6360SOL    HW219980   0.726   2.107   2.135
 6361SOL     OW19981   0.030   0.692   6.550
 6361SOL    HW119982   0.013   0.755   6.475
 6361SOL    HW219983   6.984   0.619   6.550
 6362SOL     OW19984   1.526   5.544   0.294
 6362SOL    HW119985   1.620   5.546   0.328
 6362SOL    HW219986   1.477   5.625   0.326
 6363SOL     OW19987   2.322   4.508   3.221
 6363SOL    HW119988   2.362   4.457   3.297
 6363SOL    HW219989   2.315   4.450   3.141
 6364SOL     OW19990   2.298   2.704   4.691
 6364SOL    HW119991   2.360   2.684   4.615
 6364SOL    HW219992   2.283   2.802   4.697
 6365SOL     OW19993   5.539   6.534   2.851
 6365SOL    HW119994   5.603   6.557   2.925
 6365SOL    HW219995   5.586   6.477   2.783
 6366SOL     OW19996   6.133   0.321   4.940
 6366SOL    HW119997   6.132   0.223   4.961
 6366SOL    HW219998   6.103   0.334   4.845
 6367SOL     OW19999   2.189   2.034   1.920
 6367SOL    HW120000   2.165   1.937   1.913
 6367SOL    HW220001   2.201   2.058   2.016
 6368SOL     OW20002   4.928   3.226   4.600
 6368SOL    HW120003   4.857   3.213   4.531
 6368SOL    HW220004   4.886   3.227   4.691
 6369SOL     OW20005   4.107   5.473   0.002
 6369SOL    HW120006   4.059   5.394   6.987
 6369SOL    HW220007   4.206   5.458   7.019
 6370SOL     OW20008   5.232   3.371   4.376
 6370SOL    HW120009   5.295   3.377   4.299
 6370SOL    HW220010   5.228   3.460   4.422
 6371SOL     OW20011   5.088   4.447   1.059
 6371SOL    HW120012   5.029   4.393   0.999
 6371SOL    HW220013   5.150   4.387   1.109
 6372SOL     OW20014   6.881   1.562   2.431
 6372SOL    HW120015   6.816   1.540   2.359
 6372SOL    HW220016   6.860   1.508   2.513
 6373SOL     OW20017   4.491   4.487   1.309
 6373SOL    HW120018   4.419   4.462   1.374
 6373SOL    HW220019   4.485   4.585   1.289
 6374SOL     OW20020   4.766   3.876   6.760
 6374SOL    HW120021   4.782   3.788   6.803
 6374SOL    HW220022   4.671   3.882   6.729
 6375SOL     OW20023   5.223   2.251   2.102
 6375SOL    HW120024   5.147   2.248   2.036
 6375SOL    HW220025   5.280   2.170   2.091
 6376SOL     OW20026   3.312   1.015   0.058
 6376SOL    HW120027   3.243   0.958   0.103
 6376SOL    HW220028   3.362   1.067   0.128
 6377SOL     OW20029   0.212   0.762   0.447
 6377SOL    HW120030   0.195   0.714   0.533
 6377SOL    HW220031   0.302   0.736   0.411
 6378SOL     OW20032   5.219   5.403   1.870
 6378SOL    HW120033   5.308   5.360   1.857
 6378SOL    HW220034   5.183   5.378   1.960
 6379SOL     OW20035   2.016   5.656   6.345
 6379SOL    HW120036   1.968   5.720   6.284
 6379SOL    HW220037   2.098   5.622   6.300
 6380SOL     OW20038   1.351   3.864   5.041
 6380SOL    HW120039   1.403   3.907   4.967
 6380SOL    HW220040   1.253   3.867   5.019
 6381SOL     OW20041   4.371   2.420   6.871
 6381SOL    HW120042   4.461   2.376   6.877
 6381SOL    HW220043   4.299   2.350   6.877
 6382SOL     OW20044   1.843   1.824   0.751
 6382SOL    HW120045   1.813   1.886   0.679
 6382SOL    HW220046   1.928   1.857   0.790
 6383SOL     OW20047   2.594   2.435   2.279
 6383SOL    HW120048   2.569   2.531   2.273
 6383SOL    HW220049   2.666   2.414   2.212
 6384SOL     OW20050   6.560   2.510   2.184
 6384SOL    HW120051   6.613   2.594   2.172
 6384SOL    HW220052   6.598   2.437   2.127
 6385SOL     OW20053   6.866   2.987   1.409
 6385SOL    HW120054   6.768   3.006   1.418
 6385SOL    HW220055   6.915   3.072   1.392
 6386SOL     OW20056   2.585   3.865   0.565
 6386SOL    HW120057   2.648   3.788   0.575
 6386SOL    HW220058   2.624   3.932   0.501
 6387SOL     OW20059   6.813   6.899   6.568
 6387SOL    HW120060   6.836   6.949   6.485
 6387SOL    HW220061   6.884   6.830   6.587
 6388SOL     OW20062   6.645   5.468   2.069
 6388SOL    HW120063   6.650   5.483   2.168
 6388SOL    HW220064   6.674   5.550   2.021
 6389SOL     OW20065   0.457   0.634   0.443
 6389SOL    HW120066   0.476   0.610   0.538
 6389SOL    HW220067   0.538   0.616   0.387
 6390SOL     OW20068   5.480   0.332   6.594
 6390SOL    HW120069   5.495   0.430   6.600
 6390SOL    HW220070   5.476   0.304   6.499
 6391SOL     OW20071   0.804   1.275   5.252
 6391SOL    HW120072   0.885   1.290   5.195
 6391SOL    HW220073   0.733   1.339   5.225
 6392SOL     OW20074   3.862   6.684   3.276
 6392SOL    HW120075   3.889   6.589   3.295
 6392SOL    HW220076   3.876   6.739   3.358
 6393SOL     OW20077   0.887   5.233   7.020
 6393SOL    HW120078   0.884   5.291   0.079
 6393SOL    HW220079   0.838   5.148   0.014
 6394SOL     OW20080   1.593   5.731   1.415
 6394SOL    HW120081   1.524   5.803   1.425
 6394SOL    HW220082   1.677   5.760   1.460
 6395SOL     OW20083   2.278   4.053   3.065
 6395SOL    HW120084   2.292   4.010   2.976
 6395SOL    HW220085   2.241   3.986   3.129
 6396SOL     OW20086   1.025   3.616   6.462
 6396SOL    HW120087   0.979   3.583   6.544
 6396SOL    HW220088   1.055   3.711   6.477
 6397SOL     OW20089   5.758   3.112   4.214
 6397SOL    HW120090   5.835   3.157   4.169
 6397SOL    HW220091   5.683   3.101   4.148
 6398SOL     OW20092   2.200   0.555   1.129
 6398SOL    HW120093   2.169   0.476   1.181
 6398SOL    HW220094   2.137   0.631   1.144
 6399SOL     OW20095   3.184   1.026   5.981
 6399SOL    HW120096   3.234   0.947   6.015
 6399SOL    HW220097   3.247   1.104   5.970
 6400SOL     OW20098   1.901   6.487   3.453
 6400SOL    HW120099   1.848   6.491   3.538
 6400SOL    HW220100   1.998   6.476   3.474
 6401SOL     OW20101   3.828   5.663   3.270
 6401SOL    HW120102   3.838   5.570   3.305
 6401SOL    HW220103   3.816   5.727   3.346
 6402SOL     OW20104   2.102   4.579   4.991
 6402SOL    HW120105   2.029   4.557   5.056
 6402SOL    HW220106   2.191   4.553   5.030
 6403SOL     OW20107   4.823   5.466   5.171
 6403SOL    HW120108   4.853   5.404   5.244
 6403SOL    HW220109   4.728   5.447   5.148
 6404SOL     OW20110   4.344   6.843   1.878
 6404SOL    HW120111   4.280   6.908   1.919
 6404SOL    HW220112   4.412   6.815   1.947
 6405SOL     OW20113   5.379   1.918   2.798
 6405SOL    HW120114   5.409   2.012   2.785
 6405SOL    HW220115   5.287   1.906   2.759
 6406SOL     OW20116   6.852   3.090   3.387
 6406SOL    HW120117   6.805   3.121   3.469
 6406SOL    HW220118   6.815   3.002   3.358
 6407SOL     OW20119   0.720   5.972   2.340
 6407SOL    HW120120   0.667   5.933   2.415
 6407SOL    HW220121   0.812   5.995   2.373
 6408SOL     OW20122   6.934   0.403   2.110
 6408SOL    HW120123   6.889   0.488   2.083
 6408SOL    HW220124   6.994   0.373   2.036
 6409SOL     OW20125   5.515   5.345   3.507
 6409SOL    HW120126   5.601   5.396   3.504
 6409SOL    HW220127   5.491   5.315   3.415
 6410SOL     OW20128   1.888   1.546   6.589
 6410SOL    HW120129   1.798   1.504   6.602
 6410SOL    HW220130   1.914   1.538   6.493
 6411SOL     OW20131   0.512   2.409   2.082
 6411SOL    HW120132   0.575   2.332   2.077
 6411SOL    HW220133   0.463   2.418   1.996
 6412SOL     OW20134   3.418   1.082   0.360
 6412SOL    HW120135   3.459   1.107   0.448
 6412SOL    HW220136   3.345   1.146   0.337
 6413SOL     OW20137   4.572   6.542   3.071
 6413SOL    HW120138   4.487   6.491   3.090
 6413SOL    HW220139   4.625   6.493   3.002
 6414SOL     OW20140   1.601   0.322   0.394
 6414SOL    HW120141   1.554   0.235   0.408
 6414SOL    HW220142   1.672   0.334   0.463
 6415SOL     OW20143   0.160   2.298   3.542
 6415SOL    HW120144   0.247   2.346   3.527
 6415SOL    HW220145   0.086   2.364   3.547
 6416SOL     OW20146   2.385   6.536   0.032
 6416SOL    HW120147   2.433   6.500   0.112
 6416SOL    HW220148   2.450   6.578   6.992
 6417SOL     OW20149   3.908   2.129   0.316
 6417SOL    HW120150   3.983   2.125   0.250
 6417SOL    HW220151   3.823   2.153   0.269
 6418SOL     OW20152   4.446   4.630   0.374
 6418SOL    HW120153   4.441   4.533   0.401
 6418SOL    HW220154   4.452   4.637   0.275
 6419SOL     OW20155   0.900   6.610   6.581
 6419SOL    HW120156   0.841   6.688   6.561
 6419SOL    HW220157   0.853   6.526   6.552
 6420SOL     OW20158   2.168   4.014   4.523
 6420SOL    HW120159   2.165   4.061   4.435
 6420SOL    HW220160   2.204   4.077   4.593
 6421SOL     OW20161   4.068   6.881   2.352
 6421SOL    HW120162   4.061   6.827   2.268
 6421SOL    HW220163   4.164   6.887   2.380
 6422SOL     OW20164   5.620   2.031   4.387
 6422SOL    HW120165   5.648   2.016   4.482
 6422SOL    HW220166   5.656   1.958   4.330
 6423SOL     OW20167   1.826   4.478   4.455
 6423SOL    HW120168   1.826   4.567   4.501
 6423SOL    HW220169   1.797   4.408   4.520
 6424SOL     OW20170   6.366   4.562   5.174
 6424SOL    HW120171   6.355   4.469   5.139
 6424SOL    HW220172   6.406   4.559   5.265
 6425SOL     OW20173   6.363   5.531   4.223
 6425SOL    HW120174   6.311   5.513   4.306
 6425SOL    HW220175   6.409   5.448   4.193
 6426SOL     OW20176   4.671   4.010   5.272
 6426SOL    HW120177   4.759   4.032   5.316
 6426SOL    HW220178   4.688   3.957   5.189
 6427SOL     OW20179   3.722   2.949   3.170
 6427SOL    HW120180   3.659   3.004   3.115
 6427SOL    HW220181   3.765   2.879   3.113
 6428SOL     OW20182   5.456   3.190   0.583
 6428SOL    HW120183   5.535   3.129   0.593
 6428SOL    HW220184   5.396   3.179   0.662
 6429SOL     OW20185   2.212   1.287   5.321
 6429SOL    HW120186   2.170   1.212   5.270
 6429SOL    HW220187   2.264   1.251   5.398
 6430SOL     OW20188   6.581   7.021   5.180
 6430SOL    HW120189   6.497   0.053   5.177
 6430SOL    HW220190   6.574   6.954   5.253
 6431SOL     OW20191   3.763   4.520   1.593
 6431SOL    HW120192   3.709   4.551   1.672
 6431SOL    HW220193   3.731   4.566   1.510
 6432SOL     OW20194   4.874   4.554   6.013
 6432SOL    HW120195   4.859   4.511   6.102
 6432SOL    HW220196   4.856   4.488   5.940
 6433SOL     OW20197   3.035   5.199   6.950
 6433SOL    HW120198   3.033   5.116   6.895
 6433SOL    HW220199   3.092   5.268   6.904
 6434SOL     OW20200   4.045   5.374   6.484
 6434SOL    HW120201   4.086   5.455   6.442
 6434SOL    HW220202   3.996   5.322   6.415
 6435SOL     OW20203   4.984   1.658   1.252
 6435SOL    HW120204   4.993   1.674   1.153
 6435SOL    HW220205   5.015   1.565   1.273
 6436SOL     OW20206   6.698   4.269   4.174
 6436SOL    HW120207   6.603   4.244   4.196
 6436SOL    HW220208   6.726   4.347   4.230
 6437SOL     OW20209   0.991   2.036   5.489
 6437SOL    HW120210   0.934   2.115   5.468
 6437SOL    HW220211   0.964   1.998   5.577
 6438SOL     OW20212   0.716   5.104   0.985
 6438SOL    HW120213   0.745   5.192   1.024
 6438SOL    HW220214   0.618   5.091   1.000
 6439SOL     OW20215   5.385   6.992   2.886
 6439SOL    HW120216   5.338   6.905   2.900
 6439SOL    HW220217   5.435   6.988   2.799
 6440SOL     OW20218   3.170   2.169   6.686
 6440SOL    HW120219   3.088   2.116   6.664
 6440SOL    HW220220   3.202   2.215   6.603
 6441SOL     OW20221   0.914   1.550   2.693
 6441SOL    HW120222   0.861   1.632   2.710
 6441SOL    HW220223   0.998   1.574   2.644
 6442SOL     OW20224   2.661   2.491   5.182
 6442SOL    HW120225   2.592   2.547   5.136
 6442SOL    HW220226   2.732   2.551   5.219
 6443SOL     OW20227   4.662   3.036   0.154
 6443SOL    HW120228   4.652   2.994   0.244
 6443SOL    HW220229   4.572   3.062   0.119
 6444SOL     OW20230   6.498   3.323   4.812
 6444SOL    HW120231   6.535   3.409   4.846
 6444SOL    HW220232   6.437   3.283   4.881
 6445SOL     OW20233   2.906   3.335   3.148
 6445SOL    HW120234   2.888   3.324   3.050
 6445SOL    HW220235   2.941   3.249   3.185
 6446SOL     OW20236   1.972   1.112   6.543
 6446SOL    HW120237   2.033   1.160   6.480
 6446SOL    HW220238   2.016   1.102   6.632
 6447SOL     OW20239   6.171   3.383   1.517
 6447SOL    HW120240   6.154   3.304   1.576
 6447SOL    HW220241   6.189   3.353   1.424
 6448SOL     OW20242   3.524   5.785   1.219
 6448SOL    HW120243   3.512   5.843   1.138
 6448SOL    HW220244   3.486   5.695   1.201
 6449SOL     OW20245   2.361   5.813   1.377
 6449SOL    HW120246   2.405   5.763   1.302
 6449SOL    HW220247   2.415   5.895   1.398
 6450SOL     OW20248   0.848   4.376   1.139
 6450SOL    HW120249   0.813   4.395   1.231
 6450SOL    HW220250   0.875   4.462   1.096
 6451SOL     OW20251   4.750   2.294   1.317
 6451SOL    HW120252   4.658   2.291   1.278
 6451SOL    HW220253   4.750   2.254   1.408
 6452SOL     OW20254   4.781   2.007   3.584
 6452SOL    HW120255   4.762   1.909   3.585
 6452SOL    HW220256   4.710   2.054   3.533
 6453SOL     OW20257   2.403   0.981   1.361
 6453SOL    HW120258   2.391   0.915   1.435
 6453SOL    HW220259   2.489   0.964   1.314
 6454SOL     OW20260   5.389   2.575   3.484
 6454SOL    HW120261   5.299   2.578   3.528
 6454SOL    HW220262   5.407   2.481   3.453
 6455SOL     OW20263   6.339   3.727   3.555
 6455SOL    HW120264   6.305   3.681   3.473
 6455SOL    HW220265   6.286   3.698   3.635
 6456SOL     OW20266   6.055   1.147   2.934
 6456SOL    HW120267   5.973   1.119   2.885
 6456SOL    HW220268   6.125   1.176   2.868
 6457SOL     OW20269   3.479   0.161   1.845
 6457SOL    HW120270   3.482   0.116   1.756
 6457SOL    HW220271   3.565   0.146   1.893
 6458SOL     OW20272   7.018   5.480   3.610
 6458SOL    HW120273   6.985   5.463   3.703
 6458SOL    HW220274   7.013   5.396   3.557
 6459SOL     OW20275   6.792   3.182   2.726
 6459SOL    HW120276   6.807   3.083   2.727
 6459SOL    HW220277   6.705   3.202   2.680
 6460SOL     OW20278   0.703   5.657   6.326
 6460SOL    HW120279   0.798   5.626   6.330
 6460SOL    HW220280   0.648   5.606   6.392
 6461SOL     OW20281   2.066   5.413   0.997
 6461SOL    HW120282   2.049   5.492   1.056
 6461SOL    HW220283   2.156   5.374   1.020
 6462SOL     OW20284   1.528   3.503   5.607
 6462SOL    HW120285   1.523   3.473   5.512
 6462SOL    HW220286   1.543   3.423   5.666
 6463SOL     OW20287   4.906   1.753   1.490
 6463SOL    HW120288   4.878   1.682   1.556
 6463SOL    HW220289   4.902   1.716   1.398
 6464SOL     OW20290   0.921   4.502   3.877
 6464SOL    HW120291   0.990   4.449   3.827
 6464SOL    HW220292   0.957   4.528   3.966
 6465SOL     OW20293   3.601   1.108   3.468
 6465SOL    HW120294   3.576   1.088   3.374
 6465SOL    HW220295   3.616   1.206   3.479
 6466SOL     OW20296   0.151   3.791   0.602
 6466SOL    HW120297   0.075   3.795   0.537
 6466SOL    HW220298   0.205   3.875   0.596
 6467SOL     OW20299   2.688   2.933   0.718
 6467SOL    HW120300   2.644   2.989   0.648
 6467SOL    HW220301   2.662   2.967   0.808
 6468SOL     OW20302   2.228   1.628   0.936
 6468SOL    HW120303   2.183   1.545   0.966
 6468SOL    HW220304   2.321   1.607   0.905
 6469SOL     OW20305   3.325   1.312   2.608
 6469SOL    HW120306   3.409   1.258   2.603
 6469SOL    HW220307   3.334   1.395   2.553
 6470SOL     OW20308   6.812   1.978   0.115
 6470SOL    HW120309   6.845   2.053   0.058
 6470SOL    HW220310   6.732   1.936   0.072
 6471SOL     OW20311   0.879   6.784   6.231
 6471SOL    HW120312   0.786   6.789   6.266
 6471SOL    HW220313   0.905   6.687   6.221
 6472SOL     OW20314   6.521   6.495   2.688
 6472SOL    HW120315   6.547   6.451   2.774
 6472SOL    HW220316   6.443   6.555   2.703
 6473SOL     OW20317   2.636   1.315   3.629
 6473SOL    HW120318   2.728   1.331   3.666
 6473SOL    HW220319   2.577   1.391   3.655
 6474SOL     OW20320   3.656   5.417   4.855
 6474SOL    HW120321   3.709   5.403   4.771
 6474SOL    HW220322   3.577   5.474   4.836
 6475SOL     OW20323   5.963   5.282   2.580
 6475SOL    HW120324   6.009   5.311   2.663
 6475SOL    HW220325   6.029   5.280   2.505
 6476SOL     OW20326   3.928   1.911   6.385
 6476SOL    HW120327   3.890   1.940   6.298
 6476SOL    HW220328   3.942   1.990   6.444
 6477SOL     OW20329   6.686   5.846   1.304
 6477SOL    HW120330   6.763   5.875   1.361
 6477SOL    HW220331   6.628   5.783   1.355
 6478SOL     OW20332   3.419   5.909   1.011
 6478SOL    HW120333   3.329   5.942   1.038
 6478SOL    HW220334   3.490   5.971   1.047
 6479SOL     OW20335   3.455   6.072   3.583
 6479SOL    HW120336   3.522   5.998   3.568
 6479SOL    HW220337   3.380   6.063   3.518
 6480SOL     OW20338   3.933   2.148   6.532
 6480SOL    HW120339   3.981   2.235   6.534
 6480SOL    HW220340   3.930   2.110   6.625
 6481SOL     OW20341   3.450   2.903   1.710
 6481SOL    HW120342   3.430   2.828   1.647
 6481SOL    HW220343   3.539   2.887   1.753
 6482SOL     OW20344   5.693   4.001   5.721
 6482SOL    HW120345   5.695   3.980   5.819
 6482SOL    HW220346   5.749   4.081   5.703
 6483SOL     OW20347   1.631   6.609   4.898
 6483SOL    HW120348   1.592   6.522   4.866
 6483SOL    HW220349   1.661   6.663   4.819
 6484SOL     OW20350   2.596   0.773   3.833
 6484SOL    HW120351   2.544   0.790   3.750
 6484SOL    HW220352   2.691   0.750   3.810
 6485SOL     OW20353   2.253   6.551   4.935
 6485SOL    HW120354   2.304   6.562   4.849
 6485SOL    HW220355   2.198   6.468   4.931
 6486SOL     OW20356   1.714   5.390   3.157
 6486SOL    HW120357   1.709   5.488   3.180
 6486SOL    HW220358   1.666   5.373   3.072
 6487SOL     OW20359   5.549   4.821   3.701
 6487SOL    HW120360   5.521   4.788   3.610
 6487SOL    HW220361   5.623   4.887   3.691
 6488SOL     OW20362   4.364   5.225   4.834
 6488SOL    HW120363   4.340   5.213   4.930
 6488SOL    HW220364   4.455   5.263   4.826
 6489SOL     OW20365   4.764   2.634   5.744
 6489SOL    HW120366   4.678   2.596   5.710
 6489SOL    HW220367   4.830   2.561   5.757
 6490SOL     OW20368   2.186   2.607   6.950
 6490SOL    HW120369   2.107   2.569   6.902
 6490SOL    HW220370   2.171   2.705   6.966
 6491SOL     OW20371   2.752   7.023   1.795
 6491SOL    HW120372   2.665   6.986   1.760
 6491SOL    HW220373   2.758   7.005   1.893
 6492SOL     OW20374   3.577   3.398   4.559
 6492SOL    HW120375   3.503   3.438   4.613
 6492SOL    HW220376   3.625   3.329   4.614
 6493SOL     OW20377   0.870   3.935   5.325
 6493SOL    HW120378   0.848   3.890   5.238
 6493SOL    HW220379   0.810   3.899   5.397
 6494SOL     OW20380   6.399   0.504   1.574
 6494SOL    HW120381   6.469   0.514   1.645
 6494SOL    HW220382   6.308   0.514   1.614
 6495SOL     OW20383   5.958   0.089   3.512
 6495SOL    HW120384   6.029   0.048   3.455
 6495SOL    HW220385   5.982   0.184   3.533
 6496SOL     OW20386   3.554   1.488   1.091
 6496SOL    HW120387   3.602   1.576   1.089
 6496SOL    HW220388   3.558   1.451   1.184
 6497SOL     OW20389   0.435   1.352   0.422
 6497SOL    HW120390   0.530   1.377   0.441
 6497SOL    HW220391   0.380   1.434   0.410
 6498SOL     OW20392   0.833   4.993   4.122
 6498SOL    HW120393   0.815   5.084   4.161
 6498SOL    HW220394   0.792   4.987   4.031
 6499SOL     OW20395   4.894   3.518   3.187
 6499SOL    HW120396   4.933   3.485   3.101
 6499SOL    HW220397   4.879   3.616   3.182
 6500SOL     OW20398   1.297   4.318   2.875
 6500SOL    HW120399   1.329   4.411   2.896
 6500SOL    HW220400   1.204   4.307   2.910
 6501SOL     OW20401   5.881   1.767   1.506
 6501SOL    HW120402   5.798   1.731   1.547
 6501SOL    HW220403   5.895   1.862   1.535
 6502SOL     OW20404   6.975   3.386   2.305
 6502SOL    HW120405   0.009   3.347   2.232
 6502SOL    HW220406   6.888   3.417   2.267
 6503SOL     OW20407   6.814   3.237   5.495
 6503SOL    HW120408   6.718   3.252   5.472
 6503SOL    HW220409   6.864   3.207   5.413
 6504SOL     OW20410   4.902   5.766   6.237
 6504SOL    HW120411   4.873   5.807   6.150
 6504SOL    HW220412   4.899   5.835   6.309
 6505SOL     OW20413   0.070   5.860   0.249
 6505SOL    HW120414   0.059   5.782   0.311
 6505SOL    HW220415   0.009   5.848   0.170
 6506SOL     OW20416   0.127   3.849   2.304
 6506SOL    HW120417   0.069   3.810   2.376
 6506SOL    HW220418   0.161   3.775   2.245
 6507SOL     OW20419   3.454   4.703   6.907
 6507SOL    HW120420   3.495   4.766   6.841
 6507SOL    HW220421   3.526   4.645   6.946
 6508SOL     OW20422   0.748   0.122   2.630
 6508SOL    HW120423   0.836   0.118   2.584
 6508SOL    HW220424   0.748   0.060   2.708
 6509SOL     OW20425   3.092   1.736   6.183
 6509SOL    HW120426   3.077   1.680   6.101
 6509SOL    HW220427   3.143   1.683   6.250
 6510SOL     OW20428   3.844   5.684   5.619
 6510SOL    HW120429   3.926   5.696   5.675
 6510SOL    HW220430   3.766   5.726   5.666
 6511SOL     OW20431   2.953   1.548   0.921
 6511SOL    HW120432   2.891   1.509   0.989
 6511SOL    HW220433   2.997   1.474   0.870
 6512SOL     OW20434   3.692   1.809   0.095
 6512SOL    HW120435   3.671   1.713   0.074
 6512SOL    HW220436   3.618   1.846   0.152
 6513SOL     OW20437   2.119   5.083   3.191
 6513SOL    HW120438   2.023   5.065   3.209
 6513SOL    HW220439   2.175   5.018   3.243
 6514SOL     OW20440   5.300   6.639   5.639
 6514SOL    HW120441   5.324   6.668   5.732
 6514SOL    HW220442   5.375   6.584   5.602
 6515SOL     OW20443   1.367   4.813   2.474
 6515SOL    HW120444   1.317   4.800   2.388
 6515SOL    HW220445   1.461   4.779   2.464
 6516SOL     OW20446   6.765   3.960   1.524
 6516SOL    HW120447   6.767   4.033   1.592
 6516SOL    HW220448   6.843   3.899   1.537
 6517SOL     OW20449   6.977   3.372   0.862
 6517SOL    HW120450   6.887   3.382   0.904
 6517SOL    HW220451   6.988   3.441   0.791
 6518SOL     OW20452   1.296   1.701   2.807
 6518SOL    HW120453   1.297   1.645   2.889
 6518SOL    HW220454   1.281   1.797   2.831
 6519SOL     OW20455   1.417   1.062   3.305
 6519SOL    HW120456   1.453   1.050   3.397
 6519SOL    HW220457   1.478   1.017   3.239
 6520SOL     OW20458   0.483   4.974   6.770
 6520SOL    HW120459   0.493   4.890   6.716
 6520SOL    HW220460   0.553   4.976   6.841
 6521SOL     OW20461   1.172   4.347   3.837
 6521SOL    HW120462   1.232   4.408   3.786
 6521SOL    HW220463   1.222   4.306   3.913
 6522SOL     OW20464   2.531   3.203   5.339
 6522SOL    HW120465   2.526   3.144   5.258
 6522SOL    HW220466   2.455   3.181   5.401
 6523SOL     OW20467   5.969   0.321   0.359
 6523SOL    HW120468   5.911   0.245   0.330
 6523SOL    HW220469   5.931   0.362   0.441
 6524SOL     OW20470   2.475   2.811   1.135
 6524SOL    HW120471   2.424   2.776   1.214
 6524SOL    HW220472   2.450   2.759   1.053
 6525SOL     OW20473   0.799   4.971   3.172
 6525SOL    HW120474   0.863   4.974   3.095
 6525SOL    HW220475   0.746   5.056   3.175
 6526SOL     OW20476   0.770   5.959   6.762
 6526SOL    HW120477   0.681   6.000   6.741
 6526SOL    HW220478   0.838   6.032   6.777
 6527SOL     OW20479   0.140   1.801   0.307
 6527SOL    HW120480   0.048   1.782   0.273
 6527SOL    HW220481   0.164   1.733   0.376
 6528SOL     OW20482   4.731   0.151   0.138
 6528SOL    HW120483   4.687   0.189   0.219
 6528SOL    HW220484   4.673   0.164   0.058
 6529SOL     OW20485   6.266   0.962   2.546
 6529SOL    HW120486   6.240   0.987   2.639
 6529SOL    HW220487   6.241   0.867   2.529
 6530SOL     OW20488   0.894   3.169   2.839
 6530SOL    HW120489   0.953   3.157   2.759
 6530SOL    HW220490   0.914   3.256   2.883
 6531SOL     OW20491   3.823   4.040   4.928
 6531SOL    HW120492   3.874   4.060   4.844
 6531SOL    HW220493   3.729   4.015   4.904
 6532SOL     OW20494   1.223   0.742   0.610
 6532SOL    HW120495   1.281   0.759   0.531
 6532SOL    HW220496   1.268   0.776   0.693
 6533SOL     OW20497   4.687   3.615   0.781
 6533SOL    HW120498   4.612   3.634   0.717
 6533SOL    HW220499   4.671   3.528   0.827
 6534SOL     OW20500   6.619   4.652   3.138
 6534SOL    HW120501   6.536   4.616   3.095
 6534SOL    HW220502   6.593   4.722   3.205
 6535SOL     OW20503   5.536   2.817   5.508
 6535SOL    HW120504   5.607   2.771   5.560
 6535SOL    HW220505   5.490   2.885   5.566
 6536SOL     OW20506   0.675   4.421   5.305
 6536SOL    HW120507   0.772   4.411   5.281
 6536SOL    HW220508   0.665   4.420   5.404
 6537SOL     OW20509   6.197   5.428   4.397
 6537SOL    HW120510   6.182   5.418   4.496
 6537SOL    HW220511   6.152   5.353   4.349
 6538SOL     OW20512   1.961   3.063   5.821
 6538SOL    HW120513   2.023   2.994   5.782
 6538SOL    HW220514   2.014   3.142   5.851
 6539SOL     OW20515   5.402   1.305   5.837
 6539SOL    HW120516   5.422   1.252   5.755
 6539SOL    HW220517   5.415   1.247   5.918
 6540SOL     OW20518   6.221   2.665   5.528
 6540SOL    HW120519   6.289   2.601   5.492
 6540SOL    HW220520   6.266   2.753   5.546
 6541SOL     OW20521   6.333   0.749   4.910
 6541SOL    HW120522   6.317   0.659   4.951
 6541SOL    HW220523   6.394   0.802   4.968
 6542SOL     OW20524   1.526   4.207   2.871
 6542SOL    HW120525   1.550   4.163   2.957
 6542SOL    HW220526   1.435   4.248   2.880
 6543SOL     OW20527   3.718   2.045   5.082
 6543SOL    HW120528   3.790   2.043   5.151
 6543SOL    HW220529   3.756   2.074   4.994
 6544SOL     OW20530   1.475   6.521   1.605
 6544SOL    HW120531   1.387   6.485   1.637
 6544SOL    HW220532   1.460   6.610   1.563
 6545SOL     OW20533   4.387   6.864   0.608
 6545SOL    HW120534   4.482   6.833   0.612
 6545SOL    HW220535   4.344   6.852   0.698
 6546SOL     OW20536   4.574   3.528   6.230
 6546SOL    HW120537   4.584   3.523   6.329
 6546SOL    HW220538   4.541   3.619   6.204
 6547SOL     OW20539   0.302   5.278   6.517
 6547SOL    HW120540   0.219   5.295   6.569
 6547SOL    HW220541   0.313   5.349   6.446
 6548SOL     OW20542   0.376   1.284   5.015
 6548SOL    HW120543   0.294   1.227   5.017
 6548SOL    HW220544   0.405   1.298   4.920
 6549SOL     OW20545   4.868   0.927   2.146
 6549SOL    HW120546   4.915   0.890   2.066
 6549SOL    HW220547   4.898   0.879   2.228
 6550SOL     OW20548   6.029   6.622   3.795
 6550SOL    HW120549   6.093   6.566   3.848
 6550SOL    HW220550   5.950   6.646   3.851
 6551SOL     OW20551   3.115   3.934   0.763
 6551SOL    HW120552   3.154   3.926   0.855
 6551SOL    HW220553   3.118   3.845   0.718
 6552SOL     OW20554   2.044   5.722   0.299
 6552SOL    HW120555   1.956   5.738   0.254
 6552SOL    HW220556   2.031   5.659   0.376
 6553SOL     OW20557   0.350   1.070   4.073
 6553SOL    HW120558   0.256   1.103   4.077
 6553SOL    HW220559   0.408   1.125   4.133
 6554SOL     OW20560   2.002   1.331   4.443
 6554SOL    HW120561   2.083   1.284   4.410
 6554SOL    HW220562   1.962   1.385   4.369
 6555SOL     OW20563   6.551   4.029   3.446
 6555SOL    HW120564   6.631   4.046   3.503
 6555SOL    HW220565   6.536   3.930   3.438
 6556SOL     OW20566   4.671   2.767   2.767
 6556SOL    HW120567   4.664   2.840   2.836
 6556SOL    HW220568   4.705   2.806   2.681
 6557SOL     OW20569   2.096   0.725   1.867
 6557SOL    HW120570   2.021   0.787   1.844
 6557SOL    HW220571   2.158   0.769   1.931
 6558SOL     OW20572   5.454   5.428   6.589
 6558SOL    HW120573   5.373   5.478   6.557
 6558SOL    HW220574   5.442   5.405   6.685
 6559SOL     OW20575   0.068   2.140   6.066
 6559SOL    HW120576   0.049   2.198   5.986
 6559SOL    HW220577   0.164   2.113   6.065
 6560SOL     OW20578   5.327   4.891   0.479
 6560SOL    HW120579   5.296   4.811   0.427
 6560SOL    HW220580   5.251   4.955   0.490
 6561SOL     OW20581   3.656   4.554   6.996
 6561SOL    HW120582   3.625   4.492   0.045
 6561SOL    HW220583   3.716   4.505   6.933
 6562SOL     OW20584   5.299   3.111   1.078
 6562SOL    HW120585   5.382   3.135   1.128
 6562SOL    HW220586   5.265   3.023   1.110
 6563SOL     OW20587   5.476   5.713   5.119
 6563SOL    HW120588   5.546   5.660   5.072
 6563SOL    HW220589   5.394   5.656   5.132
 6564SOL     OW20590   6.281   3.626   2.830
 6564SOL    HW120591   6.313   3.644   2.737
 6564SOL    HW220592   6.351   3.575   2.880
 6565SOL     OW20593   5.677   0.753   3.292
 6565SOL    HW120594   5.709   0.847   3.281
 6565SOL    HW220595   5.753   0.695   3.321
 6566SOL     OW20596   4.866   6.052   2.798
 6566SOL    HW120597   4.908   6.033   2.887
 6566SOL    HW220598   4.871   6.150   2.778
 6567SOL     OW20599   4.424   0.978   1.046
 6567SOL    HW120600   4.487   1.024   0.983
 6567SOL    HW220601   4.368   1.046   1.093
 6568SOL     OW20602   4.275   1.452   1.184
 6568SOL    HW120603   4.232   1.506   1.112
 6568SOL    HW220604   4.353   1.502   1.222
 6569SOL     OW20605   0.122   4.160   5.676
 6569SOL    HW120606   0.124   4.154   5.776
 6569SOL    HW220607   0.216   4.156   5.641
 6570SOL     OW20608   4.050   6.771   2.075
 6570SOL    HW120609   3.951   6.771   2.093
 6570SOL    HW220610   4.082   6.677   2.067
 6571SOL     OW20611   3.170   5.357   2.646
 6571SOL    HW120612   3.079   5.342   2.609
 6571SOL    HW220613   3.185   5.454   2.662
 6572SOL     OW20614   1.215   5.669   4.065
 6572SOL    HW120615   1.169   5.667   3.976
 6572SOL    HW220616   1.147   5.675   4.137
 6573SOL     OW20617   1.520   1.466   3.575
 6573SOL    HW120618   1.460   1.393   3.609
 6573SOL    HW220619   1.524   1.462   3.475
 6574SOL     OW20620   1.926   5.765   1.877
 6574SOL    HW120621   2.017   5.728   1.894
 6574SOL    HW220622   1.926   5.863   1.895
 6575SOL     OW20623   6.678   1.404   3.074
 6575SOL    HW120624   6.656   1.354   2.991
 6575SOL    HW220625   6.763   1.370   3.113
 6576SOL     OW20626   4.278   6.043   0.978
 6576SOL    HW120627   4.244   6.134   0.953
 6576SOL    HW220628   4.252   6.023   1.072
 6577SOL     OW20629   2.817   0.683   3.568
 6577SOL    HW120630   2.791   0.779   3.583
 6577SOL    HW220631   2.917   0.677   3.563
 6578SOL     OW20632   1.246   5.078   1.685
 6578SOL    HW120633   1.283   5.171   1.680
 6578SOL    HW220634   1.319   5.012   1.670
 6579SOL     OW20635   6.316   0.948   4.081
 6579SOL    HW120636   6.353   1.006   4.154
 6579SOL    HW220637   6.309   0.854   4.113
 6580SOL     OW20638   2.135   1.248   6.780
 6580SOL    HW120639   2.215   1.305   6.802
 6580SOL    HW220640   2.052   1.293   6.814
 6581SOL     OW20641   0.467   2.351   0.457
 6581SOL    HW120642   0.394   2.286   0.475
 6581SOL    HW220643   0.428   2.439   0.432
 6582SOL     OW20644   6.388   1.558   3.577
 6582SOL    HW120645   6.415   1.482   3.516
 6582SOL    HW220646   6.453   1.633   3.566
 6583SOL     OW20647   3.799   5.715   6.503
 6583SOL    HW120648   3.758   5.792   6.553
 6583SOL    HW220649   3.891   5.699   6.536
 6584SOL     OW20650   3.471   2.822   0.671
 6584SOL    HW120651   3.503   2.867   0.755
 6584SOL    HW220652   3.383   2.861   0.645
 6585SOL     OW20653   6.024   6.632   0.872
 6585SOL    HW120654   6.059   6.538   0.884
 6585SOL    HW220655   6.034   6.682   0.958
 6586SOL     OW20656   6.573   2.132   6.607
 6586SOL    HW120657   6.573   2.035   6.632
 6586SOL    HW220658   6.479   2.166   6.607
 6587SOL     OW20659   1.767   4.718   5.627
 6587SOL    HW120660   1.704   4.640   5.616
 6587SOL    HW220661   1.861   4.685   5.625
 6588SOL     OW20662   6.628   3.179   0.545
 6588SOL    HW120663   6.545   3.207   0.594
 6588SOL    HW220664   6.607   3.165   0.448
 6589SOL     OW20665   0.097   0.566   2.201
 6589SOL    HW120666   0.116   0.629   2.126
 6589SOL    HW220667   0.022   0.505   2.176
 6590SOL     OW20668   1.639   0.035   3.788
 6590SOL    HW120669   1.592   0.059   3.704
 6590SOL    HW220670   1.730   7.022   3.766
 6591SOL     OW20671   5.681   4.294   4.350
 6591SOL    HW120672   5.767   4.305   4.400
 6591SOL    HW220673   5.608   4.268   4.413
 6592SOL     OW20674   6.293   6.973   3.017
 6592SOL    HW120675   6.234   6.959   2.937
 6592SOL    HW220676   6.303   6.887   3.067
 6593SOL     OW20677   2.795   2.126   2.248
 6593SOL    HW120678   2.837   2.178   2.174
 6593SOL    HW220679   2.700   2.154   2.259
 6594SOL     OW20680   4.782   0.781   6.470
 6594SOL    HW120681   4.697   0.833   6.474
 6594SOL    HW220682   4.846   0.818   6.537
 6595SOL     OW20683   1.384   2.425   5.506
 6595SOL    HW120684   1.379   2.332   5.469
 6595SOL    HW220685   1.305   2.441   5.566
 6596SOL     OW20686   5.931   6.432   2.394
 6596SOL    HW120687   5.970   6.524   2.385
 6596SOL    HW220688   6.006   6.366   2.401
 6597SOL     OW20689   1.017   4.922   2.255
 6597SOL    HW120690   1.085   4.862   2.214
 6597SOL    HW220691   0.965   4.968   2.183
 6598SOL     OW20692   1.750   4.728   4.273
 6598SOL    HW120693   1.841   4.740   4.314
 6598SOL    HW220694   1.747   4.641   4.225
 6599SOL     OW20695   6.239   5.233   6.356
 6599SOL    HW120696   6.307   5.237   6.429
 6599SOL    HW220697   6.209   5.138   6.344
 6600SOL     OW20698   4.694   6.822   5.231
 6600SOL    HW120699   4.757   6.815   5.154
 6600SOL    HW220700   4.613   6.875   5.204
 6601SOL     OW20701   1.389   2.241   1.697
 6601SOL    HW120702   1.385   2.306   1.621
 6601SOL    HW220703   1.429   2.286   1.777
 6602SOL     OW20704   1.925   6.427   1.534
 6602SOL    HW120705   2.010   6.397   1.491
 6602SOL    HW220706   1.918   6.388   1.626
 6603SOL     OW20707   0.333   3.725   2.949
 6603SOL    HW120708   0.310   3.782   2.870
 6603SOL    HW220709   0.362   3.634   2.917
 6604SOL     OW20710   2.499   5.589   2.519
 6604SOL    HW120711   2.588   5.544   2.523
 6604SOL    HW220712   2.512   5.688   2.511
 6605SOL     OW20713   6.697   5.181   1.133
 6605SOL    HW120714   6.745   5.180   1.220
 6605SOL    HW220715   6.698   5.273   1.095
 6606SOL     OW20716   1.926   3.848   3.119
 6606SOL    HW120717   1.879   3.823   3.034
 6606SOL    HW220718   1.997   3.781   3.138
 6607SOL     OW20719   5.927   4.030   3.469
 6607SOL    HW120720   5.864   4.010   3.543
 6607SOL    HW220721   6.015   3.986   3.486
 6608SOL     OW20722   1.267   5.978   6.153
 6608SOL    HW120723   1.336   5.909   6.177
 6608SOL    HW220724   1.269   6.052   6.221
 6609SOL     OW20725   4.692   1.745   5.887
 6609SOL    HW120726   4.677   1.712   5.794
 6609SOL    HW220727   4.773   1.700   5.926
 6610SOL     OW20728   2.901   5.318   0.852
 6610SOL    HW120729   2.820   5.375   0.864
 6610SOL    HW220730   2.876   5.222   0.860
 6611SOL     OW20731   4.307   1.602   4.158
 6611SOL    HW120732   4.227   1.572   4.106
 6611SOL    HW220733   4.348   1.682   4.114
 6612SOL     OW20734   0.217   0.884   6.350
 6612SOL    HW120735   0.132   0.884   6.402
 6612SOL    HW220736   0.220   0.801   6.294
 6613SOL     OW20737   4.640   6.687   0.248
 6613SOL    HW120738   4.660   6.773   0.201
 6613SOL    HW220739   4.560   6.644   0.205
 6614SOL     OW20740   4.352   5.508   0.890
 6614SOL    HW120741   4.430   5.460   0.930
 6614SOL    HW220742   4.340   5.480   0.795
 6615SOL     OW20743   3.268   4.626   6.721
 6615SOL    HW120744   3.266   4.526   6.713
 6615SOL    HW220745   3.334   4.653   6.790
 6616SOL     OW20746   4.083   1.251   5.732
 6616SOL    HW120747   4.015   1.196   5.782
 6616SOL    HW220748   4.122   1.196   5.658
 6617SOL     OW20749   3.846   0.414   3.950
 6617SOL    HW120750   3.788   0.467   3.888
 6617SOL    HW220751   3.789   0.355   4.007
 6618SOL     OW20752   0.039   2.384   3.136
 6618SOL    HW120753   0.073   2.435   3.057
 6618SOL    HW220754   6.974   2.421   3.164
 6619SOL     OW20755   4.819   6.067   4.031
 6619SOL    HW120756   4.797   6.025   4.120
 6619SOL    HW220757   4.738   6.113   3.995
 6620SOL     OW20758   0.635   3.398   3.638
 6620SOL    HW120759   0.648   3.497   3.631
 6620SOL    HW220760   0.722   3.355   3.661
 6621SOL     OW20761   3.952   3.234   4.542
 6621SOL    HW120762   4.002   3.151   4.519
 6621SOL    HW220763   4.015   3.300   4.584
 6622SOL     OW20764   0.941   5.523   0.692
 6622SOL    HW120765   0.952   5.550   0.788
 6622SOL    HW220766   0.847   5.540   0.664
 6623SOL     OW20767   3.528   3.563   5.467
 6623SOL    HW120768   3.488   3.472   5.476
 6623SOL    HW220769   3.617   3.565   5.513
 6624SOL     OW20770   1.670   2.059   3.928
 6624SOL    HW120771   1.649   2.059   4.026
 6624SOL    HW220772   1.587   2.083   3.877
 6625SOL     OW20773   6.331   3.361   5.931
 6625SOL    HW120774   6.412   3.354   5.989
 6625SOL    HW220775   6.267   3.427   5.971
 6626SOL     OW20776   2.583   6.199   4.954
 6626SOL    HW120777   2.573   6.185   4.856
 6626SOL    HW220778   2.636   6.282   4.970
 6627SOL     OW20779   1.800   5.628   4.379
 6627SOL    HW120780   1.870   5.666   4.319
 6627SOL    HW220781   1.724   5.593   4.324
 6628SOL     OW20782   4.008   6.206   4.578
 6628SOL    HW120783   4.056   6.144   4.640
 6628SOL    HW220784   4.061   6.216   4.493
 6629SOL     OW20785   5.142   5.668   6.085
 6629SOL    HW120786   5.209   5.742   6.096
 6629SOL    HW220787   5.051   5.703   6.106
 6630SOL     OW20788   1.856   1.203   1.447
 6630SOL    HW120789   1.885   1.186   1.352
 6630SOL    HW220790   1.931   1.244   1.498
 6631SOL     OW20791   1.869   3.888   6.165
 6631SOL    HW120792   1.852   3.968   6.108
 6631SOL    HW220793   1.928   3.824   6.116
 6632SOL     OW20794   1.036   1.126   1.491
 6632SOL    HW120795   0.950   1.174   1.510
 6632SOL    HW220796   1.086   1.173   1.419
 6633SOL     OW20797   3.191   5.698   6.009
 6633SOL    HW120798   3.231   5.674   5.921
 6633SOL    HW220799   3.263   5.719   6.074
 6634SOL     OW20800   4.312   2.041   4.153
 6634SOL    HW120801   4.363   1.977   4.210
 6634SOL    HW220802   4.250   1.991   4.093
 6635SOL     OW20803   5.201   5.056   3.672
 6635SOL    HW120804   5.190   4.968   3.627
 6635SOL    HW220805   5.113   5.088   3.706
 6636SOL     OW20806   4.192   0.226   0.328
 6636SOL    HW120807   4.103   0.185   0.306
 6636SOL    HW220808   4.249   0.159   0.375
 6637SOL     OW20809   1.103   1.460   1.636
 6637SOL    HW120810   1.184   1.510   1.667
 6637SOL    HW220811   1.103   1.369   1.678
 6638SOL     OW20812   3.321   3.516   3.796
 6638SOL    HW120813   3.297   3.420   3.788
 6638SOL    HW220814   3.418   3.528   3.773
 6639SOL     OW20815   4.870   2.644   1.626
 6639SOL    HW120816   4.833   2.719   1.680
 6639SOL    HW220817   4.970   2.648   1.627
 6640SOL     OW20818   0.997   2.768   4.998
 6640SOL    HW120819   0.962   2.731   5.085
 6640SOL    HW220820   1.042   2.855   5.015
 6641SOL     OW20821   5.034   2.079   0.811
 6641SOL    HW120822   5.121   2.059   0.854
 6641SOL    HW220823   4.961   2.074   0.879
 6642SOL     OW20824   0.923   5.959   0.346
 6642SOL    HW120825   0.990   5.885   0.343
 6642SOL    HW220826   0.950   6.031   0.282
 6643SOL     OW20827   3.995   6.275   6.965
 6643SOL    HW120828   4.069   6.277   6.898
 6643SOL    HW220829   4.024   6.323   0.025
 6644SOL     OW20830   2.068   6.733   3.851
 6644SOL    HW120831   2.153   6.782   3.870
 6644SOL    HW220832   2.018   6.779   3.778
 6645SOL     OW20833   5.486   2.440   0.433
 6645SOL    HW120834   5.503   2.497   0.513
 6645SOL    HW220835   5.427   2.490   0.369
 6646SOL     OW20836   4.488   0.137   6.292
 6646SOL    HW120837   4.536   0.223   6.276
 6646SOL    HW220838   4.447   0.105   6.206
 6647SOL     OW20839   4.504   5.209   1.307
 6647SOL    HW120840   4.469   5.227   1.215
 6647SOL    HW220841   4.603   5.226   1.309
 6648SOL     OW20842   2.889   6.260   6.000
 6648SOL    HW120843   2.806   6.273   6.053
 6648SOL    HW220844   2.910   6.344   5.950
 6649SOL     OW20845   5.282   3.168   6.948
 6649SOL    HW120846   5.269   3.096   6.880
 6649SOL    HW220847   5.228   3.248   6.922
 6650SOL     OW20848   2.190   1.717   5.476
 6650SOL    HW120849   2.289   1.706   5.471
 6650SOL    HW220850   2.157   1.768   5.397
 6651SOL     OW20851   6.823   1.655   6.637
 6651SOL    HW120852   6.870   1.711   6.705
 6651SOL    HW220853   6.724   1.673   6.642
 6652SOL     OW20854   0.242   4.486   0.622
 6652SOL    HW120855   0.212   4.489   0.527
 6652SOL    HW220856   0.226   4.575   0.665
 6653SOL     OW20857   5.819   4.395   0.497
 6653SOL    HW120858   5.749   4.441   0.443
 6653SOL    HW220859   5.896   4.372   0.439
 6654SOL     OW20860   6.816   4.499   2.943
 6654SOL    HW120861   6.896   4.547   2.906
 6654SOL    HW220862   6.787   4.544   3.028
 6655SOL     OW20863   6.386   5.074   2.133
 6655SOL    HW120864   6.381   4.975   2.147
 6655SOL    HW220865   6.310   5.103   2.075
 6656SOL     OW20866   4.049   1.506   2.774
 6656SOL    HW120867   4.040   1.513   2.674
 6656SOL    HW220868   3.960   1.487   2.814
 6657SOL     OW20869   5.664   2.618   3.452
 6657SOL    HW120870   5.686   2.526   3.418
 6657SOL    HW220871   5.569   2.619   3.484
 6658SOL     OW20872   6.585   5.575   5.542
 6658SOL    HW120873   6.586   5.485   5.499
 6658SOL    HW220874   6.493   5.614   5.537
 6659SOL     OW20875   1.062   5.221   2.384
 6659SOL    HW120876   1.003   5.156   2.432
 6659SOL    HW220877   1.064   5.198   2.286
 6660SOL     OW20878   6.927   6.299   3.477
 6660SOL    HW120879   6.981   6.228   3.523
 6660SOL    HW220880   6.986   6.375   3.452
 6661SOL     OW20881   3.696   5.915   4.257
 6661SOL    HW120882   3.767   5.896   4.325
 6661SOL    HW220883   3.650   6.001   4.280
 6662SOL     OW20884   3.663   6.534   2.524
 6662SOL    HW120885   3.710   6.505   2.608
 6662SOL    HW220886   3.702   6.620   2.493
 6663SOL     OW20887   1.269   4.130   6.097
 6663SOL    HW120888   1.254   4.225   6.125
 6663SOL    HW220889   1.189   4.098   6.046
 6664SOL     OW20890   2.590   0.489   1.346
 6664SOL    HW120891   2.552   0.541   1.269
 6664SOL    HW220892   2.653   0.420   1.312
 6665SOL     OW20893   2.312   0.675   5.780
 6665SOL    HW120894   2.358   0.591   5.811
 6665SOL    HW220895   2.370   0.754   5.799
 6666SOL     OW20896   4.258   6.176   5.624
 6666SOL    HW120897   4.260   6.076   5.616
 6666SOL    HW220898   4.332   6.214   5.568
 6667SOL     OW20899   6.937   6.285   6.662
 6667SOL    HW120900   6.916   6.309   6.757
 6667SOL    HW220901   6.971   6.191   6.659
 6668SOL     OW20902   0.628   5.533   0.189
 6668SOL    HW120903   0.557   5.590   0.230
 6668SOL    HW220904   0.585   5.460   0.136
 6669SOL     OW20905   1.720   1.082   3.062
 6669SOL    HW120906   1.670   1.131   2.990
 6669SOL    HW220907   1.655   1.039   3.124
 6670SOL     OW20908   4.225   2.671   0.928
 6670SOL    HW120909   4.199   2.733   1.002
 6670SOL    HW220910   4.323   2.651   0.935
 6671SOL     OW20911   4.338   5.872   0.455
 6671SOL    HW120912   4.252   5.836   0.491
 6671SOL    HW220913   4.412   5.850   0.518
 6672SOL     OW20914   1.509   2.325   0.913
 6672SOL    HW120915   1.491   2.320   0.815
 6672SOL    HW220916   1.607   2.315   0.929
 6673SOL     OW20917   5.661   3.642   3.876
 6673SOL    HW120918   5.645   3.641   3.777
 6673SOL    HW220919   5.574   3.653   3.924
 6674SOL     OW20920   6.982   2.620   0.283
 6674SOL    HW120921   6.934   2.688   0.228
 6674SOL    HW220922   0.056   2.617   0.256
 6675SOL     OW20923   5.436   1.776   7.018
 6675SOL    HW120924   5.529   1.805   6.996
 6675SOL    HW220925   5.371   1.831   6.966
 6676SOL     OW20926   1.496   3.699   3.331
 6676SOL    HW120927   1.419   3.762   3.336
 6676SOL    HW220928   1.582   3.751   3.330
 6677SOL     OW20929   0.211   1.542   0.433
 6677SOL    HW120930   0.134   1.526   0.495
 6677SOL    HW220931   0.186   1.512   0.341
 6678SOL     OW20932   2.147   4.250   6.981
 6678SOL    HW120933   2.091   4.274   6.902
 6678SOL    HW220934   2.206   4.174   6.958
 6679SOL     OW20935   1.754   1.052   3.804
 6679SOL    HW120936   1.770   0.958   3.835
 6679SOL    HW220937   1.698   1.100   3.871
 6680SOL     OW20938   5.734   7.005   1.078
 6680SOL    HW120939   5.834   7.002   1.079
 6680SOL    HW220940   5.703   0.076   1.094
 6681SOL     OW20941   3.230   6.632   1.743
 6681SOL    HW120942   3.246   6.542   1.783
 6681SOL    HW220943   3.159   6.679   1.795
 6682SOL     OW20944   2.972   5.031   6.537
 6682SOL    HW120945   3.026   5.107   6.501
 6682SOL    HW220946   3.032   4.965   6.582
 6683SOL     OW20947   6.660   3.937   6.408
 6683SOL    HW120948   6.636   4.025   6.450
 6683SOL    HW220949   6.739   3.898   6.456
 6684SOL     OW20950   2.796   6.746   0.830
 6684SOL    HW120951   2.893   6.721   0.833
 6684SOL    HW220952   2.755   6.731   0.919
 6685SOL     OW20953   5.293   3.495   6.640
 6685SOL    HW120954   5.231   3.456   6.572
 6685SOL    HW220955   5.267   3.462   6.731
 6686SOL     OW20956   4.964   5.153   3.781
 6686SOL    HW120957   4.921   5.218   3.718
 6686SOL    HW220958   4.902   5.135   3.858
 6687SOL     OW20959   6.505   2.299   1.677
 6687SOL    HW120960   6.534   2.384   1.634
 6687SOL    HW220961   6.583   2.259   1.726
 6688SOL     OW20962   4.066   5.620   0.322
 6688SOL    HW120963   4.052   5.698   0.261
 6688SOL    HW220964   4.095   5.653   0.412
 6689SOL     OW20965   1.957   4.264   6.024
 6689SOL    HW120966   1.901   4.345   6.004
 6689SOL    HW220967   1.905   4.182   6.002
 6690SOL     OW20968   0.942   0.157   6.159
 6690SOL    HW120969   0.986   0.124   6.075
 6690SOL    HW220970   0.875   0.090   6.190
 6691SOL     OW20971   2.536   2.564   2.986
 6691SOL    HW120972   2.612   2.507   2.954
 6691SOL    HW220973   2.526   2.553   3.085
 6692SOL     OW20974   4.806   5.277   1.303
 6692SOL    HW120975   4.796   5.337   1.382
 6692SOL    HW220976   4.902   5.248   1.295
 6693SOL     OW20977   4.427   1.876   4.595
 6693SOL    HW120978   4.496   1.946   4.615
 6693SOL    HW220979   4.443   1.796   4.652
 6694SOL     OW20980   3.188   4.511   1.274
 6694SOL    HW120981   3.134   4.462   1.343
 6694SOL    HW220982   3.285   4.488   1.287
 6695SOL     OW20983   2.747   2.302   6.162
 6695SOL    HW120984   2.786   2.243   6.091
 6695SOL    HW220985   2.807   2.303   6.241
 6696SOL     OW20986   4.123   3.484   4.393
 6696SOL    HW120987   4.112   3.397   4.344
 6696SOL    HW220988   4.119   3.560   4.329
 6697SOL     OW20989   4.438   2.295   2.312
 6697SOL    HW120990   4.398   2.346   2.388
 6697SOL    HW220991   4.390   2.208   2.301
 6698SOL     OW20992   3.087   4.048   1.122
 6698SOL    HW120993   3.059   3.992   1.200
 6698SOL    HW220994   3.176   4.017   1.088
 6699SOL     OW20995   1.602   4.517   5.534
 6699SOL    HW120996   1.610   4.448   5.606
 6699SOL    HW220997   1.654   4.487   5.454
 6700SOL     OW20998   5.709   7.009   0.135
 6700SOL    HW120999   5.679   6.924   0.178
 6700SOL    HW221000   5.809   7.008   0.125
 6701SOL     OW21001   6.142   0.605   1.350
 6701SOL    HW121002   6.055   0.557   1.343
 6701SOL    HW221003   6.217   0.543   1.327
 6702SOL     OW21004   2.852   2.856   1.051
 6702SOL    HW121005   2.817   2.860   1.145
 6702SOL    HW221006   2.799   2.917   0.993
 6703SOL     OW21007   0.501   1.226   0.039
 6703SOL    HW121008   0.516   1.190   6.969
 6703SOL    HW221009   0.484   1.150   0.101
 6704SOL     OW21010   3.131   0.628   5.072
 6704SOL    HW121011   3.036   0.602   5.091
 6704SOL    HW221012   3.169   0.675   5.151
 6705SOL     OW21013   6.733   3.488   2.250
 6705SOL    HW121014   6.717   3.586   2.242
 6705SOL    HW221015   6.674   3.439   2.186
 6706SOL     OW21016   0.490   6.972   2.016
 6706SOL    HW121017   0.486   0.042   1.977
 6706SOL    HW221018   0.452   6.907   1.950
 6707SOL     OW21019   5.609   0.753   2.162
 6707SOL    HW121020   5.674   0.822   2.129
 6707SOL    HW221021   5.624   0.667   2.111
 6708SOL     OW21022   0.826   4.216   1.828
 6708SOL    HW121023   0.921   4.228   1.798
 6708SOL    HW221024   0.782   4.306   1.832
 6709SOL     OW21025   1.958   5.194   2.707
 6709SOL    HW121026   2.019   5.141   2.766
 6709SOL    HW221027   2.005   5.215   2.622
 6710SOL     OW21028   4.027   1.463   0.937
 6710SOL    HW121029   4.124   1.489   0.929
 6710SOL    HW221030   4.005   1.450   1.034
 6711SOL     OW21031   4.046   6.244   6.377
 6711SOL    HW121032   3.969   6.280   6.430
 6711SOL    HW221033   4.062   6.149   6.402
 6712SOL     OW21034   5.718   3.775   1.413
 6712SOL    HW121035   5.658   3.708   1.457
 6712SOL    HW221036   5.764   3.732   1.335
 6713SOL     OW21037   1.336   6.227   4.725
 6713SOL    HW121038   1.360   6.207   4.820
 6713SOL    HW221039   1.252   6.179   4.701
 6714SOL     OW21040   5.092   1.170   0.889
 6714SOL    HW121041   5.115   1.249   0.946
 6714SOL    HW221042   4.999   1.140   0.910
 6715SOL     OW21043   1.186   1.162   0.643
 6715SOL    HW121044   1.095   1.121   0.654
 6715SOL    HW221045   1.192   1.205   0.553
 6716SOL     OW21046   6.678   5.559   2.989
 6716SOL    HW121047   6.681   5.554   3.089
 6716SOL    HW221048   6.739   5.632   2.958
 6717SOL     OW21049   4.365   1.767   5.762
 6717SOL    HW121050   4.398   1.860   5.779
 6717SOL    HW221051   4.420   1.702   5.815
 6718SOL     OW21052   3.434   0.374   1.562
 6718SOL    HW121053   3.435   0.412   1.655
 6718SOL    HW221054   3.431   0.449   1.496
 6719SOL     OW21055   1.635   0.853   0.054
 6719SOL    HW121056   1.545   0.830   0.017
 6719SOL    HW221057   1.645   0.810   0.144
 6720SOL     OW21058   1.646   0.628   6.048
 6720SOL    HW121059   1.721   0.649   6.111
 6720SOL    HW221060   1.663   0.541   6.003
 6721SOL     OW21061   0.355   1.739   0.541
 6721SOL    HW121062   0.296   1.659   0.529
 6721SOL    HW221063   0.383   1.774   0.451
 6722SOL     OW21064   6.427   3.164   0.732
 6722SOL    HW121065   6.356   3.093   0.724
 6722SOL    HW221066   6.496   3.135   0.799
 6723SOL     OW21067   1.696   2.137   6.694
 6723SOL    HW121068   1.618   2.075   6.706
 6723SOL    HW221069   1.695   2.206   6.765
 6724SOL     OW21070   1.771   3.573   5.921
 6724SOL    HW121071   1.701   3.641   5.940
 6724SOL    HW221072   1.739   3.511   5.849
 6725SOL     OW21073   5.312   2.835   3.694
 6725SOL    HW121074   5.374   2.779   3.749
 6725SOL    HW221075   5.237   2.778   3.660
 6726SOL     OW21076   0.117   0.941   5.260
 6726SOL    HW121077   0.177   0.958   5.338
 6726SOL    HW221078   0.124   0.845   5.232
 6727SOL     OW21079   1.183   4.814   5.973
 6727SOL    HW121080   1.176   4.777   5.880
 6727SOL    HW221081   1.178   4.914   5.970
 6728SOL     OW21082   3.913   2.193   3.922
 6728SOL    HW121083   3.853   2.204   4.002
 6728SOL    HW221084   3.884   2.255   3.849
 6729SOL     OW21085   4.819   1.581   1.678
 6729SOL    HW121086   4.729   1.550   1.646
 6729SOL    HW221087   4.808   1.640   1.757
 6730SOL     OW21088   0.868   1.346   1.923
 6730SOL    HW121089   0.833   1.423   1.869
 6730SOL    HW221090   0.883   1.268   1.863
 6731SOL     OW21091   2.965   6.543   6.856
 6731SOL    HW121092   3.013   6.484   6.791
 6731SOL    HW221093   2.879   6.499   6.883
 6732SOL     OW21094   6.446   5.238   4.491
 6732SOL    HW121095   6.538   5.261   4.460
 6732SOL    HW221096   6.379   5.274   4.426
 6733SOL     OW21097   4.257   5.011   6.315
 6733SOL    HW121098   4.340   4.976   6.272
 6733SOL    HW221099   4.201   5.057   6.247
 6734SOL     OW21100   5.854   1.246   4.658
 6734SOL    HW121101   5.788   1.249   4.583
 6734SOL    HW221102   5.806   1.259   4.745
 6735SOL     OW21103   6.219   3.194   3.491
 6735SOL    HW121104   6.231   3.110   3.544
 6735SOL    HW221105   6.138   3.185   3.433
 6736SOL     OW21106   3.286   4.144   0.631
 6736SOL    HW121107   3.219   4.087   0.678
 6736SOL    HW221108   3.256   4.239   0.630
 6737SOL     OW21109   0.534   3.789   1.096
 6737SOL    HW121110   0.565   3.815   1.005
 6737SOL    HW221111   0.538   3.868   1.157
 6738SOL     OW21112   2.027   6.102   3.329
 6738SOL    HW121113   2.095   6.032   3.311
 6738SOL    HW221114   1.989   6.088   3.421
 6739SOL     OW21115   6.584   6.798   4.705
 6739SOL    HW121116   6.554   6.868   4.771
 6739SOL    HW221117   6.664   6.831   4.655
 6740SOL     OW21118   1.001   6.638   3.903
 6740SOL    HW121119   1.082   6.661   3.849
 6740SOL    HW221120   0.934   6.712   3.896
 6741SOL     OW21121   4.715   2.006   5.993
 6741SOL    HW121122   4.789   2.002   6.061
 6741SOL    HW221123   4.702   1.916   5.952
 6742SOL     OW21124   5.543   4.728   3.400
 6742SOL    HW121125   5.461   4.718   3.344
 6742SOL    HW221126   5.580   4.637   3.421
 6743SOL     OW21127   4.116   3.980   1.160
 6743SOL    HW121128   4.194   3.941   1.208
 6743SOL    HW221129   4.132   3.978   1.062
 6744SOL     OW21130   0.179   5.747   5.945
 6744SOL    HW121131   0.092   5.727   5.900
 6744SOL    HW221132   0.180   5.705   6.036
 6745SOL     OW21133   7.000   6.086   4.490
 6745SOL    HW121134   0.065   6.054   4.526
 6745SOL    HW221135   6.987   6.051   4.397
 6746SOL     OW21136   2.014   1.511   2.766
 6746SOL    HW121137   2.021   1.515   2.866
 6746SOL    HW221138   2.081   1.446   2.731
 6747SOL     OW21139   0.876   6.562   6.838
 6747SOL    HW121140   0.918   6.559   6.747
 6747SOL    HW221141   0.931   6.508   6.902
 6748SOL     OW21142   2.263   1.586   4.628
 6748SOL    HW121143   2.185   1.626   4.579
 6748SOL    HW221144   2.242   1.582   4.726
 6749SOL     OW21145   3.641   4.775   0.997
 6749SOL    HW121146   3.694   4.836   1.056
 6749SOL    HW221147   3.680   4.774   0.905
 6750SOL     OW21148   3.112   1.204   4.672
 6750SOL    HW121149   3.188   1.155   4.714
 6750SOL    HW221150   3.095   1.167   4.580
 6751SOL     OW21151   4.154   0.047   3.734
 6751SOL    HW121152   4.241   0.022   3.693
 6751SOL    HW221153   4.115   6.990   3.781
 6752SOL     OW21154   2.243   6.155   2.240
 6752SOL    HW121155   2.316   6.191   2.182
 6752SOL    HW221156   2.282   6.102   2.315
 6753SOL     OW21157   3.899   2.860   5.226
 6753SOL    HW121158   3.869   2.944   5.272
 6753SOL    HW221159   3.879   2.866   5.129
 6754SOL     OW21160   6.189   1.462   1.867
 6754SOL    HW121161   6.188   1.369   1.903
 6754SOL    HW221162   6.203   1.459   1.768
 6755SOL     OW21163   2.213   5.557   6.174
 6755SOL    HW121164   2.273   5.538   6.096
 6755SOL    HW221165   2.197   5.473   6.225
 6756SOL     OW21166   2.576   2.359   5.417
 6756SOL    HW121167   2.614   2.379   5.326
 6756SOL    HW221168   2.628   2.408   5.486
 6757SOL     OW21169   3.633   0.815   0.552
 6757SOL    HW121170   3.703   0.820   0.481
 6757SOL    HW221171   3.556   0.760   0.519
 6758SOL     OW21172   6.026   2.532   2.289
 6758SOL    HW121173   6.115   2.497   2.261
 6758SOL    HW221174   5.958   2.458   2.283
 6759SOL     OW21175   0.730   3.361   3.252
 6759SOL    HW121176   0.692   3.288   3.195
 6759SOL    HW221177   0.672   3.443   3.245
 6760SOL     OW21178   5.173   2.705   2.997
 6760SOL    HW121179   5.087   2.667   2.964
 6760SOL    HW221180   5.189   2.672   3.091
 6761SOL     OW21181   4.991   1.786   4.664
 6761SOL    HW121182   4.938   1.709   4.700
 6761SOL    HW221183   5.016   1.768   4.569
 6762SOL     OW21184   0.016   5.881   3.926
 6762SOL    HW121185   6.955   5.836   3.896
 6762SOL    HW221186   0.069   5.819   3.983
 6763SOL     OW21187   5.061   5.403   5.060
 6763SOL    HW121188   4.973   5.441   5.090
 6763SOL    HW221189   5.060   5.392   4.961
 6764SOL     OW21190   1.706   5.565   1.230
 6764SOL    HW121191   1.644   5.629   1.275
 6764SOL    HW221192   1.750   5.507   1.299
 6765SOL     OW21193   6.307   5.186   2.769
 6765SOL    HW121194   6.325   5.266   2.713
 6765SOL    HW221195   6.388   5.165   2.825
 6766SOL     OW21196   5.096   0.351   0.415
 6766SOL    HW121197   5.100   0.425   0.482
 6766SOL    HW221198   5.089   0.263   0.462
 6767SOL     OW21199   2.821   1.220   0.594
 6767SOL    HW121200   2.755   1.275   0.646
 6767SOL    HW221201   2.784   1.128   0.580
 6768SOL     OW21202   1.969   0.951   0.890
 6768SOL    HW121203   1.883   0.952   0.941
 6768SOL    HW221204   1.982   1.039   0.845
 6769SOL     OW21205   4.132   2.641   1.485
 6769SOL    HW121206   4.146   2.737   1.508
 6769SOL    HW221207   4.067   2.634   1.409
 6770SOL     OW21208   6.621   6.978   2.070
 6770SOL    HW121209   6.545   0.021   2.068
 6770SOL    HW221210   6.678   6.996   2.149
 6771SOL     OW21211   3.876   2.155   3.031
 6771SOL    HW121212   3.862   2.208   3.114
 6771SOL    HW221213   3.969   2.171   2.997
 6772SOL     OW21214   2.930   2.084   2.662
 6772SOL    HW121215   2.891   2.173   2.686
 6772SOL    HW221216   2.907   2.062   2.567
 6773SOL     OW21217   6.859   4.064   2.094
 6773SOL    HW121218   6.843   4.046   2.191
 6773SOL    HW221219   6.937   4.125   2.083
 6774SOL     OW21220   0.688   2.700   6.548
 6774SOL    HW121221   0.645   2.649   6.622
 6774SOL    HW221222   0.680   2.798   6.565
 6775SOL     OW21223   2.706   4.361   0.930
 6775SOL    HW121224   2.630   4.420   0.902
 6775SOL    HW221225   2.758   4.332   0.850
 6776SOL     OW21226   5.806   5.283   0.022
 6776SOL    HW121227   5.808   5.244   6.952
 6776SOL    HW221228   5.791   5.210   0.088
 6777SOL     OW21229   4.434   4.607   6.151
 6777SOL    HW121230   4.477   4.573   6.235
 6777SOL    HW221231   4.461   4.550   6.074
 6778SOL     OW21232   0.663   4.735   3.148
 6778SOL    HW121233   0.676   4.682   3.232
 6778SOL    HW221234   0.710   4.823   3.157
 6779SOL     OW21235   0.401   4.779   0.381
 6779SOL    HW121236   0.396   4.843   0.305
 6779SOL    HW221237   0.416   4.686   0.346
 6780SOL     OW21238   0.569   2.580   2.681
 6780SOL    HW121239   0.578   2.672   2.718
 6780SOL    HW221240   0.658   2.547   2.651
 6781SOL     OW21241   5.147   6.347   5.649
 6781SOL    HW121242   5.237   6.367   5.688
 6781SOL    HW221243   5.097   6.432   5.635
 6782SOL     OW21244   6.734   1.436   2.616
 6782SOL    HW121245   6.671   1.502   2.659
 6782SOL    HW221246   6.684   1.380   2.550
 6783SOL     OW21247   6.656   6.166   6.572
 6783SOL    HW121248   6.680   6.103   6.498
 6783SOL    HW221249   6.729   6.233   6.583
 6784SOL     OW21250   4.095   4.355   6.906
 6784SOL    HW121251   4.113   4.309   6.993
 6784SOL    HW221252   4.171   4.338   6.843
 6785SOL     OW21253   6.049   6.002   1.734
 6785SOL    HW121254   6.026   6.015   1.830
 6785SOL    HW221255   6.079   6.089   1.695
 6786SOL     OW21256   1.687   2.605   6.500
 6786SOL    HW121257   1.708   2.615   6.403
 6786SOL    HW221258   1.662   2.510   6.519
 6787SOL     OW21259   1.573   4.014   1.822
 6787SOL    HW121260   1.509   3.940   1.842
 6787SOL    HW221261   1.645   4.016   1.892
 6788SOL     OW21262   2.835   3.816   1.754
 6788SOL    HW121263   2.888   3.820   1.839
 6788SOL    HW221264   2.771   3.892   1.751
 6789SOL     OW21265   0.967   6.795   2.250
 6789SOL    HW121266   1.042   6.844   2.206
 6789SOL    HW221267   0.950   6.834   2.340
 6790SOL     OW21268   1.849   3.112   0.195
 6790SOL    HW121269   1.861   3.031   0.252
 6790SOL    HW221270   1.928   3.123   0.135
 6791SOL     OW21271   4.121   2.921   6.802
 6791SOL    HW121272   4.170   2.835   6.816
 6791SOL    HW221273   4.062   2.939   6.881
 6792SOL     OW21274   6.274   6.056   0.134
 6792SOL    HW121275   6.335   6.096   0.203
 6792SOL    HW221276   6.313   6.072   0.043
 6793SOL     OW21277   1.618   2.579   0.638
 6793SOL    HW121278   1.539   2.572   0.578
 6793SOL    HW221279   1.646   2.487   0.667
 6794SOL     OW21280   4.737   0.939   4.668
 6794SOL    HW121281   4.766   0.895   4.754
 6794SOL    HW221282   4.809   0.929   4.600
 6795SOL     OW21283   2.917   6.062   0.894
 6795SOL    HW121284   2.936   6.039   0.990
 6795SOL    HW221285   2.974   6.140   0.867
 6796SOL     OW21286   5.358   1.215   2.916
 6796SOL    HW121287   5.422   1.197   2.991
 6796SOL    HW221288   5.352   1.314   2.901
 6797SOL     OW21289   5.679   3.717   2.034
 6797SOL    HW121290   5.730   3.708   1.948
 6797SOL    HW221291   5.606   3.784   2.021
 6798SOL     OW21292   5.353   5.455   2.660
 6798SOL    HW121293   5.393   5.530   2.607
 6798SOL    HW221294   5.420   5.421   2.726
 6799SOL     OW21295   4.745   5.804   0.046
 6799SOL    HW121296   4.700   5.775   0.131
 6799SOL    HW221297   4.795   5.889   0.062
 6800SOL     OW21298   1.824   4.780   0.270
 6800SOL    HW121299   1.731   4.755   0.243
 6800SOL    HW221300   1.887   4.707   0.244
 6801SOL     OW21301   1.794   2.432   2.190
 6801SOL    HW121302   1.742   2.490   2.127
 6801SOL    HW221303   1.873   2.483   2.224
 6802SOL     OW21304   1.933   6.408   0.996
 6802SOL    HW121305   1.890   6.326   1.033
 6802SOL    HW221306   2.021   6.384   0.954
 6803SOL     OW21307   5.091   1.923   6.013
 6803SOL    HW121308   5.190   1.921   6.028
 6803SOL    HW221309   5.063   1.839   5.966
 6804SOL     OW21310   1.882   5.799   3.475
 6804SOL    HW121311   1.816   5.767   3.543
 6804SOL    HW221312   1.969   5.750   3.488
 6805SOL     OW21313   6.109   0.108   4.682
 6805SOL    HW121314   6.074   0.120   4.775
 6805SOL    HW221315   6.205   0.079   4.687
 6806SOL     OW21316   4.463   1.272   4.385
 6806SOL    HW121317   4.482   1.228   4.474
 6806SOL    HW221318   4.434   1.366   4.400
 6807SOL     OW21319   2.921   3.115   0.052
 6807SOL    HW121320   2.858   3.043   0.022
 6807SOL    HW221321   3.002   3.074   0.093
 6808SOL     OW21322   7.005   2.359   4.807
 6808SOL    HW121323   6.945   2.435   4.782
 6808SOL    HW221324   0.060   2.395   4.859
 6809SOL     OW21325   2.292   4.205   6.622
 6809SOL    HW121326   2.325   4.194   6.716
 6809SOL    HW221327   2.290   4.302   6.598
 6810SOL     OW21328   6.970   0.812   2.630
 6810SOL    HW121329   6.941   0.717   2.628
 6810SOL    HW221330   0.008   0.830   2.553
 6811SOL     OW21331   6.291   4.880   1.021
 6811SOL    HW121332   6.329   4.955   0.966
 6811SOL    HW221333   6.339   4.795   0.999
 6812SOL     OW21334   4.111   3.350   3.035
 6812SOL    HW121335   4.036   3.286   3.050
 6812SOL    HW221336   4.192   3.300   3.006
 6813SOL     OW21337   4.551   2.164   1.007
 6813SOL    HW121338   4.588   2.095   1.069
 6813SOL    HW221339   4.532   2.248   1.057
 6814SOL     OW21340   2.706   3.506   0.941
 6814SOL    HW121341   2.701   3.423   0.885
 6814SOL    HW221342   2.796   3.548   0.930
 6815SOL     OW21343   2.686   0.067   2.071
 6815SOL    HW121344   2.593   0.039   2.092
 6815SOL    HW221345   2.693   0.167   2.073
 6816SOL     OW21346   6.457   5.136   6.932
 6816SOL    HW121347   6.409   5.092   6.857
 6816SOL    HW221348   6.498   5.066   6.991
 6817SOL     OW21349   6.646   1.511   5.863
 6817SOL    HW121350   6.613   1.427   5.904
 6817SOL    HW221351   6.741   1.499   5.835
 6818SOL     OW21352   3.418   6.522   2.390
 6818SOL    HW121353   3.486   6.503   2.460
 6818SOL    HW221354   3.338   6.565   2.432
 6819SOL     OW21355   3.090   0.667   3.627
 6819SOL    HW121356   3.095   0.764   3.650
 6819SOL    HW221357   3.143   0.649   3.545
 6820SOL     OW21358   1.044   4.275   3.443
 6820SOL    HW121359   0.958   4.234   3.473
 6820SOL    HW221360   1.027   4.366   3.405
 6821SOL     OW21361   2.472   2.578   4.859
 6821SOL    HW121362   2.402   2.620   4.802
 6821SOL    HW221363   2.470   2.619   4.951
 6822SOL     OW21364   5.606   1.726   5.941
 6822SOL    HW121365   5.655   1.779   6.010
 6822SOL    HW221366   5.645   1.746   5.851
 6823SOL     OW21367   3.356   3.311   3.143
 6823SOL    HW121368   3.347   3.303   3.044
 6823SOL    HW221369   3.434   3.368   3.165
 6824SOL     OW21370   0.481   3.982   6.425
 6824SOL    HW121371   0.543   4.049   6.466
 6824SOL    HW221372   0.387   4.005   6.450
 6825SOL     OW21373   5.393   0.202   2.106
 6825SOL    HW121374   5.402   0.107   2.075
 6825SOL    HW221375   5.426   0.209   2.201
 6826SOL     OW21376   2.155   3.429   2.805
 6826SOL    HW121377   2.254   3.435   2.793
 6826SOL    HW221378   2.131   3.337   2.835
 6827SOL     OW21379   5.216   5.576   6.644
 6827SOL    HW121380   5.255   5.649   6.700
 6827SOL    HW221381   5.117   5.571   6.659
 6828SOL     OW21382   1.272   2.328   1.239
 6828SOL    HW121383   1.276   2.387   1.158
 6828SOL    HW221384   1.177   2.299   1.255
 6829SOL     OW21385   5.134   6.560   3.810
 6829SOL    HW121386   5.227   6.526   3.820
 6829SOL    HW221387   5.127   6.614   3.726
 6830SOL     OW21388   5.252   1.967   3.334
 6830SOL    HW121389   5.280   1.940   3.242
 6830SOL    HW221390   5.155   1.947   3.346
 6831SOL     OW21391   0.732   0.804   6.030
 6831SOL    HW121392   0.826   0.804   6.066
 6831SOL    HW221393   0.715   0.717   5.983
 6832SOL     OW21394   2.876   4.859   2.418
 6832SOL    HW121395   2.831   4.789   2.363
 6832SOL    HW221396   2.972   4.866   2.390
 6833SOL     OW21397   3.837   4.817   6.759
 6833SOL    HW121398   3.900   4.889   6.729
 6833SOL    HW221399   3.851   4.735   6.704
 6834SOL     OW21400   4.576   6.778   2.008
 6834SOL    HW121401   4.572   6.843   2.084
 6834SOL    HW221402   4.588   6.686   2.043
 6835SOL     OW21403   4.118   0.248   4.867
 6835SOL    HW121404   4.217   0.255   4.854
 6835SOL    HW221405   4.087   0.157   4.839
 6836SOL     OW21406   3.412   6.331   0.561
 6836SOL    HW121407   3.422   6.238   0.597
 6836SOL    HW221408   3.463   6.338   0.475
 6837SOL     OW21409   1.925   3.435   1.718
 6837SOL    HW121410   1.936   3.467   1.812
 6837SOL    HW221411   2.014   3.411   1.680
 6838SOL     OW21412   2.252   1.228   0.061
 6838SOL    HW121413   2.217   1.146   0.015
 6838SOL    HW221414   2.192   1.252   0.136
 6839SOL     OW21415   4.011   1.066   0.806
 6839SOL    HW121416   3.936   1.001   0.822
 6839SOL    HW221417   3.980   1.158   0.829
 6840SOL     OW21418   2.416   1.467   6.116
 6840SOL    HW121419   2.365   1.518   6.185
 6840SOL    HW221420   2.429   1.525   6.035
 6841SOL     OW21421   6.462   2.821   6.184
 6841SOL    HW121422   6.406   2.748   6.145
 6841SOL    HW221423   6.444   2.828   6.282
 6842SOL     OW21424   1.873   5.419   1.890
 6842SOL    HW121425   1.871   5.501   1.833
 6842SOL    HW221426   1.937   5.353   1.850
 6843SOL     OW21427   5.474   6.785   7.012
 6843SOL    HW121428   5.493   6.791   6.914
 6843SOL    HW221429   5.560   6.790   0.040
 6844SOL     OW21430   4.746   0.639   4.352
 6844SOL    HW121431   4.670   0.691   4.312
 6844SOL    HW221432   4.829   0.653   4.297
 6845SOL     OW21433   4.752   2.641   2.997
 6845SOL    HW121434   4.723   2.673   2.907
 6845SOL    HW221435   4.673   2.635   3.058
 6846SOL     OW21436   2.791   4.066   0.486
 6846SOL    HW121437   2.857   4.020   0.426
 6846SOL    HW221438   2.814   4.048   0.581
 6847SOL     OW21439   5.986   3.643   4.510
 6847SOL    HW121440   5.927   3.714   4.548
 6847SOL    HW221441   5.975   3.639   4.411
 6848SOL     OW21442   5.312   4.337   3.366
 6848SOL    HW121443   5.214   4.329   3.346
 6848SOL    HW221444   5.349   4.415   3.315
 6849SOL     OW21445   3.996   3.829   6.215
 6849SOL    HW121446   4.013   3.909   6.273
 6849SOL    HW221447   4.056   3.832   6.135
 6850SOL     OW21448   4.066   1.587   3.133
 6850SOL    HW121449   4.069   1.655   3.060
 6850SOL    HW221450   4.126   1.616   3.208
 6851SOL     OW21451   1.882   3.111   3.236
 6851SOL    HW121452   1.852   3.043   3.170
 6851SOL    HW221453   1.980   3.099   3.254
 6852SOL     OW21454   2.753   5.501   0.374
 6852SOL    HW121455   2.841   5.466   0.407
 6852SOL    HW221456   2.686   5.495   0.448
 6853SOL     OW21457   5.309   2.858   6.469
 6853SOL    HW121458   5.244   2.817   6.405
 6853SOL    HW221459   5.401   2.824   6.450
 6854SOL     OW21460   5.465   6.003   5.831
 6854SOL    HW121461   5.406   6.031   5.907
 6854SOL    HW221462   5.410   5.959   5.760
 6855SOL     OW21463   3.655   4.923   3.499
 6855SOL    HW121464   3.732   4.874   3.457
 6855SOL    HW221465   3.663   4.919   3.598
 6856SOL     OW21466   1.096   2.266   6.692
 6856SOL    HW121467   1.017   2.209   6.717
 6856SOL    HW221468   1.131   2.312   6.774
 6857SOL     OW21469   0.796   3.980   5.985
 6857SOL    HW121470   0.878   3.929   6.009
 6857SOL    HW221471   0.781   3.976   5.886
 6858SOL     OW21472   3.001   4.089   1.745
 6858SOL    HW121473   3.031   4.025   1.816
 6858SOL    HW221474   2.901   4.085   1.736
 6859SOL     OW21475   0.741   1.082   2.645
 6859SOL    HW121476   0.826   1.048   2.605
 6859SOL    HW221477   0.722   1.174   2.610
 6860SOL     OW21478   0.658   6.504   1.833
 6860SOL    HW121479   0.641   6.408   1.852
 6860SOL    HW221480   0.712   6.513   1.750
 6861SOL     OW21481   4.864   2.692   5.187
 6861SOL    HW121482   4.838   2.706   5.282
 6861SOL    HW221483   4.945   2.632   5.183
 6862SOL     OW21484   0.665   4.856   5.848
 6862SOL    HW121485   0.599   4.928   5.830
 6862SOL    HW221486   0.625   4.787   5.908
 6863SOL     OW21487   0.005   6.840   5.167
 6863SOL    HW121488   7.008   6.824   5.070
 6863SOL    HW221489   0.061   6.923   5.176
 6864SOL     OW21490   1.729   3.468   5.289
 6864SOL    HW121491   1.630   3.464   5.306
 6864SOL    HW221492   1.766   3.551   5.331
 6865SOL     OW21493   1.794   0.183   4.598
 6865SOL    HW121494   1.811   0.281   4.592
 6865SOL    HW221495   1.697   0.165   4.584
 6866SOL     OW21496   0.214   4.443   1.995
 6866SOL    HW121497   0.227   4.516   2.063
 6866SOL    HW221498   0.200   4.484   1.905
 6867SOL     OW21499   2.116   3.368   0.369
 6867SOL    HW121500   2.102   3.459   0.407
 6867SOL    HW221501   2.189   3.371   0.301
 6868SOL     OW21502   2.542   5.265   4.916
 6868SOL    HW121503   2.567   5.208   4.838
 6868SOL    HW221504   2.603   5.344   4.921
 6869SOL     OW21505   3.690   0.391   6.150
 6869SOL    HW121506   3.635   0.414   6.230
 6869SOL    HW221507   3.731   0.474   6.113
 6870SOL     OW21508   0.227   2.850   0.386
 6870SOL    HW121509   0.152   2.839   0.452
 6870SOL    HW221510   0.193   2.830   0.294
 6871SOL     OW21511   0.289   3.847   2.708
 6871SOL    HW121512   0.373   3.822   2.659
 6871SOL    HW221513   0.210   3.829   2.649
 6872SOL     OW21514   1.949   2.988   1.647
 6872SOL    HW121515   2.034   3.029   1.679
 6872SOL    HW221516   1.879   3.059   1.637
 6873SOL     OW21517   1.218   4.056   4.345
 6873SOL    HW121518   1.317   4.066   4.349
 6873SOL    HW221519   1.175   4.145   4.332
 6874SOL     OW21520   5.830   5.890   2.939
 6874SOL    HW121521   5.789   5.914   3.027
 6874SOL    HW221522   5.920   5.848   2.954
 6875SOL     OW21523   1.345   2.614   1.236
 6875SOL    HW121524   1.289   2.695   1.253
 6875SOL    HW221525   1.434   2.626   1.281
 6876SOL     OW21526   4.531   5.534   3.264
 6876SOL    HW121527   4.457   5.487   3.216
 6876SOL    HW221528   4.535   5.629   3.234
 6877SOL     OW21529   1.747   3.652   2.331
 6877SOL    HW121530   1.749   3.557   2.361
 6877SOL    HW221531   1.689   3.705   2.393
 6878SOL     OW21532   1.889   0.550   3.806
 6878SOL    HW121533   1.916   0.588   3.717
 6878SOL    HW221534   1.868   0.453   3.795
 6879SOL     OW21535   2.076   1.987   0.828
 6879SOL    HW121536   2.095   1.933   0.910
 6879SOL    HW221537   2.098   2.083   0.846
 6880SOL     OW21538   1.709   5.488   6.803
 6880SOL    HW121539   1.711   5.397   6.763
 6880SOL    HW221540   1.684   5.481   6.900
 6881SOL     OW21541   1.096   3.308   0.562
 6881SOL    HW121542   1.189   3.272   0.560
 6881SOL    HW221543   1.053   3.295   0.472
 6882SOL     OW21544   2.664   6.539   0.175
 6882SOL    HW121545   2.638   6.544   0.272
 6882SOL    HW221546   2.652   6.628   0.133
 6883SOL     OW21547   5.068   0.066   6.639
 6883SOL    HW121548   5.159   0.102   6.661
 6883SOL    HW221549   5.004   0.093   6.711
 6884SOL     OW21550   2.221   3.874   2.858
 6884SOL    HW121551   2.153   3.811   2.894
 6884SOL    HW221552   2.242   3.848   2.763
 6885SOL     OW21553   5.509   5.969   3.815
 6885SOL    HW121554   5.592   6.025   3.824
 6885SOL    HW221555   5.512   5.918   3.729
 6886SOL     OW21556   4.859   1.025   6.287
 6886SOL    HW121557   4.879   0.971   6.206
 6886SOL    HW221558   4.764   1.008   6.316
 6887SOL     OW21559   5.243   6.149   5.958
 6887SOL    HW121560   5.208   6.191   6.041
 6887SOL    HW221561   5.169   6.140   5.891
 6888SOL     OW21562   6.126   4.956   6.523
 6888SOL    HW121563   6.039   4.919   6.554
 6888SOL    HW221564   6.153   4.911   6.438
 6889SOL     OW21565   0.990   2.926   6.738
 6889SOL    HW121566   0.954   3.009   6.781
 6889SOL    HW221567   0.967   2.926   6.640
 6890SOL     OW21568   4.027   5.167   2.409
 6890SOL    HW121569   4.027   5.259   2.371
 6890SOL    HW221570   3.978   5.167   2.497
 6891SOL     OW21571   1.950   1.913   1.211
 6891SOL    HW121572   2.015   1.953   1.275
 6891SOL    HW221573   1.859   1.912   1.252
 6892SOL     OW21574   3.275   0.808   4.295
 6892SOL    HW121575   3.287   0.799   4.196
 6892SOL    HW221576   3.361   0.840   4.336
 6893SOL     OW21577   6.521   2.717   6.957
 6893SOL    HW121578   6.566   2.785   7.014
 6893SOL    HW221579   6.447   2.674   7.008
 6894SOL     OW21580   5.504   5.185   0.590
 6894SOL    HW121581   5.461   5.199   0.680
 6894SOL    HW221582   5.586   5.129   0.601
 6895SOL     OW21583   1.662   6.301   1.566
 6895SOL    HW121584   1.750   6.340   1.538
 6895SOL    HW221585   1.595   6.375   1.576
 6896SOL     OW21586   4.563   2.139   4.581
 6896SOL    HW121587   4.516   2.203   4.520
 6896SOL    HW221588   4.653   2.117   4.545
 6897SOL     OW21589   5.155   4.055   5.036
 6897SOL    HW121590   5.221   4.006   5.094
 6897SOL    HW221591   5.064   4.017   5.051
 6898SOL     OW21592   2.145   1.657   1.333
 6898SOL    HW121593   2.123   1.754   1.327
 6898SOL    HW221594   2.083   1.604   1.276
 6899SOL     OW21595   6.138   5.818   2.943
 6899SOL    HW121596   6.169   5.726   2.968
 6899SOL    HW221597   6.115   5.820   2.846
 6900SOL     OW21598   6.237   4.350   5.840
 6900SOL    HW121599   6.141   4.376   5.833
 6900SOL    HW221600   6.292   4.431   5.864
 6901SOL     OW21601   4.653   4.591   6.838
 6901SOL    HW121602   4.665   4.508   6.893
 6901SOL    HW221603   4.556   4.606   6.820
 6902SOL     OW21604   0.227   5.758   6.358
 6902SOL    HW121605   0.197   5.713   6.274
 6902SOL    HW221606   0.303   5.820   6.337
 6903SOL     OW21607   2.603   5.044   4.693
 6903SOL    HW121608   2.632   4.957   4.731
 6903SOL    HW221609   2.588   5.034   4.595
 6904SOL     OW21610   0.248   6.346   4.827
 6904SOL    HW121611   0.195   6.271   4.867
 6904SOL    HW221612   0.336   6.354   4.873
 6905SOL     OW21613   5.327   5.649   5.851
 6905SOL    HW121614   5.306   5.585   5.777
 6905SOL    HW221615   5.252   5.647   5.918
 6906SOL     OW21616   3.795   1.405   3.685
 6906SOL    HW121617   3.724   1.431   3.620
 6906SOL    HW221618   3.755   1.394   3.776
 6907SOL     OW21619   5.877   1.175   1.089
 6907SOL    HW121620   5.937   1.247   1.056
 6907SOL    HW221621   5.862   1.187   1.187
 6908SOL     OW21622   2.741   4.487   0.222
 6908SOL    HW121623   2.802   4.456   0.149
 6908SOL    HW221624   2.695   4.408   0.263
 6909SOL     OW21625   5.774   5.309   1.995
 6909SOL    HW121626   5.855   5.250   1.996
 6909SOL    HW221627   5.692   5.253   1.977
 6910SOL     OW21628   1.368   2.831   3.594
 6910SOL    HW121629   1.430   2.847   3.517
 6910SOL    HW221630   1.405   2.874   3.676
 6911SOL     OW21631   2.816   0.445   5.890
 6911SOL    HW121632   2.795   0.470   5.985
 6911SOL    HW221633   2.751   0.490   5.829
 6912SOL     OW21634   1.966   3.604   6.305
 6912SOL    HW121635   1.993   3.675   6.240
 6912SOL    HW221636   1.945   3.519   6.256
 6913SOL     OW21637   4.424   5.828   5.769
 6913SOL    HW121638   4.437   5.914   5.819
 6913SOL    HW221639   4.493   5.821   5.696
 6914SOL     OW21640   6.770   3.553   1.847
 6914SOL    HW121641   6.813   3.644   1.851
 6914SOL    HW221642   6.729   3.540   1.757
 6915SOL     OW21643   1.074   3.234   2.655
 6915SOL    HW121644   1.018   3.310   2.687
 6915SOL    HW221645   1.145   3.213   2.723
 6916SOL     OW21646   4.433   6.234   6.926
 6916SOL    HW121647   4.505   6.255   6.861
 6916SOL    HW221648   4.434   6.136   6.947
 6917SOL     OW21649   5.861   5.524   1.626
 6917SOL    HW121650   5.840   5.550   1.720
 6917SOL    HW221651   5.802   5.448   1.598
 6918SOL     OW21652   1.813   3.081   1.968
 6918SOL    HW121653   1.769   3.121   1.888
 6918SOL    HW221654   1.906   3.117   1.977
 6919SOL     OW21655   6.611   6.386   2.950
 6919SOL    HW121656   6.545   6.317   2.977
 6919SOL    HW221657   6.628   6.448   3.027
 6920SOL     OW21658   5.003   0.589   5.775
 6920SOL    HW121659   4.959   0.502   5.750
 6920SOL    HW221660   4.953   0.665   5.734
 6921SOL     OW21661   3.484   0.217   4.122
 6921SOL    HW121662   3.497   0.253   4.214
 6921SOL    HW221663   3.501   0.290   4.055
 6922SOL     OW21664   1.146   5.944   5.666
 6922SOL    HW121665   1.112   6.037   5.676
 6922SOL    HW221666   1.213   5.924   5.738
 6923SOL     OW21667   6.245   6.893   2.287
 6923SOL    HW121668   6.320   6.870   2.226
 6923SOL    HW221669   6.281   6.933   2.372
 6924SOL     OW21670   3.538   6.677   0.367
 6924SOL    HW121671   3.611   6.743   0.347
 6924SOL    HW221672   3.578   6.589   0.389
 6925SOL     OW21673   5.914   6.100   6.412
 6925SOL    HW121674   5.899   6.198   6.400
 6925SOL    HW221675   5.984   6.069   6.348
 6926SOL     OW21676   2.755   2.213   0.460
 6926SOL    HW121677   2.728   2.174   0.548
 6926SOL    HW221678   2.684   2.197   0.392
 6927SOL     OW21679   4.298   0.882   0.162
 6927SOL    HW121680   4.358   0.809   0.130
 6927SOL    HW221681   4.349   0.968   0.168
 6928SOL     OW21682   4.558   5.185   0.781
 6928SOL    HW121683   4.621   5.244   0.731
 6928SOL    HW221684   4.575   5.089   0.755
 6929SOL     OW21685   5.869   5.646   1.080
 6929SOL    HW121686   5.851   5.604   0.990
 6929SOL    HW221687   5.800   5.716   1.097
 6930SOL     OW21688   0.190   0.657   0.734
 6930SOL    HW121689   0.286   0.631   0.719
 6930SOL    HW221690   0.181   0.699   0.824
 6931SOL     OW21691   2.539   2.713   1.481
 6931SOL    HW121692   2.623   2.753   1.517
 6931SOL    HW221693   2.469   2.709   1.553
 6932SOL     OW21694   4.470   5.503   0.242
 6932SOL    HW121695   4.439   5.481   0.149
 6932SOL    HW221696   4.468   5.421   0.299
 6933SOL     OW21697   2.929   5.668   6.769
 6933SOL    HW121698   2.916   5.571   6.791
 6933SOL    HW221699   2.849   5.720   6.799
 6934SOL     OW21700   5.065   3.982   6.253
 6934SOL    HW121701   5.065   4.014   6.348
 6934SOL    HW221702   5.149   3.931   6.235
 6935SOL     OW21703   5.514   5.013   1.610
 6935SOL    HW121704   5.496   5.095   1.554
 6935SOL    HW221705   5.461   4.936   1.575
 6936SOL     OW21706   0.827   1.899   5.031
 6936SOL    HW121707   0.754   1.949   4.984
 6936SOL    HW221708   0.876   1.842   4.965
 6937SOL     OW21709   5.405   5.830   0.456
 6937SOL    HW121710   5.316   5.861   0.423
 6937SOL    HW221711   5.437   5.755   0.398
 6938SOL     OW21712   0.494   0.568   4.755
 6938SOL    HW121713   0.546   0.611   4.681
 6938SOL    HW221714   0.493   0.469   4.740
 6939SOL     OW21715   5.954   4.797   3.873
 6939SOL    HW121716   5.963   4.769   3.968
 6939SOL    HW221717   6.004   4.733   3.814
 6940SOL     OW21718   4.049   6.541   0.558
 6940SOL    HW121719   4.137   6.518   0.598
 6940SOL    HW221720   4.011   6.621   0.605
 6941SOL     OW21721   3.610   3.195   2.386
 6941SOL    HW121722   3.526   3.249   2.390
 6941SOL    HW221723   3.590   3.101   2.413
 6942SOL     OW21724   5.935   6.859   1.516
 6942SOL    HW121725   5.926   6.811   1.603
 6942SOL    HW221726   5.860   6.924   1.505
 6943SOL     OW21727   4.082   5.110   6.124
 6943SOL    HW121728   4.025   5.186   6.094
 6943SOL    HW221729   4.049   5.025   6.084
 6944SOL     OW21730   1.034   3.722   5.544
 6944SOL    HW121731   0.950   3.776   5.533
 6944SOL    HW221732   1.010   3.626   5.555
 6945SOL     OW21733   5.443   2.810   1.001
 6945SOL    HW121734   5.521   2.747   0.998
 6945SOL    HW221735   5.449   2.874   0.924
 6946SOL     OW21736   4.451   5.651   2.431
 6946SOL    HW121737   4.361   5.612   2.451
 6946SOL    HW221738   4.522   5.586   2.458
 6947SOL     OW21739   5.120   5.246   5.330
 6947SOL    HW121740   5.171   5.167   5.363
 6947SOL    HW221741   5.121   5.247   5.230
 6948SOL     OW21742   0.712   5.044   0.090
 6948SOL    HW121743   0.703   4.948   0.061
 6948SOL    HW221744   0.645   5.063   0.162
 6949SOL     OW21745   2.777   2.172   3.982
 6949SOL    HW121746   2.697   2.166   4.041
 6949SOL    HW221747   2.796   2.082   3.942
 6950SOL     OW21748   0.779   6.750   5.027
 6950SOL    HW121749   0.688   6.769   4.990
 6950SOL    HW221750   0.847   6.757   4.954
 6951SOL     OW21751   0.040   4.848   6.535
 6951SOL    HW121752   0.021   4.836   6.437
 6951SOL    HW221753   0.100   4.774   6.567
 6952SOL     OW21754   3.601   5.006   3.075
 6952SOL    HW121755   3.509   4.977   3.101
 6952SOL    HW221756   3.601   5.031   2.978
 6953SOL     OW21757   4.719   1.022   1.265
 6953SOL    HW121758   4.781   0.965   1.318
 6953SOL    HW221759   4.625   1.007   1.297
 6954SOL     OW21760   6.350   3.733   0.423
 6954SOL    HW121761   6.364   3.745   0.325
 6954SOL    HW221762   6.308   3.644   0.441
 6955SOL     OW21763   5.443   6.388   2.414
 6955SOL    HW121764   5.368   6.330   2.446
 6955SOL    HW221765   5.410   6.482   2.404
 6956SOL     OW21766   5.193   5.278   2.105
 6956SOL    HW121767   5.103   5.233   2.104
 6956SOL    HW221768   5.200   5.333   2.188
 6957SOL     OW21769   5.396   5.122   6.239
 6957SOL    HW121770   5.324   5.178   6.279
 6957SOL    HW221771   5.409   5.146   6.143
 6958SOL     OW21772   3.115   3.054   3.430
 6958SOL    HW121773   3.023   3.059   3.469
 6958SOL    HW221774   3.177   3.014   3.497
 6959SOL     OW21775   1.098   4.164   3.084
 6959SOL    HW121776   1.005   4.199   3.091
 6959SOL    HW221777   1.097   4.068   3.056
 6960SOL     OW21778   2.860   4.923   0.514
 6960SOL    HW121779   2.906   4.863   0.449
 6960SOL    HW221780   2.869   4.885   0.606
 6961SOL     OW21781   4.331   2.255   5.749
 6961SOL    HW121782   4.379   2.178   5.792
 6961SOL    HW221783   4.262   2.221   5.686
 6962SOL     OW21784   2.860   6.569   6.175
 6962SOL    HW121785   2.932   6.502   6.159
 6962SOL    HW221786   2.785   6.555   6.111
 6963SOL     OW21787   5.198   6.740   1.066
 6963SOL    HW121788   5.289   6.744   1.105
 6963SOL    HW221789   5.200   6.685   0.982
 6964SOL     OW21790   1.616   0.230   6.179
 6964SOL    HW121791   1.542   0.226   6.112
 6964SOL    HW221792   1.634   0.325   6.202
 6965SOL     OW21793   0.503   2.084   6.666
 6965SOL    HW121794   0.579   2.087   6.601
 6965SOL    HW221795   0.418   2.106   6.617
 6966SOL     OW21796   1.147   0.293   1.949
 6966SOL    HW121797   1.230   0.318   1.898
 6966SOL    HW221798   1.086   0.372   1.954
 6967SOL     OW21799   4.445   1.520   5.875
 6967SOL    HW121800   4.535   1.496   5.911
 6967SOL    HW221801   4.375   1.471   5.926
 6968SOL     OW21802   3.944   6.296   2.608
 6968SOL    HW121803   3.866   6.237   2.588
 6968SOL    HW221804   3.926   6.347   2.692
 6969SOL     OW21805   2.248   1.657   1.680
 6969SOL    HW121806   2.251   1.754   1.658
 6969SOL    HW221807   2.180   1.611   1.623
 6970SOL     OW21808   3.585   4.707   6.238
 6970SOL    HW121809   3.509   4.695   6.302
 6970SOL    HW221810   3.602   4.620   6.191
 6971SOL     OW21811   0.161   4.476   0.357
 6971SOL    HW121812   0.129   4.383   0.340
 6971SOL    HW221813   0.141   4.533   0.277
 6972SOL     OW21814   4.928   3.540   2.278
 6972SOL    HW121815   4.885   3.468   2.334
 6972SOL    HW221816   4.917   3.518   2.181
 6973SOL     OW21817   0.939   3.316   3.455
 6973SOL    HW121818   1.016   3.349   3.401
 6973SOL    HW221819   0.858   3.308   3.396
 6974SOL     OW21820   3.664   3.754   2.649
 6974SOL    HW121821   3.659   3.837   2.705
 6974SOL    HW221822   3.752   3.709   2.665
 6975SOL     OW21823   3.239   5.781   4.866
 6975SOL    HW121824   3.242   5.730   4.779
 6975SOL    HW221825   3.233   5.716   4.942
 6976SOL     OW21826   5.110   4.073   5.825
 6976SOL    HW121827   5.188   4.022   5.860
 6976SOL    HW221828   5.075   4.135   5.896
 6977SOL     OW21829   4.180   4.619   1.366
 6977SOL    HW121830   4.190   4.711   1.404
 6977SOL    HW221831   4.214   4.552   1.431
 6978SOL     OW21832   5.193   3.489   1.849
 6978SOL    HW121833   5.186   3.441   1.761
 6978SOL    HW221834   5.219   3.584   1.833
 6979SOL     OW21835   1.343   3.916   1.573
 6979SOL    HW121836   1.365   3.823   1.545
 6979SOL    HW221837   1.402   3.980   1.524
 6980SOL     OW21838   1.423   6.374   3.049
 6980SOL    HW121839   1.370   6.386   3.133
 6980SOL    HW221840   1.432   6.462   3.003
 6981SOL     OW21841   3.680   3.278   6.551
 6981SOL    HW121842   3.653   3.370   6.525
 6981SOL    HW221843   3.631   3.251   6.634
 6982SOL     OW21844   1.448   1.195   3.882
 6982SOL    HW121845   1.432   1.100   3.857
 6982SOL    HW221846   1.397   1.255   3.820
 6983SOL     OW21847   4.948   0.719   4.162
 6983SOL    HW121848   5.046   0.715   4.143
 6983SOL    HW221849   4.896   0.687   4.083
 6984SOL     OW21850   0.707   2.494   3.133
 6984SOL    HW121851   0.787   2.434   3.143
 6984SOL    HW221852   0.735   2.589   3.143
 6985SOL     OW21853   6.326   3.277   0.256
 6985SOL    HW121854   6.316   3.325   0.169
 6985SOL    HW221855   6.423   3.256   0.271
 6986SOL     OW21856   3.683   4.791   5.353
 6986SOL    HW121857   3.596   4.770   5.308
 6986SOL    HW221858   3.676   4.882   5.395
 6987SOL     OW21859   0.551   1.530   6.145
 6987SOL    HW121860   0.598   1.454   6.191
 6987SOL    HW221861   0.550   1.610   6.206
 6988SOL     OW21862   3.023   1.174   6.367
 6988SOL    HW121863   2.976   1.263   6.367
 6988SOL    HW221864   3.114   1.185   6.408
 6989SOL     OW21865   6.799   5.214   2.957
 6989SOL    HW121866   6.812   5.115   2.964
 6989SOL    HW221867   6.745   5.235   2.876
 6990SOL     OW21868   3.497   2.758   1.275
 6990SOL    HW121869   3.596   2.745   1.282
 6990SOL    HW221870   3.456   2.673   1.242
 6991SOL     OW21871   5.695   3.863   2.325
 6991SOL    HW121872   5.606   3.834   2.360
 6991SOL    HW221873   5.725   3.800   2.253
 6992SOL     OW21874   0.803   6.692   0.159
 6992SOL    HW121875   0.886   6.664   0.208
 6992SOL    HW221876   0.787   6.789   0.173
 6993SOL     OW21877   4.707   1.253   1.711
 6993SOL    HW121878   4.672   1.231   1.802
 6993SOL    HW221879   4.804   1.229   1.706
 6994SOL     OW21880   2.196   6.974   4.151
 6994SOL    HW121881   2.190   6.917   4.233
 6994SOL    HW221882   2.290   6.971   4.115
 6995SOL     OW21883   0.133   3.683   1.009
 6995SOL    HW121884   0.052   3.718   1.055
 6995SOL    HW221885   0.109   3.654   0.916
 6996SOL     OW21886   0.952   1.670   6.971
 6996SOL    HW121887   0.898   1.742   7.015
 6996SOL    HW221888   0.973   1.698   6.877
 6997SOL     OW21889   6.177   5.477   5.168
 6997SOL    HW121890   6.186   5.569   5.206
 6997SOL    HW221891   6.097   5.432   5.208
 6998SOL     OW21892   6.695   1.604   0.336
 6998SOL    HW121893   6.787   1.642   0.321
 6998SOL    HW221894   6.663   1.560   0.252
 6999SOL     OW21895   0.767   3.558   0.541
 6999SOL    HW121896   0.739   3.545   0.636
 6999SOL    HW221897   0.808   3.648   0.530
 7000SOL     OW21898   6.828   0.076   2.654
 7000SOL    HW121899   6.919   0.091   2.616
 7000SOL    HW221900   6.818   0.128   2.739
 7001SOL     OW21901   1.005   1.437   4.561
 7001SOL    HW121902   1.070   1.513   4.558
 7001SOL    HW221903   0.944   1.449   4.639
 7002SOL     OW21904   6.809   5.768   2.886
 7002SOL    HW121905   6.770   5.838   2.945
 7002SOL    HW221906   6.845   5.810   2.803
 7003SOL     OW21907   6.277   4.786   1.394
 7003SOL    HW121908   6.317   4.864   1.346
 7003SOL    HW221909   6.253   4.715   1.328
 7004SOL     OW21910   1.770   5.809   0.239
 7004SOL    HW121911   1.789   5.905   0.263
 7004SOL    HW221912   1.727   5.805   0.149
 7005SOL     OW21913   1.341   6.969   0.174
 7005SOL    HW121914   1.339   7.002   0.079
 7005SOL    HW221915   1.248   6.973   0.212
 7006SOL     OW21916   0.786   0.265   4.621
 7006SOL    HW121917   0.710   0.294   4.561
 7006SOL    HW221918   0.765   0.290   4.715
 7007SOL     OW21919   3.578   0.242   5.561
 7007SOL    HW121920   3.577   0.253   5.660
 7007SOL    HW221921   3.485   0.221   5.528
 7008SOL     OW21922   6.137   4.346   3.668
 7008SOL    HW121923   6.106   4.270   3.725
 7008SOL    HW221924   6.084   4.427   3.689
 7009SOL     OW21925   4.680   5.827   1.409
 7009SOL    HW121926   4.745   5.771   1.460
 7009SOL    HW221927   4.592   5.779   1.404
 7010SOL     OW21928   5.298   3.750   1.787
 7010SOL    HW121929   5.224   3.800   1.833
 7010SOL    HW221930   5.371   3.813   1.763
 7011SOL     OW21931   3.004   6.447   0.188
 7011SOL    HW121932   2.947   6.467   0.108
 7011SOL    HW221933   2.977   6.506   0.263
 7012SOL     OW21934   0.252   2.088   0.258
 7012SOL    HW121935   0.243   2.027   0.337
 7012SOL    HW221936   0.178   2.155   0.258
 7013SOL     OW21937   2.625   1.494   6.828
 7013SOL    HW121938   2.590   1.526   6.740
 7013SOL    HW221939   2.584   1.406   6.851
 7014SOL     OW21940   6.534   3.517   1.608
 7014SOL    HW121941   6.436   3.524   1.588
 7014SOL    HW221942   6.567   3.603   1.647
 7015SOL     OW21943   4.946   5.864   0.787
 7015SOL    HW121944   5.037   5.844   0.823
 7015SOL    HW221945   4.885   5.889   0.862
 7016SOL     OW21946   3.329   5.295   0.427
 7016SOL    HW121947   3.367   5.212   0.385
 7016SOL    HW221948   3.239   5.314   0.389
 7017SOL     OW21949   4.604   5.355   4.031
 7017SOL    HW121950   4.504   5.357   4.027
 7017SOL    HW221951   4.637   5.270   3.990
 7018SOL     OW21952   4.847   3.158   4.048
 7018SOL    HW121953   4.820   3.080   4.103
 7018SOL    HW221954   4.826   3.141   3.952
 7019SOL     OW21955   4.937   4.834   1.823
 7019SOL    HW121956   4.857   4.775   1.836
 7019SOL    HW221957   4.911   4.916   1.771
 7020SOL     OW21958   0.580   3.008   6.316
 7020SOL    HW121959   0.484   2.978   6.316
 7020SOL    HW221960   0.634   2.944   6.372
 7021SOL     OW21961   0.909   2.174   5.037
 7021SOL    HW121962   0.966   2.172   5.120
 7021SOL    HW221963   0.869   2.084   5.021
 7022SOL     OW21964   3.817   1.294   0.794
 7022SOL    HW121965   3.869   1.366   0.839
 7022SOL    HW221966   3.735   1.274   0.846
 7023SOL     OW21967   0.586   2.157   1.460
 7023SOL    HW121968   0.615   2.085   1.523
 7023SOL    HW221969   0.594   2.246   1.506
 7024SOL     OW21970   3.733   3.385   3.812
 7024SOL    HW121971   3.684   3.361   3.728
 7024SOL    HW221972   3.698   3.331   3.888
 7025SOL     OW21973   3.756   6.829   0.360
 7025SOL    HW121974   3.816   6.774   0.301
 7025SOL    HW221975   3.801   6.916   0.382
 7026SOL     OW21976   3.553   2.184   0.960
 7026SOL    HW121977   3.647   2.173   0.990
 7026SOL    HW221978   3.517   2.097   0.926
 7027SOL     OW21979   2.005   5.206   1.726
 7027SOL    HW121980   2.102   5.230   1.725
 7027SOL    HW221981   1.996   5.107   1.740
 7028SOL     OW21982   3.525   6.961   3.175
 7028SOL    HW121983   3.591   6.892   3.204
 7028SOL    HW221984   3.490   6.938   3.084
 7029SOL     OW21985   3.462   3.565   5.184
 7029SOL    HW121986   3.490   3.565   5.280
 7029SOL    HW221987   3.526   3.509   5.131
 7030SOL     OW21988   6.455   1.690   5.236
 7030SOL    HW121989   6.551   1.667   5.252
 7030SOL    HW221990   6.426   1.760   5.301
 7031SOL     OW21991   4.540   6.513   0.728
 7031SOL    HW121992   4.571   6.563   0.809
 7031SOL    HW221993   4.543   6.574   0.648
 7032SOL     OW21994   3.763   0.091   4.788
 7032SOL    HW121995   3.754   0.135   4.878
 7032SOL    HW221996   3.859   0.069   4.772
 7033SOL     OW21997   1.421   1.914   5.559
 7033SOL    HW121998   1.364   1.994   5.540
 7033SOL    HW221999   1.395   1.839   5.498
 7034SOL     OW22000   6.132   1.622   3.097
 7034SOL    HW122001   6.203   1.618   3.167
 7034SOL    HW222002   6.083   1.535   3.095
 7035SOL     OW22003   2.015   0.795   1.116
 7035SOL    HW122004   2.076   0.869   1.145
 7035SOL    HW222005   1.992   0.807   1.020
 7036SOL     OW22006   0.192   1.261   2.043
 7036SOL    HW122007   0.135   1.216   2.113
 7036SOL    HW222008   0.186   1.209   1.958
 7037SOL     OW22009   0.842   0.508   6.501
 7037SOL    HW122010   0.743   0.491   6.509
 7037SOL    HW222011   0.887   0.425   6.469
 7038SOL     OW22012   1.938   2.699   6.605
 7038SOL    HW122013   1.841   2.706   6.627
 7038SOL    HW222014   1.983   2.638   6.669
 7039SOL     OW22015   0.373   6.121   2.954
 7039SOL    HW122016   0.416   6.205   2.921
 7039SOL    HW222017   0.274   6.126   2.940
 7040SOL     OW22018   4.617   2.475   5.398
 7040SOL    HW122019   4.573   2.460   5.309
 7040SOL    HW222020   4.613   2.572   5.421
 7041SOL     OW22021   1.593   0.501   3.533
 7041SOL    HW122022   1.678   0.457   3.561
 7041SOL    HW222023   1.542   0.530   3.614
 7042SOL     OW22024   4.408   6.233   5.301
 7042SOL    HW122025   4.457   6.281   5.374
 7042SOL    HW222026   4.319   6.277   5.286
 7043SOL     OW22027   2.212   4.698   2.590
 7043SOL    HW122028   2.290   4.645   2.557
 7043SOL    HW222029   2.170   4.651   2.668
 7044SOL     OW22030   5.055   6.437   4.093
 7044SOL    HW122031   5.056   6.422   4.192
 7044SOL    HW222032   5.140   6.482   4.065
 7045SOL     OW22033   6.125   5.789   2.670
 7045SOL    HW122034   6.035   5.747   2.663
 7045SOL    HW222035   6.131   5.866   2.606
 7046SOL     OW22036   3.225   1.987   4.654
 7046SOL    HW122037   3.182   1.897   4.645
 7046SOL    HW222038   3.164   2.049   4.703
 7047SOL     OW22039   0.936   6.836   0.609
 7047SOL    HW122040   0.862   6.851   0.675
 7047SOL    HW222041   0.964   6.923   0.570
 7048SOL     OW22042   6.637   5.421   4.912
 7048SOL    HW122043   6.691   5.366   4.848
 7048SOL    HW222044   6.572   5.477   4.861
 7049SOL     OW22045   3.715   0.887   2.206
 7049SOL    HW122046   3.713   0.842   2.295
 7049SOL    HW222047   3.641   0.853   2.149
 7050SOL     OW22048   4.156   3.701   0.910
 7050SOL    HW122049   4.165   3.800   0.915
 7050SOL    HW222050   4.080   3.672   0.969
 7051SOL     OW22051   0.579   0.240   1.186
 7051SOL    HW122052   0.588   0.272   1.091
 7051SOL    HW222053   0.492   0.271   1.224
 7052SOL     OW22054   5.930   0.474   2.211
 7052SOL    HW122055   5.987   0.416   2.154
 7052SOL    HW222056   5.861   0.520   2.154
 7053SOL     OW22057   1.770   2.645   3.772
 7053SOL    HW122058   1.825   2.702   3.833
 7053SOL    HW222059   1.830   2.599   3.706
 7054SOL     OW22060   6.965   0.360   0.384
 7054SOL    HW122061   6.880   0.317   0.414
 7054SOL    HW222062   7.005   0.412   0.460
 7055SOL     OW22063   2.721   0.630   6.921
 7055SOL    HW122064   2.735   0.550   6.980
 7055SOL    HW222065   2.795   0.696   6.935
 7056SOL     OW22066   6.840   5.361   1.598
 7056SOL    HW122067   6.898   5.302   1.655
 7056SOL    HW222068   6.749   5.367   1.637
 7057SOL     OW22069   3.086   4.949   5.274
 7057SOL    HW122070   3.080   4.972   5.370
 7057SOL    HW222071   3.106   5.031   5.220
 7058SOL     OW22072   5.087   2.765   5.939
 7058SOL    HW122073   5.047   2.855   5.957
 7058SOL    HW222074   5.151   2.741   6.012
 7059SOL     OW22075   1.928   0.675   4.826
 7059SOL    HW122076   1.990   0.607   4.865
 7059SOL    HW222077   1.843   0.630   4.798
 7060SOL     OW22078   3.465   0.353   2.083
 7060SOL    HW122079   3.390   0.338   2.147
 7060SOL    HW222080   3.460   0.285   2.010
 7061SOL     OW22081   1.015   2.587   2.954
 7061SOL    HW122082   1.107   2.579   2.917
 7061SOL    HW222083   0.948   2.562   2.883
 7062SOL     OW22084   3.798   1.627   3.175
 7062SOL    HW122085   3.898   1.621   3.174
 7062SOL    HW222086   3.770   1.716   3.141
 7063SOL     OW22087   0.995   0.945   2.090
 7063SOL    HW122088   1.079   0.996   2.073
 7063SOL    HW222089   0.945   0.987   2.166
 7064SOL     OW22090   4.622   1.831   5.347
 7064SOL    HW122091   4.693   1.804   5.282
 7064SOL    HW222092   4.532   1.801   5.314
 7065SOL     OW22093   3.701   4.071   5.518
 7065SOL    HW122094   3.661   4.049   5.429
 7065SOL    HW222095   3.797   4.043   5.519
 7066SOL     OW22096   4.094   0.236   7.011
 7066SOL    HW122097   4.186   0.276   7.014
 7066SOL    HW222098   4.091   0.156   0.049
 7067SOL     OW22099   2.024   3.271   6.769
 7067SOL    HW122100   1.937   3.221   6.767
 7067SOL    HW222101   2.075   3.253   6.684
 7068SOL     OW22102   4.892   4.117   4.337
 7068SOL    HW122103   4.984   4.150   4.316
 7068SOL    HW222104   4.899   4.030   4.385
 7069SOL     OW22105   5.796   0.049   6.426
 7069SOL    HW122106   5.721   0.032   6.362
 7069SOL    HW222107   5.758   0.073   6.516
 7070SOL     OW22108   0.515   6.251   4.864
 7070SOL    HW122109   0.454   6.214   4.934
 7070SOL    HW222110   0.582   6.311   4.907
 7071SOL     OW22111   5.310   5.864   6.141
 7071SOL    HW122112   5.398   5.859   6.094
 7071SOL    HW222113   5.323   5.910   6.229
 7072SOL     OW22114   0.090   3.616   6.875
 7072SOL    HW122115   0.082   3.537   6.814
 7072SOL    HW222116   0.028   3.688   6.843
 7073SOL     OW22117   5.681   1.232   2.994
 7073SOL    HW122118   5.737   1.172   2.936
 7073SOL    HW222119   5.676   1.194   3.086
 7074SOL     OW22120   5.657   4.274   2.856
 7074SOL    HW122121   5.711   4.353   2.827
 7074SOL    HW222122   5.628   4.287   2.951
 7075SOL     OW22123   3.424   5.517   4.059
 7075SOL    HW122124   3.498   5.570   4.099
 7075SOL    HW222125   3.385   5.457   4.129
 7076SOL     OW22126   5.872   2.524   2.554
 7076SOL    HW122127   5.807   2.453   2.528
 7076SOL    HW222128   5.865   2.601   2.490
 7077SOL     OW22129   3.236   5.680   1.034
 7077SOL    HW122130   3.290   5.751   0.989
 7077SOL    HW222131   3.282   5.653   1.119
 7078SOL     OW22132   5.098   0.119   0.529
 7078SOL    HW122133   5.090   0.078   0.620
 7078SOL    HW222134   5.070   0.052   0.460
 7079SOL     OW22135   1.112   0.028   4.226
 7079SOL    HW122136   1.021   7.010   4.236
 7079SOL    HW222137   1.181   6.980   4.235
 7080SOL     OW22138   3.994   1.578   5.100
 7080SOL    HW122139   3.947   1.570   5.188
 7080SOL    HW222140   4.002   1.674   5.076
 7081SOL     OW22141   1.400   1.346   0.085
 7081SOL    HW122142   1.477   1.284   0.105
 7081SOL    HW222143   1.343   1.306   0.014
 7082SOL     OW22144   6.395   4.478   3.051
 7082SOL    HW122145   6.300   4.461   3.024
 7082SOL    HW222146   6.452   4.400   3.028
 7083SOL     OW22147   6.996   3.351   2.573
 7083SOL    HW122148   6.901   3.346   2.606
 7083SOL    HW222149   6.997   3.380   2.478
 7084SOL     OW22150   0.902   5.620   6.948
 7084SOL    HW122151   0.817   5.672   6.945
 7084SOL    HW222152   0.892   5.543   7.012
 7085SOL     OW22153   0.827   3.114   2.108
 7085SOL    HW122154   0.881   3.064   2.176
 7085SOL    HW222155   0.863   3.206   2.098
 7086SOL     OW22156   5.641   1.221   4.486
 7086SOL    HW122157   5.576   1.276   4.434
 7086SOL    HW222158   5.647   1.130   4.446
 7087SOL     OW22159   5.380   3.175   3.242
 7087SOL    HW122160   5.421   3.092   3.280
 7087SOL    HW222161   5.348   3.157   3.149
 7088SOL     OW22162   5.985   1.817   4.975
 7088SOL    HW122163   5.907   1.876   4.993
 7088SOL    HW222164   6.037   1.804   5.059
 7089SOL     OW22165   3.209   5.564   1.796
 7089SOL    HW122166   3.265   5.595   1.873
 7089SOL    HW222167   3.118   5.541   1.828
 7090SOL     OW22168   4.407   2.031   1.289
 7090SOL    HW122169   4.426   2.109   1.348
 7090SOL    HW222170   4.486   2.014   1.228
 7091SOL     OW22171   0.027   6.746   6.100
 7091SOL    HW122172   0.100   6.723   6.037
 7091SOL    HW222173   7.015   6.664   6.144
 7092SOL     OW22174   4.712   1.970   7.018
 7092SOL    HW122175   4.807   1.965   0.026
 7092SOL    HW222176   4.706   1.940   6.923
 7093SOL     OW22177   3.520   3.666   1.205
 7093SOL    HW122178   3.537   3.575   1.167
 7093SOL    HW222179   3.423   3.674   1.228
 7094SOL     OW22180   3.012   0.262   5.161
 7094SOL    HW122181   3.093   0.257   5.104
 7094SOL    HW222182   3.017   0.343   5.220
 7095SOL     OW22183   2.633   4.473   5.233
 7095SOL    HW122184   2.591   4.563   5.250
 7095SOL    HW222185   2.728   4.485   5.204
 7096SOL     OW22186   6.820   0.856   1.249
 7096SOL    HW122187   6.860   0.786   1.309
 7096SOL    HW222188   6.865   0.854   1.160
 7097SOL     OW22189   4.734   0.804   1.796
 7097SOL    HW122190   4.671   0.812   1.873
 7097SOL    HW222191   4.700   0.858   1.719
 7098SOL     OW22192   1.061   6.499   4.112
 7098SOL    HW122193   1.027   6.541   4.027
 7098SOL    HW222194   1.089   6.405   4.093
 7099SOL     OW22195   3.154   2.134   4.208
 7099SOL    HW122196   3.217   2.091   4.272
 7099SOL    HW222197   3.080   2.179   4.258
 7100SOL     OW22198   6.158   4.134   1.443
 7100SOL    HW122199   6.120   4.080   1.518
 7100SOL    HW222200   6.237   4.087   1.405
 7101SOL     OW22201   2.257   6.495   5.373
 7101SOL    HW122202   2.195   6.454   5.307
 7101SOL    HW222203   2.236   6.460   5.464
 7102SOL     OW22204   5.795   0.777   1.581
 7102SOL    HW122205   5.846   0.811   1.502
 7102SOL    HW222206   5.736   0.849   1.616
 7103SOL     OW22207   4.725   4.211   3.004
 7103SOL    HW122208   4.672   4.244   2.927
 7103SOL    HW222209   4.678   4.234   3.090
 7104SOL     OW22210   4.914   3.341   3.397
 7104SOL    HW122211   5.010   3.320   3.381
 7104SOL    HW222212   4.872   3.374   3.313
 7105SOL     OW22213   3.277   3.966   4.169
 7105SOL    HW122214   3.187   3.987   4.132
 7105SOL    HW222215   3.332   3.921   4.099
 7106SOL     OW22216   2.933   3.226   1.093
 7106SOL    HW122217   2.836   3.248   1.095
 7106SOL    HW222218   2.952   3.165   1.017
 7107SOL     OW22219   3.514   0.768   6.510
 7107SOL    HW122220   3.474   0.714   6.436
 7107SOL    HW222221   3.571   0.709   6.567
 7108SOL     OW22222   3.812   0.316   2.178
 7108SOL    HW122223   3.765   0.403   2.190
 7108SOL    HW222224   3.802   0.261   2.261
 7109SOL     OW22225   1.708   6.736   5.771
 7109SOL    HW122226   1.792   6.790   5.764
 7109SOL    HW222227   1.684   6.701   5.680
 7110SOL     OW22228   3.510   6.551   4.389
 7110SOL    HW122229   3.426   6.558   4.336
 7110SOL    HW222230   3.512   6.623   4.459
 7111SOL     OW22231   6.883   0.398   4.601
 7111SOL    HW122232   6.831   0.438   4.677
 7111SOL    HW222233   6.979   0.421   4.611
 7112SOL     OW22234   2.068   5.183   4.734
 7112SOL    HW122235   2.103   5.264   4.782
 7112SOL    HW222236   1.969   5.176   4.749
 7113SOL     OW22237   3.375   5.003   5.668
 7113SOL    HW122238   3.371   4.999   5.568
 7113SOL    HW222239   3.440   5.073   5.696
 7114SOL     OW22240   5.120   5.410   0.652
 7114SOL    HW122241   5.164   5.452   0.572
 7114SOL    HW222242   5.177   5.334   0.684
 7115SOL     OW22243   6.298   4.171   0.168
 7115SOL    HW122244   6.264   4.254   0.124
 7115SOL    HW222245   6.389   4.149   0.132
 7116SOL     OW22246   6.441   4.135   4.172
 7116SOL    HW122247   6.388   4.208   4.216
 7116SOL    HW222248   6.494   4.086   4.242
 7117SOL     OW22249   5.907   0.037   3.060
 7117SOL    HW122250   5.901   0.018   3.158
 7117SOL    HW222251   5.962   0.120   3.046
 7118SOL     OW22252   4.165   4.317   5.380
 7118SOL    HW122253   4.120   4.229   5.369
 7118SOL    HW222254   4.191   4.352   5.290
 7119SOL     OW22255   3.633   6.346   5.133
 7119SOL    HW122256   3.718   6.293   5.124
 7119SOL    HW222257   3.653   6.443   5.123
 7120SOL     OW22258   4.783   0.759   0.722
 7120SOL    HW122259   4.777   0.679   0.663
 7120SOL    HW222260   4.843   0.739   0.800
 7121SOL     OW22261   1.761   6.472   2.646
 7121SOL    HW122262   1.731   6.410   2.719
 7121SOL    HW222263   1.856   6.497   2.661
 7122SOL     OW22264   2.716   0.742   5.947
 7122SOL    HW122265   2.652   0.760   5.872
 7122SOL    HW222266   2.789   0.811   5.946
 7123SOL     OW22267   5.143   4.969   5.904
 7123SOL    HW122268   5.096   5.002   5.822
 7123SOL    HW222269   5.139   4.869   5.907
 7124SOL     OW22270   1.693   2.323   1.293
 7124SOL    HW122271   1.787   2.302   1.319
 7124SOL    HW222272   1.675   2.420   1.308
 7125SOL     OW22273   1.095   6.617   1.010
 7125SOL    HW122274   1.103   6.637   0.912
 7125SOL    HW222275   1.140   6.690   1.062
 7126SOL     OW22276   3.790   5.735   1.229
 7126SOL    HW122277   3.692   5.755   1.224
 7126SOL    HW222278   3.821   5.698   1.141
 7127SOL     OW22279   2.429   0.045   5.059
 7127SOL    HW122280   2.368   0.040   4.980
 7127SOL    HW222281   2.518   0.005   5.036
 7128SOL     OW22282   4.104   4.152   6.447
 7128SOL    HW122283   4.042   4.123   6.520
 7128SOL    HW222284   4.053   4.206   6.380
 7129SOL     OW22285   0.730   0.187   0.527
 7129SOL    HW122286   0.780   0.191   0.614
 7129SOL    HW222287   0.632   0.189   0.545
 7130SOL     OW22288   3.413   6.970   4.106
 7130SOL    HW122289   3.446   0.041   4.091
 7130SOL    HW222290   3.354   6.968   4.186
 7131SOL     OW22291   3.840   0.972   2.677
 7131SOL    HW122292   3.764   0.979   2.611
 7131SOL    HW222293   3.835   1.048   2.741
 7132SOL     OW22294   5.706   4.315   0.780
 7132SOL    HW122295   5.738   4.271   0.864
 7132SOL    HW222296   5.758   4.398   0.764
 7133SOL     OW22297   3.953   5.385   2.978
 7133SOL    HW122298   4.017   5.309   2.986
 7133SOL    HW222299   3.973   5.438   2.896
 7134SOL     OW22300   5.567   5.262   1.029
 7134SOL    HW122301   5.490   5.213   1.071
 7134SOL    HW222302   5.613   5.202   0.964
 7135SOL     OW22303   2.068   3.040   1.268
 7135SOL    HW122304   2.110   3.050   1.178
 7135SOL    HW222305   2.138   3.046   1.339
 7136SOL     OW22306   2.123   1.760   1.904
 7136SOL    HW122307   2.149   1.730   1.996
 7136SOL    HW222308   2.146   1.689   1.838
 7137SOL     OW22309   2.438   2.283   1.424
 7137SOL    HW122310   2.485   2.198   1.443
 7137SOL    HW222311   2.504   2.352   1.393
 7138SOL     OW22312   1.012   2.349   0.696
 7138SOL    HW122313   1.002   2.309   0.605
 7138SOL    HW222314   1.039   2.278   0.761
 7139SOL     OW22315   6.506   6.074   1.297
 7139SOL    HW122316   6.560   5.990   1.303
 7139SOL    HW222317   6.417   6.059   1.340
 7140SOL     OW22318   6.851   3.207   0.422
 7140SOL    HW122319   6.768   3.212   0.477
 7140SOL    HW222320   6.913   3.281   0.447
 7141SOL     OW22321   3.586   0.544   1.124
 7141SOL    HW122322   3.617   0.465   1.176
 7141SOL    HW222323   3.535   0.514   1.044
 7142SOL     OW22324   3.249   0.319   5.027
 7142SOL    HW122325   3.235   0.410   4.989
 7142SOL    HW222326   3.334   0.280   4.992
 7143SOL     OW22327   2.972   4.495   6.914
 7143SOL    HW122328   2.875   4.521   6.913
 7143SOL    HW222329   3.014   4.518   6.827
 7144SOL     OW22330   6.726   0.353   5.350
 7144SOL    HW122331   6.665   0.325   5.424
 7144SOL    HW222332   6.764   0.271   5.306
 7145SOL     OW22333   5.019   2.323   6.353
 7145SOL    HW122334   5.110   2.310   6.392
 7145SOL    HW222335   4.955   2.351   6.425
 7146SOL     OW22336   1.833   1.722   5.518
 7146SOL    HW122337   1.827   1.702   5.420
 7146SOL    HW222338   1.880   1.648   5.565
 7147SOL     OW22339   6.104   6.297   1.916
 7147SOL    HW122340   6.091   6.309   2.014
 7147SOL    HW222341   6.191   6.252   1.898
 7148SOL     OW22342   6.635   6.767   1.077
 7148SOL    HW122343   6.541   6.734   1.089
 7148SOL    HW222344   6.648   6.798   0.983
 7149SOL     OW22345   6.101   4.679   5.188
 7149SOL    HW122346   6.180   4.625   5.159
 7149SOL    HW222347   6.030   4.619   5.224
 7150SOL     OW22348   3.710   3.381   0.019
 7150SOL    HW122349   3.613   3.402   0.007
 7150SOL    HW222350   3.748   3.352   6.954
 7151SOL     OW22351   3.760   1.030   1.046
 7151SOL    HW122352   3.704   1.084   0.983
 7151SOL    HW222353   3.811   0.961   0.995
 7152SOL     OW22354   6.154   1.163   6.116
 7152SOL    HW122355   6.085   1.236   6.113
 7152SOL    HW222356   6.216   1.179   6.192
 7153SOL     OW22357   3.720   6.326   1.209
 7153SOL    HW122358   3.812   6.286   1.209
 7153SOL    HW222359   3.697   6.357   1.301
 7154SOL     OW22360   4.157   2.022   2.050
 7154SOL    HW122361   4.061   2.004   2.072
 7154SOL    HW222362   4.179   2.117   2.073
 7155SOL     OW22363   2.952   1.474   2.101
 7155SOL    HW122364   3.025   1.431   2.155
 7155SOL    HW222365   2.930   1.564   2.139
 7156SOL     OW22366   6.058   3.807   6.683
 7156SOL    HW122367   6.130   3.852   6.630
 7156SOL    HW222368   6.085   3.802   6.779
 7157SOL     OW22369   6.429   4.780   6.580
 7157SOL    HW122370   6.507   4.727   6.615
 7157SOL    HW222371   6.460   4.843   6.510
 7158SOL     OW22372   4.347   6.513   4.027
 7158SOL    HW122373   4.325   6.418   4.004
 7158SOL    HW222374   4.267   6.556   4.071
 7159SOL     OW22375   0.939   6.136   3.136
 7159SOL    HW122376   0.976   6.137   3.043
 7159SOL    HW222377   0.863   6.071   3.141
 7160SOL     OW22378   6.787   7.022   3.445
 7160SOL    HW122379   6.808   0.069   3.513
 7160SOL    HW222380   6.688   7.017   3.431
 7161SOL     OW22381   4.164   3.503   3.549
 7161SOL    HW122382   4.152   3.587   3.603
 7161SOL    HW222383   4.139   3.424   3.603
 7162SOL     OW22384   0.327   5.890   1.555
 7162SOL    HW122385   0.389   5.855   1.486
 7162SOL    HW222386   0.247   5.830   1.562
 7163SOL     OW22387   0.643   1.671   2.405
 7163SOL    HW122388   0.708   1.641   2.474
 7163SOL    HW222389   0.609   1.763   2.429
 7164SOL     OW22390   2.032   0.821   6.545
 7164SOL    HW122391   2.129   0.820   6.522
 7164SOL    HW222392   1.998   0.915   6.545
 7165SOL     OW22393   5.804   1.197   0.225
 7165SOL    HW122394   5.841   1.125   0.283
 7165SOL    HW222395   5.705   1.199   0.233
 7166SOL     OW22396   6.144   6.463   5.894
 7166SOL    HW122397   6.123   6.423   5.983
 7166SOL    HW222398   6.120   6.398   5.822
 7167SOL     OW22399   5.744   2.114   4.707
 7167SOL    HW122400   5.826   2.125   4.650
 7167SOL    HW222401   5.702   2.204   4.722
 7168SOL     OW22402   2.688   1.395   2.090
 7168SOL    HW122403   2.642   1.404   2.002
 7168SOL    HW222404   2.783   1.425   2.081
 7169SOL     OW22405   1.430   3.868   6.637
 7169SOL    HW122406   1.459   3.821   6.553
 7169SOL    HW222407   1.510   3.887   6.694
 7170SOL     OW22408   3.871   1.364   0.516
 7170SOL    HW122409   3.854   1.399   0.608
 7170SOL    HW222410   3.868   1.440   0.451
 7171SOL     OW22411   6.867   4.418   0.763
 7171SOL    HW122412   6.864   4.514   0.789
 7171SOL    HW222413   6.812   4.364   0.828
 7172SOL     OW22414   1.637   1.352   4.020
 7172SOL    HW122415   1.573   1.280   3.991
 7172SOL    HW222416   1.588   1.439   4.027
 7173SOL     OW22417   4.911   5.485   6.134
 7173SOL    HW122418   4.853   5.524   6.063
 7173SOL    HW222419   4.931   5.555   6.203
 7174SOL     OW22420   6.644   4.300   1.969
 7174SOL    HW122421   6.704   4.364   1.921
 7174SOL    HW222422   6.586   4.351   2.033
 7175SOL     OW22423   5.631   3.616   6.556
 7175SOL    HW122424   5.576   3.610   6.473
 7175SOL    HW222425   5.667   3.526   6.579
 7176SOL     OW22426   0.818   0.596   5.902
 7176SOL    HW122427   0.834   0.515   5.846
 7176SOL    HW222428   0.894   0.660   5.891
 7177SOL     OW22429   1.604   5.252   3.687
 7177SOL    HW122430   1.680   5.276   3.627
 7177SOL    HW222431   1.521   5.243   3.634
 7178SOL     OW22432   1.614   0.600   5.049
 7178SOL    HW122433   1.543   0.644   5.104
 7178SOL    HW222434   1.614   0.640   4.957
 7179SOL     OW22435   3.413   5.790   6.164
 7179SOL    HW122436   3.442   5.801   6.259
 7179SOL    HW222437   3.493   5.779   6.105
 7180SOL     OW22438   1.697   4.337   1.406
 7180SOL    HW122439   1.769   4.346   1.338
 7180SOL    HW222440   1.726   4.380   1.491
 7181SOL     OW22441   2.669   1.799   5.962
 7181SOL    HW122442   2.672   1.892   5.998
 7181SOL    HW222443   2.594   1.791   5.897
 7182SOL     OW22444   1.459   1.806   4.799
 7182SOL    HW122445   1.484   1.747   4.875
 7182SOL    HW222446   1.478   1.760   4.712
 7183SOL     OW22447   1.067   6.705   1.789
 7183SOL    HW122448   1.136   6.764   1.831
 7183SOL    HW222449   1.005   6.761   1.734
 7184SOL     OW22450   6.118   6.903   3.693
 7184SOL    HW122451   6.105   6.812   3.734
 7184SOL    HW222452   6.082   6.973   3.755
 7185SOL     OW22453   4.298   1.103   4.272
 7185SOL    HW122454   4.261   1.144   4.188
 7185SOL    HW222455   4.370   1.160   4.308
 7186SOL     OW22456   0.468   7.001   6.810
 7186SOL    HW122457   0.509   6.915   6.840
 7186SOL    HW222458   0.537   0.034   6.764
 7187SOL     OW22459   3.150   3.012   3.899
 7187SOL    HW122460   3.179   3.026   3.994
 7187SOL    HW222461   3.066   3.063   3.882
 7188SOL     OW22462   3.704   4.159   6.734
 7188SOL    HW122463   3.769   4.139   6.661
 7188SOL    HW222464   3.652   4.076   6.756
 7189SOL     OW22465   6.154   2.643   5.799
 7189SOL    HW122466   6.077   2.678   5.853
 7189SOL    HW222467   6.143   2.671   5.704
 7190SOL     OW22468   6.029   5.644   1.440
 7190SOL    HW122469   6.069   5.721   1.490
 7190SOL    HW222470   5.966   5.595   1.501
 7191SOL     OW22471   0.220   4.804   4.043
 7191SOL    HW122472   0.284   4.727   4.050
 7191SOL    HW222473   0.186   4.809   3.949
 7192SOL     OW22474   2.016   4.421   6.799
 7192SOL    HW122475   1.988   4.368   6.719
 7192SOL    HW222476   1.969   4.509   6.799
 7193SOL     OW22477   2.573   2.351   2.532
 7193SOL    HW122478   2.489   2.300   2.550
 7193SOL    HW222479   2.572   2.386   2.439
 7194SOL     OW22480   2.883   2.866   6.219
 7194SOL    HW122481   2.948   2.815   6.163
 7194SOL    HW222482   2.886   2.832   6.313
 7195SOL     OW22483   0.070   3.997   5.442
 7195SOL    HW122484   0.133   4.033   5.374
 7195SOL    HW222485   0.063   4.060   5.519
 7196SOL     OW22486   3.381   4.077   1.848
 7196SOL    HW122487   3.382   4.082   1.748
 7196SOL    HW222488   3.437   4.151   1.885
 7197SOL     OW22489   2.299   3.776   5.607
 7197SOL    HW122490   2.349   3.757   5.522
 7197SOL    HW222491   2.310   3.873   5.630
 7198SOL     OW22492   0.329   0.402   1.729
 7198SOL    HW122493   0.411   0.456   1.748
 7198SOL    HW222494   0.339   0.355   1.642
 7199SOL     OW22495   0.385   1.113   2.331
 7199SOL    HW122496   0.304   1.135   2.277
 7199SOL    HW222497   0.374   1.147   2.424
 7200SOL     OW22498   0.933   2.406   0.993
 7200SOL    HW122499   0.861   2.345   0.962
 7200SOL    HW222500   1.006   2.409   0.925
 7201SOL     OW22501   5.579   5.311   3.936
 7201SOL    HW122502   5.591   5.255   3.855
 7201SOL    HW222503   5.482   5.330   3.949
 7202SOL     OW22504   4.900   0.358   5.682
 7202SOL    HW122505   4.805   0.386   5.695
 7202SOL    HW222506   4.906   0.258   5.690
 7203SOL     OW22507   0.578   1.568   1.515
 7203SOL    HW122508   0.676   1.568   1.494
 7203SOL    HW222509   0.533   1.643   1.466
 7204SOL     OW22510   6.587   0.205   1.330
 7204SOL    HW122511   6.516   0.169   1.391
 7204SOL    HW222512   6.673   0.156   1.346
 7205SOL     OW22513   2.893   1.808   4.469
 7205SOL    HW122514   2.833   1.781   4.393
 7205SOL    HW222515   2.983   1.766   4.457
 7206SOL     OW22516   1.845   3.153   0.758
 7206SOL    HW122517   1.825   3.240   0.803
 7206SOL    HW222518   1.906   3.169   0.680
 7207SOL     OW22519   1.665   1.313   4.425
 7207SOL    HW122520   1.723   1.364   4.361
 7207SOL    HW222521   1.712   1.230   4.454
 7208SOL     OW22522   2.967   0.365   4.064
 7208SOL    HW122523   2.872   0.349   4.038
 7208SOL    HW222524   2.978   0.349   4.162
 7209SOL     OW22525   2.809   1.932   2.468
 7209SOL    HW122526   2.771   1.986   2.393
 7209SOL    HW222527   2.741   1.866   2.499
 7210SOL     OW22528   2.958   1.072   3.281
 7210SOL    HW122529   3.022   1.004   3.246
 7210SOL    HW222530   2.880   1.027   3.324
 7211SOL     OW22531   3.228   5.530   5.052
 7211SOL    HW122532   3.268   5.596   5.115
 7211SOL    HW222533   3.146   5.491   5.093
 7212SOL     OW22534   6.531   4.060   6.155
 7212SOL    HW122535   6.606   4.121   6.128
 7212SOL    HW222536   6.501   4.084   6.247
 7213SOL     OW22537   4.142   1.580   0.316
 7213SOL    HW122538   4.144   1.634   0.401
 7213SOL    HW222539   4.199   1.624   0.247
 7214SOL     OW22540   6.962   0.918   6.413
 7214SOL    HW122541   6.974   1.003   6.464
 7214SOL    HW222542   6.921   0.938   6.324
 7215SOL     OW22543   6.969   2.850   2.490
 7215SOL    HW122544   6.995   2.864   2.394
 7215SOL    HW222545   6.990   2.932   2.543
 7216SOL     OW22546   3.353   5.896   2.673
 7216SOL    HW122547   3.368   5.841   2.754
 7216SOL    HW222548   3.303   5.979   2.698
 7217SOL     OW22549   1.224   3.851   3.662
 7217SOL    HW122550   1.230   3.938   3.612
 7217SOL    HW222551   1.314   3.807   3.662
 7218SOL     OW22552   6.453   4.228   4.554
 7218SOL    HW122553   6.372   4.174   4.530
 7218SOL    HW222554   6.509   4.176   4.618
 7219SOL     OW22555   3.529   5.870   2.188
 7219SOL    HW122556   3.477   5.882   2.104
 7219SOL    HW222557   3.580   5.954   2.209
 7220SOL     OW22558   5.852   4.547   4.716
 7220SOL    HW122559   5.920   4.613   4.687
 7220SOL    HW222560   5.761   4.577   4.687
 7221SOL     OW22561   3.752   5.672   4.536
 7221SOL    HW122562   3.681   5.687   4.604
 7221SOL    HW222563   3.752   5.576   4.508
 7222SOL     OW22564   0.272   6.456   4.142
 7222SOL    HW122565   0.281   6.473   4.240
 7222SOL    HW222566   0.259   6.359   4.125
 7223SOL     OW22567   0.480   2.670   1.324
 7223SOL    HW122568   0.456   2.717   1.240
 7223SOL    HW222569   0.573   2.694   1.351
 7224SOL     OW22570   3.776   2.132   3.295
 7224SOL    HW122571   3.711   2.164   3.364
 7224SOL    HW222572   3.728   2.080   3.224
 7225SOL     OW22573   1.284   0.283   0.926
 7225SOL    HW122574   1.326   0.337   0.999
 7225SOL    HW222575   1.304   0.186   0.940
 7226SOL     OW22576   6.368   6.407   0.819
 7226SOL    HW122577   6.279   6.409   0.773
 7226SOL    HW222578   6.369   6.331   0.885
 7227SOL     OW22579   2.603   1.028   1.636
 7227SOL    HW122580   2.505   1.025   1.656
 7227SOL    HW222581   2.643   0.938   1.652
 7228SOL     OW22582   0.213   3.560   1.857
 7228SOL    HW122583   0.265   3.570   1.772
 7228SOL    HW222584   0.246   3.480   1.907
 7229SOL     OW22585   0.239   0.114   4.659
 7229SOL    HW122586   0.221   0.071   4.747
 7229SOL    HW222587   0.212   0.052   4.585
 7230SOL     OW22588   2.064   4.980   4.443
 7230SOL    HW122589   2.147   5.023   4.406
 7230SOL    HW222590   2.068   4.981   4.542
 7231SOL     OW22591   4.593   1.214   6.229
 7231SOL    HW122592   4.597   1.313   6.228
 7231SOL    HW222593   4.555   1.182   6.316
 7232SOL     OW22594   6.025   6.933   2.827
 7232SOL    HW122595   6.001   6.969   2.917
 7232SOL    HW222596   5.942   6.912   2.776
 7233SOL     OW22597   6.553   1.294   5.084
 7233SOL    HW122598   6.559   1.385   5.044
 7233SOL    HW222599   6.607   1.230   5.029
 7234SOL     OW22600   5.048   3.854   2.539
 7234SOL    HW122601   5.122   3.918   2.558
 7234SOL    HW222602   5.085   3.775   2.489
 7235SOL     OW22603   0.521   6.096   1.425
 7235SOL    HW122604   0.455   6.152   1.375
 7235SOL    HW222605   0.473   6.037   1.490
 7236SOL     OW22606   2.370   2.677   3.518
 7236SOL    HW122607   2.442   2.608   3.532
 7236SOL    HW222608   2.355   2.725   3.604
 7237SOL     OW22609   5.137   0.755   0.181
 7237SOL    HW122610   5.164   0.779   0.275
 7237SOL    HW222611   5.112   0.659   0.177
 7238SOL     OW22612   4.407   3.041   0.437
 7238SOL    HW122613   4.427   3.089   0.523
 7238SOL    HW222614   4.414   3.105   0.361
 7239SOL     OW22615   0.705   3.211   2.373
 7239SOL    HW122616   0.669   3.207   2.280
 7239SOL    HW222617   0.801   3.240   2.370
 7240SOL     OW22618   6.908   1.863   5.638
 7240SOL    HW122619   6.911   1.938   5.705
 7240SOL    HW222620   6.996   1.858   5.590
 7241SOL     OW22621   2.776   1.931   2.023
 7241SOL    HW122622   2.685   1.889   2.015
 7241SOL    HW222623   2.781   1.981   2.109
 7242SOL     OW22624   6.564   5.686   4.684
 7242SOL    HW122625   6.634   5.616   4.671
 7242SOL    HW222626   6.574   5.757   4.614
 7243SOL     OW22627   6.314   3.898   6.563
 7243SOL    HW122628   6.341   3.841   6.486
 7243SOL    HW222629   6.383   3.892   6.635
 7244SOL     OW22630   6.917   6.512   6.518
 7244SOL    HW122631   6.956   6.597   6.553
 7244SOL    HW222632   6.930   6.440   6.586
 7245SOL     OW22633   1.575   2.754   6.699
 7245SOL    HW122634   1.485   2.713   6.710
 7245SOL    HW222635   1.614   2.726   6.611
 7246SOL     OW22636   3.175   0.296   3.896
 7246SOL    HW122637   3.221   0.215   3.932
 7246SOL    HW222638   3.102   0.324   3.958
 7247SOL     OW22639   2.110   2.613   5.370
 7247SOL    HW122640   2.081   2.597   5.276
 7247SOL    HW222641   2.032   2.598   5.432
 7248SOL     OW22642   3.556   0.810   4.649
 7248SOL    HW122643   3.503   0.730   4.676
 7248SOL    HW222644   3.528   0.889   4.704
 7249SOL     OW22645   3.948   5.300   1.632
 7249SOL    HW122646   3.880   5.341   1.693
 7249SOL    HW222647   3.906   5.225   1.582
 7250SOL     OW22648   5.098   5.794   5.351
 7250SOL    HW122649   5.062   5.726   5.414
 7250SOL    HW222650   5.043   5.794   5.267
 7251SOL     OW22651   0.445   6.049   5.696
 7251SOL    HW122652   0.443   5.986   5.774
 7251SOL    HW222653   0.536   6.091   5.690
 7252SOL     OW22654   2.923   3.650   2.020
 7252SOL    HW122655   2.989   3.617   2.087
 7252SOL    HW222656   2.957   3.632   1.928
 7253SOL     OW22657   1.310   5.656   5.347
 7253SOL    HW122658   1.377   5.613   5.409
 7253SOL    HW222659   1.333   5.633   5.253
 7254SOL     OW22660   5.015   4.096   3.910
 7254SOL    HW122661   4.934   4.092   3.967
 7254SOL    HW222662   4.991   4.072   3.816
 7255SOL     OW22663   5.065   3.150   6.726
 7255SOL    HW122664   5.077   3.055   6.697
 7255SOL    HW222665   5.062   3.209   6.645
 7256SOL     OW22666   3.292   6.525   6.437
 7256SOL    HW122667   3.369   6.569   6.483
 7256SOL    HW222668   3.318   6.499   6.345
 7257SOL     OW22669   0.566   1.007   4.530
 7257SOL    HW122670   0.525   1.029   4.619
 7257SOL    HW222671   0.663   1.029   4.532
 7258SOL     OW22672   5.650   2.034   2.933
 7258SOL    HW122673   5.580   2.019   3.003
 7258SOL    HW222674   5.693   1.947   2.910
 7259SOL     OW22675   0.765   4.142   3.124
 7259SOL    HW122676   0.830   4.066   3.126
 7259SOL    HW222677   0.676   4.109   3.093
 7260SOL     OW22678   5.338   2.840   0.557
 7260SOL    HW122679   5.377   2.794   0.476
 7260SOL    HW222680   5.256   2.791   0.587
 7261SOL     OW22681   0.129   4.188   0.366
 7261SOL    HW122682   0.099   4.165   0.274
 7261SOL    HW222683   0.063   4.155   0.433
 7262SOL     OW22684   5.975   2.076   5.881
 7262SOL    HW122685   6.023   2.163   5.866
 7262SOL    HW222686   5.877   2.091   5.873
 7263SOL     OW22687   0.904   5.447   0.184
 7263SOL    HW122688   0.988   5.457   0.238
 7263SOL    HW222689   0.835   5.512   0.216
 7264SOL     OW22690   5.551   1.148   0.281
 7264SOL    HW122691   5.470   1.102   0.247
 7264SOL    HW222692   5.552   1.145   0.381
 7265SOL     OW22693   4.056   5.685   5.390
 7265SOL    HW122694   4.083   5.590   5.407
 7265SOL    HW222695   3.964   5.688   5.352
 7266SOL     OW22696   6.920   0.031   3.805
 7266SOL    HW122697   6.836   0.083   3.818
 7266SOL    HW222698   6.992   0.068   3.863
 7267SOL     OW22699   6.300   5.457   4.922
 7267SOL    HW122700   6.266   5.476   5.014
 7267SOL    HW222701   6.386   5.407   4.928
 7268SOL     OW22702   6.485   6.268   4.535
 7268SOL    HW122703   6.468   6.262   4.633
 7268SOL    HW222704   6.580   6.294   4.519
 7269SOL     OW22705   2.520   5.210   5.600
 7269SOL    HW122706   2.510   5.129   5.542
 7269SOL    HW222707   2.466   5.198   5.683
 7270SOL     OW22708   0.780   1.663   4.162
 7270SOL    HW122709   0.795   1.580   4.215
 7270SOL    HW222710   0.682   1.678   4.151
 7271SOL     OW22711   0.699   4.418   3.584
 7271SOL    HW122712   0.682   4.480   3.508
 7271SOL    HW222713   0.616   4.407   3.638
 7272SOL     OW22714   6.021   5.814   2.226
 7272SOL    HW122715   6.018   5.863   2.313
 7272SOL    HW222716   5.971   5.727   2.235
 7273SOL     OW22717   6.990   2.699   5.560
 7273SOL    HW122718   7.002   2.776   5.497
 7273SOL    HW222719   6.950   2.732   5.645
 7274SOL     OW22720   0.430   4.524   0.299
 7274SOL    HW122721   0.336   4.502   0.325
 7274SOL    HW222722   0.481   4.439   0.285
 7275SOL     OW22723   6.439   0.421   2.696
 7275SOL    HW122724   6.538   0.439   2.697
 7275SOL    HW222725   6.420   0.347   2.632
 7276SOL     OW22726   4.596   6.627   3.615
 7276SOL    HW122727   4.679   6.636   3.669
 7276SOL    HW222728   4.575   6.714   3.570
 7277SOL     OW22729   4.357   0.380   5.689
 7277SOL    HW122730   4.287   0.309   5.685
 7277SOL    HW222731   4.372   0.418   5.598
 7278SOL     OW22732   3.281   4.033   2.200
 7278SOL    HW122733   3.275   4.058   2.296
 7278SOL    HW222734   3.308   4.113   2.146
 7279SOL     OW22735   3.777   5.866   0.331
 7279SOL    HW122736   3.749   5.944   0.276
 7279SOL    HW222737   3.843   5.896   0.400
 7280SOL     OW22738   4.324   6.928   5.510
 7280SOL    HW122739   4.313   6.928   5.609
 7280SOL    HW222740   4.243   6.968   5.467
 7281SOL     OW22741   3.833   2.089   6.196
 7281SOL    HW122742   3.805   2.146   6.273
 7281SOL    HW222743   3.813   2.138   6.111
 7282SOL     OW22744   5.821   5.588   1.919
 7282SOL    HW122745   5.739   5.627   1.961
 7282SOL    HW222746   5.824   5.490   1.936
 7283SOL     OW22747   2.877   0.903   2.766
 7283SOL    HW122748   2.798   0.866   2.816
 7283SOL    HW222749   2.924   0.969   2.824
 7284SOL     OW22750   6.985   3.630   5.113
 7284SOL    HW122751   6.980   3.533   5.089
 7284SOL    HW222752   0.054   3.652   5.146
 7285SOL     OW22753   4.487   5.442   1.715
 7285SOL    HW122754   4.516   5.358   1.761
 7285SOL    HW222755   4.427   5.495   1.776
 7286SOL     OW22756   2.292   2.687   1.299
 7286SOL    HW122757   2.304   2.595   1.260
 7286SOL    HW222758   2.332   2.690   1.390
 7287SOL     OW22759   6.241   1.102   6.657
 7287SOL    HW122760   6.288   1.078   6.743
 7287SOL    HW222761   6.185   1.024   6.628
 7288SOL     OW22762   4.105   0.165   6.522
 7288SOL    HW122763   4.049   0.227   6.467
 7288SOL    HW222764   4.047   0.121   6.591
 7289SOL     OW22765   5.645   1.794   3.204
 7289SOL    HW122766   5.623   1.797   3.107
 7289SOL    HW222767   5.686   1.705   3.227
 7290SOL     OW22768   2.488   5.051   5.363
 7290SOL    HW122769   2.564   5.014   5.309
 7290SOL    HW222770   2.480   5.149   5.347
 7291SOL     OW22771   2.056   6.943   1.338
 7291SOL    HW122772   2.123   6.936   1.265
 7291SOL    HW222773   2.075   6.873   1.407
 7292SOL     OW22774   2.985   6.742   3.186
 7292SOL    HW122775   2.900   6.793   3.197
 7292SOL    HW222776   3.062   6.805   3.184
 7293SOL     OW22777   1.550   1.612   5.023
 7293SOL    HW122778   1.481   1.540   5.035
 7293SOL    HW222779   1.619   1.581   4.959
 7294SOL     OW22780   2.846   5.385   6.978
 7294SOL    HW122781   2.796   5.380   0.042
 7294SOL    HW222782   2.898   5.301   6.965
 7295SOL     OW22783   0.698   2.257   0.358
 7295SOL    HW122784   0.682   2.158   0.355
 7295SOL    HW222785   0.627   2.301   0.412
 7296SOL     OW22786   2.899   5.057   0.905
 7296SOL    HW122787   2.967   5.007   0.852
 7296SOL    HW222788   2.910   5.035   1.002
 7297SOL     OW22789   3.940   6.305   0.573
 7297SOL    HW122790   3.922   6.308   0.671
 7297SOL    HW222791   3.969   6.396   0.542
 7298SOL     OW22792   5.470   3.761   4.409
 7298SOL    HW122793   5.554   3.786   4.360
 7298SOL    HW222794   5.436   3.841   4.459
 7299SOL     OW22795   6.637   2.460   0.663
 7299SOL    HW122796   6.723   2.455   0.714
 7299SOL    HW222797   6.584   2.538   0.696
 7300SOL     OW22798   5.210   6.162   0.847
 7300SOL    HW122799   5.263   6.077   0.858
 7300SOL    HW222800   5.172   6.165   0.754
 7301SOL     OW22801   6.983   0.302   5.865
 7301SOL    HW122802   6.957   0.373   5.930
 7301SOL    HW222803   6.907   0.284   5.803
 7302SOL     OW22804   0.145   1.424   0.195
 7302SOL    HW122805   0.070   1.467   0.145
 7302SOL    HW222806   0.230   1.434   0.143
 7303SOL     OW22807   3.843   0.191   6.776
 7303SOL    HW122808   3.822   0.141   6.860
 7303SOL    HW222809   3.926   0.245   6.790
 7304SOL     OW22810   4.497   3.761   6.070
 7304SOL    HW122811   4.426   3.831   6.065
 7304SOL    HW222812   4.577   3.791   6.018
 7305SOL     OW22813   5.015   2.155   0.294
 7305SOL    HW122814   5.009   2.110   0.383
 7305SOL    HW222815   5.004   2.087   0.222
 7306SOL     OW22816   4.960   4.157   1.352
 7306SOL    HW122817   4.935   4.146   1.448
 7306SOL    HW222818   4.883   4.196   1.302
 7307SOL     OW22819   3.040   6.772   1.528
 7307SOL    HW122820   3.071   6.777   1.623
 7307SOL    HW222821   3.098   6.708   1.478
 7308SOL     OW22822   6.702   3.759   4.397
 7308SOL    HW122823   6.731   3.725   4.307
 7308SOL    HW222824   6.781   3.759   4.459
 7309SOL     OW22825   5.128   6.167   0.588
 7309SOL    HW122826   5.060   6.116   0.536
 7309SOL    HW222827   5.214   6.169   0.537
 7310SOL     OW22828   2.239   5.476   1.292
 7310SOL    HW122829   2.216   5.554   1.235
 7310SOL    HW222830   2.273   5.401   1.234
 7311SOL     OW22831   2.827   2.135   1.835
 7311SOL    HW122832   2.788   2.058   1.886
 7311SOL    HW222833   2.878   2.194   1.897
 7312SOL     OW22834   0.118   1.737   5.440
 7312SOL    HW122835   0.037   1.753   5.383
 7312SOL    HW222836   0.192   1.798   5.412
 7313SOL     OW22837   4.414   2.468   6.313
 7313SOL    HW122838   4.450   2.506   6.398
 7313SOL    HW222839   4.370   2.541   6.261
 7314SOL     OW22840   6.544   3.751   5.111
 7314SOL    HW122841   6.519   3.802   5.193
 7314SOL    HW222842   6.462   3.718   5.065
 7315SOL     OW22843   5.756   6.994   3.946
 7315SOL    HW122844   5.688   0.038   3.918
 7315SOL    HW222845   5.847   0.001   3.917
 7316SOL     OW22846   3.617   2.973   5.226
 7316SOL    HW122847   3.519   2.992   5.218
 7316SOL    HW222848   3.668   3.059   5.220
 7317SOL     OW22849   4.244   0.965   2.303
 7317SOL    HW122850   4.202   0.943   2.391
 7317SOL    HW222851   4.229   1.061   2.281
 7318SOL     OW22852   0.792   1.545   1.709
 7318SOL    HW122853   0.892   1.539   1.706
 7318SOL    HW222854   0.766   1.640   1.725
 7319SOL     OW22855   6.355   4.461   6.946
 7319SOL    HW122856   6.336   4.510   0.008
 7319SOL    HW222857   6.283   4.394   6.928
 7320SOL     OW22858   0.132   3.651   2.104
 7320SOL    HW122859   0.127   3.554   2.125
 7320SOL    HW222860   0.184   3.665   2.020
 7321SOL     OW22861   2.148   1.260   4.947
 7321SOL    HW122862   2.163   1.231   4.852
 7321SOL    HW222863   2.083   1.335   4.950
 7322SOL     OW22864   1.280   3.867   3.368
 7322SOL    HW122865   1.295   3.962   3.341
 7322SOL    HW222866   1.184   3.842   3.349
 7323SOL     OW22867   1.643   2.494   3.449
 7323SOL    HW122868   1.693   2.549   3.516
 7323SOL    HW222869   1.700   2.417   3.420
 7324SOL     OW22870   5.539   0.507   3.393
 7324SOL    HW122871   5.529   0.431   3.329
 7324SOL    HW222872   5.587   0.582   3.347
 7325SOL     OW22873   4.428   6.498   6.194
 7325SOL    HW122874   4.520   6.465   6.217
 7325SOL    HW222875   4.364   6.474   6.267
 7326SOL     OW22876   2.474   6.323   5.361
 7326SOL    HW122877   2.430   6.234   5.349
 7326SOL    HW222878   2.408   6.395   5.337
 7327SOL     OW22879   0.582   3.120   5.574
 7327SOL    HW122880   0.506   3.102   5.635
 7327SOL    HW222881   0.548   3.131   5.480
 7328SOL     OW22882   3.071   0.384   0.249
 7328SOL    HW122883   3.121   0.447   0.189
 7328SOL    HW222884   3.078   0.417   0.344
 7329SOL     OW22885   4.396   3.570   0.867
 7329SOL    HW122886   4.305   3.610   0.865
 7329SOL    HW222887   4.420   3.547   0.962
 7330SOL     OW22888   3.089   1.750   6.940
 7330SOL    HW122889   3.160   1.806   6.983
 7330SOL    HW222890   3.030   1.712   7.011
 7331SOL     OW22891   5.243   1.237   2.095
 7331SOL    HW122892   5.281   1.311   2.150
 7331SOL    HW222893   5.256   1.150   2.143
 7332SOL     OW22894   2.343   6.262   0.091
 7332SOL    HW122895   2.351   6.319   0.010
 7332SOL    HW222896   2.338   6.320   0.173
 7333SOL     OW22897   0.776   4.682   3.674
 7333SOL    HW122898   0.744   4.707   3.583
 7333SOL    HW222899   0.759   4.585   3.691
 7334SOL     OW22900   3.800   5.481   5.468
 7334SOL    HW122901   3.817   5.557   5.531
 7334SOL    HW222902   3.772   5.516   5.379
 7335SOL     OW22903   1.489   2.501   2.783
 7335SOL    HW122904   1.474   2.465   2.691
 7335SOL    HW222905   1.578   2.471   2.817
 7336SOL     OW22906   1.826   5.892   3.998
 7336SOL    HW122907   1.811   5.991   3.994
 7336SOL    HW222908   1.842   5.865   4.093
 7337SOL     OW22909   1.431   2.786   2.210
 7337SOL    HW122910   1.435   2.690   2.237
 7337SOL    HW222911   1.511   2.809   2.156
 7338SOL     OW22912   6.592   2.605   1.601
 7338SOL    HW122913   6.560   2.659   1.679
 7338SOL    HW222914   6.689   2.582   1.613
 7339SOL     OW22915   6.292   5.929   4.029
 7339SOL    HW122916   6.300   5.951   4.127
 7339SOL    HW222917   6.280   5.831   4.018
 7340SOL     OW22918   2.317   0.460   0.163
 7340SOL    HW122919   2.377   0.531   0.127
 7340SOL    HW222920   2.249   0.501   0.224
 7341SOL     OW22921   6.247   2.202   0.451
 7341SOL    HW122922   6.329   2.222   0.504
 7341SOL    HW222923   6.269   2.141   0.375
 7342SOL     OW22924   6.361   6.688   2.889
 7342SOL    HW122925   6.348   6.662   2.985
 7342SOL    HW222926   6.431   6.758   2.883
 7343SOL     OW22927   4.869   2.391   0.211
 7343SOL    HW122928   4.929   2.340   0.273
 7343SOL    HW222929   4.922   2.462   0.165
 7344SOL     OW22930   1.120   6.136   5.971
 7344SOL    HW122931   1.188   6.078   6.016
 7344SOL    HW222932   1.167   6.210   5.922
 7345SOL     OW22933   3.749   2.985   5.570
 7345SOL    HW122934   3.809   3.017   5.497
 7345SOL    HW222935   3.805   2.959   5.649
 7346SOL     OW22936   3.464   5.771   2.465
 7346SOL    HW122937   3.455   5.816   2.376
 7346SOL    HW222938   3.440   5.835   2.538
 7347SOL     OW22939   6.690   1.993   0.614
 7347SOL    HW122940   6.670   2.042   0.528
 7347SOL    HW222941   6.673   2.054   0.691
 7348SOL     OW22942   1.868   4.395   3.039
 7348SOL    HW122943   1.921   4.316   3.070
 7348SOL    HW222944   1.846   4.453   3.118
 7349SOL     OW22945   4.211   0.509   1.313
 7349SOL    HW122946   4.175   0.560   1.391
 7349SOL    HW222947   4.253   0.572   1.249
 7350SOL     OW22948   2.673   0.528   4.885
 7350SOL    HW122949   2.718   0.473   4.814
 7350SOL    HW222950   2.743   0.570   4.943
 7351SOL     OW22951   4.827   4.882   3.910
 7351SOL    HW122952   4.839   4.792   3.951
 7351SOL    HW222953   4.878   4.887   3.824
 7352SOL     OW22954   0.452   2.471   3.254
 7352SOL    HW122955   0.440   2.385   3.304
 7352SOL    HW222956   0.550   2.488   3.240
 7353SOL     OW22957   5.924   0.282   6.699
 7353SOL    HW122958   5.835   0.256   6.662
 7353SOL    HW222959   5.928   0.381   6.712
 7354SOL     OW22960   1.364   1.370   3.279
 7354SOL    HW122961   1.370   1.270   3.286
 7354SOL    HW222962   1.268   1.398   3.276
 7355SOL     OW22963   0.041   2.012   6.546
 7355SOL    HW122964   0.125   2.041   6.591
 7355SOL    HW222965   0.036   2.053   6.455
 7356SOL     OW22966   3.758   3.437   5.645
 7356SOL    HW122967   3.835   3.382   5.678
 7356SOL    HW222968   3.700   3.462   5.722
 7357SOL     OW22969   5.087   5.738   1.602
 7357SOL    HW122970   5.124   5.824   1.638
 7357SOL    HW222971   5.130   5.717   1.514
 7358SOL     OW22972   6.264   2.396   2.193
 7358SOL    HW122973   6.289   2.409   2.097
 7358SOL    HW222974   6.343   2.418   2.251
 7359SOL     OW22975   4.273   0.557   5.883
 7359SOL    HW122976   4.313   0.509   5.804
 7359SOL    HW222977   4.269   0.655   5.864
 7360SOL     OW22978   2.690   3.434   5.302
 7360SOL    HW122979   2.686   3.416   5.400
 7360SOL    HW222980   2.649   3.358   5.252
 7361SOL     OW22981   4.799   0.143   2.399
 7361SOL    HW122982   4.835   0.183   2.484
 7361SOL    HW222983   4.873   0.101   2.348
 7362SOL     OW22984   4.106   5.652   6.089
 7362SOL    HW122985   4.135   5.747   6.091
 7362SOL    HW222986   4.149   5.602   6.165
 7363SOL     OW22987   3.974   1.173   1.117
 7363SOL    HW122988   3.899   1.114   1.089
 7363SOL    HW222989   3.938   1.263   1.144
 7364SOL     OW22990   4.165   0.056   1.533
 7364SOL    HW122991   4.084   7.019   1.531
 7364SOL    HW222992   4.147   0.135   1.591
 7365SOL     OW22993   6.365   4.722   2.514
 7365SOL    HW122994   6.325   4.649   2.569
 7365SOL    HW222995   6.305   4.802   2.516
 7366SOL     OW22996   2.625   1.232   3.933
 7366SOL    HW122997   2.666   1.149   3.972
 7366SOL    HW222998   2.698   1.294   3.903
 7367SOL     OW22999   4.810   1.531   6.434
 7367SOL    HW123000   4.882   1.598   6.415
 7367SOL    HW223001   4.835   1.476   6.514
 7368SOL     OW23002   3.891   3.333   2.572
 7368SOL    HW123003   3.857   3.327   2.479
 7368SOL    HW223004   3.905   3.241   2.609
 7369SOL     OW23005   4.386   2.542   0.234
 7369SOL    HW123006   4.341   2.461   0.272
 7369SOL    HW223007   4.470   2.513   0.187
 7370SOL     OW23008   2.245   1.705   5.105
 7370SOL    HW123009   2.341   1.725   5.088
 7370SOL    HW223010   2.211   1.763   5.179
 7371SOL     OW23011   4.185   6.819   3.357
 7371SOL    HW123012   4.214   6.907   3.394
 7371SOL    HW223013   4.088   6.805   3.378
 7372SOL     OW23014   3.987   0.475   4.934
 7372SOL    HW123015   4.042   0.391   4.936
 7372SOL    HW223016   4.046   0.553   4.911
 7373SOL     OW23017   4.992   2.460   4.584
 7373SOL    HW123018   4.898   2.485   4.607
 7373SOL    HW223019   5.045   2.447   4.668
 7374SOL     OW23020   0.996   1.163   4.896
 7374SOL    HW123021   0.903   1.200   4.899
 7374SOL    HW223022   1.029   1.146   4.989
 7375SOL     OW23023   2.112   3.101   2.236
 7375SOL    HW123024   2.142   3.172   2.172
 7375SOL    HW223025   2.114   3.137   2.329
 7376SOL     OW23026   0.357   3.562   1.081
 7376SOL    HW123027   0.418   3.641   1.086
 7376SOL    HW223028   0.263   3.593   1.067
 7377SOL     OW23029   3.177   5.707   0.459
 7377SOL    HW123030   3.253   5.645   0.442
 7377SOL    HW223031   3.111   5.664   0.521
 7378SOL     OW23032   1.690   6.344   4.363
 7378SOL    HW123033   1.741   6.368   4.281
 7378SOL    HW223034   1.597   6.382   4.357
 7379SOL     OW23035   4.192   0.781   1.523
 7379SOL    HW123036   4.266   0.789   1.455
 7379SOL    HW223037   4.191   0.863   1.580
 7380SOL     OW23038   5.906   4.394   3.407
 7380SOL    HW123039   5.998   4.356   3.420
 7380SOL    HW223040   5.910   4.493   3.411
 7381SOL     OW23041   3.908   1.164   0.191
 7381SOL    HW123042   3.868   1.123   0.273
 7381SOL    HW223043   3.903   1.264   0.198
 7382SOL     OW23044   0.234   1.883   6.070
 7382SOL    HW123045   0.330   1.857   6.063
 7382SOL    HW223046   0.204   1.923   5.984
 7383SOL     OW23047   1.606   6.948   1.748
 7383SOL    HW123048   1.688   7.004   1.753
 7383SOL    HW223049   1.593   6.899   1.835
 7384SOL     OW23050   0.844   6.985   0.947
 7384SOL    HW123051   0.786   6.921   0.896
 7384SOL    HW223052   0.801   7.008   1.034
 7385SOL     OW23053   4.243   5.293   2.813
 7385SOL    HW123054   4.245   5.368   2.747
 7385SOL    HW223055   4.185   5.219   2.779
 7386SOL     OW23056   6.139   3.096   0.864
 7386SOL    HW123057   6.161   3.024   0.930
 7386SOL    HW223058   6.146   3.060   0.771
 7387SOL     OW23059   6.572   4.516   5.730
 7387SOL    HW123060   6.559   4.568   5.814
 7387SOL    HW223061   6.520   4.431   5.734
 7388SOL     OW23062   1.761   6.483   2.164
 7388SOL    HW123063   1.785   6.386   2.162
 7388SOL    HW223064   1.685   6.498   2.227
 7389SOL     OW23065   6.594   2.917   0.601
 7389SOL    HW123066   6.610   3.016   0.605
 7389SOL    HW223067   6.566   2.885   0.691
 7390SOL     OW23068   2.447   1.881   2.965
 7390SOL    HW123069   2.466   1.949   2.894
 7390SOL    HW223070   2.359   1.837   2.945
 7391SOL     OW23071   3.682   3.008   2.697
 7391SOL    HW123072   3.666   2.947   2.620
 7391SOL    HW223073   3.612   2.993   2.767
 7392SOL     OW23074   4.202   5.340   6.691
 7392SOL    HW123075   4.223   5.247   6.720
 7392SOL    HW223076   4.126   5.338   6.627
 7393SOL     OW23077   5.993   4.765   4.646
 7393SOL    HW123078   6.081   4.784   4.689
 7393SOL    HW223079   5.928   4.838   4.670
 7394SOL     OW23080   2.410   2.173   5.881
 7394SOL    HW123081   2.416   2.205   5.786
 7394SOL    HW223082   2.314   2.171   5.909
 7395SOL     OW23083   2.701   4.106   1.052
 7395SOL    HW123084   2.779   4.045   1.057
 7395SOL    HW223085   2.730   4.196   1.019
 7396SOL     OW23086   2.844   5.077   1.472
 7396SOL    HW123087   2.919   5.143   1.474
 7396SOL    HW223088   2.814   5.064   1.377
 7397SOL     OW23089   5.610   3.530   4.502
 7397SOL    HW123090   5.556   3.608   4.469
 7397SOL    HW223091   5.619   3.535   4.601
 7398SOL     OW23092   2.128   4.612   2.859
 7398SOL    HW123093   2.136   4.618   2.959
 7398SOL    HW223094   2.113   4.517   2.833
 7399SOL     OW23095   5.206   2.058   4.627
 7399SOL    HW123096   5.164   2.062   4.717
 7399SOL    HW223097   5.284   1.996   4.629
 7400SOL     OW23098   5.346   2.212   5.506
 7400SOL    HW123099   5.295   2.227   5.590
 7400SOL    HW223100   5.421   2.277   5.500
 7401SOL     OW23101   1.297   3.035   3.831
 7401SOL    HW123102   1.278   3.069   3.739
 7401SOL    HW223103   1.318   3.111   3.891
 7402SOL     OW23104   2.836   5.802   5.197
 7402SOL    HW123105   2.934   5.784   5.196
 7402SOL    HW223106   2.816   5.872   5.266
 7403SOL     OW23107   1.240   2.688   4.154
 7403SOL    HW123108   1.295   2.732   4.226
 7403SOL    HW223109   1.170   2.752   4.123
 7404SOL     OW23110   2.923   3.696   1.190
 7404SOL    HW123111   2.902   3.604   1.224
 7404SOL    HW223112   2.940   3.757   1.268
 7405SOL     OW23113   3.158   5.948   5.467
 7405SOL    HW123114   3.240   5.971   5.518
 7405SOL    HW223115   3.087   5.915   5.529
 7406SOL     OW23116   0.626   0.704   5.024
 7406SOL    HW123117   0.614   0.791   4.976
 7406SOL    HW223118   0.602   0.629   4.963
 7407SOL     OW23119   0.454   5.912   6.319
 7407SOL    HW123120   0.407   5.976   6.379
 7407SOL    HW223121   0.499   5.842   6.374
 7408SOL     OW23122   3.540   3.829   5.347
 7408SOL    HW123123   3.627   3.830   5.298
 7408SOL    HW223124   3.526   3.738   5.387
 7409SOL     OW23125   6.189   4.337   0.545
 7409SOL    HW123126   6.250   4.395   0.599
 7409SOL    HW223127   6.120   4.296   0.605
 7410SOL     OW23128   6.969   0.170   1.081
 7410SOL    HW123129   6.901   0.097   1.077
 7410SOL    HW223130   6.958   0.222   1.166
 7411SOL     OW23131   0.661   2.035   6.036
 7411SOL    HW123132   0.700   1.962   5.981
 7411SOL    HW223133   0.599   1.996   6.104
 7412SOL     OW23134   4.009   7.006   0.073
 7412SOL    HW123135   4.024   6.932   0.138
 7412SOL    HW223136   3.919   6.996   0.031
 7413SOL     OW23137   4.108   5.951   3.529
 7413SOL    HW123138   4.020   5.904   3.522
 7413SOL    HW223139   4.155   5.947   3.441
 7414SOL     OW23140   2.590   2.145   4.558
 7414SOL    HW123141   2.505   2.189   4.585
 7414SOL    HW223142   2.591   2.051   4.592
 7415SOL     OW23143   4.124   6.235   6.713
 7415SOL    HW123144   4.104   6.146   6.673
 7415SOL    HW223145   4.212   6.269   6.677
 7416SOL     OW23146   0.915   1.839   2.485
 7416SOL    HW123147   0.984   1.856   2.555
 7416SOL    HW223148   0.953   1.782   2.412
 7417SOL     OW23149   1.004   2.102   3.863
 7417SOL    HW123150   1.007   2.133   3.958
 7417SOL    HW223151   0.925   2.042   3.850
 7418SOL     OW23152   1.415   3.619   6.200
 7418SOL    HW123153   1.399   3.523   6.180
 7418SOL    HW223154   1.336   3.673   6.169
 7419SOL     OW23155   6.299   3.997   3.980
 7419SOL    HW123156   6.352   4.036   4.056
 7419SOL    HW223157   6.362   3.966   3.908
 7420SOL     OW23158   7.010   0.033   1.908
 7420SOL    HW123159   6.920   0.006   1.872
 7420SOL    HW223160   0.009   7.000   1.988
 7421SOL     OW23161   4.688   4.033   1.757
 7421SOL    HW123162   4.598   3.995   1.734
 7421SOL    HW223163   4.733   3.974   1.824
 7422SOL     OW23164   5.895   2.803   1.776
 7422SOL    HW123165   5.854   2.843   1.693
 7422SOL    HW223166   5.830   2.811   1.852
 7423SOL     OW23167   5.487   1.787   5.651
 7423SOL    HW123168   5.416   1.848   5.685
 7423SOL    HW223169   5.450   1.694   5.642
 7424SOL     OW23170   0.018   0.593   4.755
 7424SOL    HW123171   0.063   0.508   4.729
 7424SOL    HW223172   0.042   0.665   4.690
 7425SOL     OW23173   5.590   6.874   0.668
 7425SOL    HW123174   5.668   6.814   0.651
 7425SOL    HW223175   5.623   6.967   0.684
 7426SOL     OW23176   3.630   2.776   5.979
 7426SOL    HW123177   3.552   2.828   6.014
 7426SOL    HW223178   3.603   2.728   5.896
 7427SOL     OW23179   3.910   1.716   3.937
 7427SOL    HW123180   3.969   1.789   3.973
 7427SOL    HW223181   3.964   1.656   3.877
 7428SOL     OW23182   4.475   6.338   5.536
 7428SOL    HW123183   4.569   6.307   5.523
 7428SOL    HW223184   4.476   6.426   5.584
 7429SOL     OW23185   1.893   0.156   2.554
 7429SOL    HW123186   1.902   0.255   2.559
 7429SOL    HW223187   1.948   0.121   2.478
 7430SOL     OW23188   6.468   5.086   3.101
 7430SOL    HW123189   6.478   5.007   3.162
 7430SOL    HW223190   6.446   5.054   3.009
 7431SOL     OW23191   1.980   2.207   5.118
 7431SOL    HW123192   1.890   2.249   5.107
 7431SOL    HW223193   2.047   2.279   5.140
 7432SOL     OW23194   1.629   0.222   3.250
 7432SOL    HW123195   1.717   0.174   3.253
 7432SOL    HW223196   1.557   0.157   3.224
 7433SOL     OW23197   2.757   7.006   6.696
 7433SOL    HW123198   2.806   6.974   6.615
 7433SOL    HW223199   2.794   0.072   6.724
 7434SOL     OW23200   4.188   5.927   5.590
 7434SOL    HW123201   4.117   5.933   5.660
 7434SOL    HW223202   4.204   5.831   5.567
 7435SOL     OW23203   4.840   6.380   3.123
 7435SOL    HW123204   4.872   6.475   3.119
 7435SOL    HW223205   4.747   6.378   3.158
 7436SOL     OW23206   5.353   3.123   6.102
 7436SOL    HW123207   5.424   3.054   6.087
 7436SOL    HW223208   5.346   3.182   6.022
 7437SOL     OW23209   4.373   6.384   1.117
 7437SOL    HW123210   4.380   6.305   1.177
 7437SOL    HW223211   4.463   6.427   1.106
 7438SOL     OW23212   2.587   1.007   6.996
 7438SOL    HW123213   2.633   0.940   0.031
 7438SOL    HW223214   2.541   0.960   6.920
 7439SOL     OW23215   1.164   4.372   6.180
 7439SOL    HW123216   1.141   4.422   6.097
 7439SOL    HW223217   1.221   4.428   6.240
 7440SOL     OW23218   5.137   2.988   3.859
 7440SOL    HW123219   5.204   2.934   3.809
 7440SOL    HW223220   5.094   2.932   3.930
 7441SOL     OW23221   6.294   6.525   1.754
 7441SOL    HW123222   6.269   6.435   1.718
 7441SOL    HW223223   6.393   6.536   1.751
 7442SOL     OW23224   5.107   0.395   5.482
 7442SOL    HW123225   5.041   0.398   5.557
 7442SOL    HW223226   5.061   0.363   5.399
 7443SOL     OW23227   0.221   6.911   1.825
 7443SOL    HW123228   0.147   6.973   1.853
 7443SOL    HW223229   0.209   6.885   1.730
 7444SOL     OW23230   0.278   6.912   6.134
 7444SOL    HW123231   0.223   6.991   6.106
 7444SOL    HW223232   0.348   6.942   6.198
 7445SOL     OW23233   4.419   6.057   1.651
 7445SOL    HW123234   4.437   5.961   1.673
 7445SOL    HW223235   4.398   6.107   1.735
 7446SOL     OW23236   5.224   3.461   0.160
 7446SOL    HW123237   5.211   3.365   0.183
 7446SOL    HW223238   5.316   3.490   0.188
 7447SOL     OW23239   0.843   4.886   1.241
 7447SOL    HW123240   0.848   4.982   1.210
 7447SOL    HW223241   0.764   4.842   1.199
 7448SOL     OW23242   4.621   5.152   6.127
 7448SOL    HW123243   4.578   5.175   6.040
 7448SOL    HW223244   4.718   5.132   6.112
 7449SOL     OW23245   0.374   4.548   7.002
 7449SOL    HW123246   0.433   4.614   0.027
 7449SOL    HW223247   0.414   4.526   6.913
 7450SOL     OW23248   5.428   1.494   5.638
 7450SOL    HW123249   5.329   1.489   5.628
 7450SOL    HW223250   5.458   1.432   5.710
 7451SOL     OW23251   5.476   5.033   2.323
 7451SOL    HW123252   5.485   5.114   2.381
 7451SOL    HW223253   5.446   4.955   2.379
 7452SOL     OW23254   5.618   5.896   4.849
 7452SOL    HW123255   5.643   5.799   4.850
 7452SOL    HW223256   5.519   5.905   4.862
 7453SOL     OW23257   4.279   5.543   6.363
 7453SOL    HW123258   4.328   5.462   6.330
 7453SOL    HW223259   4.331   5.625   6.338
 7454SOL     OW23260   3.743   2.343   0.571
 7454SOL    HW123261   3.815   2.359   0.504
 7454SOL    HW223262   3.683   2.423   0.576
 7455SOL     OW23263   6.904   2.695   2.710
 7455SOL    HW123264   6.931   2.603   2.682
 7455SOL    HW223265   6.929   2.761   2.640
 7456SOL     OW23266   3.050   2.301   5.531
 7456SOL    HW123267   3.052   2.213   5.580
 7456SOL    HW223268   3.143   2.335   5.522
 7457SOL     OW23269   3.026   0.073   2.877
 7457SOL    HW123270   3.078   7.018   2.911
 7457SOL    HW223271   3.063   0.103   2.789
 7458SOL     OW23272   1.103   6.263   5.405
 7458SOL    HW123273   1.194   6.273   5.446
 7458SOL    HW223274   1.102   6.181   5.347
 7459SOL     OW23275   6.228   0.976   3.052
 7459SOL    HW123276   6.289   1.032   3.109
 7459SOL    HW223277   6.143   1.025   3.036
 7460SOL     OW23278   1.296   0.172   1.380
 7460SOL    HW123279   1.232   0.199   1.452
 7460SOL    HW223280   1.265   0.087   1.339
 7461SOL     OW23281   0.866   5.308   5.950
 7461SOL    HW123282   0.919   5.285   6.031
 7461SOL    HW223283   0.922   5.298   5.868
 7462SOL     OW23284   1.520   5.056   1.201
 7462SOL    HW123285   1.566   5.138   1.166
 7462SOL    HW223286   1.436   5.040   1.149
 7463SOL     OW23287   4.157   4.776   0.050
 7463SOL    HW123288   4.087   4.756   0.119
 7463SOL    HW223289   4.142   4.719   6.992
 7464SOL     OW23290   6.614   6.288   5.313
 7464SOL    HW123291   6.630   6.372   5.261
 7464SOL    HW223292   6.527   6.248   5.285
 7465SOL     OW23293   2.479   5.138   0.236
 7465SOL    HW123294   2.560   5.159   0.291
 7465SOL    HW223295   2.468   5.208   0.165
 7466SOL     OW23296   0.663   6.695   4.508
 7466SOL    HW123297   0.581   6.652   4.471
 7466SOL    HW223298   0.714   6.740   4.434
 7467SOL     OW23299   0.397   3.363   5.908
 7467SOL    HW123300   0.461   3.384   5.982
 7467SOL    HW223301   0.347   3.446   5.883
 7468SOL     OW23302   6.143   3.165   5.835
 7468SOL    HW123303   6.188   3.247   5.870
 7468SOL    HW223304   6.210   3.091   5.826
 7469SOL     OW23305   6.892   2.436   0.803
 7469SOL    HW123306   6.912   2.468   0.896
 7469SOL    HW223307   6.952   2.360   0.780
 7470SOL     OW23308   5.921   3.695   4.252
 7470SOL    HW123309   5.903   3.610   4.203
 7470SOL    HW223310   5.834   3.733   4.284
 7471SOL     OW23311   5.583   5.550   6.151
 7471SOL    HW123312   5.485   5.530   6.150
 7471SOL    HW223313   5.634   5.465   6.165
 7472SOL     OW23314   6.160   6.147   5.490
 7472SOL    HW123315   6.078   6.113   5.446
 7472SOL    HW223316   6.212   6.203   5.425
 7473SOL     OW23317   4.000   6.530   3.803
 7473SOL    HW123318   4.047   6.617   3.817
 7473SOL    HW223319   3.977   6.490   3.892
 7474SOL     OW23320   6.297   2.111   5.771
 7474SOL    HW123321   6.226   2.098   5.702
 7474SOL    HW223322   6.387   2.101   5.729
 7475SOL     OW23323   4.738   2.760   0.860
 7475SOL    HW123324   4.763   2.855   0.838
 7475SOL    HW223325   4.789   2.731   0.942
 7476SOL     OW23326   2.511   1.170   3.009
 7476SOL    HW123327   2.448   1.199   3.081
 7476SOL    HW223328   2.458   1.142   2.928
 7477SOL     OW23329   0.995   4.071   5.534
 7477SOL    HW123330   0.961   4.018   5.456
 7477SOL    HW223331   1.038   4.155   5.501
 7478SOL     OW23332   0.398   1.713   5.229
 7478SOL    HW123333   0.351   1.626   5.243
 7478SOL    HW223334   0.423   1.723   5.133
 7479SOL     OW23335   6.347   3.193   6.761
 7479SOL    HW123336   6.337   3.108   6.813
 7479SOL    HW223337   6.265   3.249   6.771
 7480SOL     OW23338   3.623   4.961   2.127
 7480SOL    HW123339   3.618   4.912   2.039
 7480SOL    HW223340   3.531   4.969   2.166
 7481SOL     OW23341   0.121   4.211   6.649
 7481SOL    HW123342   0.166   4.122   6.652
 7481SOL    HW223343   0.116   4.243   6.554
 7482SOL     OW23344   4.096   2.208   2.490
 7482SOL    HW123345   4.005   2.228   2.453
 7482SOL    HW223346   4.143   2.293   2.512
 7483SOL     OW23347   4.284   2.413   5.959
 7483SOL    HW123348   4.271   2.352   6.037
 7483SOL    HW223349   4.326   2.363   5.883
 7484SOL     OW23350   3.171   6.552   4.407
 7484SOL    HW123351   3.234   6.517   4.338
 7484SOL    HW223352   3.207   6.534   4.498
 7485SOL     OW23353   2.908   6.957   4.352
 7485SOL    HW123354   2.909   0.014   4.291
 7485SOL    HW223355   2.889   6.987   4.445
 7486SOL     OW23356   2.052   6.392   0.222
 7486SOL    HW123357   2.081   6.298   0.208
 7486SOL    HW223358   2.033   6.435   0.133
 7487SOL     OW23359   3.999   6.528   3.518
 7487SOL    HW123360   3.996   6.478   3.605
 7487SOL    HW223361   4.091   6.565   3.503
 7488SOL     OW23362   0.826   5.649   3.922
 7488SOL    HW123363   0.926   5.644   3.916
 7488SOL    HW223364   0.798   5.744   3.935
 7489SOL     OW23365   6.396   3.739   6.784
 7489SOL    HW123366   6.482   3.787   6.770
 7489SOL    HW223367   6.400   3.650   6.738
 7490SOL     OW23368   1.335   2.021   2.411
 7490SOL    HW123369   1.363   2.041   2.504
 7490SOL    HW223370   1.307   2.105   2.365
 7491SOL     OW23371   4.435   3.126   0.060
 7491SOL    HW123372   4.350   3.074   0.064
 7491SOL    HW223373   4.433   3.197   0.130
 7492SOL     OW23374   1.532   0.166   4.468
 7492SOL    HW123375   1.609   0.146   4.406
 7492SOL    HW223376   1.448   0.175   4.414
 7493SOL     OW23377   6.419   3.971   5.278
 7493SOL    HW123378   6.484   4.047   5.288
 7493SOL    HW223379   6.337   4.003   5.230
 7494SOL     OW23380   5.902   1.548   2.934
 7494SOL    HW123381   5.929   1.481   3.003
 7494SOL    HW223382   5.808   1.530   2.905
 7495SOL     OW23383   2.083   3.647   4.722
 7495SOL    HW123384   2.083   3.576   4.793
 7495SOL    HW223385   1.989   3.680   4.708
 7496SOL     OW23386   5.791   4.099   2.472
 7496SOL    HW123387   5.762   4.017   2.422
 7496SOL    HW223388   5.802   4.077   2.569
 7497SOL     OW23389   0.457   6.732   0.687
 7497SOL    HW123390   0.364   6.766   0.700
 7497SOL    HW223391   0.454   6.638   0.653
 7498SOL     OW23392   3.393   6.995   2.928
 7498SOL    HW123393   3.445   0.000   2.847
 7498SOL    HW223394   3.347   0.052   2.966
 7499SOL     OW23395   3.577   2.061   3.658
 7499SOL    HW123396   3.632   2.008   3.723
 7499SOL    HW223397   3.481   2.059   3.685
 7500SOL     OW23398   4.310   6.567   2.836
 7500SOL    HW123399   4.241   6.637   2.858
 7500SOL    HW223400   4.332   6.515   2.919
 7501SOL     OW23401   5.962   2.319   4.919
 7501SOL    HW123402   5.871   2.302   4.883
 7501SOL    HW223403   5.956   2.341   5.017
 7502SOL     OW23404   3.989   0.161   4.230
 7502SOL    HW123405   3.978   0.204   4.140
 7502SOL    HW223406   4.086   0.145   4.248
 7503SOL     OW23407   1.820   6.067   1.282
 7503SOL    HW123408   1.894   6.061   1.349
 7503SOL    HW223409   1.733   6.043   1.326
 7504SOL     OW23410   6.507   6.529   3.593
 7504SOL    HW123411   6.526   6.472   3.673
 7504SOL    HW223412   6.518   6.625   3.618
 7505SOL     OW23413   0.796   6.732   5.424
 7505SOL    HW123414   0.887   6.730   5.382
 7505SOL    HW223415   0.782   6.649   5.478
 7506SOL     OW23416   2.386   1.460   3.505
 7506SOL    HW123417   2.324   1.526   3.462
 7506SOL    HW223418   2.472   1.506   3.529
 7507SOL     OW23419   6.408   3.879   4.750
 7507SOL    HW123420   6.336   3.859   4.816
 7507SOL    HW223421   6.386   3.964   4.702
 7508SOL     OW23422   1.897   6.000   6.954
 7508SOL    HW123423   1.983   5.949   6.941
 7508SOL    HW223424   1.821   5.935   6.960
 7509SOL     OW23425   4.698   4.053   0.495
 7509SOL    HW123426   4.789   4.022   0.522
 7509SOL    HW223427   4.707   4.126   0.426
 7510SOL     OW23428   3.954   3.951   4.015
 7510SOL    HW123429   4.037   3.991   3.975
 7510SOL    HW223430   3.916   4.014   4.083
 7511SOL     OW23431   3.482   5.399   2.932
 7511SOL    HW123432   3.546   5.385   3.008
 7511SOL    HW223433   3.408   5.460   2.961
 7512SOL     OW23434   3.393   6.506   6.185
 7512SOL    HW123435   3.489   6.513   6.211
 7512SOL    HW223436   3.384   6.516   6.086
 7513SOL     OW23437   1.591   2.108   3.244
 7513SOL    HW123438   1.617   2.059   3.161
 7513SOL    HW223439   1.634   2.064   3.323
 7514SOL     OW23440   2.323   4.315   3.013
 7514SOL    HW123441   2.257   4.325   2.939
 7514SOL    HW223442   2.323   4.220   3.045
 7515SOL     OW23443   0.262   4.406   4.709
 7515SOL    HW123444   0.303   4.328   4.661
 7515SOL    HW223445   0.220   4.468   4.642
 7516SOL     OW23446   0.874   5.412   5.225
 7516SOL    HW123447   0.799   5.465   5.266
 7516SOL    HW223448   0.934   5.474   5.175
 7517SOL     OW23449   0.532   1.895   6.886
 7517SOL    HW123450   0.521   1.954   6.805
 7517SOL    HW223451   0.462   1.918   6.953
 7518SOL     OW23452   4.723   2.828   3.725
 7518SOL    HW123453   4.645   2.802   3.781
 7518SOL    HW223454   4.735   2.762   3.651
 7519SOL     OW23455   3.722   6.609   5.083
 7519SOL    HW123456   3.766   6.667   5.014
 7519SOL    HW223457   3.728   6.652   5.172
 7520SOL     OW23458   1.936   2.138   1.459
 7520SOL    HW123459   1.999   2.063   1.437
 7520SOL    HW223460   1.879   2.112   1.537
 7521SOL     OW23461   4.422   1.128   5.481
 7521SOL    HW123462   4.395   1.170   5.395
 7521SOL    HW223463   4.478   1.193   5.534
 7522SOL     OW23464   1.807   6.732   2.870
 7522SOL    HW123465   1.726   6.723   2.928
 7522SOL    HW223466   1.838   6.641   2.841
 7523SOL     OW23467   5.538   1.735   6.529
 7523SOL    HW123468   5.576   1.653   6.486
 7523SOL    HW223469   5.561   1.736   6.626
 7524SOL     OW23470   0.076   3.073   4.850
 7524SOL    HW123471   0.108   3.166   4.868
 7524SOL    HW223472   0.086   3.052   4.753
 7525SOL     OW23473   4.419   6.060   6.295
 7525SOL    HW123474   4.474   6.119   6.353
 7525SOL    HW223475   4.429   5.964   6.324
 7526SOL     OW23476   2.197   3.372   1.638
 7526SOL    HW123477   2.272   3.380   1.704
 7526SOL    HW223478   2.234   3.344   1.549
 7527SOL     OW23479   3.757   5.429   3.676
 7527SOL    HW123480   3.852   5.426   3.645
 7527SOL    HW223481   3.738   5.518   3.716
 7528SOL     OW23482   6.837   2.847   6.537
 7528SOL    HW123483   6.858   2.934   6.493
 7528SOL    HW223484   6.778   2.862   6.616
 7529SOL     OW23485   6.283   2.568   3.961
 7529SOL    HW123486   6.339   2.560   4.043
 7529SOL    HW223487   6.221   2.490   3.955
 7530SOL     OW23488   6.268   1.814   2.119
 7530SOL    HW123489   6.243   1.794   2.024
 7530SOL    HW223490   6.339   1.751   2.149
 7531SOL     OW23491   4.198   1.996   3.483
 7531SOL    HW123492   4.233   2.062   3.550
 7531SOL    HW223493   4.167   1.913   3.531
 7532SOL     OW23494   4.287   5.579   6.642
 7532SOL    HW123495   4.314   5.572   6.546
 7532SOL    HW223496   4.257   5.490   6.675
 7533SOL     OW23497   4.752   3.588   1.596
 7533SOL    HW123498   4.674   3.643   1.567
 7533SOL    HW223499   4.722   3.495   1.619
 7534SOL     OW23500   4.731   6.838   4.204
 7534SOL    HW123501   4.773   6.816   4.292
 7534SOL    HW223502   4.685   6.757   4.167
 7535SOL     OW23503   0.584   5.572   4.063
 7535SOL    HW123504   0.589   5.592   4.160
 7535SOL    HW223505   0.675   5.579   4.023
 7536SOL     OW23506   4.787   5.548   4.128
 7536SOL    HW123507   4.702   5.496   4.126
 7536SOL    HW223508   4.860   5.495   4.085
 7537SOL     OW23509   3.057   6.035   2.815
 7537SOL    HW123510   2.971   6.051   2.862
 7537SOL    HW223511   3.046   6.053   2.717
 7538SOL     OW23512   1.008   3.871   1.395
 7538SOL    HW123513   1.096   3.825   1.407
 7538SOL    HW223514   0.990   3.883   1.297
 7539SOL     OW23515   0.469   5.998   3.572
 7539SOL    HW123516   0.488   6.088   3.611
 7539SOL    HW223517   0.382   6.001   3.521
 7540SOL     OW23518   5.646   5.079   4.132
 7540SOL    HW123519   5.579   5.093   4.060
 7540SOL    HW223520   5.645   5.157   4.195
 7541SOL     OW23521   0.911   4.255   0.008
 7541SOL    HW123522   0.889   4.178   6.971
 7541SOL    HW223523   0.872   4.239   0.098
 7542SOL     OW23524   5.728   5.306   6.174
 7542SOL    HW123525   5.797   5.234   6.167
 7542SOL    HW223526   5.681   5.299   6.261
 7543SOL     OW23527   3.139   1.166   5.728
 7543SOL    HW123528   3.125   1.190   5.825
 7543SOL    HW223529   3.139   1.250   5.673
 7544SOL     OW23530   6.748   2.838   3.421
 7544SOL    HW123531   6.816   2.765   3.410
 7544SOL    HW223532   6.720   2.843   3.517
 7545SOL     OW23533   1.045   4.908   0.123
 7545SOL    HW123534   1.082   5.000   0.111
 7545SOL    HW223535   1.041   4.885   0.220
 7546SOL     OW23536   3.258   3.096   1.708
 7546SOL    HW123537   3.351   3.060   1.693
 7546SOL    HW223538   3.205   3.031   1.762
 7547SOL     OW23539   4.350   0.282   2.184
 7547SOL    HW123540   4.412   0.342   2.235
 7547SOL    HW223541   4.299   0.225   2.249
 7548SOL     OW23542   4.472   2.555   6.555
 7548SOL    HW123543   4.536   2.633   6.552
 7548SOL    HW223544   4.492   2.499   6.635
 7549SOL     OW23545   4.257   2.724   5.322
 7549SOL    HW123546   4.206   2.767   5.396
 7549SOL    HW223547   4.197   2.660   5.273
 7550SOL     OW23548   1.992   4.045   4.205
 7550SOL    HW123549   2.018   3.956   4.167
 7550SOL    HW223550   2.068   4.083   4.257
 7551SOL     OW23551   5.874   2.294   5.526
 7551SOL    HW123552   5.821   2.300   5.610
 7551SOL    HW223553   5.962   2.251   5.546
 7552SOL     OW23554   2.735   5.924   4.858
 7552SOL    HW123555   2.649   5.909   4.809
 7552SOL    HW223556   2.718   5.979   4.939
 7553SOL     OW23557   5.717   5.866   5.826
 7553SOL    HW123558   5.697   5.769   5.842
 7553SOL    HW223559   5.632   5.917   5.823
 7554SOL     OW23560   5.219   0.914   1.031
 7554SOL    HW123561   5.201   1.009   1.005
 7554SOL    HW223562   5.309   0.907   1.073
 7555SOL     OW23563   3.371   5.332   5.959
 7555SOL    HW123564   3.325   5.357   5.873
 7555SOL    HW223565   3.302   5.319   6.030
 7556SOL     OW23566   0.347   6.994   0.816
 7556SOL    HW123567   0.276   7.013   0.884
 7556SOL    HW223568   0.423   6.944   0.860
 7557SOL     OW23569   4.821   0.457   0.322
 7557SOL    HW123570   4.918   0.466   0.344
 7557SOL    HW223571   4.805   0.482   0.226
 7558SOL     OW23572   1.680   2.047   4.206
 7558SOL    HW123573   1.593   2.008   4.238
 7558SOL    HW223574   1.699   2.131   4.256
 7559SOL     OW23575   4.322   2.270   4.864
 7559SOL    HW123576   4.412   2.240   4.894
 7559SOL    HW223577   4.279   2.324   4.936
 7560SOL     OW23578   0.190   0.463   6.457
 7560SOL    HW123579   0.244   0.544   6.435
 7560SOL    HW223580   0.106   0.491   6.504
 7561SOL     OW23581   5.430   2.092   4.948
 7561SOL    HW123582   5.432   2.017   5.015
 7561SOL    HW223583   5.337   2.127   4.941
 7562SOL     OW23584   1.673   4.933   3.637
 7562SOL    HW123585   1.637   5.022   3.609
 7562SOL    HW223586   1.750   4.947   3.699
 7563SOL     OW23587   3.323   5.506   2.276
 7563SOL    HW123588   3.352   5.411   2.273
 7563SOL    HW223589   3.347   5.547   2.364
 7564SOL     OW23590   4.786   1.269   4.384
 7564SOL    HW123591   4.714   1.308   4.442
 7564SOL    HW223592   4.748   1.191   4.333
 7565SOL     OW23593   5.474   3.294   6.563
 7565SOL    HW123594   5.407   3.366   6.581
 7565SOL    HW223595   5.452   3.250   6.475
 7566SOL     OW23596   3.863   3.964   1.427
 7566SOL    HW123597   3.859   4.050   1.377
 7566SOL    HW223598   3.943   3.964   1.487
 7567SOL     OW23599   0.696   0.310   4.898
 7567SOL    HW123600   0.772   0.362   4.938
 7567SOL    HW223601   0.615   0.320   4.956
 7568SOL     OW23602   5.837   5.410   1.285
 7568SOL    HW123603   5.839   5.440   1.189
 7568SOL    HW223604   5.768   5.461   1.335
 7569SOL     OW23605   4.507   3.924   6.629
 7569SOL    HW123606   4.442   3.998   6.615
 7569SOL    HW223607   4.459   3.836   6.631
 7570SOL     OW23608   6.513   3.035   2.840
 7570SOL    HW123609   6.481   2.999   2.753
 7570SOL    HW223610   6.592   2.982   2.872
 7571SOL     OW23611   4.339   2.405   2.537
 7571SOL    HW123612   4.402   2.471   2.578
 7571SOL    HW223613   4.336   2.323   2.594
 7572SOL     OW23614   4.893   5.907   2.317
 7572SOL    HW123615   4.927   5.928   2.225
 7572SOL    HW223616   4.795   5.888   2.312
 7573SOL     OW23617   5.423   6.348   5.722
 7573SOL    HW123618   5.425   6.302   5.811
 7573SOL    HW223619   5.517   6.363   5.691
 7574SOL     OW23620   6.904   1.498   4.392
 7574SOL    HW123621   6.977   1.477   4.327
 7574SOL    HW223622   6.894   1.597   4.401
 7575SOL     OW23623   0.046   6.354   1.731
 7575SOL    HW123624   0.102   6.274   1.709
 7575SOL    HW223625   0.001   6.341   1.819
 7576SOL     OW23626   5.575   2.796   0.707
 7576SOL    HW123627   5.653   2.797   0.645
 7576SOL    HW223628   5.492   2.822   0.657
 7577SOL     OW23629   0.855   0.190   0.756
 7577SOL    HW123630   0.928   0.258   0.755
 7577SOL    HW223631   0.864   0.133   0.838
 7578SOL     OW23632   6.902   5.988   3.351
 7578SOL    HW123633   6.910   6.085   3.373
 7578SOL    HW223634   6.981   5.960   3.296
 7579SOL     OW23635   6.659   1.148   6.953
 7579SOL    HW123636   6.739   1.207   6.950
 7579SOL    HW223637   6.675   1.074   7.019
 7580SOL     OW23638   2.282   4.950   3.337
 7580SOL    HW123639   2.346   4.887   3.292
 7580SOL    HW223640   2.332   5.009   3.400
 7581SOL     OW23641   6.838   0.971   2.266
 7581SOL    HW123642   6.768   0.901   2.284
 7581SOL    HW223643   6.912   0.930   2.212
 7582SOL     OW23644   3.604   1.677   4.440
 7582SOL    HW123645   3.634   1.582   4.429
 7582SOL    HW223646   3.684   1.737   4.447
 7583SOL     OW23647   4.973   3.563   3.567
 7583SOL    HW123648   4.943   3.496   3.499
 7583SOL    HW223649   5.019   3.639   3.521
 7584SOL     OW23650   6.986   0.509   2.700
 7584SOL    HW123651   0.016   0.435   2.658
 7584SOL    HW223652   0.007   0.535   2.786
 7585SOL     OW23653   0.895   2.325   6.461
 7585SOL    HW123654   0.933   2.389   6.529
 7585SOL    HW223655   0.818   2.368   6.414
 7586SOL     OW23656   1.322   1.532   3.005
 7586SOL    HW123657   1.302   1.447   2.957
 7586SOL    HW223658   1.269   1.536   3.090
 7587SOL     OW23659   3.292   1.564   0.597
 7587SOL    HW123660   3.226   1.555   0.671
 7587SOL    HW223661   3.372   1.508   0.616
 7588SOL     OW23662   1.564   2.607   4.567
 7588SOL    HW123663   1.557   2.685   4.629
 7588SOL    HW223664   1.658   2.600   4.534
 7589SOL     OW23665   7.003   1.053   3.092
 7589SOL    HW123666   0.034   1.068   3.008
 7589SOL    HW223667   0.034   0.999   3.156
 7590SOL     OW23668   6.963   1.573   0.065
 7590SOL    HW123669   6.907   1.617   0.134
 7590SOL    HW223670   7.005   1.642   0.006
 7591SOL     OW23671   4.057   3.292   5.385
 7591SOL    HW123672   4.054   3.378   5.436
 7591SOL    HW223673   4.077   3.312   5.289
 7592SOL     OW23674   0.061   6.374   5.165
 7592SOL    HW123675   0.105   6.444   5.222
 7592SOL    HW223676   0.080   6.393   5.069
 7593SOL     OW23677   0.540   1.442   5.872
 7593SOL    HW123678   0.557   1.454   5.970
 7593SOL    HW223679   0.558   1.348   5.845
 7594SOL     OW23680   0.613   4.628   0.938
 7594SOL    HW123681   0.708   4.599   0.940
 7594SOL    HW223682   0.557   4.558   0.893
 7595SOL     OW23683   6.364   2.507   5.878
 7595SOL    HW123684   6.294   2.561   5.831
 7595SOL    HW223685   6.367   2.533   5.975
 7596SOL     OW23686   2.804   0.898   4.934
 7596SOL    HW123687   2.718   0.928   4.893
 7596SOL    HW223688   2.849   0.833   4.873
 7597SOL     OW23689   1.371   4.711   1.955
 7597SOL    HW123690   1.468   4.710   1.931
 7597SOL    HW223691   1.316   4.698   1.873
 7598SOL     OW23692   6.111   1.199   3.346
 7598SOL    HW123693   6.096   1.100   3.358
 7598SOL    HW223694   6.195   1.213   3.294
 7599SOL     OW23695   4.120   3.183   1.096
 7599SOL    HW123696   4.045   3.118   1.080
 7599SOL    HW223697   4.085   3.260   1.150
 7600SOL     OW23698   1.160   1.146   4.248
 7600SOL    HW123699   1.111   1.154   4.334
 7600SOL    HW223700   1.248   1.194   4.255
 7601SOL     OW23701   3.800   5.805   2.016
 7601SOL    HW123702   3.732   5.834   1.948
 7601SOL    HW223703   3.754   5.751   2.086
 7602SOL     OW23704   0.133   1.518   0.860
 7602SOL    HW123705   0.123   1.613   0.888
 7602SOL    HW223706   0.111   1.509   0.763
 7603SOL     OW23707   2.488   0.425   5.323
 7603SOL    HW123708   2.479   0.522   5.298
 7603SOL    HW223709   2.434   0.370   5.259
 7604SOL     OW23710   0.810   2.617   4.852
 7604SOL    HW123711   0.852   2.528   4.832
 7604SOL    HW223712   0.875   2.674   4.903
 7605SOL     OW23713   2.546   6.950   0.276
 7605SOL    HW123714   2.601   6.972   0.357
 7605SOL    HW223715   2.526   0.011   0.225
 7606SOL     OW23716   6.587   1.753   3.501
 7606SOL    HW123717   6.606   1.771   3.405
 7606SOL    HW223718   6.642   1.815   3.558
 7607SOL     OW23719   2.530   5.720   5.587
 7607SOL    HW123720   2.612   5.677   5.624
 7607SOL    HW223721   2.504   5.674   5.502
 7608SOL     OW23722   6.061   2.944   6.070
 7608SOL    HW123723   6.089   2.934   5.974
 7608SOL    HW223724   5.962   2.934   6.076
 7609SOL     OW23725   0.697   1.492   5.103
 7609SOL    HW123726   0.622   1.543   5.059
 7609SOL    HW223727   0.765   1.556   5.137
 7610SOL     OW23728   3.263   4.570   5.617
 7610SOL    HW123729   3.280   4.560   5.519
 7610SOL    HW223730   3.166   4.593   5.632
 7611SOL     OW23731   4.499   3.394   1.285
 7611SOL    HW123732   4.527   3.305   1.247
 7611SOL    HW223733   4.571   3.428   1.345
 7612SOL     OW23734   2.664   1.704   3.073
 7612SOL    HW123735   2.728   1.628   3.084
 7612SOL    HW223736   2.603   1.686   2.996
 7613SOL     OW23737   0.674   1.337   2.548
 7613SOL    HW123738   0.623   1.392   2.614
 7613SOL    HW223739   0.656   1.371   2.456
 7614SOL     OW23740   5.163   3.394   0.492
 7614SOL    HW123741   5.228   3.367   0.421
 7614SOL    HW223742   5.202   3.373   0.582
 7615SOL     OW23743   5.328   3.344   4.846
 7615SOL    HW123744   5.309   3.343   4.944
 7615SOL    HW223745   5.272   3.413   4.801
 7616SOL     OW23746   6.590   6.786   3.663
 7616SOL    HW123747   6.596   6.799   3.762
 7616SOL    HW223748   6.670   6.828   3.619
 7617SOL     OW23749   5.416   5.580   3.236
 7617SOL    HW123750   5.342   5.604   3.172
 7617SOL    HW223751   5.419   5.481   3.247
 7618SOL     OW23752   2.861   3.152   0.530
 7618SOL    HW123753   2.814   3.164   0.442
 7618SOL    HW223754   2.958   3.174   0.519
 7619SOL     OW23755   0.844   2.500   4.117
 7619SOL    HW123756   0.802   2.433   4.055
 7619SOL    HW223757   0.845   2.590   4.073
 7620SOL     OW23758   3.756   3.730   1.344
 7620SOL    HW123759   3.783   3.823   1.368
 7620SOL    HW223760   3.674   3.732   1.286
 7621SOL     OW23761   0.441   5.559   0.753
 7621SOL    HW123762   0.388   5.638   0.723
 7621SOL    HW223763   0.493   5.522   0.676
 7622SOL     OW23764   3.128   3.705   1.004
 7622SOL    HW123765   3.058   3.712   1.075
 7622SOL    HW223766   3.201   3.771   1.023
 7623SOL     OW23767   4.888   4.925   1.119
 7623SOL    HW123768   4.795   4.955   1.137
 7623SOL    HW223769   4.953   4.995   1.150
 7624SOL     OW23770   0.800   2.812   2.159
 7624SOL    HW123771   0.749   2.805   2.074
 7624SOL    HW223772   0.885   2.861   2.143
 7625SOL     OW23773   5.073   1.746   0.525
 7625SOL    HW123774   5.065   1.702   0.614
 7625SOL    HW223775   5.033   1.688   0.455
 7626SOL     OW23776   5.482   0.653   5.158
 7626SOL    HW123777   5.463   0.751   5.152
 7626SOL    HW223778   5.397   0.601   5.146
 7627SOL     OW23779   3.523   2.049   6.247
 7627SOL    HW123780   3.446   2.010   6.298
 7627SOL    HW223781   3.574   2.111   6.307
 7628SOL     OW23782   3.543   2.933   0.201
 7628SOL    HW123783   3.464   2.886   0.241
 7628SOL    HW223784   3.584   2.874   0.130
 7629SOL     OW23785   5.994   3.258   4.043
 7629SOL    HW123786   6.083   3.304   4.044
 7629SOL    HW223787   5.963   3.248   3.949
 7630SOL     OW23788   1.156   6.924   5.618
 7630SOL    HW123789   1.240   6.886   5.578
 7630SOL    HW223790   1.168   6.935   5.716
 7631SOL     OW23791   1.816   6.748   5.353
 7631SOL    HW123792   1.743   6.759   5.285
 7631SOL    HW223793   1.904   6.772   5.312
 7632SOL     OW23794   4.633   5.741   0.282
 7632SOL    HW123795   4.702   5.740   0.355
 7632SOL    HW223796   4.580   5.656   0.286
 7633SOL     OW23797   6.156   1.102   1.237
 7633SOL    HW123798   6.084   1.172   1.232
 7633SOL    HW223799   6.222   1.117   1.164
 7634SOL     OW23800   0.444   1.837   0.291
 7634SOL    HW123801   0.484   1.926   0.269
 7634SOL    HW223802   0.354   1.829   0.249
 7635SOL     OW23803   2.602   4.785   6.356
 7635SOL    HW123804   2.529   4.734   6.310
 7635SOL    HW223805   2.691   4.743   6.335
 7636SOL     OW23806   0.660   3.691   4.716
 7636SOL    HW123807   0.600   3.689   4.636
 7636SOL    HW223808   0.698   3.599   4.731
 7637SOL     OW23809   1.096   6.252   4.047
 7637SOL    HW123810   1.064   6.169   4.001
 7637SOL    HW223811   1.187   6.236   4.085
 7638SOL     OW23812   0.890   5.461   1.377
 7638SOL    HW123813   0.990   5.466   1.374
 7638SOL    HW223814   0.857   5.513   1.456
 7639SOL     OW23815   1.339   1.009   0.172
 7639SOL    HW123816   1.437   1.029   0.172
 7639SOL    HW223817   1.309   0.984   0.080
 7640SOL     OW23818   3.252   0.929   6.653
 7640SOL    HW123819   3.165   0.879   6.651
 7640SOL    HW223820   3.270   0.966   6.562
 7641SOL     OW23821   0.519   4.032   3.039
 7641SOL    HW123822   0.495   3.942   3.002
 7641SOL    HW223823   0.449   4.098   3.012
 7642SOL     OW23824   6.161   0.849   3.657
 7642SOL    HW123825   6.161   0.902   3.743
 7642SOL    HW223826   6.213   0.765   3.670
 7643SOL     OW23827   4.898   2.909   2.968
 7643SOL    HW123828   4.921   2.988   3.025
 7643SOL    HW223829   4.880   2.830   3.027
 7644SOL     OW23830   5.014   3.926   1.195
 7644SOL    HW123831   5.014   4.015   1.240
 7644SOL    HW223832   5.108   3.891   1.191
 7645SOL     OW23833   3.113   3.686   6.056
 7645SOL    HW123834   3.089   3.589   6.052
 7645SOL    HW223835   3.124   3.722   5.963
 7646SOL     OW23836   0.587   2.297   2.883
 7646SOL    HW123837   0.496   2.271   2.913
 7646SOL    HW223838   0.621   2.373   2.939
 7647SOL     OW23839   6.917   3.128   5.260
 7647SOL    HW123840   6.844   3.148   5.195
 7647SOL    HW223841   6.999   3.099   5.211
 7648SOL     OW23842   2.572   1.482   1.560
 7648SOL    HW123843   2.474   1.466   1.565
 7648SOL    HW223844   2.620   1.394   1.552
 7649SOL     OW23845   5.477   0.924   5.412
 7649SOL    HW123846   5.389   0.877   5.408
 7649SOL    HW223847   5.507   0.946   5.319
 7650SOL     OW23848   4.100   2.147   0.803
 7650SOL    HW123849   4.089   2.209   0.881
 7650SOL    HW223850   4.015   2.096   0.789
 7651SOL     OW23851   2.154   4.884   5.716
 7651SOL    HW123852   2.183   4.946   5.643
 7651SOL    HW223853   2.180   4.923   5.805
 7652SOL     OW23854   5.971   1.242   4.143
 7652SOL    HW123855   5.887   1.296   4.156
 7652SOL    HW223856   5.973   1.204   4.051
 7653SOL     OW23857   0.491   1.544   6.520
 7653SOL    HW123858   0.570   1.497   6.561
 7653SOL    HW223859   0.408   1.517   6.569
 7654SOL     OW23860   5.746   2.551   6.372
 7654SOL    HW123861   5.751   2.542   6.472
 7654SOL    HW223862   5.701   2.638   6.349
 7655SOL     OW23863   3.236   0.484   3.175
 7655SOL    HW123864   3.269   0.548   3.105
 7655SOL    HW223865   3.284   0.501   3.261
 7656SOL     OW23866   6.559   3.326   6.954
 7656SOL    HW123867   6.584   3.419   6.979
 7656SOL    HW223868   6.459   3.318   6.947
 7657SOL     OW23869   1.389   3.895   4.621
 7657SOL    HW123870   1.364   3.989   4.601
 7657SOL    HW223871   1.472   3.870   4.571
 7658SOL     OW23872   2.525   1.544   0.886
 7658SOL    HW123873   2.558   1.454   0.915
 7658SOL    HW223874   2.570   1.569   0.800
 7659SOL     OW23875   4.227   3.530   5.487
 7659SOL    HW123876   4.279   3.492   5.411
 7659SOL    HW223877   4.245   3.628   5.495
 7660SOL     OW23878   0.024   5.366   4.525
 7660SOL    HW123879   7.010   5.294   4.466
 7660SOL    HW223880   0.112   5.398   4.489
 7661SOL     OW23881   4.697   2.847   5.998
 7661SOL    HW123882   4.764   2.781   6.033
 7661SOL    HW223883   4.631   2.799   5.939
 7662SOL     OW23884   0.887   2.010   2.150
 7662SOL    HW123885   0.985   1.998   2.138
 7662SOL    HW223886   0.843   1.920   2.155
 7663SOL     OW23887   6.629   5.316   5.360
 7663SOL    HW123888   6.533   5.300   5.336
 7663SOL    HW223889   6.675   5.360   5.283
 7664SOL     OW23890   3.802   2.126   2.445
 7664SOL    HW123891   3.761   2.123   2.536
 7664SOL    HW223892   3.731   2.147   2.377
 7665SOL     OW23893   4.143   1.280   4.732
 7665SOL    HW123894   4.092   1.231   4.661
 7665SOL    HW223895   4.091   1.277   4.818
 7666SOL     OW23896   5.622   5.305   4.285
 7666SOL    HW123897   5.540   5.350   4.247
 7666SOL    HW223898   5.696   5.372   4.290
 7667SOL     OW23899   4.893   6.205   1.547
 7667SOL    HW123900   4.813   6.146   1.537
 7667SOL    HW223901   4.864   6.293   1.584
 7668SOL     OW23902   2.434   5.034   0.957
 7668SOL    HW123903   2.508   5.060   1.020
 7668SOL    HW223904   2.394   4.948   0.987
 7669SOL     OW23905   2.627   6.746   5.665
 7669SOL    HW123906   2.558   6.725   5.595
 7669SOL    HW223907   2.624   6.844   5.684
 7670SOL     OW23908   6.994   6.566   0.421
 7670SOL    HW123909   6.960   6.624   0.494
 7670SOL    HW223910   6.954   6.475   0.430
 7671SOL     OW23911   4.582   0.721   1.082
 7671SOL    HW123912   4.604   0.753   0.990
 7671SOL    HW223913   4.483   0.719   1.093
 7672SOL     OW23914   5.441   5.055   2.966
 7672SOL    HW123915   5.353   5.012   2.945
 7672SOL    HW223916   5.468   5.029   3.059
 7673SOL     OW23917   0.550   5.821   3.759
 7673SOL    HW123918   0.531   5.905   3.709
 7673SOL    HW223919   0.549   5.743   3.696
 7674SOL     OW23920   3.960   6.515   4.554
 7674SOL    HW123921   3.990   6.434   4.604
 7674SOL    HW223922   3.880   6.493   4.499
 7675SOL     OW23923   4.004   6.948   2.603
 7675SOL    HW123924   3.998   6.923   2.507
 7675SOL    HW223925   4.098   6.932   2.636
 7676SOL     OW23926   2.958   2.894   5.390
 7676SOL    HW123927   2.988   2.931   5.477
 7676SOL    HW223928   2.965   2.964   5.319
 7677SOL     OW23929   5.758   4.821   1.557
 7677SOL    HW123930   5.702   4.837   1.638
 7677SOL    HW223931   5.853   4.843   1.577
 7678SOL     OW23932   1.299   1.241   5.300
 7678SOL    HW123933   1.216   1.221   5.352
 7678SOL    HW223934   1.321   1.338   5.306
 7679SOL     OW23935   1.849   5.545   5.192
 7679SOL    HW123936   1.844   5.447   5.176
 7679SOL    HW223937   1.940   5.578   5.167
 7680SOL     OW23938   1.950   0.243   4.995
 7680SOL    HW123939   1.976   0.288   4.909
 7680SOL    HW223940   1.959   0.307   5.071
 7681SOL     OW23941   2.827   3.494   6.510
 7681SOL    HW123942   2.748   3.516   6.568
 7681SOL    HW223943   2.892   3.571   6.513
 7682SOL     OW23944   3.068   1.554   2.467
 7682SOL    HW123945   3.048   1.596   2.378
 7682SOL    HW223946   3.103   1.624   2.529
 7683SOL     OW23947   0.872   0.886   4.537
 7683SOL    HW123948   0.907   0.822   4.469
 7683SOL    HW223949   0.907   0.978   4.518
 7684SOL     OW23950   4.183   2.083   1.556
 7684SOL    HW123951   4.148   2.011   1.496
 7684SOL    HW223952   4.269   2.118   1.519
 7685SOL     OW23953   2.736   0.791   0.135
 7685SOL    HW123954   2.759   0.695   0.152
 7685SOL    HW223955   2.688   0.828   0.214
 7686SOL     OW23956   5.611   0.362   4.147
 7686SOL    HW123957   5.558   0.424   4.205
 7686SOL    HW223958   5.574   0.269   4.155
 7687SOL     OW23959   5.413   5.265   4.958
 7687SOL    HW123960   5.441   5.170   4.953
 7687SOL    HW223961   5.328   5.273   5.010
 7688SOL     OW23962   0.519   4.754   6.636
 7688SOL    HW123963   0.600   4.808   6.616
 7688SOL    HW223964   0.545   4.673   6.689
 7689SOL     OW23965   4.375   0.174   1.919
 7689SOL    HW123966   4.291   0.121   1.930
 7689SOL    HW223967   4.388   0.234   1.997
 7690SOL     OW23968   6.324   5.762   1.055
 7690SOL    HW123969   6.396   5.806   1.108
 7690SOL    HW223970   6.238   5.763   1.106
 7691SOL     OW23971   4.362   4.600   2.676
 7691SOL    HW123972   4.395   4.527   2.616
 7691SOL    HW223973   4.390   4.688   2.640
 7692SOL     OW23974   2.254   6.705   2.184
 7692SOL    HW123975   2.157   6.686   2.169
 7692SOL    HW223976   2.263   6.773   2.257
 7693SOL     OW23977   2.641   1.842   0.850
 7693SOL    HW123978   2.601   1.812   0.936
 7693SOL    HW223979   2.739   1.853   0.861
 7694SOL     OW23980   5.731   2.096   5.247
 7694SOL    HW123981   5.735   2.003   5.283
 7694SOL    HW223982   5.656   2.145   5.290
 7695SOL     OW23983   5.543   0.631   2.714
 7695SOL    HW123984   5.542   0.572   2.633
 7695SOL    HW223985   5.527   0.576   2.796
 7696SOL     OW23986   0.344   2.882   6.443
 7696SOL    HW123987   0.276   2.894   6.515
 7696SOL    HW223988   0.389   2.794   6.454
 7697SOL     OW23989   4.555   6.746   2.646
 7697SOL    HW123990   4.568   6.733   2.745
 7697SOL    HW223991   4.460   6.774   2.629
 7698SOL     OW23992   6.294   2.033   6.850
 7698SOL    HW123993   6.318   2.044   6.754
 7698SOL    HW223994   6.248   1.945   6.863
 7699SOL     OW23995   3.472   5.074   5.420
 7699SOL    HW123996   3.559   5.121   5.404
 7699SOL    HW223997   3.443   5.030   5.335
 7700SOL     OW23998   4.981   5.310   2.671
 7700SOL    HW123999   5.062   5.261   2.638
 7700SOL    HW224000   4.899   5.256   2.652
 7701SOL     OW24001   0.036   2.635   5.949
 7701SOL    HW124002   6.990   2.682   5.892
 7701SOL    HW224003   0.098   2.703   5.988
 7702SOL     OW24004   4.714   0.235   4.970
 7702SOL    HW124005   4.654   0.273   5.040
 7702SOL    HW224006   4.712   0.293   4.889
 7703SOL     OW24007   6.303   6.880   4.944
 7703SOL    HW124008   6.387   6.906   4.896
 7703SOL    HW224009   6.327   6.845   5.035
 7704SOL     OW24010   6.539   1.558   4.568
 7704SOL    HW124011   6.554   1.653   4.598
 7704SOL    HW224012   6.495   1.559   4.478
 7705SOL     OW24013   2.251   5.356   0.673
 7705SOL    HW124014   2.296   5.444   0.656
 7705SOL    HW224015   2.156   5.372   0.701
 7706SOL     OW24016   3.636   2.939   2.127
 7706SOL    HW124017   3.569   2.885   2.178
 7706SOL    HW224018   3.600   3.030   2.110
 7707SOL     OW24019   6.942   5.158   6.826
 7707SOL    HW124020   6.961   5.225   6.898
 7707SOL    HW224021   0.006   5.122   6.791
 7708SOL     OW24022   2.459   6.810   4.862
 7708SOL    HW124023   2.426   6.719   4.834
 7708SOL    HW224024   2.400   6.880   4.823
 7709SOL     OW24025   0.261   5.109   1.939
 7709SOL    HW124026   0.348   5.061   1.950
 7709SOL    HW224027   0.270   5.179   1.868
 7710SOL     OW24028   0.744   3.765   1.459
 7710SOL    HW124029   0.822   3.822   1.435
 7710SOL    HW224030   0.740   3.755   1.559
 7711SOL     OW24031   7.000   5.160   5.032
 7711SOL    HW124032   6.993   5.153   5.132
 7711SOL    HW224033   0.014   5.074   4.996
 7712SOL     OW24034   6.440   4.423   6.163
 7712SOL    HW124035   6.433   4.457   6.257
 7712SOL    HW224036   6.397   4.333   6.157
 7713SOL     OW24037   2.216   4.829   0.184
 7713SOL    HW124038   2.240   4.736   0.213
 7713SOL    HW224039   2.165   4.824   0.098
 7714SOL     OW24040   6.608   0.959   4.924
 7714SOL    HW124041   6.637   0.863   4.919
 7714SOL    HW224042   6.686   1.016   4.950
 7715SOL     OW24043   2.799   2.914   5.766
 7715SOL    HW124044   2.750   2.984   5.715
 7715SOL    HW224045   2.879   2.955   5.810
 7716SOL     OW24046   1.128   5.577   5.575
 7716SOL    HW124047   1.166   5.620   5.493
 7716SOL    HW224048   1.044   5.626   5.602
 7717SOL     OW24049   1.068   1.896   6.770
 7717SOL    HW124050   0.990   1.958   6.771
 7717SOL    HW224051   1.136   1.926   6.837
 7718SOL     OW24052   1.135   3.962   2.670
 7718SOL    HW124053   1.196   4.040   2.654
 7718SOL    HW224054   1.153   3.892   2.601
 7719SOL     OW24055   1.563   3.969   4.852
 7719SOL    HW124056   1.506   3.929   4.780
 7719SOL    HW224057   1.560   4.068   4.845
 7720SOL     OW24058   5.693   1.945   6.793
 7720SOL    HW124059   5.701   1.959   6.892
 7720SOL    HW224060   5.668   1.850   6.775
 7721SOL     OW24061   0.639   0.679   2.415
 7721SOL    HW124062   0.661   0.728   2.499
 7721SOL    HW224063   0.569   0.731   2.364
 7722SOL     OW24064   2.637   5.712   3.229
 7722SOL    HW124065   2.614   5.804   3.262
 7722SOL    HW224066   2.713   5.675   3.283
 7723SOL     OW24067   5.289   4.339   0.622
 7723SOL    HW124068   5.368   4.284   0.594
 7723SOL    HW224069   5.207   4.305   0.577
 7724SOL     OW24070   2.207   4.095   2.051
 7724SOL    HW124071   2.202   4.012   2.107
 7724SOL    HW224072   2.132   4.156   2.075
 7725SOL     OW24073   5.647   3.226   3.377
 7725SOL    HW124074   5.638   3.205   3.474
 7725SOL    HW224075   5.559   3.258   3.341
 7726SOL     OW24076   0.147   2.957   6.257
 7726SOL    HW124077   0.237   2.939   6.296
 7726SOL    HW224078   0.139   3.054   6.234
 7727SOL     OW24079   5.469   2.184   2.388
 7727SOL    HW124080   5.537   2.131   2.439
 7727SOL    HW224081   5.477   2.162   2.290
 7728SOL     OW24082   2.118   3.378   4.520
 7728SOL    HW124083   2.027   3.413   4.499
 7728SOL    HW224084   2.156   3.428   4.598
 7729SOL     OW24085   6.555   2.180   4.259
 7729SOL    HW124086   6.645   2.172   4.302
 7729SOL    HW224087   6.550   2.117   4.182
 7730SOL     OW24088   6.577   4.277   5.043
 7730SOL    HW124089   6.552   4.280   5.139
 7730SOL    HW224090   6.652   4.212   5.030
 7731SOL     OW24091   6.212   0.142   6.929
 7731SOL    HW124092   6.187   0.207   6.857
 7731SOL    HW224093   6.260   0.190   7.002
 7732SOL     OW24094   4.385   0.264   6.536
 7732SOL    HW124095   4.290   0.234   6.530
 7732SOL    HW224096   4.442   0.208   6.476
 7733SOL     OW24097   6.376   5.852   2.095
 7733SOL    HW124098   6.338   5.763   2.067
 7733SOL    HW224099   6.473   5.841   2.116
 7734SOL     OW24100   3.292   3.897   5.268
 7734SOL    HW124101   3.285   3.986   5.312
 7734SOL    HW224102   3.375   3.850   5.300
 7735SOL     OW24103   6.819   5.993   0.768
 7735SOL    HW124104   6.917   5.988   0.753
 7735SOL    HW224105   6.798   5.967   0.862
 7736SOL     OW24106   3.109   3.304   0.742
 7736SOL    HW124107   3.123   3.314   0.643
 7736SOL    HW224108   3.066   3.216   0.761
 7737SOL     OW24109   3.950   4.500   1.276
 7737SOL    HW124110   4.034   4.534   1.318
 7737SOL    HW224111   3.886   4.576   1.263
 7738SOL     OW24112   2.419   6.246   6.804
 7738SOL    HW124113   2.454   6.253   6.710
 7738SOL    HW224114   2.320   6.237   6.802
 7739SOL     OW24115   1.059   2.117   0.405
 7739SOL    HW124116   1.009   2.202   0.422
 7739SOL    HW224117   1.013   2.065   0.333
 7740SOL     OW24118   1.614   0.819   4.430
 7740SOL    HW124119   1.533   0.799   4.485
 7740SOL    HW224120   1.674   0.881   4.480
 7741SOL     OW24121   1.611   3.923   6.256
 7741SOL    HW124122   1.698   3.881   6.232
 7741SOL    HW224123   1.620   4.023   6.254
 7742SOL     OW24124   4.256   1.775   3.922
 7742SOL    HW124125   4.221   1.685   3.895
 7742SOL    HW224126   4.184   1.843   3.912
 7743SOL     OW24127   5.119   1.789   5.725
 7743SOL    HW124128   5.174   1.828   5.799
 7743SOL    HW224129   5.025   1.819   5.735
 7744SOL     OW24130   0.623   6.624   4.112
 7744SOL    HW124131   0.673   6.557   4.167
 7744SOL    HW224132   0.568   6.576   4.043
 7745SOL     OW24133   2.206   0.212   1.057
 7745SOL    HW124134   2.258   0.245   1.136
 7745SOL    HW224135   2.268   0.192   0.981
 7746SOL     OW24136   1.457   6.096   0.816
 7746SOL    HW124137   1.522   6.169   0.838
 7746SOL    HW224138   1.473   6.018   0.876
 7747SOL     OW24139   0.977   5.985   0.608
 7747SOL    HW124140   0.980   5.983   0.508
 7747SOL    HW224141   0.899   5.932   0.640
 7748SOL     OW24142   4.238   2.620   5.607
 7748SOL    HW124143   4.204   2.560   5.535
 7748SOL    HW224144   4.228   2.715   5.577
 7749SOL     OW24145   3.462   3.352   4.100
 7749SOL    HW124146   3.430   3.271   4.051
 7749SOL    HW224147   3.391   3.423   4.097
 7750SOL     OW24148   5.556   4.245   5.440
 7750SOL    HW124149   5.637   4.187   5.430
 7750SOL    HW224150   5.478   4.188   5.464
 7751SOL     OW24151   6.677   0.711   4.977
 7751SOL    HW124152   6.763   0.761   4.987
 7751SOL    HW224153   6.695   0.622   4.936
 7752SOL     OW24154   6.227   5.738   5.234
 7752SOL    HW124155   6.175   5.794   5.170
 7752SOL    HW224156   6.318   5.777   5.247
 7753SOL     OW24157   2.167   0.823   4.379
 7753SOL    HW124158   2.127   0.775   4.457
 7753SOL    HW224159   2.131   0.786   4.294
 7754SOL     OW24160   5.898   0.476   1.300
 7754SOL    HW124161   5.823   0.541   1.310
 7754SOL    HW224162   5.875   0.390   1.345
 7755SOL     OW24163   0.725   5.775   5.408
 7755SOL    HW124164   0.807   5.815   5.450
 7755SOL    HW224165   0.681   5.843   5.349
 7756SOL     OW24166   3.516   5.329   2.015
 7756SOL    HW124167   3.462   5.247   1.997
 7756SOL    HW224168   3.595   5.305   2.071
 7757SOL     OW24169   4.719   6.111   5.729
 7757SOL    HW124170   4.713   6.151   5.637
 7757SOL    HW224171   4.815   6.109   5.758
 7758SOL     OW24172   2.669   2.080   5.944
 7758SOL    HW124173   2.743   2.102   5.880
 7758SOL    HW224174   2.581   2.091   5.897
 7759SOL     OW24175   2.030   0.974   3.903
 7759SOL    HW124176   1.961   1.011   3.841
 7759SOL    HW224177   2.015   1.010   3.995
 7760SOL     OW24178   5.180   3.166   2.330
 7760SOL    HW124179   5.126   3.187   2.412
 7760SOL    HW224180   5.233   3.246   2.304
 7761SOL     OW24181   3.099   0.101   6.948
 7761SOL    HW124182   3.127   0.182   6.897
 7761SOL    HW224183   3.149   0.021   6.913
 7762SOL     OW24184   4.047   1.357   6.911
 7762SOL    HW124185   4.027   1.328   6.817
 7762SOL    HW224186   4.093   1.283   6.960
 7763SOL     OW24187   1.736   2.024   0.603
 7763SOL    HW124188   1.644   2.025   0.563
 7763SOL    HW224189   1.804   2.028   0.529
 7764SOL     OW24190   3.653   2.838   2.421
 7764SOL    HW124191   3.615   2.746   2.417
 7764SOL    HW224192   3.703   2.857   2.336
 7765SOL     OW24193   6.531   2.442   2.892
 7765SOL    HW124194   6.480   2.377   2.834
 7765SOL    HW224195   6.509   2.535   2.864
 7766SOL     OW24196   6.219   2.191   0.030
 7766SOL    HW124197   6.130   2.219   7.015
 7766SOL    HW224198   6.275   2.152   6.980
 7767SOL     OW24199   4.303   5.901   4.119
 7767SOL    HW124200   4.398   5.888   4.147
 7767SOL    HW224201   4.280   5.998   4.123
 7768SOL     OW24202   4.076   4.982   1.901
 7768SOL    HW124203   4.022   4.905   1.935
 7768SOL    HW224204   4.116   4.958   1.813
 7769SOL     OW24205   5.545   2.085   0.900
 7769SOL    HW124206   5.631   2.063   0.946
 7769SOL    HW224207   5.508   2.171   0.936
 7770SOL     OW24208   3.191   4.818   1.486
 7770SOL    HW124209   3.093   4.826   1.506
 7770SOL    HW224210   3.241   4.812   1.572
 7771SOL     OW24211   2.799   2.564   6.014
 7771SOL    HW124212   2.759   2.479   6.046
 7771SOL    HW224213   2.859   2.602   6.084
 7772SOL     OW24214   4.674   0.362   4.351
 7772SOL    HW124215   4.701   0.458   4.353
 7772SOL    HW224216   4.650   0.337   4.257
 7773SOL     OW24217   4.296   3.943   6.071
 7773SOL    HW124218   4.237   3.907   5.998
 7773SOL    HW224219   4.304   4.042   6.062
 7774SOL     OW24220   4.929   1.621   6.033
 7774SOL    HW124221   5.006   1.558   6.026
 7774SOL    HW224222   4.915   1.646   6.129
 7775SOL     OW24223   3.480   6.529   1.914
 7775SOL    HW124224   3.512   6.622   1.896
 7775SOL    HW224225   3.433   6.526   2.003
 7776SOL     OW24226   3.663   3.556   6.507
 7776SOL    HW124227   3.598   3.617   6.462
 7776SOL    HW224228   3.699   3.599   6.589
 7777SOL     OW24229   2.296   0.557   6.574
 7777SOL    HW124230   2.313   0.653   6.552
 7777SOL    HW224231   2.262   0.510   6.493
 7778SOL     OW24232   5.201   0.228   0.030
 7778SOL    HW124233   5.209   0.303   6.987
 7778SOL    HW224234   5.108   0.228   0.069
 7779SOL     OW24235   3.945   2.434   0.392
 7779SOL    HW124236   4.006   2.377   0.337
 7779SOL    HW224237   3.859   2.449   0.343
 7780SOL     OW24238   2.009   6.020   4.781
 7780SOL    HW124239   1.937   6.025   4.849
 7780SOL    HW224240   2.056   5.932   4.788
 7781SOL     OW24241   1.670   4.083   5.083
 7781SOL    HW124242   1.616   4.030   5.018
 7781SOL    HW224243   1.725   4.150   5.034
 7782SOL     OW24244   2.264   4.043   6.162
 7782SOL    HW124245   2.269   3.950   6.198
 7782SOL    HW224246   2.229   4.104   6.233
 7783SOL     OW24247   2.722   5.820   6.822
 7783SOL    HW124248   2.666   5.765   6.760
 7783SOL    HW224249   2.695   5.916   6.814
 7784SOL     OW24250   0.331   3.266   6.948
 7784SOL    HW124251   0.389   3.200   6.901
 7784SOL    HW224252   0.376   3.295   0.010
 7785SOL     OW24253   2.342   6.299   4.318
 7785SOL    HW124254   2.430   6.321   4.277
 7785SOL    HW224255   2.318   6.204   4.296
 7786SOL     OW24256   3.175   4.624   5.337
 7786SOL    HW124257   3.118   4.694   5.380
 7786SOL    HW224258   3.120   4.570   5.273
 7787SOL     OW24259   2.199   2.939   5.227
 7787SOL    HW124260   2.168   2.853   5.187
 7787SOL    HW224261   2.283   2.969   5.182
 7788SOL     OW24262   0.282   1.541   1.087
 7788SOL    HW124263   0.224   1.496   1.019
 7788SOL    HW224264   0.375   1.548   1.052
 7789SOL     OW24265   2.651   0.865   1.276
 7789SOL    HW124266   2.743   0.838   1.304
 7789SOL    HW224267   2.617   0.800   1.207
 7790SOL     OW24268   5.249   3.164   2.965
 7790SOL    HW124269   5.277   3.070   2.943
 7790SOL    HW224270   5.261   3.221   2.884
 7791SOL     OW24271   2.044   4.724   4.317
 7791SOL    HW124272   2.065   4.686   4.407
 7791SOL    HW224273   2.056   4.823   4.318
 7792SOL     OW24274   2.701   5.805   6.141
 7792SOL    HW124275   2.608   5.812   6.178
 7792SOL    HW224276   2.748   5.893   6.153
 7793SOL     OW24277   1.261   0.959   6.166
 7793SOL    HW124278   1.294   1.001   6.081
 7793SOL    HW224279   1.329   0.894   6.199
 7794SOL     OW24280   5.316   5.433   4.209
 7794SOL    HW124281   5.235   5.489   4.225
 7794SOL    HW224282   5.319   5.406   4.112
 7795SOL     OW24283   1.986   4.596   5.348
 7795SOL    HW124284   2.003   4.671   5.284
 7795SOL    HW224285   1.983   4.633   5.441
 7796SOL     OW24286   3.664   4.065   3.128
 7796SOL    HW124287   3.723   4.039   3.205
 7796SOL    HW224288   3.651   4.164   3.128
 7797SOL     OW24289   0.118   6.972   3.144
 7797SOL    HW124290   0.111   0.045   3.114
 7797SOL    HW224291   0.076   6.913   3.075
 7798SOL     OW24292   3.215   5.972   0.755
 7798SOL    HW124293   3.193   6.027   0.675
 7798SOL    HW224294   3.231   6.032   0.834
 7799SOL     OW24295   0.017   4.966   1.191
 7799SOL    HW124296   6.955   4.934   1.233
 7799SOL    HW224297   0.019   4.940   1.094
 7800SOL     OW24298   0.178   5.289   2.178
 7800SOL    HW124299   0.274   5.300   2.201
 7800SOL    HW224300   0.169   5.253   2.085
 7801SOL     OW24301   2.722   1.937   0.206
 7801SOL    HW124302   2.721   1.934   0.106
 7801SOL    HW224303   2.814   1.955   0.239
 7802SOL     OW24304   5.134   2.621   1.626
 7802SOL    HW124305   5.139   2.661   1.718
 7802SOL    HW224306   5.203   2.664   1.567
 7803SOL     OW24307   4.135   4.417   5.923
 7803SOL    HW124308   4.165   4.367   5.842
 7803SOL    HW224309   4.093   4.353   5.988
 7804SOL     OW24310   5.245   1.768   5.491
 7804SOL    HW124311   5.195   1.746   5.574
 7804SOL    HW224312   5.258   1.685   5.436
 7805SOL     OW24313   5.440   3.134   2.093
 7805SOL    HW124314   5.419   3.208   2.156
 7805SOL    HW224315   5.490   3.062   2.142
 7806SOL     OW24316   5.939   2.731   5.931
 7806SOL    HW124317   5.874   2.790   5.881
 7806SOL    HW224318   5.888   2.674   5.995
 7807SOL     OW24319   6.837   3.892   6.072
 7807SOL    HW124320   6.833   3.992   6.068
 7807SOL    HW224321   6.930   3.861   6.050
 7808SOL     OW24322   0.963   0.923   4.790
 7808SOL    HW124323   0.934   0.917   4.694
 7808SOL    HW224324   0.961   1.018   4.820
 7809SOL     OW24325   2.753   5.440   4.921
 7809SOL    HW124326   2.780   5.378   4.994
 7809SOL    HW224327   2.832   5.462   4.865
 7810SOL     OW24328   2.820   0.585   5.136
 7810SOL    HW124329   2.801   0.494   5.173
 7810SOL    HW224330   2.862   0.641   5.207
 7811SOL     OW24331   5.477   4.561   3.816
 7811SOL    HW124332   5.491   4.645   3.764
 7811SOL    HW224333   5.398   4.511   3.780
 7812SOL     OW24334   1.868   1.267   3.929
 7812SOL    HW124335   1.835   1.186   3.879
 7812SOL    HW224336   1.791   1.310   3.976
 7813SOL     OW24337   6.297   2.902   6.858
 7813SOL    HW124338   6.226   2.837   6.829
 7813SOL    HW224339   6.376   2.852   6.893
 7814SOL     OW24340   6.919   3.408   3.894
 7814SOL    HW124341   6.944   3.465   3.972
 7814SOL    HW224342   6.819   3.402   3.888
 7815SOL     OW24343   6.327   1.699   6.272
 7815SOL    HW124344   6.401   1.734   6.215
 7815SOL    HW224345   6.259   1.771   6.286
 7816SOL     OW24346   0.662   3.670   5.759
 7816SOL    HW124347   0.715   3.600   5.807
 7816SOL    HW224348   0.594   3.708   5.822
 7817SOL     OW24349   5.463   4.013   4.536
 7817SOL    HW124350   5.541   4.025   4.598
 7817SOL    HW224351   5.404   4.093   4.541
 7818SOL     OW24352   5.836   6.400   1.879
 7818SOL    HW124353   5.931   6.380   1.903
 7818SOL    HW224354   5.818   6.370   1.785
 7819SOL     OW24355   6.825   2.474   1.673
 7819SOL    HW124356   6.845   2.496   1.768
 7819SOL    HW224357   6.909   2.478   1.619
 7820SOL     OW24358   1.676   1.361   6.646
 7820SOL    HW124359   1.622   1.444   6.630
 7820SOL    HW224360   1.617   1.288   6.680
 7821SOL     OW24361   3.413   5.538   1.225
 7821SOL    HW124362   3.445   5.490   1.307
 7821SOL    HW224363   3.423   5.478   1.145
 7822SOL     OW24364   1.048   5.617   5.062
 7822SOL    HW124365   0.977   5.685   5.048
 7822SOL    HW224366   1.055   5.558   4.982
 7823SOL     OW24367   2.113   4.340   5.311
 7823SOL    HW124368   2.077   4.433   5.320
 7823SOL    HW224369   2.213   4.343   5.310
 7824SOL     OW24370   0.547   2.708   5.157
 7824SOL    HW124371   0.452   2.712   5.185
 7824SOL    HW224372   0.601   2.775   5.208
 7825SOL     OW24373   2.558   1.607   6.583
 7825SOL    HW124374   2.611   1.643   6.507
 7825SOL    HW224375   2.478   1.666   6.598
 7826SOL     OW24376   6.775   2.464   6.971
 7826SOL    HW124377   6.738   2.385   6.921
 7826SOL    HW224378   6.725   2.474   0.035
 7827SOL     OW24379   0.273   6.179   4.139
 7827SOL    HW124380   0.334   6.110   4.100
 7827SOL    HW224381   0.179   6.143   4.141
 7828SOL     OW24382   0.522   3.991   6.757
 7828SOL    HW124383   0.532   3.892   6.766
 7828SOL    HW224384   0.536   4.035   6.846
 7829SOL     OW24385   3.363   2.563   1.078
 7829SOL    HW124386   3.282   2.539   1.131
 7829SOL    HW224387   3.359   2.518   0.989
 7830SOL     OW24388   2.845   4.745   4.292
 7830SOL    HW124389   2.933   4.791   4.281
 7830SOL    HW224390   2.799   4.739   4.203
 7831SOL     OW24391   1.938   1.988   0.417
 7831SOL    HW124392   2.018   2.032   0.377
 7831SOL    HW224393   1.902   1.920   0.353
 7832SOL     OW24394   5.694   0.734   4.483
 7832SOL    HW124395   5.689   0.692   4.574
 7832SOL    HW224396   5.751   0.678   4.424
 7833SOL     OW24397   2.096   0.749   4.115
 7833SOL    HW124398   2.147   0.737   4.030
 7833SOL    HW224399   1.998   0.740   4.096
 7834SOL     OW24400   6.370   2.995   4.612
 7834SOL    HW124401   6.356   2.986   4.514
 7834SOL    HW224402   6.295   3.047   4.653
 7835SOL     OW24403   4.327   1.965   4.944
 7835SOL    HW124404   4.335   2.034   4.872
 7835SOL    HW224405   4.385   1.887   4.922
 7836SOL     OW24406   3.715   4.111   5.246
 7836SOL    HW124407   3.725   4.118   5.147
 7836SOL    HW224408   3.648   4.179   5.277
 7837SOL     OW24409   5.964   6.532   6.564
 7837SOL    HW124410   5.927   6.620   6.534
 7837SOL    HW224411   5.939   6.516   6.659
 7838SOL     OW24412   5.457   5.464   1.149
 7838SOL    HW124413   5.521   5.399   1.108
 7838SOL    HW224414   5.507   5.524   1.211
 7839SOL     OW24415   6.176   3.957   4.233
 7839SOL    HW124416   6.224   3.992   4.153
 7839SOL    HW224417   6.183   3.857   4.236
 7840SOL     OW24418   1.963   3.106   3.655
 7840SOL    HW124419   1.994   3.161   3.733
 7840SOL    HW224420   1.903   3.162   3.597
 7841SOL     OW24421   4.875   2.372   5.872
 7841SOL    HW124422   4.897   2.365   5.969
 7841SOL    HW224423   4.793   2.318   5.853
 7842SOL     OW24424   2.125   1.629   2.148
 7842SOL    HW124425   2.201   1.582   2.194
 7842SOL    HW224426   2.039   1.590   2.180
 7843SOL     OW24427   0.531   6.593   3.199
 7843SOL    HW124428   0.454   6.649   3.168
 7843SOL    HW224429   0.522   6.501   3.160
 7844SOL     OW24430   3.612   0.813   2.843
 7844SOL    HW124431   3.565   0.728   2.819
 7844SOL    HW224432   3.555   0.891   2.816
 7845SOL     OW24433   5.900   2.030   1.605
 7845SOL    HW124434   5.857   2.094   1.541
 7845SOL    HW224435   5.937   2.080   1.683
 7846SOL     OW24436   0.603   3.036   0.347
 7846SOL    HW124437   0.692   3.065   0.380
 7846SOL    HW224438   0.581   2.946   0.385
 7847SOL     OW24439   5.612   2.559   4.739
 7847SOL    HW124440   5.562   2.635   4.782
 7847SOL    HW224441   5.546   2.494   4.702
 7848SOL     OW24442   2.905   4.688   0.912
 7848SOL    HW124443   2.992   4.691   0.863
 7848SOL    HW224444   2.922   4.686   1.010
 7849SOL     OW24445   4.819   3.887   6.109
 7849SOL    HW124446   4.914   3.891   6.139
 7849SOL    HW224447   4.758   3.897   6.187
 7850SOL     OW24448   6.573   1.318   3.429
 7850SOL    HW124449   6.645   1.387   3.428
 7850SOL    HW224450   6.496   1.348   3.373
 7851SOL     OW24451   0.694   4.556   2.135
 7851SOL    HW124452   0.677   4.521   2.043
 7851SOL    HW224453   0.659   4.491   2.202
 7852SOL     OW24454   1.814   2.337   6.959
 7852SOL    HW124455   1.793   2.240   6.975
 7852SOL    HW224456   1.883   2.367   0.002
 7853SOL     OW24457   4.163   2.865   1.642
 7853SOL    HW124458   4.090   2.910   1.693
 7853SOL    HW224459   4.249   2.912   1.660
 7854SOL     OW24460   5.245   2.185   6.158
 7854SOL    HW124461   5.288   2.107   6.113
 7854SOL    HW224462   5.187   2.233   6.093
 7855SOL     OW24463   5.268   6.989   4.389
 7855SOL    HW124464   5.256   6.959   4.483
 7855SOL    HW224465   5.178   6.990   4.343
 7856SOL     OW24466   2.073   6.277   4.754
 7856SOL    HW124467   2.098   6.182   4.775
 7856SOL    HW224468   1.996   6.278   4.690
 7857SOL     OW24469   4.979   4.010   0.602
 7857SOL    HW124470   5.072   4.010   0.565
 7857SOL    HW224471   4.961   3.924   0.649
 7858SOL     OW24472   0.450   5.461   5.715
 7858SOL    HW124473   0.525   5.466   5.781
 7858SOL    HW224474   0.473   5.394   5.644
 7859SOL     OW24475   5.006   2.591   0.022
 7859SOL    HW124476   4.993   2.661   6.975
 7859SOL    HW224477   5.068   2.521   7.010
 7860SOL     OW24478   2.536   0.868   4.565
 7860SOL    HW124479   2.469   0.911   4.504
 7860SOL    HW224480   2.581   0.792   4.517
 7861SOL     OW24481   2.551   6.661   1.281
 7861SOL    HW124482   2.588   6.620   1.197
 7861SOL    HW224483   2.596   6.749   1.297
 7862SOL     OW24484   2.780   6.388   0.988
 7862SOL    HW124485   2.868   6.362   0.948
 7862SOL    HW224486   2.729   6.306   1.013
 7863SOL     OW24487   6.881   4.480   3.770
 7863SOL    HW124488   6.898   4.381   3.779
 7863SOL    HW224489   6.805   4.495   3.707
 7864SOL     OW24490   2.675   6.884   5.273
 7864SOL    HW124491   2.730   6.918   5.350
 7864SOL    HW224492   2.657   6.958   5.209
 7865SOL     OW24493   6.083   5.810   3.721
 7865SOL    HW124494   6.047   5.871   3.791
 7865SOL    HW224495   6.156   5.753   3.760
 7866SOL     OW24496   0.965   0.252   6.408
 7866SOL    HW124497   1.055   0.215   6.432
 7866SOL    HW224498   0.955   0.254   6.309
 7867SOL     OW24499   5.399   6.437   3.835
 7867SOL    HW124500   5.355   6.348   3.838
 7867SOL    HW224501   5.466   6.439   3.760
 7868SOL     OW24502   3.464   7.022   1.020
 7868SOL    HW124503   3.395   0.045   1.075
 7868SOL    HW224504   3.517   6.960   1.078
 7869SOL     OW24505   5.323   4.229   6.115
 7869SOL    HW124506   5.318   4.140   6.071
 7869SOL    HW224507   5.322   4.218   6.214
 7870SOL     OW24508   4.923   5.750   5.027
 7870SOL    HW124509   5.005   5.773   4.975
 7870SOL    HW224510   4.924   5.652   5.048
 7871SOL     OW24511   5.071   1.550   1.781
 7871SOL    HW124512   5.039   1.469   1.830
 7871SOL    HW224513   5.011   1.568   1.704
 7872SOL     OW24514   2.105   6.408   2.276
 7872SOL    HW124515   2.006   6.423   2.281
 7872SOL    HW224516   2.124   6.324   2.226
 7873SOL     OW24517   6.465   1.232   0.269
 7873SOL    HW124518   6.486   1.162   0.338
 7873SOL    HW224519   6.367   1.252   0.270
 7874SOL     OW24520   5.306   2.427   0.802
 7874SOL    HW124521   5.262   2.362   0.740
 7874SOL    HW224522   5.396   2.451   0.766
 7875SOL     OW24523   4.788   4.242   6.408
 7875SOL    HW124524   4.823   4.280   6.494
 7875SOL    HW224525   4.857   4.251   6.337
 7876SOL     OW24526   0.882   0.276   2.161
 7876SOL    HW124527   0.819   0.209   2.121
 7876SOL    HW224528   0.901   0.347   2.093
 7877SOL     OW24529   6.804   1.931   3.058
 7877SOL    HW124530   6.819   2.023   3.092
 7877SOL    HW224531   6.888   1.897   3.015
 7878SOL     OW24532   4.451   4.896   3.616
 7878SOL    HW124533   4.384   4.917   3.546
 7878SOL    HW224534   4.489   4.982   3.652
 7879SOL     OW24535   2.560   4.835   3.428
 7879SOL    HW124536   2.610   4.920   3.446
 7879SOL    HW224537   2.554   4.821   3.329
 7880SOL     OW24538   1.285   4.235   1.977
 7880SOL    HW124539   1.311   4.225   1.881
 7880SOL    HW224540   1.366   4.232   2.034
 7881SOL     OW24541   5.168   3.758   3.966
 7881SOL    HW124542   5.198   3.842   4.011
 7881SOL    HW224543   5.068   3.756   3.963
 7882SOL     OW24544   1.672   3.022   0.946
 7882SOL    HW124545   1.734   2.975   1.009
 7882SOL    HW224546   1.724   3.049   0.864
 7883SOL     OW24547   1.066   1.099   5.410
 7883SOL    HW124548   0.992   1.063   5.352
 7883SOL    HW224549   1.133   1.027   5.426
 7884SOL     OW24550   0.596   3.137   4.536
 7884SOL    HW124551   0.576   3.157   4.632
 7884SOL    HW224552   0.521   3.171   4.479
 7885SOL     OW24553   6.047   5.855   0.155
 7885SOL    HW124554   6.144   5.859   0.131
 7885SOL    HW224555   5.999   5.793   0.093
 7886SOL     OW24556   4.787   5.414   0.100
 7886SOL    HW124557   4.769   5.496   0.045
 7886SOL    HW224558   4.868   5.367   0.064
 7887SOL     OW24559   4.963   1.923   0.062
 7887SOL    HW124560   4.926   1.833   0.086
 7887SOL    HW224561   5.051   1.912   0.016
 7888SOL     OW24562   4.679   0.869   4.006
 7888SOL    HW124563   4.713   0.776   3.996
 7888SOL    HW224564   4.592   0.868   4.055
 7889SOL     OW24565   0.592   6.562   2.095
 7889SOL    HW124566   0.631   6.535   2.007
 7889SOL    HW224567   0.497   6.529   2.100
 7890SOL     OW24568   1.336   3.569   2.643
 7890SOL    HW124569   1.406   3.639   2.631
 7890SOL    HW224570   1.376   3.489   2.686
 7891SOL     OW24571   2.042   4.789   2.226
 7891SOL    HW124572   2.073   4.753   2.314
 7891SOL    HW224573   2.100   4.866   2.200
 7892SOL     OW24574   2.117   2.012   6.080
 7892SOL    HW124575   2.050   1.965   6.138
 7892SOL    HW224576   2.071   2.048   5.999
 7893SOL     OW24577   6.167   6.560   1.165
 7893SOL    HW124578   6.245   6.610   1.200
 7893SOL    HW224579   6.086   6.581   1.220
 7894SOL     OW24580   2.778   6.749   1.546
 7894SOL    HW124581   2.748   6.654   1.550
 7894SOL    HW224582   2.872   6.753   1.513
 7895SOL     OW24583   6.867   1.108   4.443
 7895SOL    HW124584   6.954   1.152   4.422
 7895SOL    HW224585   6.792   1.174   4.430
 7896SOL     OW24586   4.858   3.384   5.586
 7896SOL    HW124587   4.797   3.368   5.665
 7896SOL    HW224588   4.803   3.407   5.506
 7897SOL     OW24589   3.086   3.107   6.330
 7897SOL    HW124590   3.065   3.036   6.263
 7897SOL    HW224591   3.027   3.187   6.314
 7898SOL     OW24592   4.058   2.271   3.589
 7898SOL    HW124593   4.001   2.190   3.594
 7898SOL    HW224594   4.063   2.303   3.495
 7899SOL     OW24595   5.385   2.188   2.771
 7899SOL    HW124596   5.294   2.211   2.737
 7899SOL    HW224597   5.405   2.243   2.852
 7900SOL     OW24598   2.003   5.779   0.871
 7900SOL    HW124599   1.924   5.773   0.933
 7900SOL    HW224600   1.975   5.751   0.779
 7901SOL     OW24601   6.351   6.620   6.257
 7901SOL    HW124602   6.355   6.630   6.158
 7901SOL    HW224603   6.444   6.603   6.292
 7902SOL     OW24604   4.283   3.632   7.023
 7902SOL    HW124605   4.262   3.559   6.958
 7902SOL    HW224606   4.373   3.619   0.039
 7903SOL     OW24607   6.579   1.838   0.050
 7903SOL    HW124608   6.598   1.764   7.009
 7903SOL    HW224609   6.510   1.809   0.117
 7904SOL     OW24610   0.063   1.170   2.284
 7904SOL    HW124611   0.090   1.244   2.346
 7904SOL    HW224612   6.987   1.157   2.289
 7905SOL     OW24613   4.134   0.947   1.254
 7905SOL    HW124614   4.217   1.001   1.265
 7905SOL    HW224615   4.055   1.008   1.241
 7906SOL     OW24616   5.807   5.806   6.538
 7906SOL    HW124617   5.791   5.879   6.471
 7906SOL    HW224618   5.719   5.764   6.563
 7907SOL     OW24619   0.236   2.642   2.433
 7907SOL    HW124620   0.327   2.630   2.392
 7907SOL    HW224621   0.242   2.709   2.507
 7908SOL     OW24622   6.623   2.376   4.092
 7908SOL    HW124623   6.613   2.321   4.010
 7908SOL    HW224624   6.594   2.323   4.172
 7909SOL     OW24625   4.854   4.504   4.916
 7909SOL    HW124626   4.949   4.484   4.891
 7909SOL    HW224627   4.800   4.420   4.910
 7910SOL     OW24628   5.519   3.280   5.603
 7910SOL    HW124629   5.459   3.307   5.528
 7910SOL    HW224630   5.544   3.184   5.593
 7911SOL     OW24631   6.024   4.367   0.327
 7911SOL    HW124632   6.077   4.386   0.409
 7911SOL    HW224633   6.021   4.268   0.311
 7912SOL     OW24634   6.302   4.929   6.258
 7912SOL    HW124635   6.376   4.968   6.312
 7912SOL    HW224636   6.283   4.988   6.179
 7913SOL     OW24637   0.124   5.296   6.081
 7913SOL    HW124638   0.168   5.339   6.003
 7913SOL    HW224639   0.163   5.204   6.094
 7914SOL     OW24640   6.084   4.179   1.160
 7914SOL    HW124641   6.128   4.180   1.249
 7914SOL    HW224642   6.044   4.089   1.143
 7915SOL     OW24643   3.551   1.557   3.285
 7915SOL    HW124644   3.487   1.617   3.237
 7915SOL    HW224645   3.641   1.563   3.241
 7916SOL     OW24646   5.288   3.888   5.210
 7916SOL    HW124647   5.284   3.821   5.136
 7916SOL    HW224648   5.282   3.840   5.298
 7917SOL     OW24649   3.668   3.814   4.105
 7917SOL    HW124650   3.667   3.717   4.130
 7917SOL    HW224651   3.614   3.827   4.022
 7918SOL     OW24652   5.818   1.840   2.792
 7918SOL    HW124653   5.914   1.862   2.770
 7918SOL    HW224654   5.777   1.790   2.716
 7919SOL     OW24655   5.343   5.050   2.079
 7919SOL    HW124656   5.387   5.046   2.168
 7919SOL    HW224657   5.284   5.131   2.074
 7920SOL     OW24658   0.576   5.143   1.306
 7920SOL    HW124659   0.581   5.195   1.391
 7920SOL    HW224660   0.499   5.079   1.310
 7921SOL     OW24661   1.954   0.114   1.173
 7921SOL    HW124662   2.021   0.138   1.102
 7921SOL    HW224663   1.990   0.040   1.230
 7922SOL     OW24664   0.880   5.455   6.568
 7922SOL    HW124665   0.946   5.519   6.606
 7922SOL    HW224666   0.841   5.398   6.641
 7923SOL     OW24667   1.234   1.671   3.439
 7923SOL    HW124668   1.227   1.765   3.407
 7923SOL    HW224669   1.324   1.656   3.480
 7924SOL     OW24670   3.106   0.029   4.069
 7924SOL    HW124671   3.118   0.085   4.151
 7924SOL    HW224672   3.008   0.019   4.049
 7925SOL     OW24673   6.356   1.057   5.955
 7925SOL    HW124674   6.275   1.099   5.996
 7925SOL    HW224675   6.349   1.062   5.855
 7926SOL     OW24676   3.920   0.290   1.557
 7926SOL    HW124677   3.924   0.390   1.552
 7926SOL    HW224678   3.951   0.260   1.647
 7927SOL     OW24679   4.704   5.228   4.251
 7927SOL    HW124680   4.647   5.146   4.241
 7927SOL    HW224681   4.671   5.298   4.189
 7928SOL     OW24682   1.529   5.520   1.628
 7928SOL    HW124683   1.606   5.548   1.686
 7928SOL    HW224684   1.536   5.565   1.539
 7929SOL     OW24685   3.649   3.543   4.139
 7929SOL    HW124686   3.682   3.525   4.231
 7929SOL    HW224687   3.575   3.479   4.117
 7930SOL     OW24688   5.193   5.777   3.655
 7930SOL    HW124689   5.115   5.829   3.619
 7930SOL    HW224690   5.273   5.795   3.599
 7931SOL     OW24691   2.497   1.655   0.467
 7931SOL    HW124692   2.580   1.605   0.490
 7931SOL    HW224693   2.448   1.606   0.395
 7932SOL     OW24694   2.321   0.349   0.562
 7932SOL    HW124695   2.232   0.307   0.581
 7932SOL    HW224696   2.390   0.277   0.549
 7933SOL     OW24697   1.563   1.110   6.747
 7933SOL    HW124698   1.579   1.025   6.698
 7933SOL    HW224699   1.627   1.119   6.823
 7934SOL     OW24700   2.704   3.524   6.215
 7934SOL    HW124701   2.718   3.518   6.314
 7934SOL    HW224702   2.748   3.607   6.180
 7935SOL     OW24703   4.358   6.445   1.965
 7935SOL    HW124704   4.355   6.475   1.870
 7935SOL    HW224705   4.425   6.371   1.975
 7936SOL     OW24706   4.196   5.878   3.268
 7936SOL    HW124707   4.180   5.902   3.173
 7936SOL    HW224708   4.293   5.893   3.290
 7937SOL     OW24709   6.382   6.591   5.968
 7937SOL    HW124710   6.446   6.520   5.939
 7937SOL    HW224711   6.288   6.561   5.949
 7938SOL     OW24712   5.142   5.132   4.732
 7938SOL    HW124713   5.078   5.068   4.690
 7938SOL    HW224714   5.236   5.101   4.717
 7939SOL     OW24715   1.209   0.829   5.465
 7939SOL    HW124716   1.278   0.789   5.525
 7939SOL    HW224717   1.144   0.758   5.438
 7940SOL     OW24718   1.983   6.043   0.887
 7940SOL    HW124719   2.005   5.945   0.892
 7940SOL    HW224720   2.040   6.086   0.816
 7941SOL     OW24721   0.316   0.351   1.040
 7941SOL    HW124722   0.267   0.409   1.105
 7941SOL    HW224723   0.297   0.255   1.062
 7942SOL     OW24724   0.039   0.450   1.604
 7942SOL    HW124725   0.112   0.406   1.551
 7942SOL    HW224726   0.078   0.521   1.663
 7943SOL     OW24727   5.089   1.379   1.560
 7943SOL    HW124728   5.147   1.459   1.543
 7943SOL    HW224729   5.146   1.297   1.569
 7944SOL     OW24730   0.869   4.560   1.613
 7944SOL    HW124731   0.874   4.646   1.562
 7944SOL    HW224732   0.959   4.539   1.652
 7945SOL     OW24733   5.349   6.609   2.310
 7945SOL    HW124734   5.283   6.684   2.312
 7945SOL    HW224735   5.310   6.531   2.260
 7946SOL     OW24736   1.574   2.042   5.947
 7946SOL    HW124737   1.559   2.123   5.890
 7946SOL    HW224738   1.514   2.047   6.027
 7947SOL     OW24739   4.281   3.259   6.459
 7947SOL    HW124740   4.369   3.224   6.427
 7947SOL    HW224741   4.263   3.348   6.419
 7948SOL     OW24742   6.957   6.294   0.515
 7948SOL    HW124743   6.980   6.203   0.481
 7948SOL    HW224744   6.862   6.294   0.547
 7949SOL     OW24745   5.485   4.289   3.946
 7949SOL    HW124746   5.523   4.224   3.880
 7949SOL    HW224747   5.485   4.381   3.906
 7950SOL     OW24748   3.735   5.208   4.276
 7950SOL    HW124749   3.692   5.153   4.347
 7950SOL    HW224750   3.772   5.149   4.205
 7951SOL     OW24751   3.335   3.522   0.850
 7951SOL    HW124752   3.303   3.429   0.871
 7951SOL    HW224753   3.284   3.588   0.905
 7952SOL     OW24754   5.565   3.349   1.043
 7952SOL    HW124755   5.498   3.421   1.023
 7952SOL    HW224756   5.594   3.305   0.958
 7953SOL     OW24757   2.191   3.032   3.127
 7953SOL    HW124758   2.219   2.937   3.143
 7953SOL    HW224759   2.199   3.083   3.212
 7954SOL     OW24760   4.033   5.278   5.236
 7954SOL    HW124761   3.995   5.294   5.145
 7954SOL    HW224762   4.053   5.181   5.248
 7955SOL     OW24763   0.834   6.485   6.222
 7955SOL    HW124764   0.786   6.529   6.145
 7955SOL    HW224765   0.884   6.405   6.188
 7956SOL     OW24766   5.985   6.576   4.201
 7956SOL    HW124767   5.934   6.602   4.119
 7956SOL    HW224768   5.984   6.652   4.266
 7957SOL     OW24769   0.923   1.884   1.379
 7957SOL    HW124770   0.838   1.910   1.335
 7957SOL    HW224771   0.922   1.915   1.474
 7958SOL     OW24772   2.909   5.013   2.876
 7958SOL    HW124773   2.951   4.969   2.797
 7958SOL    HW224774   2.815   4.980   2.887
 7959SOL     OW24775   6.015   5.015   0.789
 7959SOL    HW124776   5.966   5.099   0.765
 7959SOL    HW224777   6.004   4.997   0.887
 7960SOL     OW24778   2.591   1.984   1.174
 7960SOL    HW124779   2.566   1.888   1.187
 7960SOL    HW224780   2.632   2.019   1.258
 7961SOL     OW24781   2.053   5.660   6.638
 7961SOL    HW124782   2.016   5.651   6.545
 7961SOL    HW224783   2.114   5.583   6.657
 7962SOL     OW24784   0.964   1.042   2.503
 7962SOL    HW124785   0.900   1.044   2.426
 7962SOL    HW224786   1.052   1.080   2.473
 7963SOL     OW24787   0.746   0.421   5.360
 7963SOL    HW124788   0.771   0.427   5.457
 7963SOL    HW224789   0.731   0.326   5.334
 7964SOL     OW24790   5.746   5.539   4.215
 7964SOL    HW124791   5.828   5.584   4.250
 7964SOL    HW224792   5.773   5.460   4.159
 7965SOL     OW24793   5.377   2.153   0.170
 7965SOL    HW124794   5.456   2.204   0.138
 7965SOL    HW224795   5.405   2.061   0.197
 7966SOL     OW24796   6.842   4.843   3.807
 7966SOL    HW124797   6.855   4.767   3.870
 7966SOL    HW224798   6.861   4.814   3.713
 7967SOL     OW24799   3.079   6.337   2.418
 7967SOL    HW124800   3.092   6.436   2.429
 7967SOL    HW224801   2.981   6.315   2.426
 7968SOL     OW24802   2.127   2.139   2.893
 7968SOL    HW124803   2.030   2.121   2.878
 7968SOL    HW224804   2.144   2.153   2.990
 7969SOL     OW24805   3.216   1.880   3.498
 7969SOL    HW124806   3.248   1.968   3.462
 7969SOL    HW224807   3.283   1.809   3.479
 7970SOL     OW24808   0.638   4.544   3.337
 7970SOL    HW124809   0.585   4.479   3.283
 7970SOL    HW224810   0.576   4.610   3.379
 7971SOL     OW24811   3.150   1.429   1.539
 7971SOL    HW124812   3.196   1.353   1.493
 7971SOL    HW224813   3.059   1.441   1.501
 7972SOL     OW24814   0.364   4.841   1.533
 7972SOL    HW124815   0.288   4.869   1.591
 7972SOL    HW224816   0.367   4.899   1.451
 7973SOL     OW24817   4.819   3.082   3.466
 7973SOL    HW124818   4.842   3.174   3.436
 7973SOL    HW224819   4.818   3.079   3.566
 7974SOL     OW24820   5.220   0.366   4.549
 7974SOL    HW124821   5.272   0.429   4.605
 7974SOL    HW224822   5.124   0.365   4.579
 7975SOL     OW24823   3.268   1.403   4.330
 7975SOL    HW124824   3.304   1.310   4.325
 7975SOL    HW224825   3.168   1.400   4.327
 7976SOL     OW24826   1.064   5.527   6.131
 7976SOL    HW124827   1.048   5.444   6.184
 7976SOL    HW224828   1.161   5.533   6.108
 7977SOL     OW24829   5.508   6.252   1.542
 7977SOL    HW124830   5.488   6.292   1.631
 7977SOL    HW224831   5.438   6.183   1.520
 7978SOL     OW24832   4.653   3.546   5.782
 7978SOL    HW124833   4.715   3.585   5.850
 7978SOL    HW224834   4.604   3.619   5.735
 7979SOL     OW24835   2.900   0.348   4.506
 7979SOL    HW124836   2.862   0.302   4.425
 7979SOL    HW224837   3.000   0.337   4.506
 7980SOL     OW24838   3.489   6.081   0.683
 7980SOL    HW124839   3.580   6.040   0.671
 7980SOL    HW224840   3.423   6.009   0.706
 7981SOL     OW24841   1.075   5.069   2.728
 7981SOL    HW124842   1.033   5.014   2.656
 7981SOL    HW224843   1.031   5.159   2.731
 7982SOL     OW24844   6.431   2.408   0.905
 7982SOL    HW124845   6.398   2.471   0.835
 7982SOL    HW224846   6.355   2.351   0.937
 7983SOL     OW24847   5.274   2.353   2.489
 7983SOL    HW124848   5.290   2.452   2.493
 7983SOL    HW224849   5.360   2.305   2.476
 7984SOL     OW24850   0.394   2.043   2.008
 7984SOL    HW124851   0.371   2.133   1.971
 7984SOL    HW224852   0.335   2.023   2.086
 7985SOL     OW24853   0.379   1.367   2.515
 7985SOL    HW124854   0.428   1.400   2.435
 7985SOL    HW224855   0.280   1.374   2.499
 7986SOL     OW24856   4.120   0.636   6.412
 7986SOL    HW124857   4.154   0.698   6.483
 7986SOL    HW224858   4.023   0.620   6.426
 7987SOL     OW24859   0.846   3.039   4.957
 7987SOL    HW124860   0.804   2.949   4.943
 7987SOL    HW224861   0.881   3.045   5.050
 7988SOL     OW24862   2.701   1.712   4.750
 7988SOL    HW124863   2.634   1.744   4.816
 7988SOL    HW224864   2.780   1.774   4.748
 7989SOL     OW24865   2.822   2.681   5.311
 7989SOL    HW124866   2.838   2.626   5.393
 7989SOL    HW224867   2.855   2.775   5.328
 7990SOL     OW24868   1.244   2.267   5.084
 7990SOL    HW124869   1.212   2.361   5.074
 7990SOL    HW224870   1.186   2.219   5.151
 7991SOL     OW24871   0.638   2.767   6.000
 7991SOL    HW124872   0.674   2.674   6.007
 7991SOL    HW224873   0.571   2.782   6.074
 7992SOL     OW24874   2.596   0.381   0.932
 7992SOL    HW124875   2.642   0.450   0.874
 7992SOL    HW224876   2.582   0.419   1.023
 7993SOL     OW24877   1.903   6.652   7.001
 7993SOL    HW124878   1.835   6.588   6.964
 7993SOL    HW224879   1.886   6.743   6.962
 7994SOL     OW24880   5.456   0.900   3.866
 7994SOL    HW124881   5.552   0.928   3.860
 7994SOL    HW224882   5.398   0.965   3.817
 7995SOL     OW24883   2.938   5.162   3.796
 7995SOL    HW124884   3.018   5.104   3.809
 7995SOL    HW224885   2.857   5.115   3.830
 7996SOL     OW24886   3.943   6.802   5.494
 7996SOL    HW124887   3.997   6.865   5.439
 7996SOL    HW224888   3.984   6.711   5.490
 7997SOL     OW24889   5.787   2.781   1.219
 7997SOL    HW124890   5.745   2.696   1.186
 7997SOL    HW224891   5.883   2.763   1.240
 7998SOL     OW24892   6.146   5.107   7.011
 7998SOL    HW124893   6.182   5.177   0.050
 7998SOL    HW224894   6.221   5.052   6.975
 7999SOL     OW24895   1.411   6.996   5.852
 7999SOL    HW124896   1.337   6.930   5.847
 7999SOL    HW224897   1.450   7.010   5.761
 8000SOL     OW24898   5.937   6.997   5.415
 8000SOL    HW124899   5.866   6.927   5.401
 8000SOL    HW224900   5.926   0.016   5.505
 8001SOL     OW24901   2.019   6.711   1.775
 8001SOL    HW124902   2.102   6.759   1.747
 8001SOL    HW224903   1.953   6.777   1.810
 8002SOL     OW24904   5.945   2.845   4.905
 8002SOL    HW124905   5.994   2.850   4.819
 8002SOL    HW224906   5.891   2.761   4.909
 8003SOL     OW24907   3.321   4.890   3.181
 8003SOL    HW124908   3.359   4.859   3.093
 8003SOL    HW224909   3.233   4.934   3.165
 8004SOL     OW24910   2.174   3.861   2.560
 8004SOL    HW124911   2.087   3.813   2.559
 8004SOL    HW224912   2.213   3.861   2.468
 8005SOL     OW24913   2.953   0.837   1.262
 8005SOL    HW124914   3.030   0.876   1.311
 8005SOL    HW224915   2.975   0.829   1.165
 8006SOL     OW24916   3.187   6.008   1.090
 8006SOL    HW124917   3.106   5.949   1.096
 8006SOL    HW224918   3.163   6.100   1.120
 8007SOL     OW24919   0.246   0.503   4.472
 8007SOL    HW124920   0.180   0.574   4.498
 8007SOL    HW224921   0.245   0.430   4.541
 8008SOL     OW24922   6.252   6.793   0.798
 8008SOL    HW124923   6.253   6.884   0.757
 8008SOL    HW224924   6.157   6.761   0.806
 8009SOL     OW24925   0.060   6.625   4.059
 8009SOL    HW124926   0.147   6.581   4.082
 8009SOL    HW224927   0.031   6.683   4.135
 8010SOL     OW24928   2.432   2.577   6.800
 8010SOL    HW124929   2.473   2.667   6.812
 8010SOL    HW224930   2.335   2.582   6.823
 8011SOL     OW24931   3.221   2.167   0.802
 8011SOL    HW124932   3.290   2.239   0.790
 8011SOL    HW224933   3.132   2.202   0.773
 8012SOL     OW24934   2.884   6.438   1.932
 8012SOL    HW124935   2.899   6.372   1.858
 8012SOL    HW224936   2.882   6.531   1.894
 8013SOL     OW24937   5.760   4.114   4.982
 8013SOL    HW124938   5.841   4.151   5.026
 8013SOL    HW224939   5.785   4.034   4.927
 8014SOL     OW24940   2.320   6.987   0.059
 8014SOL    HW124941   2.261   6.913   0.090
 8014SOL    HW224942   2.348   6.970   6.987
 8015SOL     OW24943   2.512   2.821   0.319
 8015SOL    HW124944   2.533   2.727   0.294
 8015SOL    HW224945   2.499   2.828   0.418
 8016SOL     OW24946   4.243   6.422   6.987
 8016SOL    HW124947   4.228   6.368   0.048
 8016SOL    HW224948   4.328   6.394   6.943
 8017SOL     OW24949   5.957   4.401   4.494
 8017SOL    HW124950   5.920   4.422   4.585
 8017SOL    HW224951   6.034   4.462   4.475
 8018SOL     OW24952   4.980   1.759   5.224
 8018SOL    HW124953   4.889   1.718   5.234
 8018SOL    HW224954   5.047   1.687   5.210
 8019SOL     OW24955   2.645   6.050   0.856
 8019SOL    HW124956   2.745   6.046   0.865
 8019SOL    HW224957   2.614   5.978   0.795
 8020SOL     OW24958   4.904   5.084   0.443
 8020SOL    HW124959   4.989   5.078   0.495
 8020SOL    HW224960   4.902   5.013   0.374
 8021SOL     OW24961   0.728   0.781   0.942
 8021SOL    HW124962   0.647   0.759   0.996
 8021SOL    HW224963   0.700   0.812   0.851
 8022SOL     OW24964   4.338   6.382   3.066
 8022SOL    HW124965   4.300   6.359   3.156
 8022SOL    HW224966   4.318   6.308   3.002
 8023SOL     OW24967   5.652   6.125   2.987
 8023SOL    HW124968   5.706   6.045   2.963
 8023SOL    HW224969   5.576   6.136   2.922
 8024SOL     OW24970   4.885   4.947   5.351
 8024SOL    HW124971   4.952   4.968   5.280
 8024SOL    HW224972   4.895   4.851   5.378
 8025SOL     OW24973   4.003   5.635   6.680
 8025SOL    HW124974   3.973   5.557   6.734
 8025SOL    HW224975   4.098   5.622   6.652
 8026SOL     OW24976   1.460   3.141   0.337
 8026SOL    HW124977   1.551   3.178   0.354
 8026SOL    HW224978   1.404   3.151   0.420
 8027SOL     OW24979   4.684   1.729   5.107
 8027SOL    HW124980   4.680   1.639   5.064
 8027SOL    HW224981   4.600   1.745   5.158
 8028SOL     OW24982   4.909   4.905   6.594
 8028SOL    HW124983   4.884   4.809   6.581
 8028SOL    HW224984   4.880   4.958   6.515
 8029SOL     OW24985   3.735   3.985   0.148
 8029SOL    HW124986   3.834   3.978   0.136
 8029SOL    HW224987   3.714   4.016   0.241
 8030SOL     OW24988   5.694   4.241   6.270
 8030SOL    HW124989   5.792   4.224   6.280
 8030SOL    HW224990   5.643   4.171   6.319
 8031SOL     OW24991   4.004   5.568   1.372
 8031SOL    HW124992   4.018   5.546   1.275
 8031SOL    HW224993   3.912   5.603   1.384
 8032SOL     OW24994   5.425   4.014   5.709
 8032SOL    HW124995   5.389   4.029   5.617
 8032SOL    HW224996   5.525   4.017   5.706
 8033SOL     OW24997   5.884   2.218   0.221
 8033SOL    HW124998   5.839   2.280   0.285
 8033SOL    HW224999   5.923   2.141   0.271
 8034SOL     OW25000   5.405   6.889   4.889
 8034SOL    HW125001   5.430   6.979   4.924
 8034SOL    HW225002   5.488   6.839   4.866
 8035SOL     OW25003   5.718   6.613   6.724
 8035SOL    HW125004   5.711   6.635   6.627
 8035SOL    HW225005   5.647   6.547   6.748
 8036SOL     OW25006   1.782   4.506   1.644
 8036SOL    HW125007   1.716   4.453   1.696
 8036SOL    HW225008   1.874   4.490   1.681
 8037SOL     OW25009   1.525   2.906   1.265
 8037SOL    HW125010   1.560   2.928   1.174
 8037SOL    HW225011   1.445   2.963   1.285
 8038SOL     OW25012   0.106   2.299   3.918
 8038SOL    HW125013   0.038   2.229   3.896
 8038SOL    HW225014   0.103   2.371   3.849
 8039SOL     OW25015   2.251   6.895   3.451
 8039SOL    HW125016   2.289   6.834   3.381
 8039SOL    HW225017   2.206   6.973   3.406
 8040SOL     OW25018   0.196   5.351   1.511
 8040SOL    HW125019   0.126   5.403   1.560
 8040SOL    HW225020   0.153   5.278   1.458
 8041SOL     OW25021   4.444   1.310   0.472
 8041SOL    HW125022   4.359   1.324   0.422
 8041SOL    HW225023   4.462   1.212   0.481
 8042SOL     OW25024   3.400   2.844   2.213
 8042SOL    HW125025   3.351   2.810   2.132
 8042SOL    HW225026   3.334   2.871   2.283
 8043SOL     OW25027   2.269   6.868   1.758
 8043SOL    HW125028   2.339   6.798   1.771
 8043SOL    HW225029   2.293   6.950   1.811
 8044SOL     OW25030   2.883   3.842   1.497
 8044SOL    HW125031   2.860   3.836   1.594
 8044SOL    HW225032   2.865   3.935   1.464
 8045SOL     OW25033   5.191   2.585   3.235
 8045SOL    HW125034   5.214   2.496   3.273
 8045SOL    HW225035   5.094   2.604   3.249
 8046SOL     OW25036   6.168   4.701   5.848
 8046SOL    HW125037   6.130   4.793   5.845
 8046SOL    HW225038   6.250   4.696   5.791
 8047SOL     OW25039   3.766   6.187   4.687
 8047SOL    HW125040   3.790   6.112   4.749
 8047SOL    HW225041   3.844   6.209   4.629
 8048SOL     OW25042   6.353   0.160   5.313
 8048SOL    HW125043   6.392   0.133   5.401
 8048SOL    HW225044   6.372   0.257   5.297
 8049SOL     OW25045   1.434   6.552   0.615
 8049SOL    HW125046   1.509   6.536   0.551
 8049SOL    HW225047   1.399   6.464   0.648
 8050SOL     OW25048   2.151   3.545   1.298
 8050SOL    HW125049   2.121   3.555   1.203
 8050SOL    HW225050   2.073   3.516   1.354
 8051SOL     OW25051   4.709   0.998   3.584
 8051SOL    HW125052   4.627   0.974   3.636
 8051SOL    HW225053   4.717   1.097   3.578
 8052SOL     OW25054   2.804   1.471   3.067
 8052SOL    HW125055   2.822   1.429   3.156
 8052SOL    HW225056   2.847   1.416   2.995
 8053SOL     OW25057   3.852   3.657   2.410
 8053SOL    HW125058   3.764   3.694   2.440
 8053SOL    HW225059   3.838   3.567   2.369
 8054SOL     OW25060   4.222   6.435   4.780
 8054SOL    HW125061   4.222   6.477   4.689
 8054SOL    HW225062   4.226   6.507   4.850
 8055SOL     OW25063   1.585   6.814   5.999
 8055SOL    HW125064   1.617   6.790   5.908
 8055SOL    HW225065   1.518   6.888   5.993
 8056SOL     OW25066   4.064   1.769   2.939
 8056SOL    HW125067   4.144   1.821   2.971
 8056SOL    HW225068   4.073   1.751   2.841
 8057SOL     OW25069   3.260   6.473   3.073
 8057SOL    HW125070   3.271   6.484   3.172
 8057SOL    HW225071   3.338   6.515   3.026
 8058SOL     OW25072   2.946   1.366   1.818
 8058SOL    HW125073   2.952   1.377   1.917
 8058SOL    HW225074   2.989   1.444   1.773
 8059SOL     OW25075   3.199   1.807   4.201
 8059SOL    HW125076   3.276   1.743   4.197
 8059SOL    HW225077   3.219   1.879   4.267
 8060SOL     OW25078   0.147   0.750   4.532
 8060SOL    HW125079   0.122   0.700   4.448
 8060SOL    HW225080   0.217   0.817   4.511
 8061SOL     OW25081   6.921   6.068   2.861
 8061SOL    HW125082   6.840   6.071   2.920
 8061SOL    HW225083   6.899   6.106   2.771
 8062SOL     OW25084   1.856   4.100   3.368
 8062SOL    HW125085   1.921   4.112   3.292
 8062SOL    HW225086   1.874   4.170   3.438
 8063SOL     OW25087   3.808   2.978   6.861
 8063SOL    HW125088   3.854   3.030   6.789
 8063SOL    HW225089   3.854   2.994   6.948
 8064SOL     OW25090   6.812   3.863   0.355
 8064SOL    HW125091   6.732   3.812   0.385
 8064SOL    HW225092   6.832   3.935   0.421
 8065SOL     OW25093   4.920   0.046   4.899
 8065SOL    HW125094   4.977   0.089   4.829
 8065SOL    HW225095   4.841   0.104   4.917
 8066SOL     OW25096   1.636   1.059   1.506
 8066SOL    HW125097   1.724   1.104   1.492
 8066SOL    HW225098   1.592   1.096   1.588
 8067SOL     OW25099   5.080   2.506   2.004
 8067SOL    HW125100   5.023   2.426   1.985
 8067SOL    HW225101   5.140   2.487   2.081
 8068SOL     OW25102   0.994   4.125   5.079
 8068SOL    HW125103   0.904   4.085   5.067
 8068SOL    HW225104   1.044   4.075   5.151
 8069SOL     OW25105   1.281   6.864   1.896
 8069SOL    HW125106   1.299   6.865   1.994
 8069SOL    HW225107   1.308   6.953   1.857
 8070SOL     OW25108   4.287   6.614   1.282
 8070SOL    HW125109   4.376   6.655   1.262
 8070SOL    HW225110   4.281   6.524   1.239
 8071SOL     OW25111   3.514   6.796   6.756
 8071SOL    HW125112   3.598   6.751   6.724
 8071SOL    HW225113   3.444   6.791   6.684
 8072SOL     OW25114   5.061   1.219   0.621
 8072SOL    HW125115   5.079   1.169   0.706
 8072SOL    HW225116   5.145   1.227   0.568
 8073SOL     OW25117   4.250   6.212   5.913
 8073SOL    HW125118   4.281   6.183   5.822
 8073SOL    HW225119   4.228   6.309   5.910
 8074SOL     OW25120   3.771   3.793   6.955
 8074SOL    HW125121   3.767   3.875   7.012
 8074SOL    HW225122   3.849   3.737   6.983
 8075SOL     OW25123   6.808   1.644   2.960
 8075SOL    HW125124   6.743   1.569   2.957
 8075SOL    HW225125   6.901   1.607   2.963
 8076SOL     OW25126   5.929   2.598   5.466
 8076SOL    HW125127   5.983   2.652   5.531
 8076SOL    HW225128   5.967   2.506   5.459
 8077SOL     OW25129   1.443   0.798   1.186
 8077SOL    HW125130   1.494   0.715   1.210
 8077SOL    HW225131   1.349   0.789   1.218
 8078SOL     OW25132   6.217   2.982   0.630
 8078SOL    HW125133   6.167   2.903   0.664
 8078SOL    HW225134   6.193   2.997   0.534
 8079SOL     OW25135   6.980   2.549   2.355
 8079SOL    HW125136   6.961   2.526   2.260
 8079SOL    HW225137   0.053   2.578   2.365
 8080SOL     OW25138   3.482   4.310   0.289
 8080SOL    HW125139   3.528   4.389   0.330
 8080SOL    HW225140   3.536   4.277   0.212
 8081SOL     OW25141   6.089   0.673   5.198
 8081SOL    HW125142   6.028   0.753   5.197
 8081SOL    HW225143   6.063   0.612   5.272
 8082SOL     OW25144   6.982   2.708   3.339
 8082SOL    HW125145   0.058   2.693   3.334
 8082SOL    HW225146   6.961   2.801   3.309
 8083SOL     OW25147   4.477   2.504   3.617
 8083SOL    HW125148   4.539   2.503   3.696
 8083SOL    HW225149   4.388   2.468   3.645
 8084SOL     OW25150   6.795   7.012   1.428
 8084SOL    HW125151   6.834   7.014   1.336
 8084SOL    HW225152   6.806   6.920   1.466
 8085SOL     OW25153   5.614   1.099   0.947
 8085SOL    HW125154   5.642   1.057   1.034
 8085SOL    HW225155   5.539   1.162   0.963
 8086SOL     OW25156   3.671   0.415   5.383
 8086SOL    HW125157   3.710   0.499   5.421
 8086SOL    HW225158   3.630   0.361   5.456
 8087SOL     OW25159   2.937   2.321   1.225
 8087SOL    HW125160   2.911   2.399   1.282
 8087SOL    HW225161   3.017   2.276   1.264
 8088SOL     OW25162   4.418   1.013   2.623
 8088SOL    HW125163   4.406   1.103   2.665
 8088SOL    HW225164   4.331   0.983   2.585
 8089SOL     OW25165   6.012   2.435   0.134
 8089SOL    HW125166   5.950   2.357   0.145
 8089SOL    HW225167   6.065   2.424   0.049
 8090SOL     OW25168   4.155   1.955   5.346
 8090SOL    HW125169   4.212   1.881   5.381
 8090SOL    HW225170   4.209   2.014   5.287
 8091SOL     OW25171   2.806   4.841   5.857
 8091SOL    HW125172   2.850   4.826   5.945
 8091SOL    HW225173   2.816   4.761   5.799
 8092SOL     OW25174   1.175   1.542   4.845
 8092SOL    HW125175   1.212   1.557   4.753
 8092SOL    HW225176   1.238   1.485   4.897
 8093SOL     OW25177   5.635   6.021   1.343
 8093SOL    HW125178   5.601   6.112   1.319
 8093SOL    HW225179   5.735   6.021   1.342
 8094SOL     OW25180   1.103   3.968   5.768
 8094SOL    HW125181   1.073   4.057   5.802
 8094SOL    HW225182   1.089   3.964   5.669
 8095SOL     OW25183   5.572   3.326   4.283
 8095SOL    HW125184   5.586   3.402   4.347
 8095SOL    HW225185   5.650   3.264   4.287
 8096SOL     OW25186   3.596   6.256   1.471
 8096SOL    HW125187   3.564   6.332   1.528
 8096SOL    HW225188   3.651   6.193   1.526
 8097SOL     OW25189   5.075   0.956   3.875
 8097SOL    HW125190   4.988   0.990   3.912
 8097SOL    HW225191   5.127   1.033   3.837
 8098SOL     OW25192   3.181   6.689   3.838
 8098SOL    HW125193   3.082   6.685   3.824
 8098SOL    HW225194   3.206   6.781   3.869
 8099SOL     OW25195   4.372   6.673   5.110
 8099SOL    HW125196   4.420   6.651   5.025
 8099SOL    HW225197   4.423   6.636   5.187
 8100SOL     OW25198   0.251   6.568   0.950
 8100SOL    HW125199   0.324   6.500   0.958
 8100SOL    HW225200   0.236   6.590   0.854
 8101SOL     OW25201   1.982   6.311   3.777
 8101SOL    HW125202   2.037   6.275   3.703
 8101SOL    HW225203   1.986   6.249   3.856
 8102SOL     OW25204   6.702   5.882   5.916
 8102SOL    HW125205   6.707   5.935   5.832
 8102SOL    HW225206   6.658   5.794   5.898
 8103SOL     OW25207   3.170   1.382   2.231
 8103SOL    HW125208   3.151   1.379   2.329
 8103SOL    HW225209   3.264   1.413   2.216
 8104SOL     OW25210   2.685   6.811   6.234
 8104SOL    HW125211   2.601   6.762   6.258
 8104SOL    HW225212   2.755   6.746   6.204
 8105SOL     OW25213   2.558   1.976   3.954
 8105SOL    HW125214   2.545   1.877   3.955
 8105SOL    HW225215   2.532   2.012   3.865
 8106SOL     OW25216   1.637   4.188   4.078
 8106SOL    HW125217   1.559   4.131   4.104
 8106SOL    HW225218   1.715   4.166   4.137
 8107SOL     OW25219   1.845   6.549   5.955
 8107SOL    HW125220   1.762   6.497   5.976
 8107SOL    HW225221   1.829   6.610   5.878
 8108SOL     OW25222   1.015   3.458   4.192
 8108SOL    HW125223   0.972   3.518   4.260
 8108SOL    HW225224   0.958   3.377   4.179
 8109SOL     OW25225   1.811   5.201   4.795
 8109SOL    HW125226   1.813   5.300   4.806
 8109SOL    HW225227   1.748   5.177   4.721
 8110SOL     OW25228   2.336   5.598   0.585
 8110SOL    HW125229   2.287   5.680   0.614
 8110SOL    HW225230   2.395   5.620   0.508
 8111SOL     OW25231   2.574   5.442   4.570
 8111SOL    HW125232   2.587   5.533   4.531
 8111SOL    HW225233   2.663   5.403   4.593
 8112SOL     OW25234   2.176   1.194   4.683
 8112SOL    HW125235   2.183   1.094   4.679
 8112SOL    HW225236   2.190   1.232   4.591
 8113SOL     OW25237   3.613   2.438   6.007
 8113SOL    HW125238   3.637   2.488   6.091
 8113SOL    HW225239   3.519   2.460   5.981
 8114SOL     OW25240   2.200   3.073   1.786
 8114SOL    HW125241   2.156   3.151   1.831
 8114SOL    HW225242   2.198   2.994   1.848
 8115SOL     OW25243   3.574   1.260   0.916
 8115SOL    HW125244   3.491   1.206   0.921
 8115SOL    HW225245   3.552   1.357   0.926
 8116SOL     OW25246   5.754   0.654   5.215
 8116SOL    HW125247   5.661   0.655   5.180
 8116SOL    HW225248   5.755   0.616   5.308
 8117SOL     OW25249   1.677   1.898   5.674
 8117SOL    HW125250   1.722   1.834   5.611
 8117SOL    HW225251   1.586   1.921   5.639
 8118SOL     OW25252   0.706   3.418   4.724
 8118SOL    HW125253   0.789   3.370   4.753
 8118SOL    HW225254   0.632   3.352   4.713
 8119SOL     OW25255   1.001   6.295   2.616
 8119SOL    HW125256   1.069   6.226   2.589
 8119SOL    HW225257   0.933   6.305   2.544
 8120SOL     OW25258   4.395   3.901   1.705
 8120SOL    HW125259   4.309   3.859   1.735
 8120SOL    HW225260   4.381   4.000   1.694
 8121SOL     OW25261   6.033   0.357   2.427
 8121SOL    HW125262   6.003   0.399   2.341
 8121SOL    HW225263   5.955   0.347   2.489
 8122SOL     OW25264   6.803   6.335   2.218
 8122SOL    HW125265   6.836   6.311   2.309
 8122SOL    HW225266   6.777   6.432   2.217
 8123SOL     OW25267   1.510   6.359   0.012
 8123SOL    HW125268   1.517   6.443   0.064
 8123SOL    HW225269   1.563   6.367   6.950
 8124SOL     OW25270   1.148   6.078   1.954
 8124SOL    HW125271   1.190   6.080   1.863
 8124SOL    HW225272   1.216   6.104   2.022
 8125SOL     OW25273   5.695   5.200   3.149
 8125SOL    HW125274   5.708   5.234   3.056
 8125SOL    HW225275   5.772   5.228   3.206
 8126SOL     OW25276   5.438   4.682   2.728
 8126SOL    HW125277   5.434   4.607   2.663
 8126SOL    HW225278   5.365   4.748   2.707
 8127SOL     OW25279   2.115   4.758   6.905
 8127SOL    HW125280   2.140   4.677   6.957
 8127SOL    HW225281   2.194   4.819   6.899
 8128SOL     OW25282   3.833   2.352   5.267
 8128SOL    HW125283   3.897   2.423   5.296
 8128SOL    HW225284   3.862   2.315   5.179
 8129SOL     OW25285   5.169   0.254   6.350
 8129SOL    HW125286   5.269   0.261   6.358
 8129SOL    HW225287   5.128   0.255   6.441
 8130SOL     OW25288   2.241   5.949   0.248
 8130SOL    HW125289   2.322   5.920   0.197
 8130SOL    HW225290   2.188   5.868   0.275
 8131SOL     OW25291   2.371   1.454   0.316
 8131SOL    HW125292   2.281   1.497   0.307
 8131SOL    HW225293   2.366   1.360   0.282
 8132SOL     OW25294   6.333   5.015   4.257
 8132SOL    HW125295   6.408   4.997   4.321
 8132SOL    HW225296   6.367   5.065   4.178
 8133SOL     OW25297   1.650   5.353   2.022
 8133SOL    HW125298   1.628   5.265   2.064
 8133SOL    HW225299   1.732   5.344   1.966
 8134SOL     OW25300   2.200   2.476   3.428
 8134SOL    HW125301   2.215   2.396   3.486
 8134SOL    HW225302   2.241   2.556   3.471
 8135SOL     OW25303   4.043   5.690   2.016
 8135SOL    HW125304   3.980   5.764   1.995
 8135SOL    HW225305   4.040   5.672   2.115
 8136SOL     OW25306   4.461   5.799   1.707
 8136SOL    HW125307   4.532   5.761   1.767
 8136SOL    HW225308   4.470   5.759   1.616
 8137SOL     OW25309   2.227   4.301   5.010
 8137SOL    HW125310   2.146   4.313   4.952
 8137SOL    HW225311   2.251   4.204   5.013
 8138SOL     OW25312   4.786   0.981   3.325
 8138SOL    HW125313   4.740   0.988   3.414
 8138SOL    HW225314   4.724   0.941   3.258
 8139SOL     OW25315   1.424   2.132   3.811
 8139SOL    HW125316   1.391   2.223   3.784
 8139SOL    HW225317   1.360   2.062   3.779
 8140SOL     OW25318   4.460   1.004   0.573
 8140SOL    HW125319   4.402   1.028   0.651
 8140SOL    HW225320   4.430   0.916   0.535
 8141SOL     OW25321   4.858   1.376   4.927
 8141SOL    HW125322   4.912   1.342   4.850
 8141SOL    HW225323   4.915   1.376   5.009
 8142SOL     OW25324   1.978   6.121   0.615
 8142SOL    HW125325   1.913   6.046   0.609
 8142SOL    HW225326   1.939   6.203   0.573
 8143SOL     OW25327   6.181   4.721   0.332
 8143SOL    HW125328   6.268   4.742   0.376
 8143SOL    HW225329   6.112   4.701   0.402
 8144SOL     OW25330   6.745   4.727   6.360
 8144SOL    HW125331   6.732   4.637   6.319
 8144SOL    HW225332   6.753   4.718   6.460
 8145SOL     OW25333   5.001   5.733   6.986
 8145SOL    HW125334   4.908   5.754   7.018
 8145SOL    HW225335   4.997   5.701   6.892
 8146SOL     OW25336   5.931   0.459   4.401
 8146SOL    HW125337   5.917   0.364   4.373
 8146SOL    HW225338   6.027   0.485   4.384
 8147SOL     OW25339   1.773   1.083   5.869
 8147SOL    HW125340   1.826   0.998   5.876
 8147SOL    HW225341   1.683   1.063   5.830
 8148SOL     OW25342   4.195   4.942   0.328
 8148SOL    HW125343   4.222   5.031   0.290
 8148SOL    HW225344   4.127   4.900   0.268
 8149SOL     OW25345   1.028   5.940   4.853
 8149SOL    HW125346   1.112   5.918   4.904
 8149SOL    HW225347   0.974   5.857   4.842
 8150SOL     OW25348   0.514   3.002   1.124
 8150SOL    HW125349   0.601   2.957   1.102
 8150SOL    HW225350   0.499   3.079   1.062
 8151SOL     OW25351   6.020   5.116   3.542
 8151SOL    HW125352   5.944   5.066   3.583
 8151SOL    HW225353   6.008   5.214   3.559
 8152SOL     OW25354   4.619   1.605   3.238
 8152SOL    HW125355   4.679   1.527   3.254
 8152SOL    HW225356   4.674   1.689   3.237
 8153SOL     OW25357   0.454   1.717   3.589
 8153SOL    HW125358   0.404   1.635   3.617
 8153SOL    HW225359   0.389   1.791   3.573
 8154SOL     OW25360   1.973   0.728   3.609
 8154SOL    HW125361   1.902   0.789   3.645
 8154SOL    HW225362   2.057   0.780   3.595
 8155SOL     OW25363   1.383   5.327   2.579
 8155SOL    HW125364   1.438   5.283   2.508
 8155SOL    HW225365   1.330   5.258   2.628
 8156SOL     OW25366   6.391   5.464   1.651
 8156SOL    HW125367   6.366   5.381   1.601
 8156SOL    HW225368   6.309   5.519   1.666
 8157SOL     OW25369   6.890   2.803   5.800
 8157SOL    HW125370   6.796   2.791   5.831
 8157SOL    HW225371   6.913   2.900   5.799
 8158SOL     OW25372   5.423   4.982   6.472
 8158SOL    HW125373   5.396   5.005   6.379
 8158SOL    HW225374   5.389   5.052   6.535
 8159SOL     OW25375   3.356   6.638   5.566
 8159SOL    HW125376   3.388   6.630   5.471
 8159SOL    HW225377   3.276   6.698   5.568
 8160SOL     OW25378   5.208   1.055   3.400
 8160SOL    HW125379   5.214   1.083   3.496
 8160SOL    HW225380   5.154   0.971   3.394
 8161SOL     OW25381   5.781   3.066   1.144
 8161SOL    HW125382   5.804   2.970   1.157
 8161SOL    HW225383   5.695   3.087   1.192
 8162SOL     OW25384   0.450   4.942   6.116
 8162SOL    HW125385   0.531   4.989   6.082
 8162SOL    HW225386   0.476   4.879   6.189
 8163SOL     OW25387   4.661   4.699   5.268
 8163SOL    HW125388   4.742   4.674   5.322
 8163SOL    HW225389   4.690   4.733   5.179
 8164SOL     OW25390   5.127   1.395   0.280
 8164SOL    HW125391   5.059   1.463   0.308
 8164SOL    HW225392   5.193   1.380   0.354
 8165SOL     OW25393   6.884   1.384   6.666
 8165SOL    HW125394   6.980   1.406   6.685
 8165SOL    HW225395   6.838   1.465   6.628
 8166SOL     OW25396   1.632   2.047   4.883
 8166SOL    HW125397   1.594   1.985   4.814
 8166SOL    HW225398   1.595   2.025   4.972
 8167SOL     OW25399   0.460   2.708   4.340
 8167SOL    HW125400   0.452   2.800   4.377
 8167SOL    HW225401   0.378   2.685   4.288
 8168SOL     OW25402   2.604   0.847   2.071
 8168SOL    HW125403   2.648   0.906   2.138
 8168SOL    HW225404   2.531   0.897   2.024
 8169SOL     OW25405   5.109   2.597   0.994
 8169SOL    HW125406   5.173   2.526   1.022
 8169SOL    HW225407   5.110   2.604   0.894
 8170SOL     OW25408   5.913   4.831   2.107
 8170SOL    HW125409   5.921   4.733   2.128
 8170SOL    HW225410   5.975   4.883   2.166
 8171SOL     OW25411   1.645   1.213   0.692
 8171SOL    HW125412   1.590   1.130   0.689
 8171SOL    HW225413   1.672   1.231   0.787
 8172SOL     OW25414   0.600   2.913   1.554
 8172SOL    HW125415   0.664   2.980   1.591
 8172SOL    HW225416   0.650   2.842   1.504
 8173SOL     OW25417   5.652   1.152   2.186
 8173SOL    HW125418   5.581   1.117   2.247
 8173SOL    HW225419   5.741   1.147   2.231
 8174SOL     OW25420   2.335   5.211   2.581
 8174SOL    HW125421   2.352   5.117   2.608
 8174SOL    HW225422   2.407   5.243   2.519
 8175SOL     OW25423   0.844   1.481   4.770
 8175SOL    HW125424   0.745   1.494   4.767
 8175SOL    HW225425   0.886   1.557   4.820
 8176SOL     OW25426   2.258   3.918   0.771
 8176SOL    HW125427   2.255   3.967   0.858
 8176SOL    HW225428   2.337   3.857   0.769
 8177SOL     OW25429   3.867   1.208   2.889
 8177SOL    HW125430   3.964   1.209   2.866
 8177SOL    HW225431   3.836   1.301   2.909
 8178SOL     OW25432   2.059   6.649   1.126
 8178SOL    HW125433   2.020   6.559   1.108
 8178SOL    HW225434   1.986   6.715   1.140
 8179SOL     OW25435   5.636   1.150   3.575
 8179SOL    HW125436   5.704   1.142   3.648
 8179SOL    HW225437   5.594   1.061   3.560
 8180SOL     OW25438   4.932   6.173   6.869
 8180SOL    HW125439   5.029   6.153   6.863
 8180SOL    HW225440   4.918   6.267   6.900
 8181SOL     OW25441   0.502   1.047   0.887
 8181SOL    HW125442   0.493   1.094   0.975
 8181SOL    HW225443   0.552   1.105   0.823
 8182SOL     OW25444   2.885   3.560   4.854
 8182SOL    HW125445   2.898   3.587   4.949
 8182SOL    HW225446   2.862   3.463   4.849
 8183SOL     OW25447   0.149   0.047   4.917
 8183SOL    HW125448   0.085   6.992   4.910
 8183SOL    HW225449   0.097   0.130   4.938
 8184SOL     OW25450   0.047   6.187   6.404
 8184SOL    HW125451   7.018   6.111   6.442
 8184SOL    HW225452   0.055   6.260   6.472
 8185SOL     OW25453   1.046   6.769   6.975
 8185SOL    HW125454   1.046   6.707   0.031
 8185SOL    HW225455   0.968   6.748   6.916
 8186SOL     OW25456   1.318   5.523   6.726
 8186SOL    HW125457   1.365   5.459   6.665
 8186SOL    HW225458   1.345   5.616   6.704
 8187SOL     OW25459   0.568   0.684   6.376
 8187SOL    HW125460   0.608   0.616   6.437
 8187SOL    HW225461   0.500   0.641   6.317
 8188SOL     OW25462   2.503   2.071   3.710
 8188SOL    HW125463   2.528   2.167   3.714
 8188SOL    HW225464   2.549   2.028   3.632
 8189SOL     OW25465   5.223   4.454   3.697
 8189SOL    HW125466   5.189   4.418   3.783
 8189SOL    HW225467   5.295   4.394   3.662
 8190SOL     OW25468   6.068   3.461   3.537
 8190SOL    HW125469   6.146   3.435   3.481
 8190SOL    HW225470   6.007   3.519   3.484
 8191SOL     OW25471   3.820   5.145   1.407
 8191SOL    HW125472   3.879   5.065   1.411
 8191SOL    HW225473   3.740   5.125   1.350
 8192SOL     OW25474   1.313   5.223   3.876
 8192SOL    HW125475   1.288   5.126   3.875
 8192SOL    HW225476   1.402   5.234   3.920
 8193SOL     OW25477   0.517   3.727   4.978
 8193SOL    HW125478   0.579   3.753   5.052
 8193SOL    HW225479   0.570   3.708   4.895
 8194SOL     OW25480   4.817   6.453   1.629
 8194SOL    HW125481   4.805   6.548   1.600
 8194SOL    HW225482   4.727   6.411   1.642
 8195SOL     OW25483   5.609   6.491   3.653
 8195SOL    HW125484   5.586   6.504   3.557
 8195SOL    HW225485   5.626   6.581   3.695
 8196SOL     OW25486   4.591   0.270   0.331
 8196SOL    HW125487   4.580   0.200   0.401
 8196SOL    HW225488   4.674   0.322   0.349
 8197SOL     OW25489   4.907   1.764   2.659
 8197SOL    HW125490   4.884   1.760   2.756
 8197SOL    HW225491   4.879   1.679   2.615
 8198SOL     OW25492   2.080   0.596   2.694
 8198SOL    HW125493   2.118   0.539   2.766
 8198SOL    HW225494   2.152   0.618   2.628
 8199SOL     OW25495   5.422   3.017   5.643
 8199SOL    HW125496   5.472   3.018   5.729
 8199SOL    HW225497   5.324   3.019   5.660
 8200SOL     OW25498   4.487   2.657   0.995
 8200SOL    HW125499   4.571   2.660   0.941
 8200SOL    HW225500   4.509   2.637   1.090
 8201SOL     OW25501   6.540   6.881   5.411
 8201SOL    HW125502   6.574   6.801   5.461
 8201SOL    HW225503   6.482   6.936   5.471
 8202SOL     OW25504   0.923   6.552   1.942
 8202SOL    HW125505   0.978   6.618   1.892
 8202SOL    HW225506   0.826   6.567   1.921
 8203SOL     OW25507   1.113   3.325   1.038
 8203SOL    HW125508   1.029   3.355   0.991
 8203SOL    HW225509   1.192   3.341   0.979
 8204SOL     OW25510   4.001   3.224   1.566
 8204SOL    HW125511   4.081   3.269   1.524
 8204SOL    HW225512   3.983   3.265   1.655
 8205SOL     OW25513   1.563   3.661   0.918
 8205SOL    HW125514   1.619   3.741   0.940
 8205SOL    HW225515   1.476   3.692   0.878
 8206SOL     OW25516   4.057   0.976   6.704
 8206SOL    HW125517   4.126   0.904   6.692
 8206SOL    HW225518   4.022   0.973   6.798
 8207SOL     OW25519   3.717   2.868   4.665
 8207SOL    HW125520   3.787   2.937   4.684
 8207SOL    HW225521   3.749   2.779   4.697
 8208SOL     OW25522   1.782   1.185   0.341
 8208SOL    HW125523   1.879   1.167   0.354
 8208SOL    HW225524   1.748   1.245   0.413
 8209SOL     OW25525   6.537   0.893   5.591
 8209SOL    HW125526   6.598   0.818   5.616
 8209SOL    HW225527   6.451   0.856   5.556
 8210SOL     OW25528   1.538   2.816   0.190
 8210SOL    HW125529   1.563   2.849   0.281
 8210SOL    HW225530   1.489   2.729   0.199
 8211SOL     OW25531   2.547   4.498   0.713
 8211SOL    HW125532   2.488   4.426   0.676
 8211SOL    HW225533   2.620   4.518   0.647
 8212SOL     OW25534   1.457   2.338   3.206
 8212SOL    HW125535   1.440   2.383   3.294
 8212SOL    HW225536   1.484   2.243   3.222
 8213SOL     OW25537   0.051   4.971   2.018
 8213SOL    HW125538   7.002   5.041   2.027
 8213SOL    HW225539   0.139   5.016   2.002
 8214SOL     OW25540   5.142   4.085   3.066
 8214SOL    HW125541   5.152   4.098   3.165
 8214SOL    HW225542   5.053   4.042   3.047
 8215SOL     OW25543   3.344   5.014   4.782
 8215SOL    HW125544   3.422   4.953   4.767
 8215SOL    HW225545   3.302   4.994   4.870
 8216SOL     OW25546   4.575   4.478   3.479
 8216SOL    HW125547   4.606   4.573   3.484
 8216SOL    HW225548   4.594   4.432   3.566
 8217SOL     OW25549   2.437   6.636   0.525
 8217SOL    HW125550   2.482   6.574   0.460
 8217SOL    HW225551   2.506   6.686   0.577
 8218SOL     OW25552   0.345   1.425   6.990
 8218SOL    HW125553   0.404   1.495   6.951
 8218SOL    HW225554   0.398   1.342   7.007
 8219SOL     OW25555   5.932   2.121   6.271
 8219SOL    HW125556   5.941   2.065   6.188
 8219SOL    HW225557   5.837   2.119   6.302
 8220SOL     OW25558   3.434   3.627   2.771
 8220SOL    HW125559   3.496   3.690   2.724
 8220SOL    HW225560   3.487   3.563   2.827
 8221SOL     OW25561   5.592   6.178   3.442
 8221SOL    HW125562   5.501   6.218   3.435
 8221SOL    HW225563   5.647   6.231   3.506
 8222SOL     OW25564   6.010   1.586   2.091
 8222SOL    HW125565   6.049   1.572   2.182
 8222SOL    HW225566   6.082   1.575   2.022
 8223SOL     OW25567   0.106   4.390   6.119
 8223SOL    HW125568   0.183   4.406   6.058
 8223SOL    HW225569   0.138   4.344   6.202
 8224SOL     OW25570   1.047   3.128   3.162
 8224SOL    HW125571   1.137   3.085   3.174
 8224SOL    HW225572   0.980   3.083   3.221
 8225SOL     OW25573   4.917   1.451   6.680
 8225SOL    HW125574   4.845   1.462   6.749
 8225SOL    HW225575   5.001   1.493   6.714
 8226SOL     OW25576   5.045   0.761   1.299
 8226SOL    HW125577   4.970   0.710   1.257
 8226SOL    HW225578   5.007   0.832   1.358
 8227SOL     OW25579   6.484   2.880   3.395
 8227SOL    HW125580   6.530   2.900   3.482
 8227SOL    HW225581   6.546   2.827   3.337
 8228SOL     OW25582   6.527   2.653   4.880
 8228SOL    HW125583   6.435   2.693   4.878
 8228SOL    HW225584   6.531   2.577   4.816
 8229SOL     OW25585   3.374   5.581   6.887
 8229SOL    HW125586   3.444   5.603   6.819
 8229SOL    HW225587   3.316   5.662   6.902
 8230SOL     OW25588   5.395   0.286   4.868
 8230SOL    HW125589   5.361   0.246   4.953
 8230SOL    HW225590   5.492   0.308   4.878
 8231SOL     OW25591   5.581   5.497   0.822
 8231SOL    HW125592   5.565   5.593   0.845
 8231SOL    HW225593   5.609   5.447   0.904
 8232SOL     OW25594   3.802   2.065   0.023
 8232SOL    HW125595   3.786   1.967   0.038
 8232SOL    HW225596   3.897   2.079   7.018
 8233SOL     OW25597   1.084   4.903   6.328
 8233SOL    HW125598   0.986   4.919   6.317
 8233SOL    HW225599   1.110   4.822   6.275
 8234SOL     OW25600   2.891   2.671   6.742
 8234SOL    HW125601   2.843   2.756   6.721
 8234SOL    HW225602   2.826   2.596   6.743
 8235SOL     OW25603   3.875   3.856   1.106
 8235SOL    HW125604   3.942   3.903   1.163
 8235SOL    HW225605   3.821   3.793   1.163
 8236SOL     OW25606   6.192   2.878   0.134
 8236SOL    HW125607   6.218   2.785   0.160
 8236SOL    HW225608   6.248   2.908   0.057
 8237SOL     OW25609   3.832   5.681   5.221
 8237SOL    HW125610   3.881   5.674   5.134
 8237SOL    HW225611   3.797   5.774   5.231
 8238SOL     OW25612   2.166   3.579   6.535
 8238SOL    HW125613   2.096   3.612   6.472
 8238SOL    HW225614   2.229   3.519   6.486
 8239SOL     OW25615   7.012   1.526   5.575
 8239SOL    HW125616   0.043   1.590   5.521
 8239SOL    HW225617   6.914   1.546   5.562
 8240SOL     OW25618   3.357   4.139   2.799
 8240SOL    HW125619   3.269   4.148   2.846
 8240SOL    HW225620   3.341   4.127   2.701
 8241SOL     OW25621   3.163   6.973   0.160
 8241SOL    HW125622   3.246   7.009   0.202
 8241SOL    HW225623   3.123   0.020   0.100
 8242SOL     OW25624   1.209   4.512   5.201
 8242SOL    HW125625   1.261   4.583   5.250
 8242SOL    HW225626   1.114   4.515   5.230
 8243SOL     OW25627   0.367   3.098   5.741
 8243SOL    HW125628   0.349   3.195   5.761
 8243SOL    HW225629   0.400   3.053   5.824
 8244SOL     OW25630   0.972   6.374   3.743
 8244SOL    HW125631   1.038   6.300   3.754
 8244SOL    HW225632   1.004   6.454   3.794
 8245SOL     OW25633   4.301   2.062   0.946
 8245SOL    HW125634   4.270   2.132   0.882
 8245SOL    HW225635   4.396   2.080   0.971
 8246SOL     OW25636   6.133   3.404   6.270
 8246SOL    HW125637   6.152   3.437   6.363
 8246SOL    HW225638   6.041   3.364   6.268
 8247SOL     OW25639   0.794   0.169   1.645
 8247SOL    HW125640   0.855   0.109   1.697
 8247SOL    HW225641   0.791   0.259   1.688
 8248SOL     OW25642   5.621   4.058   3.822
 8248SOL    HW125643   5.595   4.021   3.732
 8248SOL    HW225644   5.580   4.003   3.894
 8249SOL     OW25645   1.899   4.666   3.874
 8249SOL    HW125646   1.890   4.568   3.852
 8249SOL    HW225647   1.810   4.701   3.904
 8250SOL     OW25648   3.828   4.054   2.885
 8250SOL    HW125649   3.908   3.996   2.869
 8250SOL    HW225650   3.819   4.071   2.983
 8251SOL     OW25651   5.456   1.497   4.921
 8251SOL    HW125652   5.518   1.424   4.891
 8251SOL    HW225653   5.493   1.541   5.003
 8252SOL     OW25654   2.294   2.863   6.129
 8252SOL    HW125655   2.267   2.781   6.079
 8252SOL    HW225656   2.343   2.925   6.068
 8253SOL     OW25657   3.223   2.903   4.986
 8253SOL    HW125658   3.240   2.854   5.072
 8253SOL    HW225659   3.277   2.860   4.913
 8254SOL     OW25660   4.144   4.726   3.598
 8254SOL    HW125661   4.193   4.699   3.515
 8254SOL    HW225662   4.195   4.695   3.679
 8255SOL     OW25663   4.381   5.692   3.972
 8255SOL    HW125664   4.336   5.777   3.997
 8255SOL    HW225665   4.312   5.626   3.940
 8256SOL     OW25666   5.386   1.034   4.180
 8256SOL    HW125667   5.438   0.964   4.131
 8256SOL    HW225668   5.290   1.007   4.185
 8257SOL     OW25669   5.910   4.836   3.057
 8257SOL    HW125670   5.888   4.892   3.137
 8257SOL    HW225671   5.893   4.889   2.974
 8258SOL     OW25672   3.900   1.453   0.254
 8258SOL    HW125673   3.854   1.504   0.181
 8258SOL    HW225674   3.989   1.494   0.273
 8259SOL     OW25675   3.494   2.064   3.400
 8259SOL    HW125676   3.405   2.106   3.418
 8259SOL    HW225677   3.544   2.056   3.486
 8260SOL     OW25678   2.741   6.876   1.317
 8260SOL    HW125679   2.769   6.821   1.395
 8260SOL    HW225680   2.819   6.931   1.285
 8261SOL     OW25681   5.560   1.350   1.412
 8261SOL    HW125682   5.616   1.287   1.466
 8261SOL    HW225683   5.482   1.380   1.467
 8262SOL     OW25684   1.154   2.653   1.515
 8262SOL    HW125685   1.195   2.727   1.567
 8262SOL    HW225686   1.119   2.583   1.578
 8263SOL     OW25687   6.512   1.320   1.248
 8263SOL    HW125688   6.610   1.316   1.266
 8263SOL    HW225689   6.469   1.235   1.278
 8264SOL     OW25690   1.511   5.603   2.428
 8264SOL    HW125691   1.448   5.601   2.506
 8264SOL    HW225692   1.567   5.686   2.433
 8265SOL     OW25693   1.653   0.760   2.057
 8265SOL    HW125694   1.708   0.712   1.989
 8265SOL    HW225695   1.711   0.823   2.108
 8266SOL     OW25696   2.801   6.553   2.508
 8266SOL    HW125697   2.792   6.485   2.435
 8266SOL    HW225698   2.738   6.629   2.491
 8267SOL     OW25699   1.588   3.562   1.450
 8267SOL    HW125700   1.573   3.651   1.494
 8267SOL    HW225701   1.686   3.543   1.446
 8268SOL     OW25702   2.299   0.014   5.990
 8268SOL    HW125703   2.252   0.021   5.902
 8268SOL    HW225704   2.398   0.008   5.975
 8269SOL     OW25705   5.356   1.572   1.021
 8269SOL    HW125706   5.390   1.657   1.061
 8269SOL    HW225707   5.262   1.584   0.991
 8270SOL     OW25708   3.550   6.687   3.874
 8270SOL    HW125709   3.566   6.709   3.970
 8270SOL    HW225710   3.462   6.725   3.845
 8271SOL     OW25711   6.819   2.107   2.793
 8271SOL    HW125712   6.802   2.118   2.695
 8271SOL    HW225713   6.738   2.132   2.845
 8272SOL     OW25714   4.298   0.714   2.248
 8272SOL    HW125715   4.391   0.710   2.211
 8272SOL    HW225716   4.277   0.808   2.276
 8273SOL     OW25717   2.060   0.393   1.282
 8273SOL    HW125718   1.984   0.457   1.279
 8273SOL    HW225719   2.045   0.320   1.215
 8274SOL     OW25720   4.682   5.382   2.931
 8274SOL    HW125721   4.625   5.309   2.894
 8274SOL    HW225722   4.716   5.439   2.856
 8275SOL     OW25723   4.900   1.766   6.288
 8275SOL    HW125724   4.948   1.848   6.254
 8275SOL    HW225725   4.811   1.793   6.324
 8276SOL     OW25726   1.276   2.205   4.808
 8276SOL    HW125727   1.289   2.301   4.786
 8276SOL    HW225728   1.234   2.196   4.898
 8277SOL     OW25729   0.016   0.157   6.532
 8277SOL    HW125730   0.059   0.096   6.599
 8277SOL    HW225731   0.082   0.179   6.460
 8278SOL     OW25732   2.398   1.685   0.100
 8278SOL    HW125733   2.381   1.742   0.020
 8278SOL    HW225734   2.364   1.731   0.182
 8279SOL     OW25735   0.788   6.412   4.147
 8279SOL    HW125736   0.788   6.387   4.050
 8279SOL    HW225737   0.873   6.459   4.169
 8280SOL     OW25738   3.181   2.518   6.425
 8280SOL    HW125739   3.233   2.526   6.340
 8280SOL    HW225740   3.240   2.538   6.503
 8281SOL     OW25741   0.583   5.659   1.868
 8281SOL    HW125742   0.661   5.719   1.886
 8281SOL    HW225743   0.521   5.703   1.803
 8282SOL     OW25744   5.049   3.043   6.086
 8282SOL    HW125745   5.014   2.968   6.142
 8282SOL    HW225746   5.146   3.058   6.107
 8283SOL     OW25747   1.334   3.923   6.263
 8283SOL    HW125748   1.432   3.933   6.249
 8283SOL    HW225749   1.286   3.998   6.219
 8284SOL     OW25750   6.867   4.685   2.008
 8284SOL    HW125751   6.869   4.600   2.062
 8284SOL    HW225752   6.876   4.763   2.070
 8285SOL     OW25753   4.043   3.270   4.866
 8285SOL    HW125754   4.060   3.284   4.963
 8285SOL    HW225755   4.110   3.322   4.813
 8286SOL     OW25756   6.525   2.115   5.594
 8286SOL    HW125757   6.528   2.185   5.666
 8286SOL    HW225758   6.564   2.153   5.510
 8287SOL     OW25759   1.011   5.704   4.285
 8287SOL    HW125760   0.913   5.693   4.269
 8287SOL    HW225761   1.031   5.800   4.305
 8288SOL     OW25762   2.201   2.724   2.803
 8288SOL    HW125763   2.210   2.795   2.734
 8288SOL    HW225764   2.273   2.655   2.790
 8289SOL     OW25765   0.956   0.620   0.589
 8289SOL    HW125766   0.961   0.607   0.490
 8289SOL    HW225767   1.044   0.655   0.623
 8290SOL     OW25768   6.325   1.816   0.919
 8290SOL    HW125769   6.301   1.746   0.852
 8290SOL    HW225770   6.290   1.789   1.009
 8291SOL     OW25771   4.259   6.890   6.107
 8291SOL    HW125772   4.237   6.889   6.204
 8291SOL    HW225773   4.291   6.981   6.081
 8292SOL     OW25774   2.688   6.455   0.443
 8292SOL    HW125775   2.715   6.438   0.538
 8292SOL    HW225776   2.760   6.508   0.398
 8293SOL     OW25777   4.421   6.649   5.830
 8293SOL    HW125778   4.444   6.711   5.905
 8293SOL    HW225779   4.329   6.614   5.842
 8294SOL     OW25780   6.198   2.677   6.506
 8294SOL    HW125781   6.127   2.747   6.500
 8294SOL    HW225782   6.279   2.706   6.455
 8295SOL     OW25783   5.724   4.170   1.758
 8295SOL    HW125784   5.625   4.157   1.763
 8295SOL    HW225785   5.752   4.175   1.663
 8296SOL     OW25786   1.421   5.665   6.995
 8296SOL    HW125787   1.458   5.743   0.022
 8296SOL    HW225788   1.420   5.686   6.897
 8297SOL     OW25789   5.992   2.353   3.405
 8297SOL    HW125790   6.065   2.306   3.357
 8297SOL    HW225791   5.999   2.451   3.388
 8298SOL     OW25792   4.636   1.277   1.968
 8298SOL    HW125793   4.694   1.234   2.036
 8298SOL    HW225794   4.630   1.375   1.986
 8299SOL     OW25795   6.919   2.905   2.189
 8299SOL    HW125796   6.914   2.916   2.090
 8299SOL    HW225797   6.861   2.974   2.233
 8300SOL     OW25798   0.941   4.408   5.226
 8300SOL    HW125799   0.952   4.308   5.223
 8300SOL    HW225800   0.915   4.441   5.136
 8301SOL     OW25801   4.490   2.645   1.273
 8301SOL    HW125802   4.519   2.625   1.367
 8301SOL    HW225803   4.443   2.734   1.272
 8302SOL     OW25804   5.902   6.821   6.472
 8302SOL    HW125805   5.966   6.789   6.403
 8302SOL    HW225806   5.873   6.914   6.450
 8303SOL     OW25807   0.655   0.047   4.836
 8303SOL    HW125808   0.659   0.147   4.840
 8303SOL    HW225809   0.687   0.016   4.747
 8304SOL     OW25810   0.570   3.731   6.773
 8304SOL    HW125811   0.519   3.647   6.790
 8304SOL    HW225812   0.619   3.723   6.686
 8305SOL     OW25813   3.229   5.041   4.086
 8305SOL    HW125814   3.321   5.062   4.051
 8305SOL    HW225815   3.189   5.123   4.127
 8306SOL     OW25816   0.704   2.432   5.586
 8306SOL    HW125817   0.753   2.461   5.668
 8306SOL    HW225818   0.757   2.362   5.538
 8307SOL     OW25819   3.272   5.555   0.784
 8307SOL    HW125820   3.188   5.529   0.736
 8307SOL    HW225821   3.249   5.610   0.864
 8308SOL     OW25822   3.776   0.033   1.522
 8308SOL    HW125823   3.843   0.107   1.525
 8308SOL    HW225824   3.684   0.071   1.536
 8309SOL     OW25825   5.915   6.075   2.711
 8309SOL    HW125826   5.835   6.101   2.657
 8309SOL    HW225827   5.905   5.982   2.745
 8310SOL     OW25828   0.794   4.957   0.782
 8310SOL    HW125829   0.764   5.006   0.864
 8310SOL    HW225830   0.716   4.910   0.741
 8311SOL     OW25831   6.574   0.650   6.269
 8311SOL    HW125832   6.538   0.669   6.178
 8311SOL    HW225833   6.502   0.665   6.337
 8312SOL     OW25834   4.792   6.725   1.581
 8312SOL    HW125835   4.786   6.794   1.654
 8312SOL    HW225836   4.876   6.738   1.530
 8313SOL     OW25837   3.450   1.826   2.886
 8313SOL    HW125838   3.545   1.858   2.887
 8313SOL    HW225839   3.424   1.805   2.792
 8314SOL     OW25840   5.763   0.362   1.655
 8314SOL    HW125841   5.828   0.298   1.615
 8314SOL    HW225842   5.811   0.430   1.710
 8315SOL     OW25843   4.824   3.286   0.684
 8315SOL    HW125844   4.841   3.347   0.608
 8315SOL    HW225845   4.859   3.195   0.663
 8316SOL     OW25846   1.034   4.691   0.789
 8316SOL    HW125847   1.131   4.709   0.804
 8316SOL    HW225848   0.994   4.763   0.732
 8317SOL     OW25849   1.754   3.963   2.791
 8317SOL    HW125850   1.794   4.047   2.755
 8317SOL    HW225851   1.656   3.962   2.772
 8318SOL     OW25852   4.030   1.736   4.713
 8318SOL    HW125853   4.010   1.794   4.791
 8318SOL    HW225854   4.111   1.680   4.731
 8319SOL     OW25855   3.559   1.110   5.067
 8319SOL    HW125856   3.502   1.124   5.149
 8319SOL    HW225857   3.609   1.194   5.046
 8320SOL     OW25858   3.006   4.693   1.181
 8320SOL    HW125859   3.089   4.647   1.213
 8320SOL    HW225860   2.964   4.744   1.257
 8321SOL     OW25861   0.460   1.075   0.399
 8321SOL    HW125862   0.444   1.026   0.484
 8321SOL    HW225863   0.435   1.171   0.411
 8322SOL     OW25864   0.076   0.129   0.107
 8322SOL    HW125865   0.050   0.220   0.137
 8322SOL    HW225866   0.117   0.134   0.016
 8323SOL     OW25867   1.094   0.824   2.679
 8323SOL    HW125868   1.016   0.872   2.639
 8323SOL    HW225869   1.069   0.789   2.769
 8324SOL     OW25870   5.975   0.804   2.474
 8324SOL    HW125871   5.998   0.791   2.571
 8324SOL    HW225872   5.882   0.838   2.466
 8325SOL     OW25873   3.900   3.044   3.884
 8325SOL    HW125874   3.826   3.109   3.896
 8325SOL    HW225875   3.919   3.032   3.786
 8326SOL     OW25876   4.161   3.577   5.772
 8326SOL    HW125877   4.250   3.564   5.816
 8326SOL    HW225878   4.171   3.563   5.673
 8327SOL     OW25879   5.474   2.580   6.134
 8327SOL    HW125880   5.464   2.485   6.164
 8327SOL    HW225881   5.486   2.583   6.035
 8328SOL     OW25882   2.414   3.605   6.235
 8328SOL    HW125883   2.366   3.549   6.301
 8328SOL    HW225884   2.505   3.566   6.218
 8329SOL     OW25885   0.195   3.035   5.227
 8329SOL    HW125886   0.217   3.085   5.144
 8329SOL    HW225887   0.227   2.940   5.219
 8330SOL     OW25888   1.704   6.677   0.742
 8330SOL    HW125889   1.791   6.640   0.774
 8330SOL    HW225890   1.636   6.604   0.738
 8331SOL     OW25891   3.167   0.615   1.031
 8331SOL    HW125892   3.118   0.559   1.097
 8331SOL    HW225893   3.207   0.694   1.077
 8332SOL     OW25894   4.832   5.176   1.880
 8332SOL    HW125895   4.877   5.235   1.813
 8332SOL    HW225896   4.740   5.153   1.848
 8333SOL     OW25897   0.410   6.164   0.124
 8333SOL    HW125898   0.429   6.071   0.095
 8333SOL    HW225899   0.496   6.209   0.151
 8334SOL     OW25900   6.111   1.623   3.884
 8334SOL    HW125901   6.053   1.622   3.803
 8334SOL    HW225902   6.055   1.602   3.965
 8335SOL     OW25903   6.011   5.284   5.885
 8335SOL    HW125904   5.934   5.347   5.876
 8335SOL    HW225905   6.066   5.310   5.964
 8336SOL     OW25906   0.407   1.794   2.176
 8336SOL    HW125907   0.433   1.825   2.268
 8336SOL    HW225908   0.404   1.873   2.115
 8337SOL     OW25909   1.177   6.091   2.580
 8337SOL    HW125910   1.235   6.087   2.499
 8337SOL    HW225911   1.223   6.047   2.657
 8338SOL     OW25912   2.058   5.123   1.427
 8338SOL    HW125913   2.050   5.191   1.500
 8338SOL    HW225914   2.133   5.061   1.448
 8339SOL     OW25915   6.044   0.790   2.727
 8339SOL    HW125916   5.965   0.827   2.775
 8339SOL    HW225917   6.105   0.746   2.793
 8340SOL     OW25918   4.906   3.793   0.759
 8340SOL    HW125919   4.826   3.734   0.766
 8340SOL    HW225920   4.898   3.870   0.822
 8341SOL     OW25921   1.684   0.323   1.100
 8341SOL    HW125922   1.736   0.394   1.051
 8341SOL    HW225923   1.648   0.257   1.034
 8342SOL     OW25924   3.713   0.503   0.848
 8342SOL    HW125925   3.744   0.476   0.940
 8342SOL    HW225926   3.690   0.421   0.795
 8343SOL     OW25927   1.540   5.546   6.441
 8343SOL    HW125928   1.587   5.475   6.492
 8343SOL    HW225929   1.513   5.511   6.351
 8344SOL     OW25930   4.505   6.059   5.886
 8344SOL    HW125931   4.593   6.057   5.841
 8344SOL    HW225932   4.503   6.133   5.953
 8345SOL     OW25933   5.953   1.901   3.282
 8345SOL    HW125934   5.943   1.881   3.185
 8345SOL    HW225935   5.863   1.910   3.324
 8346SOL     OW25936   2.499   4.904   0.689
 8346SOL    HW125937   2.594   4.874   0.696
 8346SOL    HW225938   2.478   4.967   0.763
 8347SOL     OW25939   2.767   6.413   4.999
 8347SOL    HW125940   2.855   6.425   4.955
 8347SOL    HW225941   2.749   6.491   5.060
 8348SOL     OW25942   1.126   0.645   1.472
 8348SOL    HW125943   1.210   0.592   1.467
 8348SOL    HW225944   1.047   0.583   1.472
 8349SOL     OW25945   5.792   3.861   0.760
 8349SOL    HW125946   5.726   3.931   0.733
 8349SOL    HW225947   5.746   3.790   0.812
 8350SOL     OW25948   6.343   1.152   5.209
 8350SOL    HW125949   6.359   1.062   5.169
 8350SOL    HW225950   6.404   1.219   5.165
 8351SOL     OW25951   3.294   6.147   4.269
 8351SOL    HW125952   3.258   6.186   4.353
 8351SOL    HW225953   3.218   6.131   4.205
 8352SOL     OW25954   6.690   6.628   2.204
 8352SOL    HW125955   6.664   6.630   2.300
 8352SOL    HW225956   6.609   6.641   2.147
 8353SOL     OW25957   6.307   3.652   2.523
 8353SOL    HW125958   6.213   3.686   2.517
 8353SOL    HW225959   6.326   3.596   2.443
 8354SOL     OW25960   2.808   1.676   6.714
 8354SOL    HW125961   2.754   1.709   6.636
 8354SOL    HW225962   2.759   1.602   6.760
 8355SOL     OW25963   3.119   0.541   0.475
 8355SOL    HW125964   3.127   0.630   0.431
 8355SOL    HW225965   3.103   0.554   0.573
 8356SOL     OW25966   1.107   6.002   0.061
 8356SOL    HW125967   1.176   5.972   0.128
 8356SOL    HW225968   1.053   6.077   0.101
 8357SOL     OW25969   3.368   5.486   4.834
 8357SOL    HW125970   3.333   5.456   4.923
 8357SOL    HW225971   3.382   5.405   4.776
 8358SOL     OW25972   1.756   2.157   5.690
 8358SOL    HW125973   1.836   2.147   5.749
 8358SOL    HW225974   1.720   2.067   5.667
 8359SOL     OW25975   4.357   5.241   4.175
 8359SOL    HW125976   4.270   5.193   4.185
 8359SOL    HW225977   4.353   5.329   4.222
 8360SOL     OW25978   4.439   0.295   3.090
 8360SOL    HW125979   4.457   0.204   3.054
 8360SOL    HW225980   4.398   0.352   3.019
 8361SOL     OW25981   1.493   1.297   2.737
 8361SOL    HW125982   1.397   1.327   2.736
 8361SOL    HW225983   1.532   1.312   2.828
 8362SOL     OW25984   2.420   2.828   0.574
 8362SOL    HW125985   2.479   2.789   0.644
 8362SOL    HW225986   2.344   2.876   0.618
 8363SOL     OW25987   1.168   2.707   0.912
 8363SOL    HW125988   1.198   2.631   0.970
 8363SOL    HW225989   1.093   2.677   0.854
 8364SOL     OW25990   6.267   3.596   3.325
 8364SOL    HW125991   6.355   3.603   3.279
 8364SOL    HW225992   6.194   3.622   3.262
 8365SOL     OW25993   1.377   3.514   0.448
 8365SOL    HW125994   1.386   3.490   0.545
 8365SOL    HW225995   1.417   3.604   0.432
 8366SOL     OW25996   4.633   5.876   2.406
 8366SOL    HW125997   4.650   5.897   2.503
 8366SOL    HW225998   4.573   5.796   2.400
 8367SOL     OW25999   4.894   6.292   3.728
 8367SOL    HW126000   4.849   6.306   3.640
 8367SOL    HW226001   4.959   6.366   3.746
 8368SOL     OW26002   2.743   5.321   5.896
 8368SOL    HW126003   2.654   5.366   5.893
 8368SOL    HW226004   2.745   5.246   5.830
 8369SOL     OW26005   2.084   0.967   0.258
 8369SOL    HW126006   2.042   0.914   0.332
 8369SOL    HW226007   2.182   0.949   0.256
 8370SOL     OW26008   1.644   1.958   6.417
 8370SOL    HW126009   1.596   1.881   6.377
 8370SOL    HW226010   1.719   1.924   6.474
 8371SOL     OW26011   1.371   2.958   0.719
 8371SOL    HW126012   1.455   2.907   0.736
 8371SOL    HW226013   1.313   2.957   0.801
 8372SOL     OW26014   0.262   0.174   2.356
 8372SOL    HW126015   0.195   0.130   2.295
 8372SOL    HW226016   0.354   0.159   2.321
 8373SOL     OW26017   0.985   6.586   5.941
 8373SOL    HW126018   1.022   6.610   5.852
 8373SOL    HW226019   0.892   6.623   5.950
 8374SOL     OW26020   6.717   0.948   0.104
 8374SOL    HW126021   6.682   0.903   0.186
 8374SOL    HW226022   6.803   0.994   0.124
 8375SOL     OW26023   3.190   6.180   5.934
 8375SOL    HW126024   3.098   6.201   5.964
 8375SOL    HW226025   3.201   6.081   5.924
 8376SOL     OW26026   2.967   0.071   3.708
 8376SOL    HW126027   2.913   0.038   3.785
 8376SOL    HW226028   3.065   0.061   3.729
 8377SOL     OW26029   6.135   5.412   1.315
 8377SOL    HW126030   6.043   5.377   1.298
 8377SOL    HW226031   6.130   5.499   1.364
 8378SOL     OW26032   5.307   3.434   2.845
 8378SOL    HW126033   5.339   3.429   2.940
 8378SOL    HW226034   5.285   3.529   2.822
 8379SOL     OW26035   6.565   3.793   1.661
 8379SOL    HW126036   6.475   3.837   1.668
 8379SOL    HW226037   6.635   3.863   1.646
 8380SOL     OW26038   5.903   1.440   2.471
 8380SOL    HW126039   5.924   1.343   2.483
 8380SOL    HW226040   5.947   1.493   2.543
 8381SOL     OW26041   1.417   5.282   4.464
 8381SOL    HW126042   1.408   5.333   4.379
 8381SOL    HW226043   1.329   5.282   4.513
 8382SOL     OW26044   1.421   2.089   2.646
 8382SOL    HW126045   1.373   2.142   2.716
 8382SOL    HW226046   1.443   1.998   2.682
 8383SOL     OW26047   2.673   2.517   6.715
 8383SOL    HW126048   2.586   2.560   6.741
 8383SOL    HW226049   2.690   2.533   6.618
 8384SOL     OW26050   6.966   6.131   1.600
 8384SOL    HW126051   6.911   6.206   1.635
 8384SOL    HW226052   0.037   6.138   1.635
 8385SOL     OW26053   5.057   2.220   2.357
 8385SOL    HW126054   5.097   2.218   2.266
 8385SOL    HW226055   5.125   2.257   2.422
 8386SOL     OW26056   0.695   4.368   2.814
 8386SOL    HW126057   0.709   4.272   2.788
 8386SOL    HW226058   0.619   4.373   2.879
 8387SOL     OW26059   1.108   1.501   1.368
 8387SOL    HW126060   1.124   1.411   1.326
 8387SOL    HW226061   1.091   1.489   1.466
 8388SOL     OW26062   3.151   6.514   1.432
 8388SOL    HW126063   3.056   6.486   1.422
 8388SOL    HW226064   3.199   6.451   1.494
 8389SOL     OW26065   5.128   3.096   2.065
 8389SOL    HW126066   5.223   3.065   2.067
 8389SOL    HW226067   5.097   3.116   2.158
 8390SOL     OW26068   4.643   1.989   5.581
 8390SOL    HW126069   4.663   2.080   5.543
 8390SOL    HW226070   4.612   1.929   5.508
 8391SOL     OW26071   6.561   0.341   0.589
 8391SOL    HW126072   6.546   0.269   0.522
 8391SOL    HW226073   6.474   0.384   0.613
 8392SOL     OW26074   5.998   3.388   4.309
 8392SOL    HW126075   5.934   3.391   4.386
 8392SOL    HW226076   5.947   3.374   4.224
 8393SOL     OW26077   4.764   0.164   1.885
 8393SOL    HW126078   4.727   0.141   1.975
 8393SOL    HW226079   4.688   0.179   1.821
 8394SOL     OW26080   6.064   3.752   2.473
 8394SOL    HW126081   6.010   3.693   2.534
 8394SOL    HW226082   6.026   3.748   2.381
 8395SOL     OW26083   2.159   1.090   5.151
 8395SOL    HW126084   2.154   1.140   5.065
 8395SOL    HW226085   2.127   0.996   5.138
 8396SOL     OW26086   4.623   5.401   4.798
 8396SOL    HW126087   4.722   5.406   4.786
 8396SOL    HW226088   4.593   5.478   4.854
 8397SOL     OW26089   6.307   1.231   3.710
 8397SOL    HW126090   6.398   1.198   3.685
 8397SOL    HW226091   6.315   1.308   3.772
 8398SOL     OW26092   5.214   2.190   5.811
 8398SOL    HW126093   5.157   2.181   5.729
 8398SOL    HW226094   5.191   2.274   5.859
 8399SOL     OW26095   0.361   5.751   0.212
 8399SOL    HW126096   0.268   5.719   0.233
 8399SOL    HW226097   0.405   5.784   0.295
 8400SOL     OW26098   1.365   2.184   4.096
 8400SOL    HW126099   1.365   2.129   4.013
 8400SOL    HW226100   1.341   2.278   4.074
 8401SOL     OW26101   2.756   0.303   5.521
 8401SOL    HW126102   2.756   0.323   5.423
 8401SOL    HW226103   2.719   0.381   5.572
 8402SOL     OW26104   4.660   1.091   5.801
 8402SOL    HW126105   4.671   1.177   5.752
 8402SOL    HW226106   4.587   1.100   5.870
 8403SOL     OW26107   6.183   4.554   4.460
 8403SOL    HW126108   6.212   4.630   4.401
 8403SOL    HW226109   6.217   4.569   4.553
 8404SOL     OW26110   2.163   2.009   6.724
 8404SOL    HW126111   2.163   2.108   6.718
 8404SOL    HW226112   2.178   1.970   6.632
 8405SOL     OW26113   3.834   0.987   5.091
 8405SOL    HW126114   3.911   1.051   5.086
 8405SOL    HW226115   3.753   1.034   5.127
 8406SOL     OW26116   5.278   0.938   6.341
 8406SOL    HW126117   5.352   0.989   6.385
 8406SOL    HW226118   5.190   0.965   6.380
 8407SOL     OW26119   3.537   6.249   3.230
 8407SOL    HW126120   3.546   6.152   3.253
 8407SOL    HW226121   3.474   6.293   3.294
 8408SOL     OW26122   5.231   0.258   1.200
 8408SOL    HW126123   5.143   0.233   1.158
 8408SOL    HW226124   5.214   0.307   1.286
 8409SOL     OW26125   4.377   2.468   1.903
 8409SOL    HW126126   4.353   2.505   1.814
 8409SOL    HW226127   4.441   2.392   1.892
 8410SOL     OW26128   6.599   1.738   1.639
 8410SOL    HW126129   6.634   1.831   1.636
 8410SOL    HW226130   6.676   1.673   1.633
 8411SOL     OW26131   1.231   6.178   0.603
 8411SOL    HW126132   1.313   6.152   0.655
 8411SOL    HW226133   1.152   6.128   0.638
 8412SOL     OW26134   2.817   3.311   0.221
 8412SOL    HW126135   2.894   3.363   0.258
 8412SOL    HW226136   2.852   3.235   0.166
 8413SOL     OW26137   4.046   5.230   5.751
 8413SOL    HW126138   4.131   5.240   5.699
 8413SOL    HW226139   4.033   5.134   5.775
 8414SOL     OW26140   1.241   1.374   2.751
 8414SOL    HW126141   1.191   1.450   2.710
 8414SOL    HW226142   1.176   1.307   2.787
 8415SOL     OW26143   2.813   7.018   4.576
 8415SOL    HW126144   2.849   0.053   4.649
 8415SOL    HW226145   2.715   7.003   4.591
 8416SOL     OW26146   6.449   1.822   4.864
 8416SOL    HW126147   6.457   1.903   4.923
 8416SOL    HW226148   6.403   1.749   4.915
 8417SOL     OW26149   0.887   3.268   4.833
 8417SOL    HW126150   0.952   3.313   4.894
 8417SOL    HW226151   0.839   3.195   4.883
 8418SOL     OW26152   1.139   5.826   2.233
 8418SOL    HW126153   1.220   5.768   2.230
 8418SOL    HW226154   1.057   5.769   2.225
 8419SOL     OW26155   5.207   0.771   4.032
 8419SOL    HW126156   5.304   0.795   4.037
 8419SOL    HW226157   5.157   0.845   3.987
 8420SOL     OW26158   3.334   6.575   2.136
 8420SOL    HW126159   3.369   6.590   2.229
 8420SOL    HW226160   3.252   6.518   2.140
 8421SOL     OW26161   4.261   6.467   6.409
 8421SOL    HW126162   4.277   6.423   6.497
 8421SOL    HW226163   4.178   6.430   6.368
 8422SOL     OW26164   4.431   2.404   2.925
 8422SOL    HW126165   4.526   2.392   2.954
 8422SOL    HW226166   4.372   2.404   3.006
 8423SOL     OW26167   5.535   4.514   5.852
 8423SOL    HW126168   5.474   4.436   5.838
 8423SOL    HW226169   5.593   4.496   5.932
 8424SOL     OW26170   2.094   0.089   3.347
 8424SOL    HW126171   1.997   0.082   3.324
 8424SOL    HW226172   2.149   0.073   3.265
 8425SOL     OW26173   3.157   4.002   3.380
 8425SOL    HW126174   3.179   4.086   3.331
 8425SOL    HW226175   3.234   3.939   3.376
 8426SOL     OW26176   3.870   3.032   1.986
 8426SOL    HW126177   3.915   3.090   2.053
 8426SOL    HW226178   3.794   2.983   2.030
 8427SOL     OW26179   3.086   3.988   3.708
 8427SOL    HW126180   3.074   3.890   3.691
 8427SOL    HW226181   3.072   4.038   3.623
 8428SOL     OW26182   6.944   0.751   0.774
 8428SOL    HW126183   6.991   0.673   0.735
 8428SOL    HW226184   6.926   0.819   0.702
 8429SOL     OW26185   1.719   5.518   6.126
 8429SOL    HW126186   1.704   5.617   6.130
 8429SOL    HW226187   1.781   5.491   6.199
 8430SOL     OW26188   4.292   5.993   4.503
 8430SOL    HW126189   4.301   5.896   4.526
 8430SOL    HW226190   4.271   6.045   4.586
 8431SOL     OW26191   2.926   3.309   6.316
 8431SOL    HW126192   2.846   3.299   6.257
 8431SOL    HW226193   2.903   3.369   6.393
 8432SOL     OW26194   6.454   5.871   6.331
 8432SOL    HW126195   6.404   5.848   6.414
 8432SOL    HW226196   6.461   5.789   6.273
 8433SOL     OW26197   4.773   2.599   0.630
 8433SOL    HW126198   4.714   2.623   0.553
 8433SOL    HW226199   4.751   2.657   0.709
 8434SOL     OW26200   2.209   5.663   5.326
 8434SOL    HW126201   2.292   5.638   5.375
 8434SOL    HW226202   2.227   5.739   5.264
 8435SOL     OW26203   5.122   0.903   2.735
 8435SOL    HW126204   5.058   0.911   2.812
 8435SOL    HW226205   5.078   0.935   2.651
 8436SOL     OW26206   2.478   6.998   3.117
 8436SOL    HW126207   2.487   0.046   3.187
 8436SOL    HW226208   2.401   7.021   3.057
 8437SOL     OW26209   2.301   2.762   2.352
 8437SOL    HW126210   2.345   2.852   2.350
 8437SOL    HW226211   2.226   2.760   2.287
 8438SOL     OW26212   1.562   4.624   3.018
 8438SOL    HW126213   1.551   4.529   3.048
 8438SOL    HW226214   1.503   4.641   2.939
 8439SOL     OW26215   6.128   5.680   3.343
 8439SOL    HW126216   6.039   5.650   3.379
 8439SOL    HW226217   6.115   5.758   3.282
 8440SOL     OW26218   2.041   1.067   3.407
 8440SOL    HW126219   2.117   1.124   3.436
 8440SOL    HW226220   1.989   1.115   3.336
 8441SOL     OW26221   5.686   0.260   5.496
 8441SOL    HW126222   5.740   0.254   5.411
 8441SOL    HW226223   5.609   0.197   5.490
 8442SOL     OW26224   3.823   0.981   5.418
 8442SOL    HW126225   3.907   1.002   5.369
 8442SOL    HW226226   3.776   1.066   5.442
 8443SOL     OW26227   1.447   4.747   3.557
 8443SOL    HW126228   1.473   4.711   3.467
 8443SOL    HW226229   1.512   4.818   3.585
 8444SOL     OW26230   4.711   5.879   3.418
 8444SOL    HW126231   4.683   5.790   3.454
 8444SOL    HW226232   4.734   5.939   3.495
 8445SOL     OW26233   3.279   6.932   6.896
 8445SOL    HW126234   3.350   6.940   6.966
 8445SOL    HW226235   3.251   6.836   6.888
 8446SOL     OW26236   0.583   5.931   5.240
 8446SOL    HW126237   0.570   5.908   5.143
 8446SOL    HW226238   0.568   6.029   5.254
 8447SOL     OW26239   3.699   1.584   2.476
 8447SOL    HW126240   3.603   1.559   2.463
 8447SOL    HW226241   3.707   1.683   2.482
 8448SOL     OW26242   4.918   6.654   3.110
 8448SOL    HW126243   4.965   6.697   3.032
 8448SOL    HW226244   4.905   6.722   3.182
 8449SOL     OW26245   1.878   2.374   3.343
 8449SOL    HW126246   1.935   2.408   3.269
 8449SOL    HW226247   1.930   2.307   3.396
 8450SOL     OW26248   6.759   0.760   6.924
 8450SOL    HW126249   6.743   0.838   6.985
 8450SOL    HW226250   6.786   0.793   6.833
 8451SOL     OW26251   4.669   1.975   1.182
 8451SOL    HW126252   4.645   1.881   1.206
 8451SOL    HW226253   4.760   1.977   1.140
 8452SOL     OW26254   5.168   1.893   5.072
 8452SOL    HW126255   5.144   1.934   4.984
 8452SOL    HW226256   5.085   1.861   5.117
 8453SOL     OW26257   0.648   5.743   6.867
 8453SOL    HW126258   0.687   5.831   6.839
 8453SOL    HW226259   0.570   5.759   6.927
 8454SOL     OW26260   0.916   4.559   0.397
 8454SOL    HW126261   0.988   4.518   0.452
 8454SOL    HW226262   0.829   4.553   0.446
 8455SOL     OW26263   1.348   0.644   2.919
 8455SOL    HW126264   1.299   0.697   2.988
 8455SOL    HW226265   1.290   0.632   2.839
 8456SOL     OW26266   5.484   1.407   3.483
 8456SOL    HW126267   5.413   1.408   3.413
 8456SOL    HW226268   5.493   1.314   3.521
 8457SOL     OW26269   6.319   6.450   4.835
 8457SOL    HW126270   6.317   6.509   4.915
 8457SOL    HW226271   6.361   6.498   4.758
 8458SOL     OW26272   6.432   0.318   6.718
 8458SOL    HW126273   6.437   0.221   6.694
 8458SOL    HW226274   6.437   0.373   6.635
 8459SOL     OW26275   1.546   5.928   3.113
 8459SOL    HW126276   1.549   5.831   3.090
 8459SOL    HW226277   1.629   5.953   3.162
 8460SOL     OW26278   3.205   4.137   5.042
 8460SOL    HW126279   3.179   4.092   4.956
 8460SOL    HW226280   3.123   4.151   5.097
 8461SOL     OW26281   6.648   3.000   4.587
 8461SOL    HW126282   6.658   3.094   4.618
 8461SOL    HW226283   6.557   2.967   4.612
 8462SOL     OW26284   2.524   2.215   1.872
 8462SOL    HW126285   2.580   2.296   1.857
 8462SOL    HW226286   2.433   2.243   1.905
 8463SOL     OW26287   5.726   0.869   2.565
 8463SOL    HW126288   5.730   0.864   2.665
 8463SOL    HW226289   5.644   0.919   2.537
 8464SOL     OW26290   5.820   2.803   4.237
 8464SOL    HW126291   5.824   2.902   4.240
 8464SOL    HW226292   5.784   2.773   4.148
 8465SOL     OW26293   1.440   2.487   0.447
 8465SOL    HW126294   1.496   2.461   0.369
 8465SOL    HW226295   1.403   2.579   0.434
 8466SOL     OW26296   1.247   5.961   3.548
 8466SOL    HW126297   1.194   5.885   3.510
 8466SOL    HW226298   1.273   6.023   3.474
 8467SOL     OW26299   2.946   5.655   1.078
 8467SOL    HW126300   2.903   5.594   1.012
 8467SOL    HW226301   3.040   5.673   1.050
 8468SOL     OW26302   4.660   1.799   6.694
 8468SOL    HW126303   4.600   1.815   6.615
 8468SOL    HW226304   4.689   1.703   6.695
 8469SOL     OW26305   3.343   2.569   6.643
 8469SOL    HW126306   3.403   2.493   6.670
 8469SOL    HW226307   3.357   2.646   6.706
 8470SOL     OW26308   2.987   3.505   6.831
 8470SOL    HW126309   3.030   3.477   6.917
 8470SOL    HW226310   3.041   3.580   6.791
 8471SOL     OW26311   3.618   0.780   3.716
 8471SOL    HW126312   3.590   0.781   3.619
 8471SOL    HW226313   3.592   0.866   3.759
 8472SOL     OW26314   1.390   6.545   4.222
 8472SOL    HW126315   1.367   6.461   4.173
 8472SOL    HW226316   1.465   6.528   4.286
 8473SOL     OW26317   0.165   5.029   6.729
 8473SOL    HW126318   0.137   4.954   6.669
 8473SOL    HW226319   0.263   5.047   6.716
 8474SOL     OW26320   3.214   3.817   1.617
 8474SOL    HW126321   3.167   3.849   1.699
 8474SOL    HW226322   3.162   3.743   1.575
 8475SOL     OW26323   5.991   1.598   2.670
 8475SOL    HW126324   5.993   1.577   2.767
 8475SOL    HW226325   6.032   1.687   2.654
 8476SOL     OW26326   4.480   1.070   2.127
 8476SOL    HW126327   4.436   1.158   2.146
 8476SOL    HW226328   4.485   1.017   2.211
 8477SOL     OW26329   2.597   0.629   1.097
 8477SOL    HW126330   2.531   0.686   1.048
 8477SOL    HW226331   2.685   0.630   1.049
 8478SOL     OW26332   1.376   0.429   5.553
 8478SOL    HW126333   1.363   0.377   5.469
 8478SOL    HW226334   1.459   0.485   5.546
 8479SOL     OW26335   5.879   0.860   0.941
 8479SOL    HW126336   5.908   0.933   0.879
 8479SOL    HW226337   5.812   0.896   1.006
 8480SOL     OW26338   3.323   0.946   1.400
 8480SOL    HW126339   3.418   0.976   1.410
 8480SOL    HW226340   3.313   0.856   1.442
 8481SOL     OW26341   3.521   1.160   4.047
 8481SOL    HW126342   3.561   1.159   4.138
 8481SOL    HW226343   3.461   1.239   4.037
 8482SOL     OW26344   1.480   6.778   2.208
 8482SOL    HW126345   1.490   6.781   2.308
 8482SOL    HW226346   1.452   6.686   2.180
 8483SOL     OW26347   3.811   5.959   0.747
 8483SOL    HW126348   3.907   5.934   0.756
 8483SOL    HW226349   3.764   5.891   0.691
 8484SOL     OW26350   0.653   4.945   4.605
 8484SOL    HW126351   0.564   4.973   4.568
 8484SOL    HW226352   0.666   4.847   4.589
 8485SOL     OW26353   2.100   3.440   6.971
 8485SOL    HW126354   2.092   3.381   6.890
 8485SOL    HW226355   2.197   3.457   6.990
 8486SOL     OW26356   5.454   0.714   2.394
 8486SOL    HW126357   5.526   0.726   2.326
 8486SOL    HW226358   5.375   0.668   2.352
 8487SOL     OW26359   5.097   0.480   1.390
 8487SOL    HW126360   5.010   0.434   1.403
 8487SOL    HW226361   5.081   0.576   1.366
 8488SOL     OW26362   5.023   3.368   4.008
 8488SOL    HW126363   4.946   3.308   4.033
 8488SOL    HW226364   4.993   3.432   3.937
 8489SOL     OW26365   4.917   4.600   1.592
 8489SOL    HW126366   4.948   4.592   1.686
 8489SOL    HW226367   4.987   4.564   1.531
 8490SOL     OW26368   4.275   4.962   3.005
 8490SOL    HW126369   4.196   4.901   3.005
 8490SOL    HW226370   4.355   4.913   2.969
 8491SOL     OW26371   2.232   0.730   2.211
 8491SOL    HW126372   2.150   0.676   2.195
 8491SOL    HW226373   2.310   0.668   2.226
 8492SOL     OW26374   5.837   2.591   4.975
 8492SOL    HW126375   5.776   2.521   4.937
 8492SOL    HW226376   5.811   2.610   5.070
 8493SOL     OW26377   4.283   1.584   6.396
 8493SOL    HW126378   4.379   1.605   6.413
 8493SOL    HW226379   4.275   1.523   6.318
 8494SOL     OW26380   3.343   5.621   6.498
 8494SOL    HW126381   3.298   5.580   6.418
 8494SOL    HW226382   3.274   5.650   6.564
 8495SOL     OW26383   6.949   2.498   1.396
 8495SOL    HW126384   6.996   2.585   1.408
 8495SOL    HW226385   6.863   2.513   1.348
 8496SOL     OW26386   0.248   2.647   3.371
 8496SOL    HW126387   0.297   2.595   3.301
 8496SOL    HW226388   0.308   2.666   3.448
 8497SOL     OW26389   5.735   5.466   3.458
 8497SOL    HW126390   5.794   5.430   3.386
 8497SOL    HW226391   5.784   5.538   3.508
 8498SOL     OW26392   6.995   1.016   1.402
 8498SOL    HW126393   0.028   1.091   1.367
 8498SOL    HW226394   6.946   0.972   1.327
 8499SOL     OW26395   3.438   4.215   5.978
 8499SOL    HW126396   3.406   4.278   5.907
 8499SOL    HW226397   3.460   4.266   6.060
 8500SOL     OW26398   2.647   6.441   6.041
 8500SOL    HW126399   2.673   6.454   5.945
 8500SOL    HW226400   2.557   6.397   6.045
 8501SOL     OW26401   1.780   3.207   6.682
 8501SOL    HW126402   1.767   3.244   6.590
 8501SOL    HW226403   1.691   3.182   6.720
 8502SOL     OW26404   6.814   6.797   1.585
 8502SOL    HW126405   6.803   6.847   1.671
 8502SOL    HW226406   6.885   6.728   1.595
 8503SOL     OW26407   2.725   5.130   3.128
 8503SOL    HW126408   2.803   5.181   3.164
 8503SOL    HW226409   2.715   5.044   3.178
 8504SOL     OW26410   1.139   5.367   3.456
 8504SOL    HW126411   1.060   5.365   3.518
 8504SOL    HW226412   1.176   5.460   3.452
 8505SOL     OW26413   5.137   3.813   3.469
 8505SOL    HW126414   5.048   3.833   3.427
 8505SOL    HW226415   5.198   3.892   3.459
 8506SOL     OW26416   1.663   6.510   0.468
 8506SOL    HW126417   1.702   6.595   0.435
 8506SOL    HW226418   1.736   6.443   0.483
 8507SOL     OW26419   1.534   0.780   5.843
 8507SOL    HW126420   1.438   0.754   5.847
 8507SOL    HW226421   1.584   0.733   5.915
 8508SOL     OW26422   0.181   2.326   5.622
 8508SOL    HW126423   0.116   2.390   5.580
 8508SOL    HW226424   0.274   2.355   5.602
 8509SOL     OW26425   6.283   1.816   4.368
 8509SOL    HW126426   6.204   1.833   4.308
 8509SOL    HW226427   6.322   1.904   4.396
 8510SOL     OW26428   5.577   5.913   2.653
 8510SOL    HW126429   5.558   5.856   2.573
 8510SOL    HW226430   5.593   5.855   2.732
 8511SOL     OW26431   6.562   4.784   1.934
 8511SOL    HW126432   6.614   4.719   1.989
 8511SOL    HW226433   6.487   4.821   1.989
 8512SOL     OW26434   5.152   2.273   0.096
 8512SOL    HW126435   5.085   2.243   0.164
 8512SOL    HW226436   5.244   2.253   0.130
 8513SOL     OW26437   6.466   4.634   1.174
 8513SOL    HW126438   6.532   4.564   1.202
 8513SOL    HW226439   6.373   4.603   1.195
 8514SOL     OW26440   2.764   1.577   5.135
 8514SOL    HW126441   2.817   1.647   5.088
 8514SOL    HW226442   2.683   1.554   5.081
 8515SOL     OW26443   0.895   1.032   0.619
 8515SOL    HW126444   0.817   0.977   0.589
 8515SOL    HW226445   0.916   1.012   0.714
 8516SOL     OW26446   5.963   2.747   2.156
 8516SOL    HW126447   5.996   2.677   2.220
 8516SOL    HW226448   5.914   2.703   2.081
 8517SOL     OW26449   1.542   2.826   5.315
 8517SOL    HW126450   1.628   2.832   5.365
 8517SOL    HW226451   1.522   2.730   5.295
 8518SOL     OW26452   5.552   4.839   6.656
 8518SOL    HW126453   5.516   4.900   6.585
 8518SOL    HW226454   5.610   4.892   6.719
 8519SOL     OW26455   1.368   4.037   0.989
 8519SOL    HW126456   1.417   3.965   1.038
 8519SOL    HW226457   1.413   4.055   0.902
 8520SOL     OW26458   3.743   3.710   4.492
 8520SOL    HW126459   3.798   3.627   4.486
 8520SOL    HW226460   3.786   3.783   4.438
 8521SOL     OW26461   1.581   5.905   5.341
 8521SOL    HW126462   1.493   5.886   5.384
 8521SOL    HW226463   1.636   5.963   5.401
 8522SOL     OW26464   1.575   6.838   0.950
 8522SOL    HW126465   1.478   6.842   0.928
 8522SOL    HW226466   1.627   6.813   0.868
 8523SOL     OW26467   2.768   0.125   6.410
 8523SOL    HW126468   2.861   0.104   6.440
 8523SOL    HW226469   2.722   0.180   6.480
 8524SOL     OW26470   1.655   5.163   4.566
 8524SOL    HW126471   1.572   5.200   4.524
 8524SOL    HW226472   1.734   5.217   4.537
 8525SOL     OW26473   6.671   4.670   1.590
 8525SOL    HW126474   6.755   4.691   1.640
 8525SOL    HW226475   6.638   4.753   1.544
 8526SOL     OW26476   2.574   6.999   0.819
 8526SOL    HW126477   2.587   6.930   0.748
 8526SOL    HW226478   2.636   0.053   0.803
 8527SOL     OW26479   3.459   0.140   6.449
 8527SOL    HW126480   3.394   0.110   6.519
 8527SOL    HW226481   3.413   0.203   6.386
 8528SOL     OW26482   4.849   2.309   0.929
 8528SOL    HW126483   4.917   2.330   0.859
 8528SOL    HW226484   4.763   2.282   0.884
 8529SOL     OW26485   1.195   6.186   6.744
 8529SOL    HW126486   1.266   6.117   6.731
 8529SOL    HW226487   1.223   6.271   6.699
 8530SOL     OW26488   2.907   3.556   4.089
 8530SOL    HW126489   2.913   3.652   4.116
 8530SOL    HW226490   2.892   3.499   4.170
 8531SOL     OW26491   6.804   5.717   3.841
 8531SOL    HW126492   6.830   5.775   3.764
 8531SOL    HW226493   6.774   5.627   3.806
 8532SOL     OW26494   3.562   6.163   4.284
 8532SOL    HW126495   3.564   6.175   4.384
 8532SOL    HW226496   3.467   6.155   4.254
 8533SOL     OW26497   0.961   6.270   6.477
 8533SOL    HW126498   0.959   6.177   6.439
 8533SOL    HW226499   0.998   6.268   6.569
 8534SOL     OW26500   4.225   2.278   4.002
 8534SOL    HW126501   4.254   2.205   4.063
 8534SOL    HW226502   4.128   2.268   3.982
 8535SOL     OW26503   5.817   0.851   3.820
 8535SOL    HW126504   5.801   0.761   3.779
 8535SOL    HW226505   5.891   0.844   3.888
 8536SOL     OW26506   0.328   0.922   4.391
 8536SOL    HW126507   0.394   0.966   4.452
 8536SOL    HW226508   0.377   0.876   4.317
 8537SOL     OW26509   6.897   1.303   3.157
 8537SOL    HW126510   6.919   1.211   3.125
 8537SOL    HW226511   6.927   1.314   3.251
 8538SOL     OW26512   1.163   2.636   0.275
 8538SOL    HW126513   1.152   2.540   0.298
 8538SOL    HW226514   1.237   2.675   0.329
 8539SOL     OW26515   6.470   2.724   2.817
 8539SOL    HW126516   6.494   2.752   2.724
 8539SOL    HW226517   6.371   2.725   2.828
 8540SOL     OW26518   4.415   6.940   6.902
 8540SOL    HW126519   4.348   6.874   6.867
 8540SOL    HW226520   4.507   6.914   6.872
 8541SOL     OW26521   2.186   2.021   3.790
 8541SOL    HW126522   2.247   2.034   3.868
 8541SOL    HW226523   2.221   2.070   3.711
 8542SOL     OW26524   4.156   3.761   6.587
 8542SOL    HW126525   4.133   3.815   6.506
 8542SOL    HW226526   4.102   3.793   6.665
 8543SOL     OW26527   2.349   3.092   6.970
 8543SOL    HW126528   2.420   3.045   7.022
 8543SOL    HW226529   2.362   3.073   6.872
 8544SOL     OW26530   5.348   2.650   4.080
 8544SOL    HW126531   5.422   2.669   4.014
 8544SOL    HW226532   5.261   2.646   4.031
 8545SOL     OW26533   4.732   5.954   5.084
 8545SOL    HW126534   4.731   6.005   4.997
 8545SOL    HW226535   4.776   5.866   5.071
 8546SOL     OW26536   4.899   1.619   4.053
 8546SOL    HW126537   4.881   1.520   4.049
 8546SOL    HW226538   4.997   1.634   4.067
 8547SOL     OW26539   1.041   4.608   3.621
 8547SOL    HW126540   0.959   4.632   3.672
 8547SOL    HW226541   1.016   4.552   3.542
 8548SOL     OW26542   5.382   0.956   4.717
 8548SOL    HW126543   5.417   0.954   4.624
 8548SOL    HW226544   5.332   0.871   4.736
 8549SOL     OW26545   6.466   3.305   4.318
 8549SOL    HW126546   6.378   3.280   4.357
 8549SOL    HW226547   6.485   3.401   4.335
 8550SOL     OW26548   1.346   5.105   6.493
 8550SOL    HW126549   1.377   5.011   6.512
 8550SOL    HW226550   1.311   5.110   6.400
 8551SOL     OW26551   3.558   3.948   6.840
 8551SOL    HW126552   3.608   3.880   6.895
 8551SOL    HW226553   3.461   3.943   6.862
 8552SOL     OW26554   2.768   6.195   3.548
 8552SOL    HW126555   2.865   6.183   3.567
 8552SOL    HW226556   2.726   6.106   3.531
 8553SOL     OW26557   4.837   6.836   0.627
 8553SOL    HW126558   4.901   6.909   0.653
 8553SOL    HW226559   4.888   6.750   0.614
 8554SOL     OW26560   0.008   4.384   6.809
 8554SOL    HW126561   7.016   4.345   6.900
 8554SOL    HW226562   0.071   4.326   6.758
 8555SOL     OW26563   1.146   0.437   4.085
 8555SOL    HW126564   1.218   0.461   4.021
 8555SOL    HW226565   1.158   0.344   4.117
 8556SOL     OW26566   6.690   0.165   3.893
 8556SOL    HW126567   6.686   0.254   3.938
 8556SOL    HW226568   6.605   0.115   3.913
 8557SOL     OW26569   0.068   6.821   1.136
 8557SOL    HW126570   0.129   6.747   1.166
 8557SOL    HW226571   0.071   6.828   1.037
 8558SOL     OW26572   1.107   5.189   2.091
 8558SOL    HW126573   1.052   5.122   2.042
 8558SOL    HW226574   1.146   5.254   2.026
 8559SOL     OW26575   1.399   0.136   2.061
 8559SOL    HW126576   1.318   0.157   2.117
 8559SOL    HW226577   1.397   0.191   1.977
 8560SOL     OW26578   6.395   1.723   0.188
 8560SOL    HW126579   6.298   1.731   0.166
 8560SOL    HW226580   6.406   1.689   0.281
 8561SOL     OW26581   4.745   6.439   3.476
 8561SOL    HW126582   4.682   6.502   3.520
 8561SOL    HW226583   4.695   6.379   3.413
 8562SOL     OW26584   3.641   6.827   4.098
 8562SOL    HW126585   3.709   6.871   4.039
 8562SOL    HW226586   3.570   6.893   4.121
 8563SOL     OW26587   2.930   2.809   0.160
 8563SOL    HW126588   2.867   2.732   0.148
 8563SOL    HW226589   3.012   2.776   0.207
 8564SOL     OW26590   1.230   6.879   3.464
 8564SOL    HW126591   1.154   6.904   3.525
 8564SOL    HW226592   1.280   6.961   3.437
 8565SOL     OW26593   3.666   6.750   1.063
 8565SOL    HW126594   3.631   6.765   1.155
 8565SOL    HW226595   3.682   6.653   1.049
 8566SOL     OW26596   1.245   2.173   3.219
 8566SOL    HW126597   1.276   2.172   3.314
 8566SOL    HW226598   1.307   2.228   3.164
 8567SOL     OW26599   5.089   1.339   1.100
 8567SOL    HW126600   5.025   1.336   1.176
 8567SOL    HW226601   5.181   1.317   1.132
 8568SOL     OW26602   5.691   1.616   0.429
 8568SOL    HW126603   5.620   1.565   0.380
 8568SOL    HW226604   5.758   1.552   0.466
 8569SOL     OW26605   4.374   1.555   4.444
 8569SOL    HW126606   4.466   1.578   4.478
 8569SOL    HW226607   4.370   1.574   4.346
 8570SOL     OW26608   0.619   4.108   7.020
 8570SOL    HW126609   0.699   4.050   0.014
 8570SOL    HW226610   0.619   4.184   0.062
 8571SOL     OW26611   0.012   4.325   4.799
 8571SOL    HW126612   6.994   4.361   4.883
 8571SOL    HW226613   0.104   4.362   4.788
 8572SOL     OW26614   2.223   5.142   5.538
 8572SOL    HW126615   2.152   5.152   5.609
 8572SOL    HW226616   2.207   5.208   5.465
 8573SOL     OW26617   4.069   5.751   5.786
 8573SOL    HW126618   4.096   5.681   5.853
 8573SOL    HW226619   4.036   5.832   5.834
 8574SOL     OW26620   0.438   3.677   5.527
 8574SOL    HW126621   0.515   3.725   5.571
 8574SOL    HW226622   0.390   3.741   5.467
 8575SOL     OW26623   3.184   2.546   0.732
 8575SOL    HW126624   3.262   2.496   0.770
 8575SOL    HW226625   3.127   2.580   0.807
 8576SOL     OW26626   1.518   0.327   1.602
 8576SOL    HW126627   1.478   0.375   1.524
 8576SOL    HW226628   1.613   0.356   1.615
 8577SOL     OW26629   6.459   6.233   3.333
 8577SOL    HW126630   6.541   6.287   3.348
 8577SOL    HW226631   6.484   6.139   3.309
 8578SOL     OW26632   4.382   6.795   3.725
 8578SOL    HW126633   4.410   6.700   3.709
 8578SOL    HW226634   4.439   6.856   3.670
 8579SOL     OW26635   1.053   5.069   3.517
 8579SOL    HW126636   1.013   5.070   3.609
 8579SOL    HW226637   1.125   5.000   3.513
 8580SOL     OW26638   1.931   5.813   1.163
 8580SOL    HW126639   1.924   5.912   1.172
 8580SOL    HW226640   1.859   5.780   1.102
 8581SOL     OW26641   3.125   1.874   0.655
 8581SOL    HW126642   3.174   1.919   0.581
 8581SOL    HW226643   3.044   1.828   0.619
 8582SOL     OW26644   4.368   4.511   1.772
 8582SOL    HW126645   4.406   4.427   1.810
 8582SOL    HW226646   4.275   4.494   1.739
 8583SOL     OW26647   6.113   6.868   5.805
 8583SOL    HW126648   6.029   6.883   5.858
 8583SOL    HW226649   6.190   6.858   5.869
 8584SOL     OW26650   6.566   5.445   0.432
 8584SOL    HW126651   6.649   5.413   0.479
 8584SOL    HW226652   6.488   5.439   0.495
 8585SOL     OW26653   0.191   0.917   0.225
 8585SOL    HW126654   0.269   0.882   0.172
 8585SOL    HW226655   0.173   0.854   0.301
 8586SOL     OW26656   3.722   5.462   3.097
 8586SOL    HW126657   3.794   5.454   3.028
 8586SOL    HW226658   3.707   5.558   3.118
 8587SOL     OW26659   0.209   2.004   2.208
 8587SOL    HW126660   0.110   1.993   2.215
 8587SOL    HW226661   0.244   2.040   2.294
 8588SOL     OW26662   4.604   2.425   0.106
 8588SOL    HW126663   4.691   2.405   0.151
 8588SOL    HW226664   4.546   2.344   0.109
 8589SOL     OW26665   3.718   1.619   4.141
 8589SOL    HW126666   3.786   1.653   4.075
 8589SOL    HW226667   3.649   1.690   4.155
 8590SOL     OW26668   6.029   5.219   5.112
 8590SOL    HW126669   6.050   5.205   5.209
 8590SOL    HW226670   6.100   5.173   5.057
 8591SOL     OW26671   0.883   3.798   6.697
 8591SOL    HW126672   0.881   3.699   6.686
 8591SOL    HW226673   0.817   3.840   6.634
 8592SOL     OW26674   6.301   4.450   0.763
 8592SOL    HW126675   6.282   4.416   0.855
 8592SOL    HW226676   6.397   4.478   0.757
 8593SOL     OW26677   1.932   0.886   2.530
 8593SOL    HW126678   1.873   0.854   2.604
 8593SOL    HW226679   1.969   0.807   2.481
 8594SOL     OW26680   2.959   3.764   4.262
 8594SOL    HW126681   2.887   3.739   4.327
 8594SOL    HW226682   3.025   3.825   4.307
 8595SOL     OW26683   1.669   2.240   2.713
 8595SOL    HW126684   1.711   2.190   2.789
 8595SOL    HW226685   1.591   2.188   2.677
 8596SOL     OW26686   6.117   5.528   1.709
 8596SOL    HW126687   6.122   5.604   1.773
 8596SOL    HW226688   6.023   5.515   1.678
 8597SOL     OW26689   2.512   1.307   0.627
 8597SOL    HW126690   2.584   1.375   0.643
 8597SOL    HW226691   2.518   1.273   0.533
 8598SOL     OW26692   6.012   4.790   0.995
 8598SOL    HW126693   5.966   4.808   1.082
 8598SOL    HW226694   6.111   4.796   1.007
 8599SOL     OW26695   1.919   3.293   3.005
 8599SOL    HW126696   1.845   3.336   2.954
 8599SOL    HW226697   1.885   3.263   3.094
 8600SOL     OW26698   6.683   5.168   6.720
 8600SOL    HW126699   6.771   5.166   6.767
 8600SOL    HW226700   6.610   5.147   6.786
 8601SOL     OW26701   0.448   0.061   4.300
 8601SOL    HW126702   0.463   6.985   4.298
 8601SOL    HW226703   0.357   0.082   4.264
 8602SOL     OW26704   2.368   5.721   2.071
 8602SOL    HW126705   2.283   5.735   2.121
 8602SOL    HW226706   2.355   5.649   2.002
 8603SOL     OW26707   4.233   3.029   0.210
 8603SOL    HW126708   4.206   3.068   0.299
 8603SOL    HW226709   4.213   2.931   0.210
 8604SOL     OW26710   5.274   3.108   3.592
 8604SOL    HW126711   5.290   3.024   3.643
 8604SOL    HW226712   5.241   3.179   3.655
 8605SOL     OW26713   2.559   6.150   3.057
 8605SOL    HW126714   2.473   6.099   3.063
 8605SOL    HW226715   2.570   6.207   3.139
 8606SOL     OW26716   4.033   4.574   5.706
 8606SOL    HW126717   3.941   4.611   5.697
 8606SOL    HW226718   4.046   4.540   5.799
 8607SOL     OW26719   4.271   5.619   1.822
 8607SOL    HW126720   4.329   5.693   1.787
 8607SOL    HW226721   4.218   5.653   1.900
 8608SOL     OW26722   4.399   5.428   2.146
 8608SOL    HW126723   4.434   5.522   2.144
 8608SOL    HW226724   4.382   5.401   2.241
 8609SOL     OW26725   3.333   0.920   5.412
 8609SOL    HW126726   3.349   0.930   5.510
 8609SOL    HW226727   3.305   1.008   5.374
 8610SOL     OW26728   1.351   6.393   3.787
 8610SOL    HW126729   1.304   6.481   3.786
 8610SOL    HW226730   1.327   6.341   3.705
 8611SOL     OW26731   1.808   1.714   4.536
 8611SOL    HW126732   1.809   1.805   4.493
 8611SOL    HW226733   1.713   1.685   4.550
 8612SOL     OW26734   4.036   2.672   5.936
 8612SOL    HW126735   4.134   2.684   5.919
 8612SOL    HW226736   4.024   2.626   6.024
 8613SOL     OW26737   1.698   1.784   1.005
 8613SOL    HW126738   1.727   1.856   1.067
 8613SOL    HW226739   1.732   1.802   0.913
 8614SOL     OW26740   0.846   2.195   3.242
 8614SOL    HW126741   0.857   2.211   3.340
 8614SOL    HW226742   0.924   2.234   3.193
 8615SOL     OW26743   4.319   2.123   5.191
 8615SOL    HW126744   4.291   2.088   5.101
 8615SOL    HW226745   4.385   2.197   5.179
 8616SOL     OW26746   1.314   4.767   0.640
 8616SOL    HW126747   1.286   4.863   0.639
 8616SOL    HW226748   1.409   4.760   0.672
 8617SOL     OW26749   6.051   2.725   0.603
 8617SOL    HW126750   6.114   2.707   0.528
 8617SOL    HW226751   6.086   2.682   0.686
 8618SOL     OW26752   4.533   0.030   3.033
 8618SOL    HW126753   4.481   6.976   3.070
 8618SOL    HW226754   4.617   0.043   3.086
 8619SOL     OW26755   4.188   5.028   6.922
 8619SOL    HW126756   4.113   4.989   6.867
 8619SOL    HW226757   4.184   4.991   7.014
 8620SOL     OW26758   6.213   6.512   2.769
 8620SOL    HW126759   6.143   6.554   2.712
 8620SOL    HW226760   6.264   6.584   2.817
 8621SOL     OW26761   5.944   1.079   3.918
 8621SOL    HW126762   5.863   1.040   3.875
 8621SOL    HW226763   6.023   1.021   3.897
 8622SOL     OW26764   4.672   5.003   0.604
 8622SOL    HW126765   4.750   5.049   0.561
 8622SOL    HW226766   4.695   4.908   0.622
 8623SOL     OW26767   0.286   3.643   3.204
 8623SOL    HW126768   0.198   3.677   3.238
 8623SOL    HW226769   0.303   3.680   3.113
 8624SOL     OW26770   0.456   4.367   2.953
 8624SOL    HW126771   0.376   4.308   2.939
 8624SOL    HW226772   0.481   4.366   3.050
 8625SOL     OW26773   3.731   0.754   4.974
 8625SOL    HW126774   3.777   0.837   5.006
 8625SOL    HW226775   3.636   0.754   5.006
 8626SOL     OW26776   3.368   3.782   4.020
 8626SOL    HW126777   3.324   3.699   4.056
 8626SOL    HW226778   3.432   3.756   3.947
 8627SOL     OW26779   1.065   0.901   0.430
 8627SOL    HW126780   1.124   0.844   0.488
 8627SOL    HW226781   0.995   0.944   0.487
 8628SOL     OW26782   5.541   0.800   0.001
 8628SOL    HW126783   5.624   0.848   0.029
 8628SOL    HW226784   5.564   0.705   7.001
 8629SOL     OW26785   1.326   4.229   4.020
 8629SOL    HW126786   1.397   4.282   4.068
 8629SOL    HW226787   1.361   4.137   4.000
 8630SOL     OW26788   5.771   4.540   3.803
 8630SOL    HW126789   5.673   4.548   3.822
 8630SOL    HW226790   5.817   4.500   3.883
 8631SOL     OW26791   3.782   6.050   4.943
 8631SOL    HW126792   3.833   5.997   4.875
 8631SOL    HW226793   3.831   6.048   5.030
 8632SOL     OW26794   3.976   0.134   2.999
 8632SOL    HW126795   4.063   0.176   2.973
 8632SOL    HW226796   3.905   0.203   3.003
 8633SOL     OW26797   5.456   1.308   4.297
 8633SOL    HW126798   5.426   1.364   4.219
 8633SOL    HW226799   5.435   1.212   4.279
 8634SOL     OW26800   6.657   5.045   2.224
 8634SOL    HW126801   6.562   5.070   2.204
 8634SOL    HW226802   6.670   5.039   2.323
 8635SOL     OW26803   6.060   3.243   5.578
 8635SOL    HW126804   6.093   3.215   5.668
 8635SOL    HW226805   5.988   3.311   5.588
 8636SOL     OW26806   6.959   5.656   0.756
 8636SOL    HW126807   6.992   5.609   0.838
 8636SOL    HW226808   6.875   5.705   0.778
 8637SOL     OW26809   1.648   0.806   0.748
 8637SOL    HW126810   1.652   0.856   0.662
 8637SOL    HW226811   1.553   0.801   0.780
 8638SOL     OW26812   3.109   5.249   0.291
 8638SOL    HW126813   3.060   5.167   0.262
 8638SOL    HW226814   3.080   5.327   0.235
 8639SOL     OW26815   6.402   3.784   2.059
 8639SOL    HW126816   6.356   3.858   2.108
 8639SOL    HW226817   6.482   3.819   2.011
 8640SOL     OW26818   4.854   5.298   0.891
 8640SOL    HW126819   4.862   5.212   0.841
 8640SOL    HW226820   4.856   5.374   0.827
 8641SOL     OW26821   6.927   4.240   3.062
 8641SOL    HW126822   6.855   4.212   3.126
 8641SOL    HW226823   6.891   4.309   2.999
 8642SOL     OW26824   4.404   0.898   1.684
 8642SOL    HW126825   4.392   0.997   1.679
 8642SOL    HW226826   4.343   0.861   1.753
 8643SOL     OW26827   4.728   0.183   6.033
 8643SOL    HW126828   4.720   0.258   6.100
 8643SOL    HW226829   4.664   0.199   5.958
 8644SOL     OW26830   5.862   2.572   4.696
 8644SOL    HW126831   5.893   2.520   4.775
 8644SOL    HW226832   5.764   2.593   4.706
 8645SOL     OW26833   6.198   4.580   1.218
 8645SOL    HW126834   6.211   4.508   1.285
 8645SOL    HW226835   6.134   4.548   1.147
 8646SOL     OW26836   5.599   0.409   0.293
 8646SOL    HW126837   5.659   0.474   0.246
 8646SOL    HW226838   5.520   0.458   0.330
 8647SOL     OW26839   3.946   5.234   0.069
 8647SOL    HW126840   4.012   5.248   0.142
 8647SOL    HW226841   3.923   5.137   0.063
 8648SOL     OW26842   5.387   1.202   3.899
 8648SOL    HW126843   5.417   1.296   3.911
 8648SOL    HW226844   5.354   1.166   3.987
 8649SOL     OW26845   6.239   3.870   5.697
 8649SOL    HW126846   6.287   3.856   5.611
 8649SOL    HW226847   6.291   3.831   5.772
 8650SOL     OW26848   2.236   5.335   3.423
 8650SOL    HW126849   2.258   5.239   3.443
 8650SOL    HW226850   2.321   5.386   3.409
 8651SOL     OW26851   3.812   1.595   6.742
 8651SOL    HW126852   3.780   1.683   6.707
 8651SOL    HW226853   3.911   1.598   6.755
 8652SOL     OW26854   1.847   3.783   3.600
 8652SOL    HW126855   1.829   3.807   3.504
 8652SOL    HW226856   1.762   3.762   3.646
 8653SOL     OW26857   0.102   3.032   0.032
 8653SOL    HW126858   0.103   3.065   6.960
 8653SOL    HW226859   0.032   3.081   0.083
 8654SOL     OW26860   0.658   0.142   2.976
 8654SOL    HW126861   0.742   0.175   3.019
 8654SOL    HW226862   0.592   0.218   2.970
 8655SOL     OW26863   6.443   6.205   4.802
 8655SOL    HW126864   6.439   6.129   4.868
 8655SOL    HW226865   6.388   6.281   4.835
 8656SOL     OW26866   6.581   0.937   1.137
 8656SOL    HW126867   6.601   0.992   1.056
 8656SOL    HW226868   6.666   0.916   1.186
 8657SOL     OW26869   4.316   4.326   6.761
 8657SOL    HW126870   4.327   4.242   6.707
 8657SOL    HW226871   4.291   4.401   6.700
 8658SOL     OW26872   5.757   5.492   6.878
 8658SOL    HW126873   5.762   5.402   6.922
 8658SOL    HW226874   5.802   5.488   6.789
 8659SOL     OW26875   5.377   0.426   3.902
 8659SOL    HW126876   5.291   0.461   3.937
 8659SOL    HW226877   5.393   0.334   3.938
 8660SOL     OW26878   5.493   3.618   0.694
 8660SOL    HW126879   5.419   3.585   0.753
 8660SOL    HW226880   5.571   3.645   0.751
 8661SOL     OW26881   0.125   3.802   1.736
 8661SOL    HW126882   0.162   3.870   1.798
 8661SOL    HW226883   0.111   3.716   1.785
 8662SOL     OW26884   6.620   6.384   1.059
 8662SOL    HW126885   6.658   6.423   0.974
 8662SOL    HW226886   6.626   6.452   1.132
 8663SOL     OW26887   2.510   5.753   1.157
 8663SOL    HW126888   2.471   5.721   1.071
 8663SOL    HW226889   2.584   5.816   1.139
 8664SOL     OW26890   3.972   5.803   0.147
 8664SOL    HW126891   3.911   5.812   0.225
 8664SOL    HW226892   3.926   5.752   0.074
 8665SOL     OW26893   4.626   5.544   5.423
 8665SOL    HW126894   4.540   5.495   5.410
 8665SOL    HW226895   4.698   5.498   5.371
 8666SOL     OW26896   5.042   2.461   5.242
 8666SOL    HW126897   4.986   2.448   5.324
 8666SOL    HW226898   5.038   2.379   5.186
 8667SOL     OW26899   5.119   1.362   3.823
 8667SOL    HW126900   5.033   1.398   3.789
 8667SOL    HW226901   5.128   1.384   3.921
 8668SOL     OW26902   4.804   2.024   4.516
 8668SOL    HW126903   4.782   1.978   4.430
 8668SOL    HW226904   4.885   2.082   4.503
 8669SOL     OW26905   4.168   0.240   6.151
 8669SOL    HW126906   4.186   0.286   6.238
 8669SOL    HW226907   4.072   0.210   6.149
 8670SOL     OW26908   3.459   5.799   4.274
 8670SOL    HW126909   3.425   5.843   4.357
 8670SOL    HW226910   3.558   5.810   4.268
 8671SOL     OW26911   6.333   6.630   4.049
 8671SOL    HW126912   6.427   6.635   4.016
 8671SOL    HW226913   6.282   6.563   3.995
 8672SOL     OW26914   3.396   5.099   4.435
 8672SOL    HW126915   3.490   5.066   4.446
 8672SOL    HW226916   3.333   5.022   4.433
 8673SOL     OW26917   6.425   2.054   0.839
 8673SOL    HW126918   6.521   2.069   0.866
 8673SOL    HW226919   6.398   1.961   0.864
 8674SOL     OW26920   6.840   0.283   2.863
 8674SOL    HW126921   6.813   0.365   2.812
 8674SOL    HW226922   6.794   0.282   2.952
 8675SOL     OW26923   2.392   0.910   3.334
 8675SOL    HW126924   2.448   0.869   3.262
 8675SOL    HW226925   2.307   0.944   3.294
 8676SOL     OW26926   4.327   0.182   2.734
 8676SOL    HW126927   4.349   0.088   2.761
 8676SOL    HW226928   4.407   0.224   2.693
 8677SOL     OW26929   2.627   4.227   5.948
 8677SOL    HW126930   2.568   4.224   5.867
 8677SOL    HW226931   2.722   4.213   5.920
 8678SOL     OW26932   0.950   0.317   6.899
 8678SOL    HW126933   0.877   0.374   6.861
 8678SOL    HW226934   1.002   0.275   6.824
 8679SOL     OW26935   6.184   2.032   5.291
 8679SOL    HW126936   6.160   2.057   5.197
 8679SOL    HW226937   6.199   1.933   5.296
 8680SOL     OW26938   1.090   3.496   0.110
 8680SOL    HW126939   1.166   3.430   0.113
 8680SOL    HW226940   1.086   3.547   0.196
 8681SOL     OW26941   4.082   4.222   0.311
 8681SOL    HW126942   4.011   4.158   0.338
 8681SOL    HW226943   4.061   4.313   0.349
 8682SOL     OW26944   2.605   5.849   2.455
 8682SOL    HW126945   2.575   5.935   2.412
 8682SOL    HW226946   2.704   5.850   2.465
 8683SOL     OW26947   0.363   2.989   1.638
 8683SOL    HW126948   0.450   2.949   1.610
 8683SOL    HW226949   0.318   3.030   1.559
 8684SOL     OW26950   6.177   3.173   4.746
 8684SOL    HW126951   6.094   3.137   4.789
 8684SOL    HW226952   6.162   3.269   4.720
 8685SOL     OW26953   0.840   1.630   6.459
 8685SOL    HW126954   0.757   1.600   6.412
 8685SOL    HW226955   0.916   1.629   6.395
 8686SOL     OW26956   7.005   2.186   2.433
 8686SOL    HW126957   0.073   2.225   2.426
 8686SOL    HW226958   6.990   2.122   2.358
 8687SOL     OW26959   3.723   6.873   2.293
 8687SOL    HW126960   3.625   6.890   2.300
 8687SOL    HW226961   3.740   6.802   2.224
 8688SOL     OW26962   2.517   0.619   1.718
 8688SOL    HW126963   2.531   0.529   1.677
 8688SOL    HW226964   2.599   0.645   1.770
 8689SOL     OW26965   4.527   5.988   0.027
 8689SOL    HW126966   4.496   5.893   0.032
 8689SOL    HW226967   4.551   6.020   0.119
 8690SOL     OW26968   0.630   1.698   3.381
 8690SOL    HW126969   0.569   1.732   3.453
 8690SOL    HW226970   0.632   1.598   3.382
 8691SOL     OW26971   4.784   2.655   6.400
 8691SOL    HW126972   4.750   2.682   6.491
 8691SOL    HW226973   4.720   2.688   6.330
 8692SOL     OW26974   2.634   2.361   3.814
 8692SOL    HW126975   2.541   2.379   3.848
 8692SOL    HW226976   2.685   2.311   3.883
 8693SOL     OW26977   5.769   2.029   1.028
 8693SOL    HW126978   5.829   2.039   0.948
 8693SOL    HW226979   5.824   2.011   1.109
 8694SOL     OW26980   4.622   0.121   6.697
 8694SOL    HW126981   4.645   0.205   6.647
 8694SOL    HW226982   4.580   0.056   6.635
 8695SOL     OW26983   5.343   3.766   5.449
 8695SOL    HW126984   5.432   3.780   5.492
 8695SOL    HW226985   5.322   3.668   5.450
 8696SOL     OW26986   2.642   6.178   1.100
 8696SOL    HW126987   2.621   6.124   1.019
 8696SOL    HW226988   2.685   6.119   1.169
 8697SOL     OW26989   6.511   3.453   0.964
 8697SOL    HW126990   6.514   3.517   1.041
 8697SOL    HW226991   6.453   3.490   0.891
 8698SOL     OW26992   5.195   6.209   4.721
 8698SOL    HW126993   5.267   6.198   4.790
 8698SOL    HW226994   5.195   6.304   4.688
 8699SOL     OW26995   1.026   1.715   5.827
 8699SOL    HW126996   1.088   1.644   5.792
 8699SOL    HW226997   0.933   1.679   5.829
 8700SOL     OW26998   2.541   1.221   5.002
 8700SOL    HW126999   2.442   1.223   5.019
 8700SOL    HW227000   2.575   1.314   4.994
 8701SOL     OW27001   1.083   0.688   4.909
 8701SOL    HW127002   1.022   0.760   4.876
 8701SOL    HW227003   1.030   0.617   4.954
 8702SOL     OW27004   5.540   5.388   0.248
 8702SOL    HW127005   5.492   5.445   0.316
 8702SOL    HW227006   5.621   5.436   0.216
 8703SOL     OW27007   2.931   5.912   1.139
 8703SOL    HW127008   2.946   5.817   1.111
 8703SOL    HW227009   2.840   5.922   1.179
 8704SOL     OW27010   6.627   4.776   2.597
 8704SOL    HW127011   6.536   4.777   2.556
 8704SOL    HW227012   6.671   4.865   2.583
 8705SOL     OW27013   5.156   6.887   6.405
 8705SOL    HW127014   5.136   6.933   6.491
 8705SOL    HW227015   5.106   6.932   6.331
 8706SOL     OW27016   4.990   2.172   6.864
 8706SOL    HW127017   5.025   2.243   6.926
 8706SOL    HW227018   5.058   2.099   6.856
 8707SOL     OW27019   4.525   3.220   6.829
 8707SOL    HW127020   4.613   3.173   6.821
 8707SOL    HW227021   4.485   3.199   6.918
 8708SOL     OW27022   3.780   0.976   1.396
 8708SOL    HW127023   3.711   1.011   1.459
 8708SOL    HW227024   3.758   0.882   1.370
 8709SOL     OW27025   0.042   4.291   0.065
 8709SOL    HW127026   0.073   4.381   0.096
 8709SOL    HW227027   0.117   4.225   0.074
 8710SOL     OW27028   2.056   3.665   2.905
 8710SOL    HW127029   2.091   3.576   2.876
 8710SOL    HW227030   1.962   3.676   2.872
 8711SOL     OW27031   6.392   0.680   2.744
 8711SOL    HW127032   6.448   0.746   2.694
 8711SOL    HW227033   6.414   0.587   2.715
 8712SOL     OW27034   3.263   1.304   5.051
 8712SOL    HW127035   3.205   1.276   4.975
 8712SOL    HW227036   3.344   1.351   5.015
 8713SOL     OW27037   6.389   4.670   3.826
 8713SOL    HW127038   6.333   4.722   3.762
 8713SOL    HW227039   6.359   4.574   3.826
 8714SOL     OW27040   1.292   0.678   5.896
 8714SOL    HW127041   1.212   0.689   5.837
 8714SOL    HW227042   1.263   0.667   5.991
 8715SOL     OW27043   6.492   1.302   1.983
 8715SOL    HW127044   6.394   1.284   1.998
 8715SOL    HW227045   6.545   1.255   2.053
 8716SOL     OW27046   0.821   1.296   1.536
 8716SOL    HW127047   0.769   1.230   1.590
 8716SOL    HW227048   0.802   1.388   1.568
 8717SOL     OW27049   4.135   3.759   2.040
 8717SOL    HW127050   4.213   3.820   2.052
 8717SOL    HW227051   4.116   3.711   2.125
 8718SOL     OW27052   0.036   2.783   4.878
 8718SOL    HW127053   0.033   2.775   4.779
 8718SOL    HW227054   0.036   2.880   4.904
 8719SOL     OW27055   1.075   0.437   5.783
 8719SOL    HW127056   1.113   0.431   5.876
 8719SOL    HW227057   1.116   0.366   5.726
 8720SOL     OW27058   5.770   4.744   4.991
 8720SOL    HW127059   5.697   4.727   5.058
 8720SOL    HW227060   5.798   4.657   4.950
 8721SOL     OW27061   6.814   2.124   4.360
 8721SOL    HW127062   6.826   2.036   4.315
 8721SOL    HW227063   6.903   2.164   4.381
 8722SOL     OW27064   3.892   2.407   0.793
 8722SOL    HW127065   3.847   2.363   0.715
 8722SOL    HW227066   3.909   2.338   0.864
 8723SOL     OW27067   6.796   5.392   0.574
 8723SOL    HW127068   6.788   5.433   0.665
 8723SOL    HW227069   6.867   5.441   0.522
 8724SOL     OW27070   5.317   0.511   6.043
 8724SOL    HW127071   5.333   0.609   6.028
 8724SOL    HW227072   5.339   0.460   5.961
 8725SOL     OW27073   2.059   0.235   0.607
 8725SOL    HW127074   2.072   0.148   0.559
 8725SOL    HW227075   2.037   0.217   0.703
 8726SOL     OW27076   6.230   0.149   1.677
 8726SOL    HW127077   6.326   0.161   1.704
 8726SOL    HW227078   6.225   0.136   1.578
 8727SOL     OW27079   6.553   6.344   1.415
 8727SOL    HW127080   6.533   6.258   1.369
 8727SOL    HW227081   6.649   6.346   1.444
 8728SOL     OW27082   3.261   6.605   4.794
 8728SOL    HW127083   3.328   6.576   4.862
 8728SOL    HW227084   3.267   6.705   4.783
 8729SOL     OW27085   4.017   5.409   3.537
 8729SOL    HW127086   3.972   5.384   3.451
 8729SOL    HW227087   4.115   5.418   3.522
 8730SOL     OW27088   0.593   6.213   2.284
 8730SOL    HW127089   0.631   6.121   2.275
 8730SOL    HW227090   0.587   6.255   2.194
 8731SOL     OW27091   1.159   1.933   3.433
 8731SOL    HW127092   1.145   2.031   3.419
 8731SOL    HW227093   1.077   1.894   3.476
 8732SOL     OW27094   5.627   3.558   1.522
 8732SOL    HW127095   5.693   3.482   1.513
 8732SOL    HW227096   5.593   3.560   1.616
 8733SOL     OW27097   1.228   6.415   1.704
 8733SOL    HW127098   1.172   6.431   1.622
 8733SOL    HW227099   1.203   6.482   1.774
 8734SOL     OW27100   0.291   5.545   1.324
 8734SOL    HW127101   0.353   5.524   1.248
 8734SOL    HW227102   0.262   5.459   1.367
 8735SOL     OW27103   0.110   1.477   6.778
 8735SOL    HW127104   0.064   1.564   6.801
 8735SOL    HW227105   0.156   1.442   6.859
 8736SOL     OW27106   0.827   4.763   0.098
 8736SOL    HW127107   0.842   4.665   0.109
 8736SOL    HW227108   0.914   4.811   0.095
 8737SOL     OW27109   3.563   5.985   5.935
 8737SOL    HW127110   3.604   6.076   5.922
 8737SOL    HW227111   3.476   5.995   5.983
 8738SOL     OW27112   1.440   3.982   4.033
 8738SOL    HW127113   1.520   3.922   4.043
 8738SOL    HW227114   1.361   3.940   4.077
 8739SOL     OW27115   0.266   3.347   5.345
 8739SOL    HW127116   0.224   3.437   5.330
 8739SOL    HW227117   0.278   3.332   5.443
 8740SOL     OW27118   2.763   0.193   6.878
 8740SOL    HW127119   2.667   0.171   6.859
 8740SOL    HW227120   2.798   0.133   6.950
 8741SOL     OW27121   1.125   2.664   2.590
 8741SOL    HW127122   1.200   2.670   2.655
 8741SOL    HW227123   1.041   2.696   2.634
 8742SOL     OW27124   4.412   6.926   1.609
 8742SOL    HW127125   4.349   6.917   1.532
 8742SOL    HW227126   4.369   6.891   1.692
 8743SOL     OW27127   1.863   5.658   2.284
 8743SOL    HW127128   1.854   5.560   2.298
 8743SOL    HW227129   1.809   5.707   2.354
 8744SOL     OW27130   4.042   2.628   6.217
 8744SOL    HW127131   3.999   2.538   6.221
 8744SOL    HW227132   4.087   2.648   6.304
 8745SOL     OW27133   6.111   2.171   5.560
 8745SOL    HW127134   6.180   2.241   5.578
 8745SOL    HW227135   6.138   2.117   5.480
 8746SOL     OW27136   4.984   4.881   5.084
 8746SOL    HW127137   5.061   4.819   5.073
 8746SOL    HW227138   4.904   4.845   5.036
 8747SOL     OW27139   1.345   2.497   4.494
 8747SOL    HW127140   1.417   2.566   4.506
 8747SOL    HW227141   1.370   2.436   4.419
 8748SOL     OW27142   1.380   0.580   6.564
 8748SOL    HW127143   1.406   0.492   6.603
 8748SOL    HW227144   1.462   0.636   6.550
 8749SOL     OW27145   4.161   0.299   3.425
 8749SOL    HW127146   4.090   0.248   3.375
 8749SOL    HW227147   4.118   0.372   3.477
 8750SOL     OW27148   1.897   1.952   5.162
 8750SOL    HW127149   1.917   2.049   5.150
 8750SOL    HW227150   1.803   1.934   5.134
 8751SOL     OW27151   1.147   0.160   2.241
 8751SOL    HW127152   1.222   0.220   2.270
 8751SOL    HW227153   1.086   0.210   2.180
 8752SOL     OW27154   1.925   3.273   6.409
 8752SOL    HW127155   1.946   3.215   6.331
 8752SOL    HW227156   1.875   3.354   6.377
 8753SOL     OW27157   5.512   1.102   4.895
 8753SOL    HW127158   5.603   1.141   4.880
 8753SOL    HW227159   5.481   1.056   4.813
 8754SOL     OW27160   1.056   1.622   6.310
 8754SOL    HW127161   1.133   1.590   6.366
 8754SOL    HW227162   1.067   1.588   6.217
 8755SOL     OW27163   2.531   1.173   0.383
 8755SOL    HW127164   2.611   1.220   0.345
 8755SOL    HW227165   2.495   1.109   0.315
 8756SOL     OW27166   2.179   3.025   4.230
 8756SOL    HW127167   2.135   3.021   4.140
 8756SOL    HW227168   2.152   2.945   4.284
 8757SOL     OW27169   3.921   6.282   5.131
 8757SOL    HW127170   3.987   6.208   5.147
 8757SOL    HW227171   3.934   6.318   5.039
 8758SOL     OW27172   6.539   6.392   2.026
 8758SOL    HW127173   6.568   6.457   1.957
 8758SOL    HW227174   6.599   6.400   2.106
 8759SOL     OW27175   4.626   0.521   5.954
 8759SOL    HW127176   4.543   0.488   5.998
 8759SOL    HW227177   4.680   0.575   6.019
 8760SOL     OW27178   1.951   1.997   4.125
 8760SOL    HW127179   1.859   1.976   4.159
 8760SOL    HW227180   1.946   2.015   4.027
 8761SOL     OW27181   4.891   0.067   6.846
 8761SOL    HW127182   4.819   0.054   6.777
 8761SOL    HW227183   4.932   7.001   6.867
 8762SOL     OW27184   1.249   3.702   1.393
 8762SOL    HW127185   1.205   3.656   1.316
 8762SOL    HW227186   1.223   3.656   1.478
 8763SOL     OW27187   0.229   6.185   5.794
 8763SOL    HW127188   0.287   6.114   5.754
 8763SOL    HW227189   0.259   6.205   5.888
 8764SOL     OW27190   4.581   1.583   4.618
 8764SOL    HW127191   4.638   1.500   4.617
 8764SOL    HW227192   4.625   1.653   4.673
 8765SOL     OW27193   5.977   6.825   4.319
 8765SOL    HW127194   5.891   6.839   4.271
 8765SOL    HW227195   5.975   6.873   4.407
 8766SOL     OW27196   2.444   4.982   3.039
 8766SOL    HW127197   2.517   5.008   2.977
 8766SOL    HW227198   2.401   5.065   3.076
 8767SOL     OW27199   4.558   1.044   3.035
 8767SOL    HW127200   4.464   1.060   3.064
 8767SOL    HW227201   4.592   0.960   3.078
 8768SOL     OW27202   2.016   3.659   0.076
 8768SOL    HW127203   1.955   3.713   0.018
 8768SOL    HW227204   2.026   3.567   0.038
 8769SOL     OW27205   1.233   6.791   5.853
 8769SOL    HW127206   1.257   6.766   5.947
 8769SOL    HW227207   1.182   6.717   5.811
 8770SOL     OW27208   5.365   3.357   1.432
 8770SOL    HW127209   5.267   3.359   1.411
 8770SOL    HW227210   5.411   3.428   1.378
 8771SOL     OW27211   1.588   1.816   6.704
 8771SOL    HW127212   1.547   1.732   6.668
 8771SOL    HW227213   1.683   1.823   6.673
 8772SOL     OW27214   5.688   1.533   6.431
 8772SOL    HW127215   5.762   1.524   6.364
 8772SOL    HW227216   5.687   1.453   6.490
 8773SOL     OW27217   2.766   2.342   3.431
 8773SOL    HW127218   2.765   2.283   3.512
 8773SOL    HW227219   2.832   2.307   3.365
 8774SOL     OW27220   0.919   1.424   0.775
 8774SOL    HW127221   0.927   1.385   0.683
 8774SOL    HW227222   0.987   1.383   0.835
 8775SOL     OW27223   6.165   6.657   3.520
 8775SOL    HW127224   6.200   6.568   3.493
 8775SOL    HW227225   6.115   6.649   3.607
 8776SOL     OW27226   3.376   3.305   4.837
 8776SOL    HW127227   3.288   3.352   4.849
 8776SOL    HW227228   3.363   3.225   4.779
 8777SOL     OW27229   6.322   6.175   2.082
 8777SOL    HW127230   6.389   6.234   2.038
 8777SOL    HW227231   6.345   6.079   2.065
 8778SOL     OW27232   0.014   1.988   3.610
 8778SOL    HW127233   7.012   2.023   3.519
 8778SOL    HW227234   0.002   2.060   3.678
 8779SOL     OW27235   1.861   4.741   0.915
 8779SOL    HW127236   1.839   4.831   0.954
 8779SOL    HW227237   1.937   4.751   0.851
 8780SOL     OW27238   0.797   5.445   4.421
 8780SOL    HW127239   0.735   5.421   4.496
 8780SOL    HW227240   0.891   5.428   4.448
 8781SOL     OW27241   0.069   2.079   3.076
 8781SOL    HW127242   0.057   2.092   2.978
 8781SOL    HW227243   0.070   2.168   3.122
 8782SOL     OW27244   4.271   1.450   2.910
 8782SOL    HW127245   4.326   1.524   2.950
 8782SOL    HW227246   4.197   1.489   2.856
 8783SOL     OW27247   5.802   3.850   4.565
 8783SOL    HW127248   5.790   3.895   4.653
 8783SOL    HW227249   5.750   3.899   4.495
 8784SOL     OW27250   5.463   5.082   5.590
 8784SOL    HW127251   5.533   5.037   5.535
 8784SOL    HW227252   5.507   5.140   5.659
 8785SOL     OW27253   5.905   4.206   0.046
 8785SOL    HW127254   5.885   4.166   0.136
 8785SOL    HW227255   5.862   4.151   6.997
 8786SOL     OW27256   1.815   6.961   6.965
 8786SOL    HW127257   1.902   7.008   6.977
 8786SOL    HW227258   1.746   0.004   6.933
 8787SOL     OW27259   1.590   3.724   1.676
 8787SOL    HW127260   1.528   3.753   1.749
 8787SOL    HW227261   1.679   3.768   1.689
 8788SOL     OW27262   0.328   1.923   5.371
 8788SOL    HW127263   0.396   1.995   5.372
 8788SOL    HW227264   0.359   1.848   5.312
 8789SOL     OW27265   6.647   0.257   6.404
 8789SOL    HW127266   6.692   0.173   6.374
 8789SOL    HW227267   6.568   0.234   6.461
 8790SOL     OW27268   6.179   1.751   6.901
 8790SOL    HW127269   6.088   1.732   6.940
 8790SOL    HW227270   6.191   1.698   6.817
 8791SOL     OW27271   4.660   6.389   5.810
 8791SOL    HW127272   4.588   6.378   5.878
 8791SOL    HW227273   4.707   6.302   5.798
 8792SOL     OW27274   4.649   6.833   2.904
 8792SOL    HW127275   4.598   6.913   2.936
 8792SOL    HW227276   4.614   6.751   2.951
 8793SOL     OW27277   1.967   6.086   3.615
 8793SOL    HW127278   1.874   6.123   3.611
 8793SOL    HW227279   1.965   5.992   3.649
 8794SOL     OW27280   1.982   0.142   2.816
 8794SOL    HW127281   1.966   0.154   2.718
 8794SOL    HW227282   1.994   0.045   2.837
 8795SOL     OW27283   1.568   6.280   5.722
 8795SOL    HW127284   1.565   6.200   5.782
 8795SOL    HW227285   1.533   6.360   5.771
 8796SOL     OW27286   4.549   2.488   5.672
 8796SOL    HW127287   4.467   2.476   5.729
 8796SOL    HW227288   4.530   2.455   5.580
 8797SOL     OW27289   0.055   6.894   6.336
 8797SOL    HW127290   0.065   6.832   6.414
 8797SOL    HW227291   0.053   6.840   6.252
 8798SOL     OW27292   5.652   3.686   5.084
 8798SOL    HW127293   5.576   3.689   5.019
 8798SOL    HW227294   5.663   3.593   5.117
 8799SOL     OW27295   2.939   5.203   3.340
 8799SOL    HW127296   2.981   5.264   3.273
 8799SOL    HW227297   3.000   5.126   3.357
 8800SOL     OW27298   4.514   4.895   6.645
 8800SOL    HW127299   4.483   4.829   6.713
 8800SOL    HW227300   4.579   4.958   6.688
 8801SOL     OW27301   2.706   1.517   4.520
 8801SOL    HW127302   2.748   1.436   4.561
 8801SOL    HW227303   2.738   1.599   4.569
 8802SOL     OW27304   2.497   6.244   2.141
 8802SOL    HW127305   2.474   6.340   2.125
 8802SOL    HW227306   2.590   6.226   2.109
 8803SOL     OW27307   3.034   5.736   0.171
 8803SOL    HW127308   3.077   5.739   0.261
 8803SOL    HW227309   3.094   5.776   0.103
 8804SOL     OW27310   4.678   0.609   1.463
 8804SOL    HW127311   4.651   0.513   1.456
 8804SOL    HW227312   4.608   0.666   1.420
 8805SOL     OW27313   0.491   0.377   3.016
 8805SOL    HW127314   0.535   0.383   3.106
 8805SOL    HW227315   0.396   0.350   3.027
 8806SOL     OW27316   1.532   4.952   0.455
 8806SOL    HW127317   1.568   5.005   0.378
 8806SOL    HW227318   1.467   5.007   0.506
 8807SOL     OW27319   0.306   6.257   6.112
 8807SOL    HW127320   0.353   6.329   6.164
 8807SOL    HW227321   0.364   6.175   6.110
 8808SOL     OW27322   4.990   1.175   0.169
 8808SOL    HW127323   4.906   1.171   0.223
 8808SOL    HW227324   5.034   1.264   0.182
 8809SOL     OW27325   5.539   4.111   1.415
 8809SOL    HW127326   5.533   4.119   1.316
 8809SOL    HW227327   5.630   4.139   1.445
 8810SOL     OW27328   4.288   1.477   3.837
 8810SOL    HW127329   4.315   1.452   3.744
 8810SOL    HW227330   4.369   1.480   3.895
 8811SOL     OW27331   1.691   1.664   2.860
 8811SOL    HW127332   1.610   1.614   2.891
 8811SOL    HW227333   1.762   1.599   2.834
 8812SOL     OW27334   1.440   1.024   0.623
 8812SOL    HW127335   1.352   1.066   0.642
 8812SOL    HW227336   1.441   0.987   0.530
 8813SOL     OW27337   1.755   6.924   2.328
 8813SOL    HW127338   1.850   6.901   2.305
 8813SOL    HW227339   1.728   7.005   2.276
 8814SOL     OW27340   5.925   0.753   6.058
 8814SOL    HW127341   5.997   0.801   6.108
 8814SOL    HW227342   5.953   0.740   5.963
 8815SOL     OW27343   0.200   6.077   2.469
 8815SOL    HW127344   0.196   6.079   2.369
 8815SOL    HW227345   0.193   6.170   2.505
 8816SOL     OW27346   1.491   6.099   1.251
 8816SOL    HW127347   1.516   6.082   1.346
 8816SOL    HW227348   1.499   6.196   1.231
 8817SOL     OW27349   1.616   5.632   4.857
 8817SOL    HW127350   1.649   5.706   4.915
 8817SOL    HW227351   1.527   5.601   4.888
 8818SOL     OW27352   0.530   4.848   3.947
 8818SOL    HW127353   0.433   4.842   3.924
 8818SOL    HW227354   0.575   4.762   3.924
 8819SOL     OW27355   4.571   6.428   4.441
 8819SOL    HW127356   4.639   6.375   4.490
 8819SOL    HW227357   4.576   6.407   4.343
 8820SOL     OW27358   1.433   2.290   4.355
 8820SOL    HW127359   1.400   2.249   4.271
 8820SOL    HW227360   1.528   2.321   4.343
 8821SOL     OW27361   2.633   0.511   6.480
 8821SOL    HW127362   2.541   0.512   6.441
 8821SOL    HW227363   2.699   0.532   6.409
 8822SOL     OW27364   0.748   1.892   3.788
 8822SOL    HW127365   0.692   1.809   3.781
 8822SOL    HW227366   0.695   1.970   3.754
 8823SOL     OW27367   1.807   6.938   0.785
 8823SOL    HW127368   1.892   6.986   0.764
 8823SOL    HW227369   1.813   6.844   0.752
 8824SOL     OW27370   3.395   3.800   0.783
 8824SOL    HW127371   3.428   3.837   0.696
 8824SOL    HW227372   3.435   3.710   0.798
 8825SOL     OW27373   0.931   1.344   2.457
 8825SOL    HW127374   1.008   1.308   2.508
 8825SOL    HW227375   0.851   1.352   2.517
 8826SOL     OW27376   5.642   1.354   6.647
 8826SOL    HW127377   5.712   1.370   6.716
 8826SOL    HW227378   5.596   1.267   6.664
 8827SOL     OW27379   1.846   1.434   3.254
 8827SOL    HW127380   1.758   1.439   3.301
 8827SOL    HW227381   1.879   1.340   3.254
 8828SOL     OW27382   3.168   6.626   2.466
 8828SOL    HW127383   3.201   6.705   2.517
 8828SOL    HW227384   3.106   6.656   2.394
 8829SOL     OW27385   0.100   2.282   0.033
 8829SOL    HW127386   0.118   2.377   0.011
 8829SOL    HW227387   0.058   2.275   0.124
 8830SOL     OW27388   0.801   1.763   0.529
 8830SOL    HW127389   0.899   1.745   0.522
 8830SOL    HW227390   0.767   1.725   0.615
 8831SOL     OW27391   6.367   1.178   3.217
 8831SOL    HW127392   6.456   1.135   3.235
 8831SOL    HW227393   6.381   1.273   3.190
 8832SOL     OW27394   6.418   0.417   2.391
 8832SOL    HW127395   6.514   0.430   2.414
 8832SOL    HW227396   6.370   0.505   2.401
 8833SOL     OW27397   2.551   5.159   4.075
 8833SOL    HW127398   2.628   5.110   4.036
 8833SOL    HW227399   2.582   5.212   4.154
 8834SOL     OW27400   5.627   3.208   4.653
 8834SOL    HW127401   5.537   3.214   4.610
 8834SOL    HW227402   5.624   3.250   4.743
 8835SOL     OW27403   6.989   6.803   5.543
 8835SOL    HW127404   6.954   6.896   5.530
 8835SOL    HW227405   6.934   6.739   5.489
 8836SOL     OW27406   4.228   0.759   6.642
 8836SOL    HW127407   4.191   0.714   6.723
 8836SOL    HW227408   4.322   0.788   6.660
 8837SOL     OW27409   0.472   0.936   1.989
 8837SOL    HW127410   0.431   0.969   1.904
 8837SOL    HW227411   0.571   0.933   1.979
 8838SOL     OW27412   2.480   5.310   3.074
 8838SOL    HW127413   2.574   5.278   3.073
 8838SOL    HW227414   2.435   5.283   2.988
 8839SOL     OW27415   6.278   6.159   3.573
 8839SOL    HW127416   6.315   6.122   3.658
 8839SOL    HW227417   6.348   6.156   3.502
 8840SOL     OW27418   5.804   2.342   1.883
 8840SOL    HW127419   5.729   2.338   1.949
 8840SOL    HW227420   5.861   2.261   1.893
 8841SOL     OW27421   1.034   1.488   5.408
 8841SOL    HW127422   1.111   1.466   5.349
 8841SOL    HW227423   0.963   1.419   5.398
 8842SOL     OW27424   2.451   2.665   1.818
 8842SOL    HW127425   2.377   2.652   1.752
 8842SOL    HW227426   2.414   2.662   1.911
 8843SOL     OW27427   1.164   2.541   5.080
 8843SOL    HW127428   1.098   2.600   5.034
 8843SOL    HW227429   1.257   2.564   5.051
 8844SOL     OW27430   6.589   0.641   5.979
 8844SOL    HW127431   6.672   0.610   6.027
 8844SOL    HW227432   6.580   0.740   5.989
 8845SOL     OW27433   5.260   4.510   6.987
 8845SOL    HW127434   5.182   4.564   6.955
 8845SOL    HW227435   5.233   4.414   6.996
 8846SOL     OW27436   2.097   4.560   4.068
 8846SOL    HW127437   2.098   4.639   4.129
 8846SOL    HW227438   2.019   4.566   4.006
 8847SOL     OW27439   3.221   0.191   1.938
 8847SOL    HW127440   3.311   0.214   1.900
 8847SOL    HW227441   3.157   0.172   1.865
 8848SOL     OW27442   1.680   0.561   2.657
 8848SOL    HW127443   1.640   0.508   2.733
 8848SOL    HW227444   1.735   0.635   2.694
 8849SOL     OW27445   3.148   6.808   1.138
 8849SOL    HW127446   3.211   6.803   1.215
 8849SOL    HW227447   3.086   6.730   1.139
 8850SOL     OW27448   3.678   2.201   6.434
 8850SOL    HW127449   3.599   2.228   6.488
 8850SOL    HW227450   3.760   2.202   6.490
 8851SOL     OW27451   1.357   4.609   2.827
 8851SOL    HW127452   1.297   4.649   2.757
 8851SOL    HW227453   1.431   4.558   2.783
 8852SOL     OW27454   1.226   1.324   6.375
 8852SOL    HW127455   1.239   1.380   6.456
 8852SOL    HW227456   1.259   1.373   6.294
 8853SOL     OW27457   3.851   0.858   0.392
 8853SOL    HW127458   3.808   0.947   0.405
 8853SOL    HW227459   3.947   0.863   0.418
 8854SOL     OW27460   1.149   3.527   4.758
 8854SOL    HW127461   1.129   3.460   4.687
 8854SOL    HW227462   1.162   3.617   4.716
 8855SOL     OW27463   6.047   5.357   0.717
 8855SOL    HW127464   6.019   5.436   0.772
 8855SOL    HW227465   6.147   5.359   0.706
 8856SOL     OW27466   0.508   5.218   6.659
 8856SOL    HW127467   0.499   5.131   6.707
 8856SOL    HW227468   0.423   5.238   6.610
 8857SOL     OW27469   6.455   1.124   5.681
 8857SOL    HW127470   6.392   1.169   5.617
 8857SOL    HW227471   6.493   1.041   5.638
 8858SOL     OW27472   6.256   5.130   4.637
 8858SOL    HW127473   6.340   5.144   4.585
 8858SOL    HW227474   6.211   5.218   4.653
 8859SOL     OW27475   0.742   0.522   3.616
 8859SOL    HW127476   0.839   0.517   3.640
 8859SOL    HW227477   0.690   0.456   3.670
 8860SOL     OW27478   6.748   2.711   2.105
 8860SOL    HW127479   6.766   2.788   2.167
 8860SOL    HW227480   6.824   2.646   2.112
 8861SOL     OW27481   4.701   2.213   1.565
 8861SOL    HW127482   4.727   2.117   1.572
 8861SOL    HW227483   4.745   2.265   1.638
 8862SOL     OW27484   4.516   4.920   5.465
 8862SOL    HW127485   4.554   4.857   5.398
 8862SOL    HW227486   4.421   4.941   5.440
 8863SOL     OW27487   2.117   3.814   3.611
 8863SOL    HW127488   2.148   3.904   3.641
 8863SOL    HW227489   2.018   3.815   3.599
 8864SOL     OW27490   6.080   1.571   5.331
 8864SOL    HW127491   6.088   1.598   5.427
 8864SOL    HW227492   6.102   1.474   5.322
 8865SOL     OW27493   2.072   1.299   6.344
 8865SOL    HW127494   2.002   1.353   6.297
 8865SOL    HW227495   2.152   1.290   6.285
 8866SOL     OW27496   6.047   5.960   2.451
 8866SOL    HW127497   6.124   6.017   2.421
 8866SOL    HW227498   5.987   6.013   2.511
 8867SOL     OW27499   6.598   4.042   2.757
 8867SOL    HW127500   6.574   4.097   2.837
 8867SOL    HW227501   6.568   3.947   2.771
 8868SOL     OW27502   0.085   3.681   3.527
 8868SOL    HW127503   0.127   3.595   3.554
 8868SOL    HW227504   0.097   3.695   3.429
 8869SOL     OW27505   3.156   6.594   3.336
 8869SOL    HW127506   3.093   6.644   3.277
 8869SOL    HW227507   3.146   6.626   3.431
 8870SOL     OW27508   1.845   0.750   2.765
 8870SOL    HW127509   1.926   0.693   2.750
 8870SOL    HW227510   1.845   0.782   2.860
 8871SOL     OW27511   0.247   0.524   2.446
 8871SOL    HW127512   0.234   0.553   2.351
 8871SOL    HW227513   0.162   0.481   2.479
 8872SOL     OW27514   0.181   5.059   4.779
 8872SOL    HW127515   0.277   5.070   4.805
 8872SOL    HW227516   0.135   5.148   4.786
 8873SOL     OW27517   1.589   1.220   2.283
 8873SOL    HW127518   1.577   1.259   2.375
 8873SOL    HW227519   1.585   1.120   2.288
 8874SOL     OW27520   3.220   5.966   0.418
 8874SOL    HW127521   3.194   5.870   0.417
 8874SOL    HW227522   3.320   5.974   0.419
 8875SOL     OW27523   0.211   3.093   3.575
 8875SOL    HW127524   0.232   3.078   3.672
 8875SOL    HW227525   0.281   3.153   3.535
 8876SOL     OW27526   3.451   0.705   6.209
 8876SOL    HW127527   3.499   0.747   6.131
 8876SOL    HW227528   3.353   0.702   6.189
 8877SOL     OW27529   1.907   4.414   1.251
 8877SOL    HW127530   1.967   4.385   1.325
 8877SOL    HW227531   1.950   4.489   1.201
 8878SOL     OW27532   4.573   4.025   0.967
 8878SOL    HW127533   4.670   4.041   0.985
 8878SOL    HW227534   4.544   3.943   1.016
 8879SOL     OW27535   6.053   5.077   2.836
 8879SOL    HW127536   6.131   5.118   2.790
 8879SOL    HW227537   6.052   4.979   2.820
 8880SOL     OW27538   4.201   0.255   3.950
 8880SOL    HW127539   4.173   0.201   3.870
 8880SOL    HW227540   4.254   0.197   4.012
 8881SOL     OW27541   4.551   4.945   4.477
 8881SOL    HW127542   4.531   4.938   4.379
 8881SOL    HW227543   4.503   5.024   4.515
 8882SOL     OW27544   4.499   0.697   0.734
 8882SOL    HW127545   4.594   0.723   0.718
 8882SOL    HW227546   4.442   0.729   0.659
 8883SOL     OW27547   6.899   6.326   4.716
 8883SOL    HW127548   6.944   6.397   4.770
 8883SOL    HW227549   6.855   6.260   4.776
 8884SOL     OW27550   5.397   3.659   4.871
 8884SOL    HW127551   5.333   3.639   4.796
 8884SOL    HW227552   5.425   3.755   4.866
 8885SOL     OW27553   6.348   5.538   0.562
 8885SOL    HW127554   6.384   5.609   0.622
 8885SOL    HW227555   6.292   5.580   0.490
 8886SOL     OW27556   3.611   5.544   6.422
 8886SOL    HW127557   3.690   5.605   6.430
 8886SOL    HW227558   3.527   5.597   6.415
 8887SOL     OW27559   5.304   1.426   1.861
 8887SOL    HW127560   5.266   1.370   1.935
 8887SOL    HW227561   5.231   1.482   1.821
 8888SOL     OW27562   2.470   1.850   3.264
 8888SOL    HW127563   2.471   1.810   3.173
 8888SOL    HW227564   2.496   1.947   3.258
 8889SOL     OW27565   7.021   6.245   6.133
 8889SOL    HW127566   0.009   6.203   6.223
 8889SOL    HW227567   0.081   6.231   6.079
 8890SOL     OW27568   0.681   6.577   0.446
 8890SOL    HW127569   0.638   6.646   0.387
 8890SOL    HW227570   0.616   6.548   0.516
 8891SOL     OW27571   6.162   3.938   0.171
 8891SOL    HW127572   6.194   4.032   0.160
 8891SOL    HW227573   6.098   3.934   0.247
 8892SOL     OW27574   3.190   5.626   3.952
 8892SOL    HW127575   3.133   5.554   3.913
 8892SOL    HW227576   3.267   5.584   4.000
 8893SOL     OW27577   1.477   5.174   4.959
 8893SOL    HW127578   1.555   5.194   5.018
 8893SOL    HW227579   1.431   5.092   4.991
 8894SOL     OW27580   4.582   1.389   0.149
 8894SOL    HW127581   4.490   1.351   0.151
 8894SOL    HW227582   4.577   1.488   0.158
 8895SOL     OW27583   6.985   3.718   1.243
 8895SOL    HW127584   0.007   3.631   1.222
 8895SOL    HW227585   0.003   3.757   1.325
 8896SOL     OW27586   0.219   2.069   4.698
 8896SOL    HW127587   0.281   2.115   4.761
 8896SOL    HW227588   0.172   2.138   4.642
 8897SOL     OW27589   1.977   3.681   3.831
 8897SOL    HW127590   1.970   3.672   3.732
 8897SOL    HW227591   1.965   3.777   3.857
 8898SOL     OW27592   5.060   4.258   2.854
 8898SOL    HW127593   5.039   4.314   2.935
 8898SOL    HW227594   5.103   4.173   2.883
 8899SOL     OW27595   0.284   3.601   5.861
 8899SOL    HW127596   0.345   3.666   5.906
 8899SOL    HW227597   0.229   3.648   5.793
 8900SOL     OW27598   4.984   2.881   4.050
 8900SOL    HW127599   5.070   2.882   4.101
 8900SOL    HW227600   4.907   2.888   4.113
 8901SOL     OW27601   1.552   2.880   4.280
 8901SOL    HW127602   1.461   2.880   4.321
 8901SOL    HW227603   1.583   2.787   4.266
 8902SOL     OW27604   0.668   4.513   0.524
 8902SOL    HW127605   0.639   4.467   0.608
 8902SOL    HW227606   0.588   4.557   0.482
 8903SOL     OW27607   1.426   6.893   5.538
 8903SOL    HW127608   1.507   6.930   5.584
 8903SOL    HW227609   1.438   6.899   5.439
 8904SOL     OW27610   0.507   0.881   3.231
 8904SOL    HW127611   0.452   0.797   3.236
 8904SOL    HW227612   0.572   0.883   3.307
 8905SOL     OW27613   1.284   3.722   2.069
 8905SOL    HW127614   1.295   3.785   2.146
 8905SOL    HW227615   1.187   3.710   2.049
 8906SOL     OW27616   6.742   6.871   0.409
 8906SOL    HW127617   6.767   6.908   0.319
 8906SOL    HW227618   6.673   6.800   0.398
 8907SOL     OW27619   3.287   3.115   4.644
 8907SOL    HW127620   3.272   3.191   4.581
 8907SOL    HW227621   3.208   3.104   4.704
 8908SOL     OW27622   1.133   5.768   0.338
 8908SOL    HW127623   1.149   5.736   0.245
 8908SOL    HW227624   1.103   5.692   0.395
 8909SOL     OW27625   2.908   0.639   0.259
 8909SOL    HW127626   2.882   0.603   0.349
 8909SOL    HW227627   2.915   0.563   0.194
 8910SOL     OW27628   2.213   1.747   3.829
 8910SOL    HW127629   2.202   1.846   3.818
 8910SOL    HW227630   2.307   1.727   3.856
 8911SOL     OW27631   4.521   1.525   3.956
 8911SOL    HW127632   4.509   1.585   4.035
 8911SOL    HW227633   4.541   1.581   3.875
 8912SOL     OW27634   3.361   3.801   5.012
 8912SOL    HW127635   3.386   3.717   5.062
 8912SOL    HW227636   3.327   3.869   5.077
 8913SOL     OW27637   5.692   6.085   6.986
 8913SOL    HW127638   5.780   6.084   6.937
 8913SOL    HW227639   5.693   6.157   0.032
 8914SOL     OW27640   4.851   5.966   6.416
 8914SOL    HW127641   4.766   5.946   6.464
 8914SOL    HW227642   4.850   6.061   6.384
 8915SOL     OW27643   1.134   1.227   3.902
 8915SOL    HW127644   1.037   1.249   3.888
 8915SOL    HW227645   1.177   1.300   3.955
 8916SOL     OW27646   4.993   0.949   0.030
 8916SOL    HW127647   4.977   1.041   0.066
 8916SOL    HW227648   5.037   0.892   0.100
 8917SOL     OW27649   5.853   1.476   0.594
 8917SOL    HW127650   5.843   1.543   0.667
 8917SOL    HW227651   5.816   1.388   0.624
 8918SOL     OW27652   0.943   4.223   2.229
 8918SOL    HW127653   0.913   4.131   2.203
 8918SOL    HW227654   0.895   4.251   2.312
 8919SOL     OW27655   5.628   3.773   0.539
 8919SOL    HW127656   5.572   3.703   0.584
 8919SOL    HW227657   5.618   3.860   0.588
 8920SOL     OW27658   6.324   1.426   0.540
 8920SOL    HW127659   6.308   1.521   0.515
 8920SOL    HW227660   6.421   1.406   0.534
 8921SOL     OW27661   1.351   3.143   1.258
 8921SOL    HW127662   1.314   3.229   1.293
 8921SOL    HW227663   1.421   3.162   1.189
 8922SOL     OW27664   4.005   0.107   3.309
 8922SOL    HW127665   3.978   0.122   3.214
 8922SOL    HW227666   3.923   0.102   3.366
 8923SOL     OW27667   1.732   2.280   5.149
 8923SOL    HW127668   1.647   2.321   5.116
 8923SOL    HW227669   1.713   2.227   5.232
 8924SOL     OW27670   5.093   5.398   4.774
 8924SOL    HW127671   5.157   5.458   4.727
 8924SOL    HW227672   5.123   5.303   4.766
 8925SOL     OW27673   1.277   0.656   3.414
 8925SOL    HW127674   1.217   0.623   3.487
 8925SOL    HW227675   1.360   0.599   3.412
 8926SOL     OW27676   6.288   2.798   5.076
 8926SOL    HW127677   6.225   2.727   5.044
 8926SOL    HW227678   6.362   2.755   5.128
 8927SOL     OW27679   6.986   1.152   6.551
 8927SOL    HW127680   6.907   1.203   6.586
 8927SOL    HW227681   0.040   1.215   6.540
 8928SOL     OW27682   1.920   6.690   5.020
 8928SOL    HW127683   1.915   6.602   4.973
 8928SOL    HW227684   1.832   6.711   5.061
 8929SOL     OW27685   0.061   2.741   4.607
 8929SOL    HW127686   6.996   2.757   4.561
 8929SOL    HW227687   0.089   2.646   4.592
 8930SOL     OW27688   1.633   4.484   3.621
 8930SOL    HW127689   1.550   4.529   3.654
 8930SOL    HW227690   1.705   4.553   3.606
 8931SOL     OW27691   3.789   2.434   1.131
 8931SOL    HW127692   3.752   2.507   1.074
 8931SOL    HW227693   3.785   2.348   1.081
 8932SOL     OW27694   0.494   3.139   3.082
 8932SOL    HW127695   0.462   3.054   3.125
 8932SOL    HW227696   0.415   3.192   3.051
 8933SOL     OW27697   3.817   1.501   5.751
 8933SOL    HW127698   3.886   1.492   5.680
 8933SOL    HW227699   3.788   1.410   5.781
 8934SOL     OW27700   2.677   6.257   3.911
 8934SOL    HW127701   2.748   6.188   3.898
 8934SOL    HW227702   2.589   6.212   3.928
 8935SOL     OW27703   0.090   5.020   1.654
 8935SOL    HW127704   0.061   4.936   1.701
 8935SOL    HW227705   0.063   5.099   1.708
 8936SOL     OW27706   2.322   3.061   0.257
 8936SOL    HW127707   2.336   3.159   0.242
 8936SOL    HW227708   2.403   3.011   0.226
 8937SOL     OW27709   0.892   6.060   5.855
 8937SOL    HW127710   0.842   5.985   5.897
 8937SOL    HW227711   0.977   6.076   5.905
 8938SOL     OW27712   6.527   5.343   0.909
 8938SOL    HW127713   6.471   5.385   0.980
 8938SOL    HW227714   6.499   5.248   0.896
 8939SOL     OW27715   5.361   2.445   4.589
 8939SOL    HW127716   5.327   2.415   4.500
 8939SOL    HW227717   5.416   2.528   4.577
 8940SOL     OW27718   6.570   0.885   3.567
 8940SOL    HW127719   6.578   0.975   3.611
 8940SOL    HW227720   6.559   0.815   3.637
 8941SOL     OW27721   5.086   2.644   6.389
 8941SOL    HW127722   5.110   2.651   6.486
 8941SOL    HW227723   4.987   2.629   6.380
 8942SOL     OW27724   0.338   2.196   4.937
 8942SOL    HW127725   0.404   2.251   4.887
 8942SOL    HW227726   0.310   2.245   5.020
 8943SOL     OW27727   4.798   3.204   1.340
 8943SOL    HW127728   4.841   3.181   1.253
 8943SOL    HW227729   4.826   3.137   1.410
 8944SOL     OW27730   4.094   5.473   0.633
 8944SOL    HW127731   4.083   5.423   0.547
 8944SOL    HW227732   4.177   5.530   0.628
 8945SOL     OW27733   2.439   0.934   3.981
 8945SOL    HW127734   2.355   0.938   3.927
 8945SOL    HW227735   2.504   0.872   3.938
 8946SOL     OW27736   3.637   2.007   4.670
 8946SOL    HW127737   3.593   1.989   4.582
 8946SOL    HW227738   3.594   1.951   4.741
 8947SOL     OW27739   4.057   3.687   5.147
 8947SOL    HW127740   4.026   3.773   5.107
 8947SOL    HW227741   3.978   3.628   5.164
 8948SOL     OW27742   5.235   4.741   3.246
 8948SOL    HW127743   5.158   4.704   3.297
 8948SOL    HW227744   5.256   4.833   3.280
 8949SOL     OW27745   2.143   6.577   0.386
 8949SOL    HW127746   2.189   6.659   0.353
 8949SOL    HW227747   2.110   6.523   0.308
 8950SOL     OW27748   4.659   2.598   4.631
 8950SOL    HW127749   4.669   2.578   4.534
 8950SOL    HW227750   4.704   2.685   4.652
 8951SOL     OW27751   1.625   2.446   5.654
 8951SOL    HW127752   1.665   2.354   5.654
 8951SOL    HW227753   1.541   2.445   5.600
 8952SOL     OW27754   0.521   1.292   2.899
 8952SOL    HW127755   0.431   1.293   2.858
 8952SOL    HW227756   0.537   1.203   2.943
 8953SOL     OW27757   1.663   3.405   0.008
 8953SOL    HW127758   1.635   3.441   6.942
 8953SOL    HW227759   1.750   3.357   7.022
 8954SOL     OW27760   1.862   6.043   6.416
 8954SOL    HW127761   1.946   6.042   6.471
 8954SOL    HW227762   1.787   6.005   6.470
 8955SOL     OW27763   6.748   4.192   3.259
 8955SOL    HW127764   6.787   4.140   3.335
 8955SOL    HW227765   6.715   4.280   3.293
 8956SOL     OW27766   0.204   0.683   6.102
 8956SOL    HW127767   0.195   0.597   6.052
 8956SOL    HW227768   0.300   0.712   6.103
 8957SOL     OW27769   2.595   4.651   2.507
 8957SOL    HW127770   2.636   4.689   2.425
 8957SOL    HW227771   2.583   4.552   2.496
 8958SOL     OW27772   1.850   6.734   4.486
 8958SOL    HW127773   1.917   6.798   4.448
 8958SOL    HW227774   1.899   6.656   4.525
 8959SOL     OW27775   1.634   4.714   0.602
 8959SOL    HW127776   1.625   4.766   0.517
 8959SOL    HW227777   1.655   4.619   0.581
 8960SOL     OW27778   3.730   5.694   1.672
 8960SOL    HW127779   3.658   5.630   1.646
 8960SOL    HW227780   3.804   5.644   1.716
 8961SOL     OW27781   2.023   2.396   3.905
 8961SOL    HW127782   1.985   2.324   3.846
 8961SOL    HW227783   2.057   2.354   3.989
 8962SOL     OW27784   5.913   0.577   3.257
 8962SOL    HW127785   5.875   0.488   3.283
 8962SOL    HW227786   5.993   0.596   3.314
 8963SOL     OW27787   6.126   0.644   4.378
 8963SOL    HW127788   6.093   0.728   4.422
 8963SOL    HW227789   6.217   0.660   4.340
 8964SOL     OW27790   5.336   4.632   2.090
 8964SOL    HW127791   5.412   4.658   2.148
 8964SOL    HW227792   5.321   4.702   2.021
 8965SOL     OW27793   1.546   5.159   1.459
 8965SOL    HW127794   1.637   5.138   1.495
 8965SOL    HW227795   1.531   5.108   1.374
 8966SOL     OW27796   2.067   2.381   6.450
 8966SOL    HW127797   1.979   2.400   6.407
 8966SOL    HW227798   2.141   2.405   6.387
 8967SOL     OW27799   4.090   0.353   0.642
 8967SOL    HW127800   4.189   0.345   0.631
 8967SOL    HW227801   4.050   0.393   0.560
 8968SOL     OW27802   5.149   6.267   1.489
 8968SOL    HW127803   5.212   6.190   1.478
 8968SOL    HW227804   5.058   6.233   1.510
 8969SOL     OW27805   6.349   0.636   3.785
 8969SOL    HW127806   6.429   0.694   3.799
 8969SOL    HW227807   6.362   0.549   3.833
 8970SOL     OW27808   3.753   2.343   1.424
 8970SOL    HW127809   3.676   2.287   1.456
 8970SOL    HW227810   3.783   2.404   1.497
 8971SOL     OW27811   3.812   5.482   1.863
 8971SOL    HW127812   3.829   5.510   1.958
 8971SOL    HW227813   3.742   5.411   1.862
 8972SOL     OW27814   5.097   6.193   5.196
 8972SOL    HW127815   5.169   6.160   5.136
 8972SOL    HW227816   5.130   6.195   5.291
 8973SOL     OW27817   1.414   4.945   0.127
 8973SOL    HW127818   1.364   5.020   0.170
 8973SOL    HW227819   1.392   4.860   0.173
 8974SOL     OW27820   0.660   3.587   6.049
 8974SOL    HW127821   0.712   3.545   5.975
 8974SOL    HW227822   0.721   3.645   6.103
 8975SOL     OW27823   3.278   0.156   0.315
 8975SOL    HW127824   3.227   0.236   0.345
 8975SOL    HW227825   3.303   0.100   0.394
 8976SOL     OW27826   2.118   5.372   4.448
 8976SOL    HW127827   2.169   5.317   4.514
 8976SOL    HW227828   2.024   5.385   4.481
 8977SOL     OW27829   6.518   1.294   5.994
 8977SOL    HW127830   6.526   1.320   6.091
 8977SOL    HW227831   6.492   1.198   5.988
 8978SOL     OW27832   5.718   6.458   0.630
 8978SOL    HW127833   5.781   6.418   0.697
 8978SOL    HW227834   5.746   6.553   0.611
 8979SOL     OW27835   1.875   3.935   4.922
 8979SOL    HW127836   1.797   3.876   4.944
 8979SOL    HW227837   1.958   3.880   4.922
 8980SOL     OW27838   3.912   3.036   4.219
 8980SOL    HW127839   3.867   3.001   4.302
 8980SOL    HW227840   3.859   3.009   4.139
 8981SOL     OW27841   3.385   1.646   4.817
 8981SOL    HW127842   3.393   1.593   4.902
 8981SOL    HW227843   3.422   1.738   4.832
 8982SOL     OW27844   3.206   4.407   0.612
 8982SOL    HW127845   3.130   4.427   0.673
 8982SOL    HW227846   3.174   4.402   0.518
 8983SOL     OW27847   4.524   5.265   0.395
 8983SOL    HW127848   4.622   5.283   0.392
 8983SOL    HW227849   4.507   5.169   0.376
 8984SOL     OW27850   2.321   6.049   3.104
 8984SOL    HW127851   2.285   5.987   3.173
 8984SOL    HW227852   2.323   6.004   3.015
 8985SOL     OW27853   3.980   2.947   0.034
 8985SOL    HW127854   3.946   3.007   0.107
 8985SOL    HW227855   4.016   2.863   0.074
 8986SOL     OW27856   3.850   5.078   2.838
 8986SOL    HW127857   3.860   5.039   2.930
 8986SOL    HW227858   3.755   5.109   2.826
 8987SOL     OW27859   5.473   5.950   2.357
 8987SOL    HW127860   5.389   5.995   2.385
 8987SOL    HW227861   5.540   6.019   2.329
 8988SOL     OW27862   0.529   5.269   4.506
 8988SOL    HW127863   0.594   5.249   4.579
 8988SOL    HW227864   0.474   5.188   4.487
 8989SOL     OW27865   4.368   2.951   6.409
 8989SOL    HW127866   4.355   2.965   6.507
 8989SOL    HW227867   4.460   2.915   6.393
 8990SOL     OW27868   0.356   5.206   3.736
 8990SOL    HW127869   0.423   5.136   3.758
 8990SOL    HW227870   0.378   5.291   3.785
 8991SOL     OW27871   1.488   2.405   5.071
 8991SOL    HW127872   1.473   2.474   5.001
 8991SOL    HW227873   1.429   2.326   5.053
 8992SOL     OW27874   6.360   2.049   0.227
 8992SOL    HW127875   6.311   2.106   0.162
 8992SOL    HW227876   6.355   1.953   0.198
 8993SOL     OW27877   3.976   3.015   6.006
 8993SOL    HW127878   3.923   2.943   5.962
 8993SOL    HW227879   4.033   2.976   6.079
 8994SOL     OW27880   2.142   4.423   4.441
 8994SOL    HW127881   2.045   4.439   4.422
 8994SOL    HW227882   2.162   4.446   4.536
 8995SOL     OW27883   0.175   1.492   1.439
 8995SOL    HW127884   0.204   1.558   1.509
 8995SOL    HW227885   0.148   1.541   1.357
 8996SOL     OW27886   5.315   4.036   6.748
 8996SOL    HW127887   5.216   4.044   6.747
 8996SOL    HW227888   5.343   3.958   6.693
 8997SOL     OW27889   5.366   1.230   5.125
 8997SOL    HW127890   5.404   1.168   5.056
 8997SOL    HW227891   5.311   1.300   5.081
 8998SOL     OW27892   6.067   4.163   3.859
 8998SOL    HW127893   5.982   4.166   3.912
 8998SOL    HW227894   6.134   4.106   3.905
 8999SOL     OW27895   4.827   6.852   5.701
 8999SOL    HW127896   4.912   6.867   5.651
 8999SOL    HW227897   4.838   6.882   5.796
 9000SOL     OW27898   1.632   4.690   1.521
 9000SOL    HW127899   1.698   4.628   1.563
 9000SOL    HW227900   1.597   4.650   1.436
 9001SOL     OW27901   6.824   5.053   2.473
 9001SOL    HW127902   6.863   5.021   2.559
 9001SOL    HW227903   6.894   5.103   2.421
 9002SOL     OW27904   1.332   4.428   5.472
 9002SOL    HW127905   1.340   4.381   5.384
 9002SOL    HW227906   1.423   4.451   5.506
 9003SOL     OW27907   5.214   1.973   1.188
 9003SOL    HW127908   5.210   2.040   1.263
 9003SOL    HW227909   5.287   1.907   1.207
 9004SOL     OW27910   4.416   5.340   0.637
 9004SOL    HW127911   4.461   5.311   0.553
 9004SOL    HW227912   4.457   5.292   0.715
 9005SOL     OW27913   5.480   1.446   6.268
 9005SOL    HW127914   5.527   1.513   6.326
 9005SOL    HW227915   5.417   1.494   6.207
 9006SOL     OW27916   3.550   0.358   0.382
 9006SOL    HW127917   3.534   0.341   0.479
 9006SOL    HW227918   3.497   0.293   0.328
 9007SOL     OW27919   2.487   1.320   2.614
 9007SOL    HW127920   2.517   1.348   2.705
 9007SOL    HW227921   2.492   1.398   2.552
 9008SOL     OW27922   0.305   5.895   2.826
 9008SOL    HW127923   0.339   5.820   2.883
 9008SOL    HW227924   0.328   5.982   2.870
 9009SOL     OW27925   3.826   5.581   0.587
 9009SOL    HW127926   3.888   5.651   0.551
 9009SOL    HW227927   3.732   5.614   0.582
 9010SOL     OW27928   2.395   6.621   4.126
 9010SOL    HW127929   2.348   6.547   4.078
 9010SOL    HW227930   2.408   6.698   4.063
 9011SOL     OW27931   4.745   0.630   2.787
 9011SOL    HW127932   4.758   0.620   2.886
 9011SOL    HW227933   4.684   0.707   2.769
 9012SOL     OW27934   2.559   5.848   0.671
 9012SOL    HW127935   2.659   5.848   0.679
 9012SOL    HW227936   2.533   5.893   0.585
 9013SOL     OW27937   1.772   6.834   4.736
 9013SOL    HW127938   1.797   6.832   4.639
 9013SOL    HW227939   1.710   6.910   4.753
 9014SOL     OW27940   6.404   2.397   1.923
 9014SOL    HW127941   6.430   2.362   1.832
 9014SOL    HW227942   6.328   2.461   1.913
 9015SOL     OW27943   5.158   2.698   0.715
 9015SOL    HW127944   5.205   2.610   0.726
 9015SOL    HW227945   5.089   2.690   0.643
 9016SOL     OW27946   5.780   5.402   5.819
 9016SOL    HW127947   5.721   5.324   5.840
 9016SOL    HW227948   5.744   5.484   5.862
 9017SOL     OW27949   3.480   1.008   4.822
 9017SOL    HW127950   3.514   1.066   4.896
 9017SOL    HW227951   3.381   1.020   4.814
 9018SOL     OW27952   3.986   3.117   6.687
 9018SOL    HW127953   4.034   3.032   6.708
 9018SOL    HW227954   4.009   3.186   6.755
 9019SOL     OW27955   1.155   3.522   3.307
 9019SOL    HW127956   1.228   3.485   3.365
 9019SOL    HW227957   1.185   3.522   3.212
 9020SOL     OW27958   6.409   5.778   1.739
 9020SOL    HW127959   6.494   5.748   1.697
 9020SOL    HW227960   6.393   5.725   1.823
 9021SOL     OW27961   0.099   6.976   3.649
 9021SOL    HW127962   0.055   6.891   3.618
 9021SOL    HW227963   0.036   0.003   3.709
 9022SOL     OW27964   4.126   2.752   6.501
 9022SOL    HW127965   4.170   2.838   6.526
 9022SOL    HW227966   4.034   2.748   6.542
 9023SOL     OW27967   4.215   3.265   1.357
 9023SOL    HW127968   4.250   3.350   1.318
 9023SOL    HW227969   4.235   3.189   1.295
 9024SOL     OW27970   1.350   5.149   5.845
 9024SOL    HW127971   1.370   5.237   5.803
 9024SOL    HW227972   1.432   5.113   5.889
 9025SOL     OW27973   0.307   5.969   0.896
 9025SOL    HW127974   0.219   5.948   0.853
 9025SOL    HW227975   0.354   6.039   0.842
 9026SOL     OW27976   3.980   1.827   6.918
 9026SOL    HW127977   3.967   1.787   7.009
 9026SOL    HW227978   4.032   1.764   6.861
 9027SOL     OW27979   0.655   3.980   3.480
 9027SOL    HW127980   0.706   3.896   3.463
 9027SOL    HW227981   0.710   4.040   3.539
 9028SOL     OW27982   3.795   3.853   5.273
 9028SOL    HW127983   3.820   3.827   5.366
 9028SOL    HW227984   3.785   3.952   5.267
 9029SOL     OW27985   4.266   0.567   4.593
 9029SOL    HW127986   4.326   0.487   4.589
 9029SOL    HW227987   4.287   0.628   4.517
 9030SOL     OW27988   2.429   2.529   4.349
 9030SOL    HW127989   2.481   2.547   4.432
 9030SOL    HW227990   2.490   2.536   4.270
 9031SOL     OW27991   4.650   0.326   4.723
 9031SOL    HW127992   4.617   0.418   4.701
 9031SOL    HW227993   4.606   0.259   4.663
 9032SOL     OW27994   4.767   3.456   1.267
 9032SOL    HW127995   4.790   3.372   1.317
 9032SOL    HW227996   4.835   3.526   1.287
 9033SOL     OW27997   0.732   5.156   2.508
 9033SOL    HW127998   0.727   5.235   2.447
 9033SOL    HW227999   0.809   5.168   2.572
 9034SOL     OW28000   3.156   6.362   4.694
 9034SOL    HW128001   3.230   6.309   4.735
 9034SOL    HW228002   3.167   6.458   4.717
 9035SOL     OW28003   2.422   5.971   0.465
 9035SOL    HW128004   2.376   6.018   0.540
 9035SOL    HW228005   2.383   5.999   0.378
 9036SOL     OW28006   1.294   3.366   4.977
 9036SOL    HW128007   1.237   3.418   4.913
 9036SOL    HW228008   1.293   3.411   5.066
 9037SOL     OW28009   0.680   2.343   3.922
 9037SOL    HW128010   0.731   2.278   3.866
 9037SOL    HW228011   0.619   2.397   3.864
 9038SOL     OW28012   5.069   3.301   6.484
 9038SOL    HW128013   5.149   3.295   6.424
 9038SOL    HW228014   4.986   3.298   6.429
 9039SOL     OW28015   3.320   5.006   7.005
 9039SOL    HW128016   3.384   4.985   6.932
 9039SOL    HW228017   3.364   5.064   0.050
 9040SOL     OW28018   2.014   2.293   1.835
 9040SOL    HW128019   1.975   2.242   1.911
 9040SOL    HW228020   2.069   2.232   1.778
 9041SOL     OW28021   0.551   2.167   0.978
 9041SOL    HW128022   0.483   2.183   0.905
 9041SOL    HW228023   0.643   2.172   0.939
 9042SOL     OW28024   3.279   5.920   5.816
 9042SOL    HW128025   3.282   5.982   5.739
 9042SOL    HW228026   3.362   5.864   5.817
 9043SOL     OW28027   2.816   1.226   6.889
 9043SOL    HW128028   2.723   1.263   6.897
 9043SOL    HW228029   2.846   1.233   6.794
 9044SOL     OW28030   0.415   6.922   0.258
 9044SOL    HW128031   0.445   6.939   0.352
 9044SOL    HW228032   0.333   6.864   0.259
 9045SOL     OW28033   4.424   0.314   3.347
 9045SOL    HW128034   4.431   0.299   3.248
 9045SOL    HW228035   4.333   0.287   3.378
 9046SOL     OW28036   3.094   3.087   2.931
 9046SOL    HW128037   3.166   3.075   3.000
 9046SOL    HW228038   3.135   3.084   2.840
 9047SOL     OW28039   1.429   4.358   5.845
 9047SOL    HW128040   1.432   4.261   5.820
 9047SOL    HW228041   1.334   4.388   5.854
 9048SOL     OW28042   5.928   2.370   6.383
 9048SOL    HW128043   5.859   2.435   6.351
 9048SOL    HW228044   5.914   2.282   6.338
 9049SOL     OW28045   3.087   6.722   6.424
 9049SOL    HW128046   3.130   6.737   6.514
 9049SOL    HW228047   3.125   6.639   6.383
 9050SOL     OW28048   0.692   4.513   1.825
 9050SOL    HW128049   0.601   4.548   1.806
 9050SOL    HW228050   0.751   4.527   1.745
 9051SOL     OW28051   2.848   1.728   1.370
 9051SOL    HW128052   2.864   1.827   1.371
 9051SOL    HW228053   2.927   1.682   1.329
 9052SOL     OW28054   1.681   3.361   4.667
 9052SOL    HW128055   1.761   3.376   4.608
 9052SOL    HW228056   1.641   3.272   4.645
 9053SOL     OW28057   2.022   1.477   1.126
 9053SOL    HW128058   1.958   1.455   1.199
 9053SOL    HW228059   1.972   1.490   1.040
 9054SOL     OW28060   2.920   5.765   4.016
 9054SOL    HW128061   2.895   5.693   4.082
 9054SOL    HW228062   3.018   5.761   3.998
 9055SOL     OW28063   0.423   4.148   4.832
 9055SOL    HW128064   0.395   4.218   4.898
 9055SOL    HW228065   0.470   4.191   4.756
 9056SOL     OW28066   5.983   2.242   2.755
 9056SOL    HW128067   6.023   2.151   2.765
 9056SOL    HW228068   5.885   2.234   2.740
 9057SOL     OW28069   4.207   0.976   4.504
 9057SOL    HW128070   4.184   0.903   4.440
 9057SOL    HW228071   4.232   1.059   4.453
 9058SOL     OW28072   1.583   0.748   6.534
 9058SOL    HW128073   1.591   0.848   6.536
 9058SOL    HW228074   1.670   0.707   6.562
 9059SOL     OW28075   1.605   2.252   2.310
 9059SOL    HW128076   1.640   2.201   2.389
 9059SOL    HW228077   1.680   2.301   2.266
 9060SOL     OW28078   4.819   3.013   4.444
 9060SOL    HW128079   4.793   2.954   4.520
 9060SOL    HW228080   4.918   3.011   4.433
 9061SOL     OW28081   4.718   5.250   2.349
 9061SOL    HW128082   4.649   5.261   2.277
 9061SOL    HW228083   4.801   5.209   2.309
 9062SOL     OW28084   1.442   5.356   1.278
 9062SOL    HW128085   1.507   5.358   1.202
 9062SOL    HW228086   1.486   5.315   1.358
 9063SOL     OW28087   2.821   1.910   3.180
 9063SOL    HW128088   2.876   1.892   3.261
 9063SOL    HW228089   2.756   1.835   3.167
 9064SOL     OW28090   6.385   3.488   6.653
 9064SOL    HW128091   6.371   3.397   6.691
 9064SOL    HW228092   6.469   3.489   6.599
 9065SOL     OW28093   2.589   0.994   0.726
 9065SOL    HW128094   2.653   0.981   0.650
 9065SOL    HW228095   2.638   0.988   0.812
 9066SOL     OW28096   5.034   6.622   6.829
 9066SOL    HW128097   5.034   6.535   6.879
 9066SOL    HW228098   5.081   6.611   6.742
 9067SOL     OW28099   1.489   6.744   3.292
 9067SOL    HW128100   1.575   6.790   3.317
 9067SOL    HW228101   1.467   6.674   3.360
 9068SOL     OW28102   1.533   6.022   6.280
 9068SOL    HW128103   1.558   6.029   6.376
 9068SOL    HW228104   1.604   5.970   6.231
 9069SOL     OW28105   1.840   2.340   6.228
 9069SOL    HW128106   1.773   2.306   6.162
 9069SOL    HW228107   1.816   2.308   6.320
 9070SOL     OW28108   1.510   4.239   4.800
 9070SOL    HW128109   1.412   4.234   4.783
 9070SOL    HW228110   1.528   4.310   4.868
 9071SOL     OW28111   6.227   6.587   0.176
 9071SOL    HW128112   6.270   6.675   0.194
 9071SOL    HW228113   6.175   6.558   0.256
 9072SOL     OW28114   6.568   4.139   0.114
 9072SOL    HW128115   6.593   4.072   0.045
 9072SOL    HW228116   6.648   4.163   0.168
 9073SOL     OW28117   1.849   1.182   2.185
 9073SOL    HW128118   1.882   1.265   2.139
 9073SOL    HW228119   1.751   1.192   2.205
 9074SOL     OW28120   1.371   0.030   3.278
 9074SOL    HW128121   1.301   0.061   3.213
 9074SOL    HW228122   1.407   6.964   3.250
 9075SOL     OW28123   6.635   0.772   2.349
 9075SOL    HW128124   6.552   0.785   2.295
 9075SOL    HW228125   6.646   0.675   2.372
 9076SOL     OW28126   6.721   0.647   5.660
 9076SOL    HW128127   6.723   0.643   5.560
 9076SOL    HW228128   6.680   0.564   5.696
 9077SOL     OW28129   5.682   6.068   2.260
 9077SOL    HW128130   5.736   6.018   2.193
 9077SOL    HW228131   5.668   6.162   2.229
 9078SOL     OW28132   3.900   3.036   4.767
 9078SOL    HW128133   3.940   3.124   4.795
 9078SOL    HW228134   3.948   2.962   4.813
 9079SOL     OW28135   3.504   6.917   5.675
 9079SOL    HW128136   3.589   6.866   5.671
 9079SOL    HW228137   3.436   6.866   5.729
 9080SOL     OW28138   5.151   1.698   0.900
 9080SOL    HW128139   5.190   1.787   0.876
 9080SOL    HW228140   5.121   1.652   0.817
 9081SOL     OW28141   5.610   6.455   2.021
 9081SOL    HW128142   5.610   6.395   2.101
 9081SOL    HW228143   5.689   6.433   1.963
 9082SOL     OW28144   3.164   1.332   4.055
 9082SOL    HW128145   3.068   1.360   4.063
 9082SOL    HW228146   3.169   1.233   4.059
 9083SOL     OW28147   4.939   4.539   4.612
 9083SOL    HW128148   4.938   4.481   4.693
 9083SOL    HW228149   4.846   4.546   4.575
 9084SOL     OW28150   3.399   4.156   3.360
 9084SOL    HW128151   3.385   4.058   3.376
 9084SOL    HW228152   3.386   4.206   3.446
 9085SOL     OW28153   1.692   2.090   0.890
 9085SOL    HW128154   1.722   2.146   0.813
 9085SOL    HW228155   1.619   2.029   0.860
 9086SOL     OW28156   0.517   3.997   1.265
 9086SOL    HW128157   0.522   4.079   1.208
 9086SOL    HW228158   0.591   3.997   1.332
 9087SOL     OW28159   4.816   3.674   1.878
 9087SOL    HW128160   4.842   3.663   1.783
 9087SOL    HW228161   4.847   3.595   1.931
 9088SOL     OW28162   5.123   0.717   6.871
 9088SOL    HW128163   5.148   0.780   6.946
 9088SOL    HW228164   5.058   0.650   6.905
 9089SOL     OW28165   4.474   0.155   5.393
 9089SOL    HW128166   4.531   0.201   5.462
 9089SOL    HW228167   4.435   0.072   5.433
 9090SOL     OW28168   5.577   1.457   4.637
 9090SOL    HW128169   5.655   1.519   4.646
 9090SOL    HW228170   5.610   1.363   4.631
 9091SOL     OW28171   3.189   4.002   6.776
 9091SOL    HW128172   3.248   4.065   6.725
 9091SOL    HW228173   3.233   3.978   6.862
 9092SOL     OW28174   6.792   2.852   0.384
 9092SOL    HW128175   6.869   2.797   0.417
 9092SOL    HW228176   6.736   2.881   0.462
 9093SOL     OW28177   1.250   6.524   6.067
 9093SOL    HW128178   1.165   6.511   6.016
 9093SOL    HW228179   1.232   6.580   6.148
 9094SOL     OW28180   0.290   3.392   2.254
 9094SOL    HW128181   0.313   3.477   2.301
 9094SOL    HW228182   0.263   3.323   2.321
 9095SOL     OW28183   5.380   5.901   5.290
 9095SOL    HW128184   5.412   5.841   5.217
 9095SOL    HW228185   5.284   5.882   5.310
 9096SOL     OW28186   6.401   5.656   2.598
 9096SOL    HW128187   6.432   5.701   2.682
 9096SOL    HW228188   6.302   5.643   2.601
 9097SOL     OW28189   1.031   2.958   6.199
 9097SOL    HW128190   0.987   3.038   6.160
 9097SOL    HW228191   1.029   2.882   6.134
 9098SOL     OW28192   1.609   3.765   4.080
 9098SOL    HW128193   1.681   3.753   4.148
 9098SOL    HW228194   1.523   3.730   4.117
 9099SOL     OW28195   2.364   3.363   6.954
 9099SOL    HW128196   2.341   3.266   6.964
 9099SOL    HW228197   2.458   3.372   6.921
 9100SOL     OW28198   0.974   4.717   3.189
 9100SOL    HW128199   0.988   4.708   3.091
 9100SOL    HW228200   0.917   4.797   3.208
 9101SOL     OW28201   1.452   2.187   2.096
 9101SOL    HW128202   1.506   2.212   2.176
 9101SOL    HW228203   1.455   2.088   2.083
 9102SOL     OW28204   4.348   5.966   2.696
 9102SOL    HW128205   4.303   6.054   2.680
 9102SOL    HW228206   4.281   5.892   2.685
 9103SOL     OW28207   6.314   1.672   0.465
 9103SOL    HW128208   6.242   1.709   0.523
 9103SOL    HW228209   6.403   1.696   0.504
 9104SOL     OW28210   5.683   0.784   6.607
 9104SOL    HW128211   5.692   0.720   6.531
 9104SOL    HW228212   5.773   0.808   6.643
 9105SOL     OW28213   2.042   0.182   6.559
 9105SOL    HW128214   2.003   0.108   6.614
 9105SOL    HW228215   1.968   0.237   6.520
 9106SOL     OW28216   1.765   4.381   0.129
 9106SOL    HW128217   1.801   4.318   0.061
 9106SOL    HW228218   1.666   4.390   0.118
 9107SOL     OW28219   2.459   0.897   6.776
 9107SOL    HW128220   2.488   0.804   6.754
 9107SOL    HW228221   2.360   0.905   6.765
 9108SOL     OW28222   5.862   4.751   6.083
 9108SOL    HW128223   5.961   4.744   6.097
 9108SOL    HW228224   5.818   4.777   6.170
 9109SOL     OW28225   4.998   3.025   2.755
 9109SOL    HW128226   5.078   2.973   2.725
 9109SOL    HW228227   4.968   2.992   2.845
 9110SOL     OW28228   1.581   5.950   4.594
 9110SOL    HW128229   1.546   5.856   4.594
 9110SOL    HW228230   1.582   5.985   4.688
 9111SOL     OW28231   4.098   2.853   5.516
 9111SOL    HW128232   4.028   2.793   5.477
 9111SOL    HW228233   4.057   2.908   5.589
 9112SOL     OW28234   1.242   5.437   2.380
 9112SOL    HW128235   1.301   5.405   2.453
 9112SOL    HW228236   1.155   5.388   2.383
 9113SOL     OW28237   5.367   1.581   3.674
 9113SOL    HW128238   5.390   1.532   3.758
 9113SOL    HW228239   5.425   1.549   3.599
 9114SOL     OW28240   1.216   5.821   5.090
 9114SOL    HW128241   1.141   5.762   5.118
 9114SOL    HW228242   1.249   5.792   5.000
 9115SOL     OW28243   5.408   4.257   4.209
 9115SOL    HW128244   5.422   4.344   4.255
 9115SOL    HW228245   5.457   4.256   4.122
 9116SOL     OW28246   0.953   0.104   3.100
 9116SOL    HW128247   0.958   0.117   3.001
 9116SOL    HW228248   1.017   0.166   3.145
 9117SOL     OW28249   3.663   0.536   6.913
 9117SOL    HW128250   3.583   0.482   6.939
 9117SOL    HW228251   3.747   0.485   6.934
 9118SOL     OW28252   6.545   4.189   1.711
 9118SOL    HW128253   6.535   4.287   1.697
 9118SOL    HW228254   6.633   4.170   1.755
 9119SOL     OW28255   3.975   0.437   1.067
 9119SOL    HW128256   3.996   0.519   1.120
 9119SOL    HW228257   4.000   0.356   1.119
 9120SOL     OW28258   6.232   3.471   5.497
 9120SOL    HW128259   6.316   3.439   5.541
 9120SOL    HW228260   6.165   3.396   5.494
 9121SOL     OW28261   3.205   0.959   4.815
 9121SOL    HW128262   3.175   0.876   4.768
 9121SOL    HW228263   3.210   0.941   4.914
 9122SOL     OW28264   1.986   4.046   2.367
 9122SOL    HW128265   2.003   4.105   2.445
 9122SOL    HW228266   1.985   4.100   2.283
 9123SOL     OW28267   0.826   0.256   3.773
 9123SOL    HW128268   0.741   0.292   3.812
 9123SOL    HW228269   0.847   0.167   3.814
 9124SOL     OW28270   2.887   5.345   1.554
 9124SOL    HW128271   2.918   5.410   1.484
 9124SOL    HW228272   2.789   5.359   1.570
 9125SOL     OW28273   4.622   6.289   0.945
 9125SOL    HW128274   4.664   6.259   0.859
 9125SOL    HW228275   4.642   6.385   0.960
 9126SOL     OW28276   3.930   4.791   0.456
 9126SOL    HW128277   3.860   4.727   0.490
 9126SOL    HW228278   3.886   4.878   0.432
 9127SOL     OW28279   0.481   4.205   5.180
 9127SOL    HW128280   0.556   4.258   5.218
 9127SOL    HW228281   0.444   4.253   5.100
 9128SOL     OW28282   6.176   3.613   5.256
 9128SOL    HW128283   6.086   3.648   5.228
 9128SOL    HW228284   6.169   3.570   5.345
 9129SOL     OW28285   1.603   2.706   0.985
 9129SOL    HW128286   1.654   2.644   0.926
 9129SOL    HW228287   1.633   2.695   1.079
 9130SOL     OW28288   2.568   3.863   5.317
 9130SOL    HW128289   2.489   3.902   5.269
 9130SOL    HW228290   2.652   3.899   5.277
 9131SOL     OW28291   5.271   2.449   1.157
 9131SOL    HW128292   5.207   2.374   1.144
 9131SOL    HW228293   5.329   2.430   1.237
 9132SOL     OW28294   6.940   4.359   3.490
 9132SOL    HW128295   0.014   4.370   3.516
 9132SOL    HW228296   6.921   4.261   3.477
 9133SOL     OW28297   4.603   1.281   0.747
 9133SOL    HW128298   4.681   1.239   0.700
 9133SOL    HW228299   4.521   1.271   0.692
 9134SOL     OW28300   4.186   4.982   0.604
 9134SOL    HW128301   4.129   5.039   0.663
 9134SOL    HW228302   4.163   4.999   0.508
 9135SOL     OW28303   6.930   6.620   2.793
 9135SOL    HW128304   6.890   6.634   2.702
 9135SOL    HW228305   6.887   6.541   2.837
 9136SOL     OW28306   6.039   4.275   6.665
 9136SOL    HW128307   5.940   4.266   6.674
 9136SOL    HW228308   6.062   4.366   6.631
 9137SOL     OW28309   5.510   5.942   6.501
 9137SOL    HW128310   5.538   5.881   6.428
 9137SOL    HW228311   5.588   6.000   6.528
 9138SOL     OW28312   3.294   3.175   1.165
 9138SOL    HW128313   3.306   3.214   1.074
 9138SOL    HW228314   3.352   3.224   1.230
 9139SOL     OW28315   6.670   0.209   0.847
 9139SOL    HW128316   6.691   0.128   0.793
 9139SOL    HW228317   6.628   0.279   0.789
 9140SOL     OW28318   1.357   4.183   3.241
 9140SOL    HW128319   1.263   4.199   3.213
 9140SOL    HW228320   1.374   4.226   3.329
 9141SOL     OW28321   6.807   5.706   5.453
 9141SOL    HW128322   6.712   5.678   5.469
 9141SOL    HW228323   6.859   5.697   5.539
 9142SOL     OW28324   1.478   4.113   4.386
 9142SOL    HW128325   1.566   4.071   4.406
 9142SOL    HW228326   1.489   4.212   4.378
 9143SOL     OW28327   0.266   4.154   2.981
 9143SOL    HW128328   0.201   4.119   2.913
 9143SOL    HW228329   0.219   4.165   3.069
 9144SOL     OW28330   2.306   4.589   5.421
 9144SOL    HW128331   2.294   4.688   5.433
 9144SOL    HW228332   2.310   4.568   5.323
 9145SOL     OW28333   1.334   5.884   5.865
 9145SOL    HW128334   1.369   5.818   5.932
 9145SOL    HW228335   1.366   5.976   5.889
 9146SOL     OW28336   6.089   2.943   3.097
 9146SOL    HW128337   6.021   2.878   3.131
 9146SOL    HW228338   6.180   2.915   3.127
 9147SOL     OW28339   4.023   0.037   4.704
 9147SOL    HW128340   3.999   0.078   4.616
 9147SOL    HW228341   3.985   6.967   4.708
 9148SOL     OW28342   6.114   6.432   1.473
 9148SOL    HW128343   6.079   6.339   1.482
 9148SOL    HW228344   6.210   6.434   1.503
 9149SOL     OW28345   0.359   3.492   1.584
 9149SOL    HW128346   0.395   3.538   1.503
 9149SOL    HW228347   0.433   3.439   1.627
 9150SOL     OW28348   2.441   2.499   0.467
 9150SOL    HW128349   2.481   2.511   0.559
 9150SOL    HW228350   2.353   2.452   0.475
 9151SOL     OW28351   1.631   3.092   3.791
 9151SOL    HW128352   1.659   3.053   3.879
 9151SOL    HW228353   1.664   3.034   3.717
 9152SOL     OW28354   1.307   4.142   2.556
 9152SOL    HW128355   1.291   4.234   2.591
 9152SOL    HW228356   1.276   4.137   2.461
 9153SOL     OW28357   0.250   3.972   6.670
 9153SOL    HW128358   0.342   3.975   6.710
 9153SOL    HW228359   0.238   3.885   6.622
 9154SOL     OW28360   5.483   5.086   2.627
 9154SOL    HW128361   5.440   5.116   2.713
 9154SOL    HW228362   5.582   5.099   2.634
 9155SOL     OW28363   1.306   6.661   2.877
 9155SOL    HW128364   1.318   6.614   2.790
 9155SOL    HW228365   1.211   6.654   2.906
 9156SOL     OW28366   6.924   3.928   6.520
 9156SOL    HW128367   6.947   3.884   6.606
 9156SOL    HW228368   6.926   3.861   6.446
 9157SOL     OW28369   1.470   4.330   6.416
 9157SOL    HW128370   1.402   4.268   6.454
 9157SOL    HW228371   1.542   4.276   6.370
 9158SOL     OW28372   6.867   3.685   4.879
 9158SOL    HW128373   6.919   3.659   4.960
 9158SOL    HW228374   6.899   3.774   4.845
 9159SOL     OW28375   3.377   1.459   3.987
 9159SOL    HW128376   3.361   1.554   4.016
 9159SOL    HW228377   3.289   1.412   3.979
 9160SOL     OW28378   0.467   4.615   1.689
 9160SOL    HW128379   0.374   4.607   1.723
 9160SOL    HW228380   0.481   4.708   1.653
 9161SOL     OW28381   6.881   4.449   2.167
 9161SOL    HW128382   6.785   4.423   2.178
 9161SOL    HW228383   6.930   4.427   2.252
 9162SOL     OW28384   3.848   1.830   1.760
 9162SOL    HW128385   3.916   1.841   1.833
 9162SOL    HW228386   3.784   1.907   1.763
 9163SOL     OW28387   1.813   2.442   4.054
 9163SOL    HW128388   1.869   2.390   3.990
 9163SOL    HW228389   1.728   2.471   4.009
 9164SOL     OW28390   2.663   6.818   0.604
 9164SOL    HW128391   2.730   6.846   0.535
 9164SOL    HW228392   2.711   6.788   0.686
 9165SOL     OW28393   5.332   1.803   6.329
 9165SOL    HW128394   5.251   1.811   6.387
 9165SOL    HW228395   5.408   1.767   6.383
 9166SOL     OW28396   5.519   5.791   1.536
 9166SOL    HW128397   5.563   5.876   1.507
 9166SOL    HW228398   5.475   5.804   1.624
 9167SOL     OW28399   1.681   1.067   4.565
 9167SOL    HW128400   1.592   1.075   4.609
 9167SOL    HW228401   1.753   1.072   4.635
 9168SOL     OW28402   6.833   5.906   4.646
 9168SOL    HW128403   6.897   5.979   4.624
 9168SOL    HW228404   6.879   5.818   4.640
 9169SOL     OW28405   6.924   5.925   1.443
 9169SOL    HW128406   6.941   6.008   1.496
 9169SOL    HW228407   7.012   5.889   1.410
 9170SOL     OW28408   1.064   1.119   6.331
 9170SOL    HW128409   1.117   1.204   6.330
 9170SOL    HW228410   1.110   1.050   6.276
 9171SOL     OW28411   3.272   5.062   6.633
 9171SOL    HW128412   3.315   5.120   6.701
 9171SOL    HW228413   3.257   5.114   6.549
 9172SOL     OW28414   4.560   1.276   4.100
 9172SOL    HW128415   4.572   1.368   4.063
 9172SOL    HW228416   4.511   1.281   4.187
 9173SOL     OW28417   5.472   2.986   5.010
 9173SOL    HW128418   5.570   2.972   5.025
 9173SOL    HW228419   5.426   3.001   5.098
 9174SOL     OW28420   0.256   4.726   0.876
 9174SOL    HW128421   0.258   4.774   0.789
 9174SOL    HW228422   0.178   4.756   0.930
 9175SOL     OW28423   1.855   0.464   0.228
 9175SOL    HW128424   1.763   0.470   0.189
 9175SOL    HW228425   1.849   0.447   0.326
 9176SOL     OW28426   1.848   1.566   2.314
 9176SOL    HW128427   1.857   1.488   2.376
 9176SOL    HW228428   1.753   1.575   2.285
 9177SOL     OW28429   0.268   4.824   3.750
 9177SOL    HW128430   0.294   4.882   3.673
 9177SOL    HW228431   0.222   4.742   3.715
 9178SOL     OW28432   2.242   5.820   0.674
 9178SOL    HW128433   2.276   5.914   0.667
 9178SOL    HW228434   2.171   5.816   0.745
 9179SOL     OW28435   3.466   5.526   4.401
 9179SOL    HW128436   3.483   5.611   4.351
 9179SOL    HW228437   3.552   5.492   4.440
 9180SOL     OW28438   6.966   0.797   4.944
 9180SOL    HW128439   6.994   0.721   4.885
 9180SOL    HW228440   6.979   0.884   4.896
 9181SOL     OW28441   2.646   1.961   3.479
 9181SOL    HW128442   2.641   2.033   3.409
 9181SOL    HW228443   2.620   1.873   3.438
 9182SOL     OW28444   1.156   1.548   3.199
 9182SOL    HW128445   1.167   1.572   3.296
 9182SOL    HW228446   1.061   1.523   3.182
 9183SOL     OW28447   0.814   1.784   6.033
 9183SOL    HW128448   0.899   1.834   6.022
 9183SOL    HW228449   0.826   1.689   6.003
 9184SOL     OW28450   3.950   3.018   0.554
 9184SOL    HW128451   3.987   3.052   0.640
 9184SOL    HW228452   3.968   3.085   0.481
 9185SOL     OW28453   0.741   0.989   6.994
 9185SOL    HW128454   0.825   1.039   7.018
 9185SOL    HW228455   0.680   1.050   6.943
 9186SOL     OW28456   5.617   1.206   6.335
 9186SOL    HW128457   5.554   1.283   6.340
 9186SOL    HW228458   5.578   1.127   6.380
 9187SOL     OW28459   5.897   2.023   0.793
 9187SOL    HW128460   5.827   2.053   0.729
 9187SOL    HW228461   5.986   2.020   0.747
 9188SOL     OW28462   1.847   0.911   2.183
 9188SOL    HW128463   1.855   0.876   2.276
 9188SOL    HW228464   1.842   1.011   2.185
 9189SOL     OW28465   3.950   1.346   4.904
 9189SOL    HW128466   3.977   1.436   4.937
 9189SOL    HW228467   3.850   1.342   4.894
 9190SOL     OW28468   6.377   1.866   5.451
 9190SOL    HW128469   6.304   1.870   5.520
 9190SOL    HW228470   6.465   1.887   5.494
 9191SOL     OW28471   5.721   0.141   0.713
 9191SOL    HW128472   5.818   0.132   0.691
 9191SOL    HW228473   5.676   0.197   0.643
 9192SOL     OW28474   5.141   4.210   4.272
 9192SOL    HW128475   5.238   4.213   4.247
 9192SOL    HW228476   5.107   4.303   4.286
 9193SOL     OW28477   2.868   3.609   3.531
 9193SOL    HW128478   2.879   3.673   3.455
 9193SOL    HW228479   2.775   3.572   3.531
 9194SOL     OW28480   3.924   5.507   2.724
 9194SOL    HW128481   3.931   5.589   2.781
 9194SOL    HW228482   3.833   5.503   2.683
 9195SOL     OW28483   0.567   2.969   2.487
 9195SOL    HW128484   0.617   3.053   2.466
 9195SOL    HW228485   0.472   2.991   2.508
 9196SOL     OW28486   4.573   6.890   3.561
 9196SOL    HW128487   4.533   6.880   3.469
 9196SOL    HW228488   4.594   6.987   3.577
 9197SOL     OW28489   3.331   2.802   5.256
 9197SOL    HW128490   3.429   2.789   5.273
 9197SOL    HW228491   3.287   2.713   5.245
 9198SOL     OW28492   5.444   1.967   5.426
 9198SOL    HW128493   5.405   2.042   5.480
 9198SOL    HW228494   5.399   1.881   5.450
 9199SOL     OW28495   1.522   3.720   6.427
 9199SOL    HW128496   1.546   3.799   6.371
 9199SOL    HW228497   1.491   3.646   6.369
 9200SOL     OW28498   5.653   6.200   0.539
 9200SOL    HW128499   5.696   6.167   0.455
 9200SOL    HW228500   5.664   6.299   0.546
 9201SOL     OW28501   1.798   4.254   2.802
 9201SOL    HW128502   1.705   4.223   2.823
 9201SOL    HW228503   1.837   4.298   2.883
 9202SOL     OW28504   3.448   5.528   3.785
 9202SOL    HW128505   3.459   5.542   3.883
 9202SOL    HW228506   3.397   5.605   3.746
 9203SOL     OW28507   5.422   0.784   6.026
 9203SOL    HW128508   5.384   0.849   5.961
 9203SOL    HW228509   5.381   0.799   6.116
 9204SOL     OW28510   4.857   4.176   1.623
 9204SOL    HW128511   4.798   4.108   1.666
 9204SOL    HW228512   4.823   4.268   1.644
 9205SOL     OW28513   4.807   2.946   2.282
 9205SOL    HW128514   4.878   2.880   2.255
 9205SOL    HW228515   4.765   2.985   2.200
 9206SOL     OW28516   0.621   6.735   2.968
 9206SOL    HW128517   0.541   6.742   2.908
 9206SOL    HW228518   0.593   6.706   3.059
 9207SOL     OW28519   3.795   6.547   7.015
 9207SOL    HW128520   3.888   6.558   6.978
 9207SOL    HW228521   3.759   6.637   0.017
 9208SOL     OW28522   4.916   4.477   2.027
 9208SOL    HW128523   4.837   4.415   2.024
 9208SOL    HW228524   4.993   4.430   2.069
 9209SOL     OW28525   3.928   0.594   2.976
 9209SOL    HW128526   3.874   0.512   2.959
 9209SOL    HW228527   4.019   0.568   3.009
 9210SOL     OW28528   1.591   6.975   0.571
 9210SOL    HW128529   1.646   6.987   0.655
 9210SOL    HW228530   1.544   0.038   0.551
 9211SOL     OW28531   5.032   1.305   5.883
 9211SOL    HW128532   5.031   1.207   5.902
 9211SOL    HW228533   5.092   1.352   5.949
 9212SOL     OW28534   6.119   3.448   4.729
 9212SOL    HW128535   6.203   3.488   4.693
 9212SOL    HW228536   6.042   3.476   4.671
 9213SOL     OW28537   6.720   6.878   2.518
 9213SOL    HW128538   6.624   6.908   2.524
 9213SOL    HW228539   6.779   6.948   2.558
 9214SOL     OW28540   1.976   2.299   5.498
 9214SOL    HW128541   1.927   2.226   5.546
 9214SOL    HW228542   2.060   2.262   5.459
 9215SOL     OW28543   0.392   3.209   2.691
 9215SOL    HW128544   0.313   3.178   2.744
 9215SOL    HW228545   0.476   3.187   2.740
 9216SOL     OW28546   3.039   5.313   4.100
 9216SOL    HW128547   2.954   5.364   4.101
 9216SOL    HW228548   3.076   5.312   4.007
 9217SOL     OW28549   4.518   0.882   6.081
 9217SOL    HW128550   4.610   0.855   6.052
 9217SOL    HW228551   4.507   0.981   6.070
 9218SOL     OW28552   5.941   5.571   6.211
 9218SOL    HW128553   5.868   5.509   6.240
 9218SOL    HW228554   6.018   5.519   6.175
 9219SOL     OW28555   3.572   2.792   5.531
 9219SOL    HW128556   3.638   2.866   5.545
 9219SOL    HW228557   3.572   2.767   5.434
 9220SOL     OW28558   0.600   6.483   3.456
 9220SOL    HW128559   0.695   6.505   3.478
 9220SOL    HW228560   0.569   6.544   3.382
 9221SOL     OW28561   2.106   1.538   0.274
 9221SOL    HW128562   2.111   1.461   0.338
 9221SOL    HW228563   2.052   1.510   0.194
 9222SOL     OW28564   1.865   3.137   4.173
 9222SOL    HW128565   1.884   3.098   4.263
 9222SOL    HW228566   1.890   3.234   4.172
 9223SOL     OW28567   0.411   2.955   4.830
 9223SOL    HW128568   0.364   2.876   4.791
 9223SOL    HW228569   0.490   2.923   4.883
 9224SOL     OW28570   2.421   4.441   3.485
 9224SOL    HW128571   2.364   4.523   3.497
 9224SOL    HW228572   2.517   4.464   3.502
 9225SOL     OW28573   5.609   5.802   6.286
 9225SOL    HW128574   5.612   5.702   6.291
 9225SOL    HW228575   5.685   5.835   6.230
 9226SOL     OW28576   0.935   0.932   0.862
 9226SOL    HW128577   1.019   0.891   0.898
 9226SOL    HW228578   0.856   0.894   0.910
 9227SOL     OW28579   2.455   4.381   0.343
 9227SOL    HW128580   2.394   4.321   0.291
 9227SOL    HW228581   2.541   4.334   0.360
 9228SOL     OW28582   3.370   3.118   5.117
 9228SOL    HW128583   3.328   3.047   5.059
 9228SOL    HW228584   3.333   3.111   5.209
 9229SOL     OW28585   0.077   4.987   0.297
 9229SOL    HW128586   0.009   5.060   0.302
 9229SOL    HW228587   0.124   4.991   0.209
 9230SOL     OW28588   4.593   1.486   4.993
 9230SOL    HW128589   4.658   1.410   4.988
 9230SOL    HW228590   4.503   1.453   4.964
 9231SOL     OW28591   6.729   5.839   3.181
 9231SOL    HW128592   6.765   5.746   3.177
 9231SOL    HW228593   6.790   5.897   3.235
 9232SOL     OW28594   0.961   4.950   2.513
 9232SOL    HW128595   0.893   4.877   2.519
 9232SOL    HW228596   1.008   4.943   2.425
 9233SOL     OW28597   0.305   6.624   0.108
 9233SOL    HW128598   0.246   6.572   0.045
 9233SOL    HW228599   0.398   6.588   0.104
 9234SOL     OW28600   2.270   4.187   0.310
 9234SOL    HW128601   2.310   4.104   0.348
 9234SOL    HW228602   2.180   4.166   0.272
 9235SOL     OW28603   1.800   2.129   2.955
 9235SOL    HW128604   1.843   2.068   3.021
 9235SOL    HW228605   1.747   2.198   3.003
 9236SOL     OW28606   2.469   3.504   6.653
 9236SOL    HW128607   2.423   3.470   6.571
 9236SOL    HW228608   2.400   3.530   6.721
 9237SOL     OW28609   5.054   5.312   3.342
 9237SOL    HW128610   5.023   5.407   3.348
 9237SOL    HW228611   5.116   5.292   3.418
 9238SOL     OW28612   1.113   2.643   4.504
 9238SOL    HW128613   1.165   2.558   4.508
 9238SOL    HW228614   1.136   2.700   4.582
 9239SOL     OW28615   1.430   4.825   6.793
 9239SOL    HW128616   1.485   4.769   6.856
 9239SOL    HW228617   1.443   4.922   6.815
 9240SOL     OW28618   4.278   1.920   3.044
 9240SOL    HW128619   4.290   1.847   3.111
 9240SOL    HW228620   4.363   1.972   3.035
 9241SOL     OW28621   5.559   6.798   1.104
 9241SOL    HW128622   5.509   6.779   1.020
 9241SOL    HW228623   5.616   6.879   1.091
 9242SOL     OW28624   1.326   2.669   0.688
 9242SOL    HW128625   1.386   2.626   0.755
 9242SOL    HW228626   1.253   2.718   0.734
 9243SOL     OW28627   1.029   0.774   0.168
 9243SOL    HW128628   0.985   0.831   0.098
 9243SOL    HW228629   1.053   0.831   0.247
 9244SOL     OW28630   3.518   6.723   5.922
 9244SOL    HW128631   3.513   6.630   5.888
 9244SOL    HW228632   3.614   6.751   5.928
 9245SOL     OW28633   1.201   4.855   3.602
 9245SOL    HW128634   1.294   4.818   3.600
 9245SOL    HW228635   1.136   4.781   3.587
 9246SOL     OW28636   5.684   0.161   6.661
 9246SOL    HW128637   5.675   0.106   6.744
 9246SOL    HW228638   5.606   0.223   6.654
 9247SOL     OW28639   3.956   6.100   3.288
 9247SOL    HW128640   3.930   6.075   3.381
 9247SOL    HW228641   3.926   6.029   3.224
 9248SOL     OW28642   2.434   0.451   6.785
 9248SOL    HW128643   2.380   0.472   6.704
 9248SOL    HW228644   2.482   0.533   6.815
 9249SOL     OW28645   3.339   6.228   0.882
 9249SOL    HW128646   3.378   6.280   0.958
 9249SOL    HW228647   3.413   6.194   0.824
 9250SOL     OW28648   0.293   2.635   4.141
 9250SOL    HW128649   0.315   2.679   4.054
 9250SOL    HW228650   0.272   2.538   4.125
 9251SOL     OW28651   3.213   2.904   0.799
 9251SOL    HW128652   3.268   2.902   0.882
 9251SOL    HW228653   3.194   2.810   0.769
 9252SOL     OW28654   5.456   1.870   5.137
 9252SOL    HW128655   5.361   1.874   5.107
 9252SOL    HW228656   5.465   1.915   5.226
 9253SOL     OW28657   0.883   5.847   5.114
 9253SOL    HW128658   0.877   5.864   5.016
 9253SOL    HW228659   0.791   5.832   5.151
 9254SOL     OW28660   0.150   4.501   2.765
 9254SOL    HW128661   0.173   4.499   2.862
 9254SOL    HW228662   0.219   4.451   2.713
 9255SOL     OW28663   6.803   4.302   0.504
 9255SOL    HW128664   6.750   4.217   0.508
 9255SOL    HW228665   6.860   4.310   0.586
 9256SOL     OW28666   3.155   6.521   1.009
 9256SOL    HW128667   3.125   6.544   0.916
 9256SOL    HW228668   3.255   6.517   1.012
 9257SOL     OW28669   6.564   5.830   4.210
 9257SOL    HW128670   6.612   5.882   4.281
 9257SOL    HW228671   6.486   5.782   4.252
 9258SOL     OW28672   3.209   4.912   1.176
 9258SOL    HW128673   3.118   4.944   1.151
 9258SOL    HW228674   3.210   4.885   1.272
 9259SOL     OW28675   1.661   2.112   6.994
 9259SOL    HW128676   1.669   2.012   6.993
 9259SOL    HW228677   1.581   2.139   6.939
 9260SOL     OW28678   5.510   3.912   4.846
 9260SOL    HW128679   5.513   4.004   4.884
 9260SOL    HW228680   5.602   3.871   4.851
 9261SOL     OW28681   3.482   2.423   1.669
 9261SOL    HW128682   3.493   2.522   1.677
 9261SOL    HW228683   3.547   2.378   1.730
 9262SOL     OW28684   6.775   6.480   5.161
 9262SOL    HW128685   6.791   6.381   5.168
 9262SOL    HW228686   6.815   6.514   5.076
 9263SOL     OW28687   2.171   4.601   3.550
 9263SOL    HW128688   2.135   4.526   3.494
 9263SOL    HW228689   2.122   4.686   3.527
 9264SOL     OW28690   5.000   4.345   6.902
 9264SOL    HW128691   4.914   4.299   6.878
 9264SOL    HW228692   4.993   4.443   6.879
 9265SOL     OW28693   5.845   1.525   1.003
 9265SOL    HW128694   5.774   1.471   1.048
 9265SOL    HW228695   5.918   1.464   0.970
 9266SOL     OW28696   1.366   4.781   1.160
 9266SOL    HW128697   1.314   4.782   1.074
 9266SOL    HW228698   1.401   4.689   1.177
 9267SOL     OW28699   6.924   0.603   4.419
 9267SOL    HW128700   6.891   0.518   4.460
 9267SOL    HW228701   6.848   0.649   4.373
 9268SOL     OW28702   0.624   0.004   1.523
 9268SOL    HW128703   0.693   0.059   1.570
 9268SOL    HW228704   0.662   6.990   1.438
 9269SOL     OW28705   3.761   1.535   0.039
 9269SOL    HW128706   3.835   1.562   7.000
 9269SOL    HW228707   3.705   1.465   7.018
 9270SOL     OW28708   1.886   0.359   6.367
 9270SOL    HW128709   1.864   0.280   6.310
 9270SOL    HW228710   1.802   0.400   6.401
 9271SOL     OW28711   1.324   5.795   4.838
 9271SOL    HW128712   1.392   5.868   4.845
 9271SOL    HW228713   1.316   5.767   4.742
 9272SOL     OW28714   6.482   6.326   6.457
 9272SOL    HW128715   6.523   6.417   6.444
 9272SOL    HW228716   6.546   6.268   6.507
 9273SOL     OW28717   4.639   4.716   3.498
 9273SOL    HW128718   4.554   4.753   3.537
 9273SOL    HW228719   4.690   4.790   3.455
 9274SOL     OW28720   0.353   2.970   0.658
 9274SOL    HW128721   0.290   3.043   0.632
 9274SOL    HW228722   0.304   2.903   0.714
 9275SOL     OW28723   6.889   0.892   0.558
 9275SOL    HW128724   6.836   0.859   0.480
 9275SOL    HW228725   6.836   0.962   0.606
 9276SOL     OW28726   2.721   5.718   0.184
 9276SOL    HW128727   2.698   5.639   0.241
 9276SOL    HW228728   2.818   5.740   0.195
 9277SOL     OW28729   5.251   5.612   1.419
 9277SOL    HW128730   5.339   5.654   1.438
 9277SOL    HW228731   5.254   5.515   1.443
 9278SOL     OW28732   1.034   0.263   5.512
 9278SOL    HW128733   1.032   0.348   5.459
 9278SOL    HW228734   1.096   0.198   5.469
 9279SOL     OW28735   4.155   5.811   1.462
 9279SOL    HW128736   4.158   5.809   1.362
 9279SOL    HW228737   4.060   5.802   1.493
 9280SOL     OW28738   1.391   6.532   2.631
 9280SOL    HW128739   1.472   6.553   2.576
 9280SOL    HW228740   1.324   6.483   2.575
 9281SOL     OW28741   2.424   5.385   6.965
 9281SOL    HW128742   2.463   5.327   6.893
 9281SOL    HW228743   2.488   5.458   6.987
 9282SOL     OW28744   3.339   0.057   5.277
 9282SOL    HW128745   3.379   0.086   5.190
 9282SOL    HW228746   3.328   0.137   5.336
 9283SOL     OW28747   4.342   6.741   0.891
 9283SOL    HW128748   4.398   6.663   0.919
 9283SOL    HW228749   4.352   6.815   0.957
 9284SOL     OW28750   4.275   3.833   5.301
 9284SOL    HW128751   4.345   3.763   5.317
 9284SOL    HW228752   4.190   3.790   5.273
 9285SOL     OW28753   0.507   5.258   2.667
 9285SOL    HW128754   0.599   5.223   2.645
 9285SOL    HW228755   0.454   5.266   2.583
 9286SOL     OW28756   4.854   6.458   1.226
 9286SOL    HW128757   4.913   6.481   1.304
 9286SOL    HW228758   4.759   6.451   1.257
 9287SOL     OW28759   3.874   3.809   5.564
 9287SOL    HW128760   3.957   3.858   5.590
 9287SOL    HW228761   3.806   3.817   5.638
 9288SOL     OW28762   3.507   2.013   2.511
 9288SOL    HW128763   3.540   2.042   2.421
 9288SOL    HW228764   3.491   2.093   2.569
 9289SOL     OW28765   5.020   6.657   0.535
 9289SOL    HW128766   5.049   6.703   0.451
 9289SOL    HW228767   5.084   6.583   0.557
 9290SOL     OW28768   4.874   1.342   4.062
 9290SOL    HW128769   4.954   1.305   4.109
 9290SOL    HW228770   4.831   1.270   4.008
 9291SOL     OW28771   0.956   4.272   6.306
 9291SOL    HW128772   1.042   4.285   6.257
 9291SOL    HW228773   0.939   4.174   6.318
 9292SOL     OW28774   0.774   1.466   6.900
 9292SOL    HW128775   0.839   1.542   6.894
 9292SOL    HW228776   0.744   1.456   6.995
 9293SOL     OW28777   4.712   2.559   4.370
 9293SOL    HW128778   4.705   2.461   4.350
 9293SOL    HW228779   4.803   2.592   4.345
 9294SOL     OW28780   4.710   0.280   6.496
 9294SOL    HW128781   4.769   0.354   6.527
 9294SOL    HW228782   4.687   0.293   6.399
 9295SOL     OW28783   0.444   0.843   5.188
 9295SOL    HW128784   0.505   0.773   5.153
 9295SOL    HW228785   0.376   0.802   5.250
 9296SOL     OW28786   2.150   4.660   6.481
 9296SOL    HW128787   2.137   4.758   6.470
 9296SOL    HW228788   2.094   4.611   6.415
 9297SOL     OW28789   6.332   6.006   2.323
 9297SOL    HW128790   6.322   5.918   2.276
 9297SOL    HW228791   6.311   6.080   2.260
 9298SOL     OW28792   1.490   4.852   6.534
 9298SOL    HW128793   1.470   4.835   6.630
 9298SOL    HW228794   1.588   4.842   6.517
 9299SOL     OW28795   2.553   2.574   4.600
 9299SOL    HW128796   2.640   2.545   4.559
 9299SOL    HW228797   2.567   2.594   4.697
 9300SOL     OW28798   1.842   5.484   4.828
 9300SOL    HW128799   1.906   5.478   4.905
 9300SOL    HW228800   1.766   5.543   4.853
 9301SOL     OW28801   6.976   4.611   4.861
 9301SOL    HW128802   6.938   4.592   4.771
 9301SOL    HW228803   6.926   4.559   4.930
 9302SOL     OW28804   2.162   3.667   5.174
 9302SOL    HW128805   2.174   3.766   5.173
 9302SOL    HW228806   2.072   3.644   5.138
 9303SOL     OW28807   2.522   4.642   0.095
 9303SOL    HW128808   2.571   4.591   0.165
 9303SOL    HW228809   2.525   4.593   0.008
 9304SOL     OW28810   4.759   5.068   6.975
 9304SOL    HW128811   4.737   5.113   6.889
 9304SOL    HW228812   4.848   5.099   7.008
 9305SOL     OW28813   2.056   1.890   1.463
 9305SOL    HW128814   2.134   1.885   1.526
 9305SOL    HW228815   1.988   1.821   1.488
 9306SOL     OW28816   6.891   6.178   5.233
 9306SOL    HW128817   6.962   6.249   5.229
 9306SOL    HW228818   6.811   6.214   5.281
 9307SOL     OW28819   1.872   3.524   1.432
 9307SOL    HW128820   1.853   3.443   1.377
 9307SOL    HW228821   1.890   3.497   1.526
 9308SOL     OW28822   1.976   3.554   1.982
 9308SOL    HW128823   1.954   3.631   1.921
 9308SOL    HW228824   2.073   3.532   1.972
 9309SOL     OW28825   4.710   5.059   6.412
 9309SOL    HW128826   4.703   4.978   6.354
 9309SOL    HW228827   4.684   5.140   6.360
 9310SOL     OW28828   6.020   6.703   7.006
 9310SOL    HW128829   6.107   6.660   0.008
 9310SOL    HW228830   5.945   6.638   7.023
 9311SOL     OW28831   4.352   3.586   1.198
 9311SOL    HW128832   4.424   3.648   1.165
 9311SOL    HW228833   4.394   3.508   1.244
 9312SOL     OW28834   0.836   3.024   3.394
 9312SOL    HW128835   0.915   2.969   3.420
 9312SOL    HW228836   0.761   3.008   3.458
 9313SOL     OW28837   0.554   0.916   2.245
 9313SOL    HW128838   0.506   0.992   2.289
 9313SOL    HW228839   0.514   0.899   2.155
 9314SOL     OW28840   5.256   3.917   0.574
 9314SOL    HW128841   5.228   3.832   0.531
 9314SOL    HW228842   5.298   3.977   0.506
 9315SOL     OW28843   5.089   6.728   6.007
 9315SOL    HW128844   5.035   6.790   6.064
 9315SOL    HW228845   5.027   6.667   5.957
 9316SOL     OW28846   4.906   0.820   5.649
 9316SOL    HW128847   4.810   0.841   5.634
 9316SOL    HW228848   4.962   0.897   5.618
 9317SOL     OW28849   3.835   5.924   3.141
 9317SOL    HW128850   3.828   5.824   3.134
 9317SOL    HW228851   3.791   5.966   3.062
 9318SOL     OW28852   4.062   6.401   1.686
 9318SOL    HW128853   4.124   6.458   1.741
 9318SOL    HW228854   4.083   6.413   1.589
 9319SOL     OW28855   2.955   2.738   6.477
 9319SOL    HW128856   3.012   2.676   6.423
 9319SOL    HW228857   2.965   2.718   6.574
 9320SOL     OW28858   6.215   6.361   0.037
 9320SOL    HW128859   6.227   6.440   0.097
 9320SOL    HW228860   6.278   6.367   6.983
 9321SOL     OW28861   0.492   3.222   4.790
 9321SOL    HW128862   0.517   3.260   4.879
 9321SOL    HW228863   0.475   3.124   4.799
 9322SOL     OW28864   6.092   3.295   6.814
 9322SOL    HW128865   6.066   3.384   6.851
 9322SOL    HW228866   6.010   3.243   6.790
 9323SOL     OW28867   0.229   2.049   5.814
 9323SOL    HW128868   0.307   2.109   5.799
 9323SOL    HW228869   0.171   2.049   5.732
 9324SOL     OW28870   0.943   4.647   2.064
 9324SOL    HW128871   0.853   4.667   2.102
 9324SOL    HW228872   0.962   4.549   2.072
 9325SOL     OW28873   0.949   4.517   3.351
 9325SOL    HW128874   0.864   4.470   3.327
 9325SOL    HW228875   0.960   4.597   3.292
 9326SOL     OW28876   4.535   4.269   1.608
 9326SOL    HW128877   4.601   4.340   1.633
 9326SOL    HW228878   4.487   4.237   1.690
 9327SOL     OW28879   4.013   0.821   3.537
 9327SOL    HW128880   3.942   0.852   3.474
 9327SOL    HW228881   4.103   0.845   3.500
 9328SOL     OW28882   2.335   0.257   4.178
 9328SOL    HW128883   2.246   0.273   4.137
 9328SOL    HW228884   2.333   0.173   4.232
 9329SOL     OW28885   0.536   5.523   6.538
 9329SOL    HW128886   0.572   5.454   6.602
 9329SOL    HW228887   0.466   5.481   6.480
 9330SOL     OW28888   6.588   6.233   0.053
 9330SOL    HW128889   6.517   6.297   0.085
 9330SOL    HW228890   6.549   6.171   7.008
 9331SOL     OW28891   1.925   3.421   3.640
 9331SOL    HW128892   2.016   3.457   3.621
 9331SOL    HW228893   1.863   3.447   3.566
 9332SOL     OW28894   4.765   5.798   0.561
 9332SOL    HW128895   4.665   5.797   0.567
 9332SOL    HW228896   4.803   5.813   0.652
 9333SOL     OW28897   4.212   4.127   0.651
 9333SOL    HW128898   4.271   4.187   0.706
 9333SOL    HW228899   4.257   4.106   0.564
 9334SOL     OW28900   5.957   6.052   5.821
 9334SOL    HW128901   6.018   6.004   5.884
 9334SOL    HW228902   5.899   5.985   5.774
 9335SOL     OW28903   0.880   3.646   2.036
 9335SOL    HW128904   0.857   3.678   2.127
 9335SOL    HW228905   0.954   3.701   1.998
 9336SOL     OW28906   5.786   6.700   5.528
 9336SOL    HW128907   5.879   6.663   5.537
 9336SOL    HW228908   5.763   6.709   5.432
 9337SOL     OW28909   2.375   0.414   6.263
 9337SOL    HW128910   2.283   0.450   6.253
 9337SOL    HW228911   2.374   0.314   6.252
 9338SOL     OW28912   5.626   6.752   0.233
 9338SOL    HW128913   5.541   6.716   0.272
 9338SOL    HW228914   5.703   6.697   0.266
 9339SOL     OW28915   5.943   3.857   5.642
 9339SOL    HW128916   6.036   3.837   5.673
 9339SOL    HW228917   5.935   3.955   5.625
 9340SOL     OW28918   3.798   5.094   0.871
 9340SOL    HW128919   3.815   5.032   0.948
 9340SOL    HW228920   3.883   5.109   0.820
 9341SOL     OW28921   5.319   4.260   6.423
 9341SOL    HW128922   5.297   4.355   6.402
 9341SOL    HW228923   5.235   4.210   6.446
 9342SOL     OW28924   3.390   0.528   4.043
 9342SOL    HW128925   3.461   0.570   4.099
 9342SOL    HW228926   3.310   0.508   4.100
 9343SOL     OW28927   4.556   3.918   1.278
 9343SOL    HW128928   4.575   4.015   1.262
 9343SOL    HW228929   4.640   3.865   1.264
 9344SOL     OW28930   6.035   6.657   5.181
 9344SOL    HW128931   6.046   6.679   5.084
 9344SOL    HW228932   5.954   6.704   5.217
 9345SOL     OW28933   1.168   5.718   0.071
 9345SOL    HW128934   1.247   5.695   0.015
 9345SOL    HW228935   1.120   5.796   0.031
 9346SOL     OW28936   5.842   6.101   0.787
 9346SOL    HW128937   5.784   6.080   0.865
 9346SOL    HW228938   5.785   6.130   0.710
 9347SOL     OW28939   3.515   5.441   0.787
 9347SOL    HW128940   3.561   5.505   0.849
 9347SOL    HW228941   3.423   5.473   0.767
 9348SOL     OW28942   2.489   5.743   1.653
 9348SOL    HW128943   2.558   5.794   1.602
 9348SOL    HW228944   2.401   5.791   1.647
 9349SOL     OW28945   6.696   5.728   1.968
 9349SOL    HW128946   6.663   5.747   2.061
 9349SOL    HW228947   6.746   5.807   1.933
 9350SOL     OW28948   6.588   0.441   5.774
 9350SOL    HW128949   6.592   0.356   5.827
 9350SOL    HW228950   6.591   0.519   5.836
 9351SOL     OW28951   3.372   2.509   5.855
 9351SOL    HW128952   3.438   2.578   5.825
 9351SOL    HW228953   3.280   2.535   5.825
 9352SOL     OW28954   3.134   2.650   5.789
 9352SOL    HW128955   3.140   2.739   5.835
 9352SOL    HW228956   3.154   2.662   5.692
 9353SOL     OW28957   0.704   3.910   1.728
 9353SOL    HW128958   0.720   3.991   1.784
 9353SOL    HW228959   0.681   3.832   1.786
 9354SOL     OW28960   5.097   1.934   1.608
 9354SOL    HW128961   5.048   1.879   1.540
 9354SOL    HW228962   5.114   2.025   1.570
 9355SOL     OW28963   6.407   0.479   3.215
 9355SOL    HW128964   6.359   0.486   3.128
 9355SOL    HW228965   6.422   0.382   3.237
 9356SOL     OW28966   4.379   4.667   2.329
 9356SOL    HW128967   4.296   4.690   2.280
 9356SOL    HW228968   4.423   4.589   2.286
 9357SOL     OW28969   3.763   2.854   0.920
 9357SOL    HW128970   3.824   2.781   0.890
 9357SOL    HW228971   3.802   2.900   1.000
 9358SOL     OW28972   5.903   4.585   2.293
 9358SOL    HW128973   5.924   4.500   2.244
 9358SOL    HW228974   5.809   4.581   2.328
 9359SOL     OW28975   6.367   3.731   5.924
 9359SOL    HW128976   6.434   3.750   5.996
 9359SOL    HW228977   6.318   3.647   5.946
 9360SOL     OW28978   2.015   0.793   6.842
 9360SOL    HW128979   1.976   0.705   6.869
 9360SOL    HW228980   2.040   0.790   6.745
 9361SOL     OW28981   3.006   0.084   2.315
 9361SOL    HW128982   3.071   0.158   2.296
 9361SOL    HW228983   3.037   7.023   2.272
 9362SOL     OW28984   2.263   1.479   3.152
 9362SOL    HW128985   2.291   1.555   3.210
 9362SOL    HW228986   2.308   1.395   3.184
 9363SOL     OW28987   2.913   5.987   2.080
 9363SOL    HW128988   3.007   6.016   2.100
 9363SOL    HW228989   2.906   5.888   2.087
 9364SOL     OW28990   4.581   5.099   0.159
 9364SOL    HW128991   4.578   5.199   0.153
 9364SOL    HW228992   4.632   5.062   0.082
 9365SOL     OW28993   2.537   1.498   5.008
 9365SOL    HW128994   2.476   1.470   5.082
 9365SOL    HW228995   2.506   1.585   4.970
 9366SOL     OW28996   2.477   1.937   0.653
 9366SOL    HW128997   2.524   1.897   0.731
 9366SOL    HW228998   2.434   1.865   0.599
 9367SOL     OW28999   6.695   5.534   3.254
 9367SOL    HW129000   6.693   5.436   3.239
 9367SOL    HW229001   6.757   5.556   3.329
 9368SOL     OW29002   3.102   2.559   1.349
 9368SOL    HW129003   3.139   2.642   1.389
 9368SOL    HW229004   3.002   2.563   1.349
 9369SOL     OW29005   0.052   2.308   4.555
 9369SOL    HW129006   0.112   2.383   4.529
 9369SOL    HW229007   0.005   2.330   4.640
 9370SOL     OW29008   6.048   1.355   3.121
 9370SOL    HW129009   6.040   1.298   3.203
 9370SOL    HW229010   6.068   1.297   3.042
 9371SOL     OW29011   0.411   6.485   0.607
 9371SOL    HW129012   0.345   6.533   0.550
 9371SOL    HW229013   0.366   6.407   0.651
 9372SOL     OW29014   6.040   6.766   4.942
 9372SOL    HW129015   6.129   6.767   4.896
 9372SOL    HW229016   5.979   6.833   4.898
 9373SOL     OW29017   3.879   1.780   3.383
 9373SOL    HW129018   3.823   1.700   3.362
 9373SOL    HW229019   3.851   1.857   3.326
 9374SOL     OW29020   5.204   3.698   0.392
 9374SOL    HW129021   5.299   3.680   0.367
 9374SOL    HW229022   5.159   3.613   0.416
 9375SOL     OW29023   0.628   1.395   3.741
 9375SOL    HW129024   0.679   1.436   3.665
 9375SOL    HW229025   0.550   1.343   3.705
 9376SOL     OW29026   2.321   3.974   1.808
 9376SOL    HW129027   2.311   4.016   1.898
 9376SOL    HW229028   2.306   3.875   1.816
 9377SOL     OW29029   5.900   5.249   4.476
 9377SOL    HW129030   5.971   5.212   4.416
 9377SOL    HW229031   5.853   5.173   4.522
 9378SOL     OW29032   2.773   0.013   0.452
 9378SOL    HW129033   2.801   0.096   0.404
 9378SOL    HW229034   2.750   0.035   0.546
 9379SOL     OW29035   5.115   4.697   4.264
 9379SOL    HW129036   5.048   4.758   4.222
 9379SOL    HW229037   5.132   4.726   4.358
 9380SOL     OW29038   5.686   6.789   5.755
 9380SOL    HW129039   5.726   6.749   5.672
 9380SOL    HW229040   5.728   6.748   5.835
 9381SOL     OW29041   2.395   1.594   5.873
 9381SOL    HW129042   2.426   1.666   5.810
 9381SOL    HW229043   2.315   1.625   5.923
 9382SOL     OW29044   5.155   2.329   3.019
 9382SOL    HW129045   5.066   2.363   3.050
 9382SOL    HW229046   5.148   2.302   2.923
 9383SOL     OW29047   3.892   5.894   4.442
 9383SOL    HW129048   3.958   5.852   4.380
 9383SOL    HW229049   3.840   5.822   4.489
 9384SOL     OW29050   4.833   5.689   1.579
 9384SOL    HW129051   4.929   5.712   1.596
 9384SOL    HW229052   4.781   5.701   1.664
 9385SOL     OW29053   3.472   1.077   3.226
 9385SOL    HW129054   3.548   1.082   3.161
 9385SOL    HW229055   3.423   1.165   3.227
 9386SOL     OW29056   2.841   7.020   5.513
 9386SOL    HW129057   2.913   7.004   5.446
 9386SOL    HW229058   2.815   0.094   5.512
 9387SOL     OW29059   3.661   6.809   7.011
 9387SOL    HW129060   3.646   6.822   6.913
 9387SOL    HW229061   3.575   6.821   0.037
 9388SOL     OW29062   6.689   0.541   3.213
 9388SOL    HW129063   6.592   0.520   3.198
 9388SOL    HW229064   6.698   0.632   3.251
 9389SOL     OW29065   2.938   0.624   5.516
 9389SOL    HW129066   2.900   0.702   5.467
 9389SOL    HW229067   3.004   0.655   5.584
 9390SOL     OW29068   2.669   5.027   2.531
 9390SOL    HW129069   2.617   5.052   2.449
 9390SOL    HW229070   2.744   4.967   2.506
 9391SOL     OW29071   0.786   1.111   6.301
 9391SOL    HW129072   0.753   1.108   6.207
 9391SOL    HW229073   0.883   1.134   6.302
 9392SOL     OW29074   1.664   6.056   4.350
 9392SOL    HW129075   1.682   6.154   4.361
 9392SOL    HW229076   1.637   6.017   4.438
 9393SOL     OW29077   3.601   2.083   5.436
 9393SOL    HW129078   3.526   2.056   5.376
 9393SOL    HW229079   3.634   2.003   5.486
 9394SOL     OW29080   6.259   2.657   2.492
 9394SOL    HW129081   6.263   2.690   2.398
 9394SOL    HW229082   6.172   2.611   2.508
 9395SOL     OW29083   2.249   3.333   0.665
 9395SOL    HW129084   2.260   3.237   0.692
 9395SOL    HW229085   2.179   3.339   0.593
 9396SOL     OW29086   6.399   0.300   6.135
 9396SOL    HW129087   6.384   0.399   6.141
 9396SOL    HW229088   6.486   0.283   6.089
 9397SOL     OW29089   2.747   0.295   1.166
 9397SOL    HW129090   2.674   0.237   1.203
 9397SOL    HW229091   2.732   0.309   1.068
 9398SOL     OW29092   2.687   1.580   6.134
 9398SOL    HW129093   2.676   1.665   6.083
 9398SOL    HW229094   2.603   1.526   6.127
 9399SOL     OW29095   0.021   0.653   5.454
 9399SOL    HW129096   6.954   0.677   5.418
 9399SOL    HW229097   0.013   0.627   5.550
 9400SOL     OW29098   5.872   2.776   2.413
 9400SOL    HW129099   5.888   2.793   2.315
 9400SOL    HW229100   5.778   2.800   2.436
 9401SOL     OW29101   3.158   6.868   2.991
 9401SOL    HW129102   3.252   6.901   2.980
 9401SOL    HW229103   3.152   6.774   2.956
 9402SOL     OW29104   1.964   5.153   6.410
 9402SOL    HW129105   2.025   5.116   6.480
 9402SOL    HW229106   1.922   5.078   6.359
 9403SOL     OW29107   5.161   1.675   4.093
 9403SOL    HW129108   5.133   1.753   4.148
 9403SOL    HW229109   5.228   1.704   4.024
 9404SOL     OW29110   1.182   4.389   6.610
 9404SOL    HW129111   1.145   4.460   6.551
 9404SOL    HW229112   1.227   4.319   6.553
 9405SOL     OW29113   6.276   6.939   1.060
 9405SOL    HW129114   6.333   7.010   1.019
 9405SOL    HW229115   6.333   6.872   1.106
 9406SOL     OW29116   0.295   1.555   4.842
 9406SOL    HW129117   0.280   1.564   4.941
 9406SOL    HW229118   0.326   1.643   4.806
 9407SOL     OW29119   3.445   5.786   3.098
 9407SOL    HW129120   3.411   5.694   3.079
 9407SOL    HW229121   3.388   5.853   3.051
 9408SOL     OW29122   3.788   1.674   6.409
 9408SOL    HW129123   3.732   1.665   6.327
 9408SOL    HW229124   3.848   1.754   6.400
 9409SOL     OW29125   5.871   3.981   3.743
 9409SOL    HW129126   5.814   4.025   3.813
 9409SOL    HW229127   5.962   4.022   3.744
 9410SOL     OW29128   4.082   5.934   2.603
 9410SOL    HW129129   4.122   6.025   2.593
 9410SOL    HW229130   4.047   5.923   2.696
 9411SOL     OW29131   4.203   5.210   0.238
 9411SOL    HW129132   4.298   5.242   0.234
 9411SOL    HW229133   4.147   5.279   0.285
 9412SOL     OW29134   7.000   2.240   1.328
 9412SOL    HW129135   6.987   2.337   1.349
 9412SOL    HW229136   7.012   2.228   1.230
 9413SOL     OW29137   3.850   6.075   5.588
 9413SOL    HW129138   3.757   6.102   5.612
 9413SOL    HW229139   3.857   6.063   5.489
 9414SOL     OW29140   2.903   1.716   2.239
 9414SOL    HW129141   2.806   1.737   2.244
 9414SOL    HW229142   2.949   1.782   2.179
 9415SOL     OW29143   2.682   6.768   2.278
 9415SOL    HW129144   2.646   6.816   2.198
 9415SOL    HW229145   2.625   6.789   2.358
 9416SOL     OW29146   1.116   2.289   1.477
 9416SOL    HW129147   1.067   2.232   1.410
 9416SOL    HW229148   1.200   2.324   1.435
 9417SOL     OW29149   2.468   5.581   5.344
 9417SOL    HW129150   2.437   5.487   5.350
 9417SOL    HW229151   2.523   5.593   5.261
 9418SOL     OW29152   3.081   5.338   1.041
 9418SOL    HW129153   3.026   5.337   0.958
 9418SOL    HW229154   3.177   5.348   1.018
 9419SOL     OW29155   2.773   6.651   5.139
 9419SOL    HW129156   2.729   6.723   5.193
 9419SOL    HW229157   2.869   6.643   5.166
 9420SOL     OW29158   0.220   1.350   4.459
 9420SOL    HW129159   0.183   1.270   4.413
 9420SOL    HW229160   0.234   1.329   4.556
 9421SOL     OW29161   1.074   4.326   5.482
 9421SOL    HW129162   1.044   4.390   5.411
 9421SOL    HW229163   1.166   4.351   5.512
 9422SOL     OW29164   4.985   0.769   2.358
 9422SOL    HW129165   5.019   0.861   2.377
 9422SOL    HW229166   4.968   0.722   2.445
 9423SOL     OW29167   3.673   0.759   4.097
 9423SOL    HW129168   3.663   0.687   4.028
 9423SOL    HW229169   3.589   0.813   4.100
 9424SOL     OW29170   3.541   6.278   4.543
 9424SOL    HW129171   3.565   6.361   4.495
 9424SOL    HW229172   3.616   6.251   4.603
 9425SOL     OW29173   1.069   3.088   4.671
 9425SOL    HW129174   0.996   3.075   4.604
 9425SOL    HW229175   1.029   3.116   4.758
 9426SOL     OW29176   3.244   0.337   6.811
 9426SOL    HW129177   3.183   0.413   6.833
 9426SOL    HW229178   3.277   0.347   6.717
 9427SOL     OW29179   3.087   5.321   4.865
 9427SOL    HW129180   3.187   5.322   4.870
 9427SOL    HW229181   3.055   5.407   4.825
 9428SOL     OW29182   5.505   0.244   2.860
 9428SOL    HW129183   5.486   0.265   2.764
 9428SOL    HW229184   5.492   0.146   2.876
 9429SOL     OW29185   0.539   4.205   2.543
 9429SOL    HW129186   0.578   4.173   2.629
 9429SOL    HW229187   0.519   4.126   2.484
 9430SOL     OW29188   6.782   6.881   1.839
 9430SOL    HW129189   6.831   6.796   1.857
 9430SOL    HW229190   6.721   6.901   1.915
 9431SOL     OW29191   6.611   4.384   1.319
 9431SOL    HW129192   6.668   4.310   1.284
 9431SOL    HW229193   6.643   4.410   1.410
 9432SOL     OW29194   6.591   6.813   3.146
 9432SOL    HW129195   6.594   6.716   3.171
 9432SOL    HW229196   6.593   6.821   3.046
 9433SOL     OW29197   3.425   4.696   5.304
 9433SOL    HW129198   3.330   4.669   5.320
 9433SOL    HW229199   3.428   4.788   5.265
 9434SOL     OW29200   5.182   4.910   2.701
 9434SOL    HW129201   5.097   4.959   2.682
 9434SOL    HW229202   5.204   4.917   2.798
 9435SOL     OW29203   1.482   0.881   4.207
 9435SOL    HW129204   1.550   0.867   4.279
 9435SOL    HW229205   1.450   0.976   4.211
 9436SOL     OW29206   2.467   3.602   0.239
 9436SOL    HW129207   2.517   3.588   0.324
 9436SOL    HW229208   2.399   3.674   0.252
 9437SOL     OW29209   1.364   5.183   3.520
 9437SOL    HW129210   1.281   5.237   3.506
 9437SOL    HW229211   1.375   5.119   3.445
 9438SOL     OW29212   1.074   6.545   2.161
 9438SOL    HW129213   1.054   6.636   2.196
 9438SOL    HW229214   1.030   6.533   2.072
 9439SOL     OW29215   0.483   2.588   2.318
 9439SOL    HW129216   0.564   2.641   2.341
 9439SOL    HW229217   0.505   2.521   2.247
 9440SOL     OW29218   5.153   6.271   6.240
 9440SOL    HW129219   5.161   6.370   6.235
 9440SOL    HW229220   5.235   6.233   6.284
 9441SOL     OW29221   1.598   4.989   5.269
 9441SOL    HW129222   1.654   5.033   5.198
 9441SOL    HW229223   1.530   4.930   5.226
 9442SOL     OW29224   6.874   3.317   1.203
 9442SOL    HW129225   6.966   3.280   1.196
 9442SOL    HW229226   6.809   3.244   1.220
 9443SOL     OW29227   1.997   4.017   1.467
 9443SOL    HW129228   1.977   4.013   1.369
 9443SOL    HW229229   2.091   3.988   1.483
 9444SOL     OW29230   0.267   3.535   0.211
 9444SOL    HW129231   0.269   3.547   0.311
 9444SOL    HW229232   0.327   3.459   0.186
 9445SOL     OW29233   5.456   3.600   1.306
 9445SOL    HW129234   5.522   3.576   1.377
 9445SOL    HW229235   5.364   3.603   1.346
 9446SOL     OW29236   6.436   6.071   1.790
 9446SOL    HW129237   6.474   6.071   1.882
 9446SOL    HW229238   6.416   5.977   1.762
 9447SOL     OW29239   5.990   3.747   2.189
 9447SOL    HW129240   6.029   3.779   2.103
 9447SOL    HW229241   5.986   3.647   2.188
 9448SOL     OW29242   5.856   6.577   0.311
 9448SOL    HW129243   5.863   6.487   0.355
 9448SOL    HW229244   5.853   6.564   0.211
 9449SOL     OW29245   6.031   4.971   5.865
 9449SOL    HW129246   5.957   4.909   5.840
 9449SOL    HW229247   5.998   5.066   5.857
 9450SOL     OW29248   3.003   4.858   4.756
 9450SOL    HW129249   2.937   4.816   4.694
 9450SOL    HW229250   2.974   4.844   4.851
 9451SOL     OW29251   4.361   5.264   6.235
 9451SOL    HW129252   4.302   5.191   6.271
 9451SOL    HW229253   4.457   5.240   6.252
 9452SOL     OW29254   2.485   4.765   1.676
 9452SOL    HW129255   2.574   4.806   1.698
 9452SOL    HW229256   2.465   4.692   1.741
 9453SOL     OW29257   2.588   5.410   2.787
 9453SOL    HW129258   2.492   5.384   2.775
 9453SOL    HW229259   2.593   5.506   2.813
 9454SOL     OW29260   1.534   3.262   5.936
 9454SOL    HW129261   1.599   3.268   5.861
 9454SOL    HW229262   1.582   3.270   6.024
 9455SOL     OW29263   3.436   1.563   2.204
 9455SOL    HW129264   3.512   1.628   2.207
 9455SOL    HW229265   3.365   1.597   2.142
 9456SOL     OW29266   1.164   3.602   1.165
 9456SOL    HW129267   1.078   3.624   1.119
 9456SOL    HW229268   1.198   3.514   1.133
 9457SOL     OW29269   1.051   3.208   0.305
 9457SOL    HW129270   1.043   3.115   0.271
 9457SOL    HW229271   1.139   3.247   0.279
 9458SOL     OW29272   0.006   5.451   5.048
 9458SOL    HW129273   6.994   5.357   5.061
 9458SOL    HW229274   0.041   5.486   5.134
 9459SOL     OW29275   6.192   5.823   1.579
 9459SOL    HW129276   6.127   5.872   1.638
 9459SOL    HW229277   6.281   5.819   1.625
 9460SOL     OW29278   0.756   1.883   5.291
 9460SOL    HW129279   0.836   1.844   5.336
 9460SOL    HW229280   0.774   1.895   5.194
 9461SOL     OW29281   0.906   0.859   3.987
 9461SOL    HW129282   0.905   0.786   4.055
 9461SOL    HW229283   0.830   0.922   4.004
 9462SOL     OW29284   1.083   2.486   2.227
 9462SOL    HW129285   1.013   2.514   2.293
 9462SOL    HW229286   1.113   2.567   2.175
 9463SOL     OW29287   5.907   1.453   0.158
 9463SOL    HW129288   5.940   1.504   0.237
 9463SOL    HW229289   5.871   1.365   0.187
 9464SOL     OW29290   5.861   7.004   5.982
 9464SOL    HW129291   5.876   7.001   6.080
 9464SOL    HW229292   5.769   0.017   5.963
 9465SOL     OW29293   6.397   0.367   4.122
 9465SOL    HW129294   6.429   0.272   4.127
 9465SOL    HW229295   6.464   0.427   4.166
 9466SOL     OW29296   2.662   2.656   6.237
 9466SOL    HW129297   2.592   2.716   6.276
 9466SOL    HW229298   2.684   2.687   6.144
 9467SOL     OW29299   1.898   2.842   2.350
 9467SOL    HW129300   1.820   2.855   2.288
 9467SOL    HW229301   1.981   2.878   2.307
 9468SOL     OW29302   0.143   3.123   5.547
 9468SOL    HW129303   0.221   3.119   5.609
 9468SOL    HW229304   0.168   3.084   5.458
 9469SOL     OW29305   6.159   5.347   2.385
 9469SOL    HW129306   6.181   5.388   2.296
 9469SOL    HW229307   6.241   5.303   2.423
 9470SOL     OW29308   4.265   3.712   0.540
 9470SOL    HW129309   4.317   3.794   0.520
 9470SOL    HW229310   4.326   3.633   0.546
 9471SOL     OW29311   0.117   2.063   5.539
 9471SOL    HW129312   0.168   2.149   5.549
 9471SOL    HW229313   0.157   2.009   5.466
 9472SOL     OW29314   5.410   4.608   4.365
 9472SOL    HW129315   5.313   4.626   4.383
 9472SOL    HW229316   5.422   4.580   4.269
 9473SOL     OW29317   2.597   5.570   6.009
 9473SOL    HW129318   2.499   5.568   5.990
 9473SOL    HW229319   2.623   5.663   6.038
 9474SOL     OW29320   4.590   5.118   2.055
 9474SOL    HW129321   4.522   5.072   2.113
 9474SOL    HW229322   4.677   5.069   2.062
 9475SOL     OW29323   2.643   3.743   1.353
 9475SOL    HW129324   2.711   3.791   1.409
 9475SOL    HW229325   2.668   3.647   1.346
 9476SOL     OW29326   3.724   3.197   5.143
 9476SOL    HW129327   3.758   3.159   5.058
 9476SOL    HW229328   3.668   3.278   5.123
 9477SOL     OW29329   1.040   2.688   1.283
 9477SOL    HW129330   1.062   2.781   1.253
 9477SOL    HW229331   1.084   2.670   1.371
 9478SOL     OW29332   5.760   4.665   5.406
 9478SOL    HW129333   5.697   4.742   5.414
 9478SOL    HW229334   5.730   4.590   5.466
 9479SOL     OW29335   6.056   5.686   6.497
 9479SOL    HW129336   6.034   5.602   6.448
 9479SOL    HW229337   5.974   5.742   6.504
 9480SOL     OW29338   5.736   4.819   6.888
 9480SOL    HW129339   5.687   4.859   6.965
 9480SOL    HW229340   5.703   4.725   6.873
 9481SOL     OW29341   6.923   3.322   1.800
 9481SOL    HW129342   6.965   3.315   1.891
 9481SOL    HW229343   6.874   3.409   1.794
 9482SOL     OW29344   4.827   1.187   2.164
 9482SOL    HW129345   4.865   1.095   2.163
 9482SOL    HW229346   4.788   1.206   2.255
 9483SOL     OW29347   1.778   1.860   0.211
 9483SOL    HW129348   1.744   1.780   0.261
 9483SOL    HW229349   1.767   1.844   0.113
 9484SOL     OW29350   6.615   1.593   3.912
 9484SOL    HW129351   6.536   1.557   3.862
 9484SOL    HW229352   6.593   1.596   4.010
 9485SOL     OW29353   1.133   0.563   2.725
 9485SOL    HW129354   1.114   0.653   2.686
 9485SOL    HW229355   1.047   0.514   2.739
 9486SOL     OW29356   2.894   6.198   1.437
 9486SOL    HW129357   2.893   6.279   1.377
 9486SOL    HW229358   2.983   6.153   1.431
 9487SOL     OW29359   3.575   3.709   3.843
 9487SOL    HW129360   3.650   3.656   3.883
 9487SOL    HW229361   3.562   3.682   3.748
 9488SOL     OW29362   0.966   6.457   1.182
 9488SOL    HW129363   1.008   6.508   1.108
 9488SOL    HW229364   0.981   6.359   1.168
 9489SOL     OW29365   4.057   4.780   1.159
 9489SOL    HW129366   4.098   4.703   1.208
 9489SOL    HW229367   4.012   4.746   1.076
 9490SOL     OW29368   5.191   1.010   1.609
 9490SOL    HW129369   5.133   0.999   1.528
 9490SOL    HW229370   5.137   1.049   1.684
 9491SOL     OW29371   5.848   5.048   5.302
 9491SOL    HW129372   5.936   5.001   5.306
 9491SOL    HW229373   5.826   5.070   5.207
 9492SOL     OW29374   3.484   4.203   1.541
 9492SOL    HW129375   3.535   4.132   1.590
 9492SOL    HW229376   3.408   4.160   1.491
 9493SOL     OW29377   4.622   5.932   2.675
 9493SOL    HW129378   4.527   5.953   2.699
 9493SOL    HW229379   4.682   6.004   2.710
 9494SOL     OW29380   4.983   3.205   5.874
 9494SOL    HW129381   5.010   3.138   5.943
 9494SOL    HW229382   4.884   3.199   5.859
 9495SOL     OW29383   5.784   1.998   4.965
 9495SOL    HW129384   5.777   2.051   4.880
 9495SOL    HW229385   5.754   2.055   5.041
 9496SOL     OW29386   5.463   3.910   6.981
 9496SOL    HW129387   5.452   4.005   6.951
 9496SOL    HW229388   5.468   3.850   6.902
 9497SOL     OW29389   5.480   5.476   6.853
 9497SOL    HW129390   5.553   5.543   6.841
 9497SOL    HW229391   5.401   5.520   6.896
 9498SOL     OW29392   3.522   0.194   6.085
 9498SOL    HW129393   3.590   0.263   6.112
 9498SOL    HW229394   3.535   0.170   5.989
 9499SOL     OW29395   2.598   3.933   5.571
 9499SOL    HW129396   2.695   3.956   5.582
 9499SOL    HW229397   2.582   3.902   5.477
 9500SOL     OW29398   4.161   6.097   1.461
 9500SOL    HW129399   4.151   5.998   1.472
 9500SOL    HW229400   4.138   6.143   1.547
 9501SOL     OW29401   3.594   1.190   4.315
 9501SOL    HW129402   3.538   1.197   4.397
 9501SOL    HW229403   3.663   1.263   4.314
 9502SOL     OW29404   6.332   2.392   5.134
 9502SOL    HW129405   6.396   2.469   5.133
 9502SOL    HW229406   6.270   2.399   5.057
 9503SOL     OW29407   0.985   0.081   1.860
 9503SOL    HW129408   1.047   0.152   1.895
 9503SOL    HW229409   0.920   0.056   1.931
 9504SOL     OW29410   0.337   3.112   0.332
 9504SOL    HW129411   0.426   3.091   0.373
 9504SOL    HW229412   0.277   3.032   0.340
 9505SOL     OW29413   6.326   3.223   3.230
 9505SOL    HW129414   6.332   3.125   3.211
 9505SOL    HW229415   6.313   3.238   3.328
 9506SOL     OW29416   0.034   3.704   0.357
 9506SOL    HW129417   0.056   3.725   0.261
 9506SOL    HW229418   6.960   3.724   0.373
 9507SOL     OW29419   0.984   1.481   3.566
 9507SOL    HW129420   1.032   1.553   3.516
 9507SOL    HW229421   1.002   1.491   3.664
 9508SOL     OW29422   5.453   1.500   0.788
 9508SOL    HW129423   5.408   1.540   0.868
 9508SOL    HW229424   5.486   1.573   0.729
 9509SOL     OW29425   2.306   6.732   5.606
 9509SOL    HW129426   2.268   6.813   5.651
 9509SOL    HW229427   2.251   6.652   5.629
 9510SOL     OW29428   6.357   4.711   2.838
 9510SOL    HW129429   6.438   4.653   2.850
 9510SOL    HW229430   6.326   4.743   2.927
 9511SOL     OW29431   0.682   2.268   0.090
 9511SOL    HW129432   0.680   2.262   0.190
 9511SOL    HW229433   0.776   2.277   0.059
 9512SOL     OW29434   1.052   2.188   4.099
 9512SOL    HW129435   1.011   2.177   4.189
 9512SOL    HW229436   1.136   2.241   4.107
 9513SOL     OW29437   2.091   3.816   4.099
 9513SOL    HW129438   2.176   3.813   4.046
 9513SOL    HW229439   2.090   3.742   4.166
 9514SOL     OW29440   1.805   3.527   0.277
 9514SOL    HW129441   1.738   3.568   0.215
 9514SOL    HW229442   1.896   3.534   0.237
 9515SOL     OW29443   1.776   6.325   6.330
 9515SOL    HW129444   1.751   6.378   6.411
 9515SOL    HW229445   1.770   6.227   6.351
 9516SOL     OW29446   5.511   3.918   4.039
 9516SOL    HW129447   5.476   3.825   4.033
 9516SOL    HW229448   5.441   3.978   4.077
 9517SOL     OW29449   0.464   5.583   1.592
 9517SOL    HW129450   0.425   5.597   1.501
 9517SOL    HW229451   0.543   5.643   1.604
 9518SOL     OW29452   0.702   2.487   6.362
 9518SOL    HW129453   0.603   2.475   6.360
 9518SOL    HW229454   0.725   2.568   6.416
 9519SOL     OW29455   3.171   3.602   2.906
 9519SOL    HW129456   3.163   3.644   2.996
 9519SOL    HW229457   3.266   3.606   2.875
 9520SOL     OW29458   7.003   0.377   5.390
 9520SOL    HW129459   6.907   0.367   5.365
 9520SOL    HW229460   7.022   0.472   5.412
 9521SOL     OW29461   3.312   0.418   0.652
 9521SOL    HW129462   3.235   0.354   0.646
 9521SOL    HW229463   3.334   0.452   0.560
 9522SOL     OW29464   4.040   5.941   1.107
 9522SOL    HW129465   4.114   5.882   1.138
 9522SOL    HW229466   3.953   5.890   1.108
 9523SOL     OW29467   2.574   5.488   4.174
 9523SOL    HW129468   2.579   5.421   4.248
 9523SOL    HW229469   2.481   5.489   4.136
 9524SOL     OW29470   1.990   4.285   1.477
 9524SOL    HW129471   1.913   4.313   1.535
 9524SOL    HW229472   1.994   4.186   1.473
 9525SOL     OW29473   1.949   2.563   5.617
 9525SOL    HW129474   1.954   2.465   5.596
 9525SOL    HW229475   1.879   2.579   5.687
 9526SOL     OW29476   5.301   5.191   6.634
 9526SOL    HW129477   5.336   5.270   6.583
 9526SOL    HW229478   5.201   5.197   6.640
 9527SOL     OW29479   3.597   6.650   3.216
 9527SOL    HW129480   3.559   6.623   3.305
 9527SOL    HW229481   3.697   6.647   3.221
 9528SOL     OW29482   6.089   1.351   0.949
 9528SOL    HW129483   6.085   1.316   0.855
 9528SOL    HW229484   6.184   1.374   0.972
 9529SOL     OW29485   6.210   1.922   1.619
 9529SOL    HW129486   6.274   1.909   1.543
 9529SOL    HW229487   6.128   1.867   1.604
 9530SOL     OW29488   0.674   5.522   3.729
 9530SOL    HW129489   0.747   5.485   3.672
 9530SOL    HW229490   0.714   5.576   3.803
 9531SOL     OW29491   3.867   4.954   3.066
 9531SOL    HW129492   3.918   5.007   3.135
 9531SOL    HW229493   3.771   4.950   3.092
 9532SOL     OW29494   5.940   5.577   2.319
 9532SOL    HW129495   5.856   5.539   2.282
 9532SOL    HW229496   6.002   5.502   2.345
 9533SOL     OW29497   1.970   5.558   3.799
 9533SOL    HW129498   1.990   5.481   3.859
 9533SOL    HW229499   2.011   5.543   3.710
 9534SOL     OW29500   5.775   4.428   4.943
 9534SOL    HW129501   5.837   4.465   4.874
 9534SOL    HW229502   5.804   4.461   5.033
 9535SOL     OW29503   1.043   1.355   5.776
 9535SOL    HW129504   1.003   1.266   5.752
 9535SOL    HW229505   1.056   1.409   5.692
 9536SOL     OW29506   3.451   3.906   4.597
 9536SOL    HW129507   3.461   3.839   4.523
 9536SOL    HW229508   3.511   3.985   4.578
 9537SOL     OW29509   1.408   0.923   3.831
 9537SOL    HW129510   1.416   0.894   3.736
 9537SOL    HW229511   1.312   0.931   3.856
 9538SOL     OW29512   3.356   0.611   4.650
 9538SOL    HW129513   3.294   0.626   4.573
 9538SOL    HW229514   3.316   0.649   4.733
 9539SOL     OW29515   3.693   2.930   3.489
 9539SOL    HW129516   3.771   2.900   3.434
 9539SOL    HW229517   3.609   2.922   3.435
 9540SOL     OW29518   4.694   5.137   3.910
 9540SOL    HW129519   4.664   5.139   3.814
 9540SOL    HW229520   4.736   5.048   3.930
 9541SOL     OW29521   1.843   6.006   5.000
 9541SOL    HW129522   1.778   6.057   5.056
 9541SOL    HW229523   1.859   5.916   5.041
 9542SOL     OW29524   5.491   4.850   4.225
 9542SOL    HW129525   5.557   4.895   4.164
 9542SOL    HW229526   5.506   4.751   4.222
 9543SOL     OW29527   2.742   1.089   5.737
 9543SOL    HW129528   2.779   1.090   5.830
 9543SOL    HW229529   2.811   1.052   5.674
 9544SOL     OW29530   5.502   3.954   3.602
 9544SOL    HW129531   5.415   3.933   3.645
 9544SOL    HW229532   5.486   3.992   3.511
 9545SOL     OW29533   0.958   4.967   1.967
 9545SOL    HW129534   0.966   4.973   1.867
 9545SOL    HW229535   0.979   4.874   1.996
 9546SOL     OW29536   2.920   1.416   6.207
 9546SOL    HW129537   2.830   1.457   6.216
 9546SOL    HW229538   2.917   1.342   6.139
 9547SOL     OW29539   3.518   6.429   3.770
 9547SOL    HW129540   3.533   6.522   3.804
 9547SOL    HW229541   3.436   6.427   3.713
 9548SOL     OW29542   0.976   4.926   6.591
 9548SOL    HW129543   1.056   4.877   6.555
 9548SOL    HW229544   0.979   4.925   6.691
 9549SOL     OW29545   3.918   1.944   2.321
 9549SOL    HW129546   3.922   1.964   2.223
 9549SOL    HW229547   3.868   2.017   2.368
 9550SOL     OW29548   5.384   2.668   1.487
 9550SOL    HW129549   5.428   2.667   1.576
 9550SOL    HW229550   5.404   2.754   1.440
 9551SOL     OW29551   6.283   2.174   6.557
 9551SOL    HW129552   6.309   2.115   6.480
 9551SOL    HW229553   6.260   2.265   6.523
 9552SOL     OW29554   2.295   0.846   6.473
 9552SOL    HW129555   2.282   0.936   6.515
 9552SOL    HW229556   2.348   0.856   6.389
 9553SOL     OW29557   5.366   2.169   0.437
 9553SOL    HW129558   5.368   2.145   0.340
 9553SOL    HW229559   5.402   2.262   0.448
 9554SOL     OW29560   2.603   6.400   4.297
 9554SOL    HW129561   2.679   6.421   4.358
 9554SOL    HW229562   2.581   6.481   4.242
 9555SOL     OW29563   6.561   1.171   3.670
 9555SOL    HW129564   6.622   1.221   3.731
 9555SOL    HW229565   6.567   1.208   3.577
 9556SOL     OW29566   2.183   4.058   1.027
 9556SOL    HW129567   2.134   4.143   1.005
 9556SOL    HW229568   2.278   4.079   1.051
 9557SOL     OW29569   5.057   0.560   1.830
 9557SOL    HW129570   4.986   0.561   1.759
 9557SOL    HW229571   5.137   0.510   1.797
 9558SOL     OW29572   5.679   6.192   5.807
 9558SOL    HW129573   5.760   6.180   5.749
 9558SOL    HW229574   5.617   6.114   5.794
 9559SOL     OW29575   1.362   3.713   6.990
 9559SOL    HW129576   1.337   3.808   7.008
 9559SOL    HW229577   1.314   3.653   0.032
 9560SOL     OW29578   3.499   0.515   1.804
 9560SOL    HW129579   3.448   0.560   1.877
 9560SOL    HW229580   3.596   0.539   1.812
 9561SOL     OW29581   0.626   0.973   1.210
 9561SOL    HW129582   0.707   0.932   1.254
 9561SOL    HW229583   0.572   0.901   1.167
 9562SOL     OW29584   2.775   5.486   3.793
 9562SOL    HW129585   2.709   5.415   3.770
 9562SOL    HW229586   2.737   5.576   3.769
 9563SOL     OW29587   0.635   6.339   0.244
 9563SOL    HW129588   0.600   6.401   0.174
 9563SOL    HW229589   0.643   6.387   0.331
 9564SOL     OW29590   1.687   0.925   0.977
 9564SOL    HW129591   1.618   0.900   1.044
 9564SOL    HW229592   1.680   0.864   0.898
 9565SOL     OW29593   3.560   1.026   3.802
 9565SOL    HW129594   3.547   1.080   3.719
 9565SOL    HW229595   3.556   1.085   3.882
 9566SOL     OW29596   2.282   6.854   0.616
 9566SOL    HW129597   2.336   6.776   0.583
 9566SOL    HW229598   2.322   6.939   0.582
 9567SOL     OW29599   6.999   4.841   0.518
 9567SOL    HW129600   0.028   4.892   0.449
 9567SOL    HW229601   6.911   4.815   0.481
 9568SOL     OW29602   4.256   1.896   6.943
 9568SOL    HW129603   4.281   1.801   6.961
 9568SOL    HW229604   4.157   1.904   6.936
 9569SOL     OW29605   6.078   0.356   1.829
 9569SOL    HW129606   5.999   0.399   1.786
 9569SOL    HW229607   6.134   0.312   1.758
 9570SOL     OW29608   0.200   3.301   0.964
 9570SOL    HW129609   0.209   3.367   1.038
 9570SOL    HW229610   0.111   3.313   0.919
 9571SOL     OW29611   2.468   2.818   6.327
 9571SOL    HW129612   2.496   2.902   6.375
 9571SOL    HW229613   2.405   2.841   6.254
 9572SOL     OW29614   2.239   4.184   3.339
 9572SOL    HW129615   2.323   4.232   3.364
 9572SOL    HW229616   2.261   4.097   3.295
 9573SOL     OW29617   6.887   0.854   5.202
 9573SOL    HW129618   6.899   0.803   5.117
 9573SOL    HW229619   6.974   0.896   5.227
 9574SOL     OW29620   4.133   2.938   1.377
 9574SOL    HW129621   4.040   2.972   1.361
 9574SOL    HW229622   4.154   2.945   1.474
 9575SOL     OW29623   5.814   6.663   2.196
 9575SOL    HW129624   5.910   6.649   2.220
 9575SOL    HW229625   5.762   6.580   2.215
 9576SOL     OW29626   1.501   1.598   0.134
 9576SOL    HW129627   1.464   1.511   0.103
 9576SOL    HW229628   1.458   1.624   0.221
 9577SOL     OW29629   0.051   6.145   1.015
 9577SOL    HW129630   6.987   6.151   1.064
 9577SOL    HW229631   0.102   6.065   1.046
 9578SOL     OW29632   1.301   2.690   3.169
 9578SOL    HW129633   1.299   2.607   3.113
 9578SOL    HW229634   1.210   2.705   3.209
 9579SOL     OW29635   5.811   6.955   2.171
 9579SOL    HW129636   5.797   6.861   2.140
 9579SOL    HW229637   5.906   6.981   2.157
 9580SOL     OW29638   5.223   4.650   0.874
 9580SOL    HW129639   5.177   4.589   0.939
 9580SOL    HW229640   5.288   4.597   0.819
 9581SOL     OW29641   6.476   0.658   6.823
 9581SOL    HW129642   6.512   0.620   6.738
 9581SOL    HW229643   6.552   0.689   6.880
 9582SOL     OW29644   3.686   5.675   4.132
 9582SOL    HW129645   3.748   5.598   4.146
 9582SOL    HW229646   3.717   5.754   4.183
 9583SOL     OW29647   3.376   4.744   1.707
 9583SOL    HW129648   3.455   4.694   1.741
 9583SOL    HW229649   3.304   4.679   1.680
 9584SOL     OW29650   1.746   4.286   4.633
 9584SOL    HW129651   1.796   4.202   4.650
 9584SOL    HW229652   1.649   4.273   4.652
 9585SOL     OW29653   5.324   6.066   1.488
 9585SOL    HW129654   5.286   6.018   1.409
 9585SOL    HW229655   5.301   6.016   1.571
 9586SOL     OW29656   4.374   5.092   1.535
 9586SOL    HW129657   4.305   5.163   1.549
 9586SOL    HW229658   4.426   5.111   1.452
 9587SOL     OW29659   2.640   6.345   1.737
 9587SOL    HW129660   2.735   6.359   1.763
 9587SOL    HW229661   2.613   6.250   1.753
 9588SOL     OW29662   6.062   5.965   0.737
 9588SOL    HW129663   6.107   5.978   0.825
 9588SOL    HW229664   5.980   6.022   0.733
 9589SOL     OW29665   1.596   3.324   6.234
 9589SOL    HW129666   1.503   3.305   6.203
 9589SOL    HW229667   1.646   3.238   6.244
 9590SOL     OW29668   5.766   1.965   2.189
 9590SOL    HW129669   5.742   1.927   2.279
 9590SOL    HW229670   5.811   1.894   2.135
 9591SOL     OW29671   3.621   6.941   6.324
 9591SOL    HW129672   3.610   6.974   6.230
 9591SOL    HW229673   3.550   6.981   6.382
 9592SOL     OW29674   2.609   4.469   6.354
 9592SOL    HW129675   2.661   4.533   6.297
 9592SOL    HW229676   2.658   4.455   6.440
 9593SOL     OW29677   2.094   1.309   5.711
 9593SOL    HW129678   2.008   1.275   5.749
 9593SOL    HW229679   2.166   1.241   5.724
 9594SOL     OW29680   2.324   6.362   3.969
 9594SOL    HW129681   2.228   6.341   3.987
 9594SOL    HW229682   2.376   6.277   3.957
 9595SOL     OW29683   0.367   3.091   3.807
 9595SOL    HW129684   0.319   3.037   3.875
 9595SOL    HW229685   0.362   3.188   3.831
 9596SOL     OW29686   0.603   5.502   1.330
 9596SOL    HW129687   0.702   5.498   1.341
 9596SOL    HW229688   0.574   5.439   1.258
 9597SOL     OW29689   1.045   4.373   2.029
 9597SOL    HW129690   0.991   4.328   2.100
 9597SOL    HW229691   1.131   4.324   2.016
 9598SOL     OW29692   1.704   3.759   2.966
 9598SOL    HW129693   1.697   3.838   2.905
 9598SOL    HW229694   1.615   3.741   3.008
 9599SOL     OW29695   3.515   0.080   3.560
 9599SOL    HW129696   3.501   0.103   3.656
 9599SOL    HW229697   3.502   7.004   3.547
 9600SOL     OW29698   2.852   0.645   0.983
 9600SOL    HW129699   2.915   0.721   0.967
 9600SOL    HW229700   2.898   0.559   0.963
 9601SOL     OW29701   6.726   4.740   1.171
 9601SOL    HW129702   6.774   4.655   1.146
 9601SOL    HW229703   6.628   4.722   1.179
 9602SOL     OW29704   4.532   4.609   5.741
 9602SOL    HW129705   4.443   4.572   5.714
 9602SOL    HW229706   4.527   4.709   5.745
 9603SOL     OW29707   5.688   6.459   5.744
 9603SOL    HW129708   5.708   6.531   5.809
 9603SOL    HW229709   5.679   6.371   5.792
 9604SOL     OW29710   4.838   0.837   1.466
 9604SOL    HW129711   4.799   0.746   1.469
 9604SOL    HW229712   4.774   0.903   1.506
 9605SOL     OW29713   0.006   5.225   3.126
 9605SOL    HW129714   6.943   5.245   3.080
 9605SOL    HW229715   0.041   5.136   3.096
 9606SOL     OW29716   1.140   1.454   6.848
 9606SOL    HW129717   1.079   1.518   6.800
 9606SOL    HW229718   1.163   1.491   6.938
 9607SOL     OW29719   3.088   1.709   6.666
 9607SOL    HW129720   3.130   1.723   6.756
 9607SOL    HW229721   3.002   1.658   6.678
 9608SOL     OW29722   6.923   4.376   2.686
 9608SOL    HW129723   6.993   4.421   2.742
 9608SOL    HW229724   6.837   4.426   2.693
 9609SOL     OW29725   3.606   2.592   6.261
 9609SOL    HW129726   3.646   2.679   6.233
 9609SOL    HW229727   3.640   2.568   6.352
 9610SOL     OW29728   1.947   4.579   2.559
 9610SOL    HW129729   1.980   4.673   2.569
 9610SOL    HW229730   1.877   4.560   2.628
 9611SOL     OW29731   2.043   6.940   0.675
 9611SOL    HW129732   2.137   6.911   0.655
 9611SOL    HW229733   1.992   6.946   0.589
 9612SOL     OW29734   1.041   3.241   1.958
 9612SOL    HW129735   1.065   3.260   2.053
 9612SOL    HW229736   1.124   3.237   1.902
 9613SOL     OW29737   5.876   6.363   3.393
 9613SOL    HW129738   5.910   6.286   3.338
 9613SOL    HW229739   5.923   6.364   3.481
 9614SOL     OW29740   4.037   2.040   2.702
 9614SOL    HW129741   4.056   2.093   2.620
 9614SOL    HW229742   3.939   2.045   2.723
 9615SOL     OW29743   2.396   2.319   0.874
 9615SOL    HW129744   2.492   2.339   0.896
 9615SOL    HW229745   2.365   2.242   0.930
 9616SOL     OW29746   3.539   3.034   0.873
 9616SOL    HW129747   3.628   2.989   0.865
 9616SOL    HW229748   3.484   2.987   0.942
 9617SOL     OW29749   2.035   2.807   3.692
 9617SOL    HW129750   2.104   2.767   3.752
 9617SOL    HW229751   2.030   2.905   3.708
 9618SOL     OW29752   3.027   1.143   0.973
 9618SOL    HW129753   2.969   1.205   0.920
 9618SOL    HW229754   3.084   1.196   1.035
 9619SOL     OW29755   1.686   0.299   5.593
 9619SOL    HW129756   1.683   0.390   5.552
 9619SOL    HW229757   1.779   0.282   5.627
 9620SOL     OW29758   4.731   0.565   4.950
 9620SOL    HW129759   4.724   0.660   4.980
 9620SOL    HW229760   4.645   0.537   4.907
 9621SOL     OW29761   1.760   2.869   2.126
 9621SOL    HW129762   1.740   2.788   2.071
 9621SOL    HW229763   1.769   2.948   2.065
 9622SOL     OW29764   5.892   1.057   0.721
 9622SOL    HW129765   5.815   1.000   0.694
 9622SOL    HW229766   5.859   1.148   0.745
 9623SOL     OW29767   2.744   2.886   6.572
 9623SOL    HW129768   2.806   2.850   6.503
 9623SOL    HW229769   2.691   2.962   6.534
 9624SOL     OW29770   6.080   3.471   2.937
 9624SOL    HW129771   6.112   3.379   2.962
 9624SOL    HW229772   6.150   3.516   2.882
 9625SOL     OW29773   5.408   5.999   7.014
 9625SOL    HW129774   5.413   5.903   0.018
 9625SOL    HW229775   5.499   6.040   7.021
 9626SOL     OW29776   3.626   5.005   0.549
 9626SOL    HW129777   3.594   5.082   0.604
 9626SOL    HW229778   3.549   4.963   0.502
 9627SOL     OW29779   0.730   6.416   6.497
 9627SOL    HW129780   0.790   6.342   6.529
 9627SOL    HW229781   0.759   6.446   6.406
 9628SOL     OW29782   5.374   5.941   0.904
 9628SOL    HW129783   5.432   5.917   0.826
 9628SOL    HW229784   5.299   5.875   0.912
 9629SOL     OW29785   1.995   0.577   1.494
 9629SOL    HW129786   2.003   0.527   1.580
 9629SOL    HW229787   1.905   0.621   1.489
 9630SOL     OW29788   6.378   0.430   5.280
 9630SOL    HW129789   6.365   0.511   5.337
 9630SOL    HW229790   6.343   0.448   5.188
 9631SOL     OW29791   6.360   0.131   6.328
 9631SOL    HW129792   6.381   0.198   6.257
 9631SOL    HW229793   6.282   0.162   6.382
 9632SOL     OW29794   1.593   6.448   2.434
 9632SOL    HW129795   1.638   6.467   2.521
 9632SOL    HW229796   1.586   6.349   2.420
 9633SOL     OW29797   5.801   5.464   6.567
 9633SOL    HW129798   5.900   5.457   6.553
 9633SOL    HW229799   5.754   5.417   6.492
 9634SOL     OW29800   1.592   6.349   4.828
 9634SOL    HW129801   1.602   6.306   4.918
 9634SOL    HW229802   1.536   6.291   4.769
 9635SOL     OW29803   2.317   5.473   4.851
 9635SOL    HW129804   2.383   5.400   4.864
 9635SOL    HW229805   2.360   5.562   4.869
 9636SOL     OW29806   3.913   1.498   5.351
 9636SOL    HW129807   3.845   1.568   5.373
 9636SOL    HW229808   3.983   1.496   5.422
 9637SOL     OW29809   2.171   1.904   6.474
 9637SOL    HW129810   2.248   1.946   6.427
 9637SOL    HW229811   2.093   1.897   6.412
 9638SOL     OW29812   6.678   3.328   5.101
 9638SOL    HW129813   6.662   3.389   5.179
 9638SOL    HW229814   6.643   3.372   5.018
 9639SOL     OW29815   4.220   1.782   2.649
 9639SOL    HW129816   4.275   1.865   2.650
 9639SOL    HW229817   4.124   1.807   2.634
 9640SOL     OW29818   2.317   2.771   3.077
 9640SOL    HW129819   2.382   2.695   3.071
 9640SOL    HW229820   2.271   2.783   2.990
 9641SOL     OW29821   4.784   0.175   0.577
 9641SOL    HW129822   4.763   0.136   0.667
 9641SOL    HW229823   4.806   0.101   0.513
 9642SOL     OW29824   3.396   0.310   4.585
 9642SOL    HW129825   3.418   0.389   4.641
 9642SOL    HW229826   3.473   0.246   4.585
 9643SOL     OW29827   5.066   4.235   3.318
 9643SOL    HW129828   4.999   4.168   3.351
 9643SOL    HW229829   5.023   4.297   3.253
 9644SOL     OW29830   0.831   3.406   6.271
 9644SOL    HW129831   0.809   3.366   6.360
 9644SOL    HW229832   0.817   3.505   6.274
 9645SOL     OW29833   3.206   5.168   5.176
 9645SOL    HW129834   3.275   5.197   5.110
 9645SOL    HW229835   3.176   5.247   5.230
 9646SOL     OW29836   4.398   5.005   2.211
 9646SOL    HW129837   4.307   5.037   2.184
 9646SOL    HW229838   4.389   4.919   2.260
 9647SOL     OW29839   6.318   3.284   1.298
 9647SOL    HW129840   6.292   3.282   1.201
 9647SOL    HW229841   6.406   3.332   1.308
 9648SOL     OW29842   4.489   2.347   1.203
 9648SOL    HW129843   4.518   2.441   1.223
 9648SOL    HW229844   4.392   2.337   1.224
 9649SOL     OW29845   2.339   6.387   0.345
 9649SOL    HW129846   2.273   6.459   0.365
 9649SOL    HW229847   2.339   6.320   0.419
 9650SOL     OW29848   6.965   5.714   2.368
 9650SOL    HW129849   6.934   5.740   2.459
 9650SOL    HW229850   6.943   5.787   2.303
 9651SOL     OW29851   0.991   1.499   6.038
 9651SOL    HW129852   1.014   1.406   6.066
 9651SOL    HW229853   0.958   1.498   5.944
 9652SOL     OW29854   0.823   4.713   2.497
 9652SOL    HW129855   0.746   4.777   2.494
 9652SOL    HW229856   0.793   4.627   2.537
 9653SOL     OW29857   4.919   4.864   4.172
 9653SOL    HW129858   4.913   4.871   4.073
 9653SOL    HW229859   4.933   4.954   4.212
 9654SOL     OW29860   2.323   2.663   2.045
 9654SOL    HW129861   2.271   2.580   2.065
 9654SOL    HW229862   2.272   2.743   2.077
 9655SOL     OW29863   6.995   1.709   6.177
 9655SOL    HW129864   7.012   1.735   6.272
 9655SOL    HW229865   6.934   1.776   6.135
 9656SOL     OW29866   3.243   7.009   2.142
 9656SOL    HW129867   3.268   6.941   2.073
 9656SOL    HW229868   3.219   0.072   2.097
 9657SOL     OW29869   6.108   1.287   5.252
 9657SOL    HW129870   6.110   1.326   5.160
 9657SOL    HW229871   6.172   1.211   5.259
 9658SOL     OW29872   6.171   3.155   2.007
 9658SOL    HW129873   6.209   3.084   2.066
 9658SOL    HW229874   6.082   3.125   1.972
 9659SOL     OW29875   1.039   4.826   0.377
 9659SOL    HW129876   1.028   4.728   0.393
 9659SOL    HW229877   0.954   4.873   0.399
 9660SOL     OW29878   1.131   5.310   0.715
 9660SOL    HW129879   1.060   5.378   0.734
 9660SOL    HW229880   1.193   5.304   0.793
 9661SOL     OW29881   4.447   0.120   0.831
 9661SOL    HW129882   4.489   0.169   0.908
 9661SOL    HW229883   4.450   0.177   0.749
 9662SOL     OW29884   6.254   1.637   4.596
 9662SOL    HW129885   6.268   1.676   4.505
 9662SOL    HW229886   6.247   1.537   4.589
 9663SOL     OW29887   1.694   5.549   2.856
 9663SOL    HW129888   1.785   5.557   2.897
 9663SOL    HW229889   1.697   5.485   2.780
 9664SOL     OW29890   4.313   6.608   2.268
 9664SOL    HW129891   4.242   6.566   2.212
 9664SOL    HW229892   4.393   6.548   2.271
 9665SOL     OW29893   5.319   4.287   5.059
 9665SOL    HW129894   5.242   4.232   5.027
 9665SOL    HW229895   5.396   4.226   5.080
 9666SOL     OW29896   5.241   4.361   2.552
 9666SOL    HW129897   5.224   4.328   2.459
 9666SOL    HW229898   5.154   4.366   2.601
 9667SOL     OW29899   4.047   3.712   4.153
 9667SOL    HW129900   3.991   3.765   4.090
 9667SOL    HW229901   4.107   3.651   4.101
 9668SOL     OW29902   0.559   1.139   5.832
 9668SOL    HW129903   0.478   1.082   5.841
 9668SOL    HW229904   0.636   1.085   5.798
 9669SOL     OW29905   0.515   6.955   0.535
 9669SOL    HW129906   0.483   0.017   0.578
 9669SOL    HW229907   0.479   6.876   0.585
 9670SOL     OW29908   4.799   4.634   6.607
 9670SOL    HW129909   4.776   4.614   6.702
 9670SOL    HW229910   4.715   4.650   6.555
 9671SOL     OW29911   0.005   5.182   5.328
 9671SOL    HW129912   6.978   5.268   5.336
 9671SOL    HW229913   0.034   5.152   5.419
 9672SOL     OW29914   0.590   5.931   4.963
 9672SOL    HW129915   0.664   5.982   4.921
 9672SOL    HW229916   0.504   5.952   4.917
 9673SOL     OW29917   3.460   4.200   6.577
 9673SOL    HW129918   3.537   4.183   6.639
 9673SOL    HW229919   3.492   4.257   6.501
 9674SOL     OW29920   3.167   6.391   1.867
 9674SOL    HW129921   3.135   6.304   1.829
 9674SOL    HW229922   3.122   6.408   1.955
 9675SOL     OW29923   6.404   1.845   2.344
 9675SOL    HW129924   6.349   1.875   2.267
 9675SOL    HW229925   6.499   1.874   2.332
 9676SOL     OW29926   1.015   3.659   4.952
 9676SOL    HW129927   0.983   3.740   4.902
 9676SOL    HW229928   1.078   3.607   4.895
 9677SOL     OW29929   2.025   3.701   6.066
 9677SOL    HW129930   2.106   3.689   6.008
 9677SOL    HW229931   1.954   3.636   6.037
 9678SOL     OW29932   4.049   3.687   3.361
 9678SOL    HW129933   4.103   3.619   3.411
 9678SOL    HW229934   4.003   3.747   3.427
 9679SOL     OW29935   1.656   2.656   2.001
 9679SOL    HW129936   1.596   2.598   2.056
 9679SOL    HW229937   1.616   2.670   1.910
 9680SOL     OW29938   5.968   6.116   3.298
 9680SOL    HW129939   6.044   6.174   3.272
 9680SOL    HW229940   5.979   6.086   3.392
 9681SOL     OW29941   2.320   0.990   2.253
 9681SOL    HW129942   2.289   0.896   2.266
 9681SOL    HW229943   2.355   1.001   2.160
 9682SOL     OW29944   5.435   4.276   3.593
 9682SOL    HW129945   5.382   4.295   3.511
 9682SOL    HW229946   5.508   4.211   3.572
 9683SOL     OW29947   4.149   5.993   0.206
 9683SOL    HW129948   4.083   5.924   0.176
 9683SOL    HW229949   4.240   5.969   0.174
 9684SOL     OW29950   0.509   4.032   5.398
 9684SOL    HW129951   0.503   4.104   5.329
 9684SOL    HW229952   0.458   3.951   5.367
 9685SOL     OW29953   1.441   3.110   1.008
 9685SOL    HW129954   1.364   3.048   0.996
 9685SOL    HW229955   1.523   3.069   0.967
 9686SOL     OW29956   6.574   0.500   1.800
 9686SOL    HW129957   6.662   0.528   1.761
 9686SOL    HW229958   6.557   0.550   1.884
 9687SOL     OW29959   2.296   0.248   3.794
 9687SOL    HW129960   2.391   0.274   3.774
 9687SOL    HW229961   2.244   0.329   3.819
 9688SOL     OW29962   0.018   1.532   3.026
 9688SOL    HW129963   7.011   1.468   2.955
 9688SOL    HW229964   0.036   1.481   3.110
 9689SOL     OW29965   2.797   6.276   6.638
 9689SOL    HW129966   2.868   6.266   6.707
 9689SOL    HW229967   2.823   6.348   6.574
 9690SOL     OW29968   6.420   5.082   0.886
 9690SOL    HW129969   6.503   5.029   0.905
 9690SOL    HW229970   6.383   5.054   0.798
 9691SOL     OW29971   1.575   5.125   2.144
 9691SOL    HW129972   1.482   5.091   2.158
 9691SOL    HW229973   1.622   5.067   2.077
 9692SOL     OW29974   2.942   5.434   1.844
 9692SOL    HW129975   2.945   5.388   1.755
 9692SOL    HW229976   2.856   5.412   1.890
 9693SOL     OW29977   6.874   5.890   2.196
 9693SOL    HW129978   6.824   5.968   2.234
 9693SOL    HW229979   6.907   5.912   2.104
 9694SOL     OW29980   1.536   2.537   7.015
 9694SOL    HW129981   1.504   2.481   6.939
 9694SOL    HW229982   1.611   2.595   6.985
 9695SOL     OW29983   6.320   4.375   1.371
 9695SOL    HW129984   6.329   4.304   1.441
 9695SOL    HW229985   6.411   4.409   1.347
 9696SOL     OW29986   3.931   3.003   1.719
 9696SOL    HW129987   3.953   3.094   1.682
 9696SOL    HW229988   3.914   3.010   1.817
 9697SOL     OW29989   0.412   5.213   0.228
 9697SOL    HW129990   0.448   5.249   0.142
 9697SOL    HW229991   0.405   5.113   0.222
 9698SOL     OW29992   5.536   1.619   5.202
 9698SOL    HW129993   5.613   1.604   5.264
 9698SOL    HW229994   5.529   1.716   5.181
 9699SOL     OW29995   1.554   3.557   6.840
 9699SOL    HW129996   1.491   3.619   6.887
 9699SOL    HW229997   1.575   3.594   6.749
 9700SOL     OW29998   3.600   4.340   5.552
 9700SOL    HW129999   3.618   4.383   5.463
 9700SOL    HW230000   3.660   4.262   5.564
 9701SOL     OW30001   4.575   4.921   4.845
 9701SOL    HW130002   4.648   4.977   4.806
 9701SOL    HW230003   4.489   4.971   4.841
 9702SOL     OW30004   4.847   1.049   0.986
 9702SOL    HW130005   4.760   1.043   0.935
 9702SOL    HW230006   4.831   1.022   1.081
 9703SOL     OW30007   2.980   6.189   4.165
 9703SOL    HW130008   3.005   6.254   4.236
 9703SOL    HW230009   3.050   6.189   4.093
 9704SOL     OW30010   3.844   6.752   2.965
 9704SOL    HW130011   3.833   6.757   3.064
 9704SOL    HW230012   3.829   6.843   2.925
 9705SOL     OW30013   3.385   4.851   0.661
 9705SOL    HW130014   3.455   4.892   0.720
 9705SOL    HW230015   3.386   4.752   0.671
 9706SOL     OW30016   6.005   3.120   2.291
 9706SOL    HW130017   6.030   3.217   2.292
 9706SOL    HW230018   6.069   3.070   2.234
 9707SOL     OW30019   1.677   4.696   1.847
 9707SOL    HW130020   1.756   4.713   1.905
 9707SOL    HW230021   1.706   4.650   1.763
 9708SOL     OW30022   2.275   1.664   3.350
 9708SOL    HW130023   2.182   1.691   3.376
 9708SOL    HW230024   2.335   1.744   3.355
 9709SOL     OW30025   1.702   6.337   2.887
 9709SOL    HW130026   1.617   6.317   2.838
 9709SOL    HW230027   1.681   6.372   2.978
 9710SOL     OW30028   0.279   1.168   3.117
 9710SOL    HW130029   0.323   1.255   3.139
 9710SOL    HW230030   0.180   1.178   3.125
 9711SOL     OW30031   1.038   3.825   6.001
 9711SOL    HW130032   1.059   3.880   5.920
 9711SOL    HW230033   1.034   3.728   5.975
 9712SOL     OW30034   5.298   2.156   4.060
 9712SOL    HW130035   5.337   2.080   4.111
 9712SOL    HW230036   5.237   2.208   4.120
 9713SOL     OW30037   6.962   4.888   3.224
 9713SOL    HW130038   6.862   4.888   3.213
 9713SOL    HW230039   7.005   4.920   3.140
 9714SOL     OW30040   1.938   2.549   1.743
 9714SOL    HW130041   1.991   2.465   1.736
 9714SOL    HW230042   1.841   2.527   1.754
 9715SOL     OW30043   5.256   5.584   5.158
 9715SOL    HW130044   5.229   5.564   5.252
 9715SOL    HW230045   5.192   5.540   5.095
 9716SOL     OW30046   4.595   1.843   6.407
 9716SOL    HW130047   4.604   1.792   6.321
 9716SOL    HW230048   4.553   1.932   6.390
 9717SOL     OW30049   5.723   5.721   4.023
 9717SOL    HW130050   5.668   5.699   3.943
 9717SOL    HW230051   5.734   5.640   4.080
 9718SOL     OW30052   3.645   3.411   1.168
 9718SOL    HW130053   3.676   3.358   1.247
 9718SOL    HW230054   3.722   3.426   1.106
 9719SOL     OW30055   0.493   2.471   0.185
 9719SOL    HW130056   0.442   2.508   0.107
 9719SOL    HW230057   0.514   2.375   0.168
 9720SOL     OW30058   0.778   6.566   2.273
 9720SOL    HW130059   0.838   6.645   2.259
 9720SOL    HW230060   0.712   6.561   2.198
 9721SOL     OW30061   7.005   3.854   2.626
 9721SOL    HW130062   6.976   3.776   2.570
 9721SOL    HW230063   6.936   3.926   2.620
 9722SOL     OW30064   0.573   0.369   3.767
 9722SOL    HW130065   0.486   0.411   3.794
 9722SOL    HW230066   0.555   0.285   3.716
 9723SOL     OW30067   6.959   0.717   3.370
 9723SOL    HW130068   7.010   0.792   3.328
 9723SOL    HW230069   7.022   0.649   3.406
 9724SOL     OW30070   2.950   2.402   0.959
 9724SOL    HW130071   2.935   2.385   1.057
 9724SOL    HW230072   2.988   2.320   0.916
 9725SOL     OW30073   5.301   3.486   5.438
 9725SOL    HW130074   5.204   3.494   5.461
 9725SOL    HW230075   5.312   3.419   5.365
 9726SOL     OW30076   4.997   6.463   4.693
 9726SOL    HW130077   5.028   6.452   4.788
 9726SOL    HW230078   5.029   6.551   4.658
 9727SOL     OW30079   0.789   3.217   5.740
 9727SOL    HW130080   0.818   3.122   5.726
 9727SOL    HW230081   0.713   3.238   5.678
 9728SOL     OW30082   2.296   6.063   6.402
 9728SOL    HW130083   2.313   6.159   6.420
 9728SOL    HW230084   2.225   6.029   6.463
 9729SOL     OW30085   1.419   4.575   3.327
 9729SOL    HW130086   1.480   4.585   3.248
 9729SOL    HW230087   1.423   4.481   3.360
 9730SOL     OW30088   6.664   3.443   2.509
 9730SOL    HW130089   6.706   3.458   2.419
 9730SOL    HW230090   6.621   3.353   2.512
 9731SOL     OW30091   3.550   5.268   0.589
 9731SOL    HW130092   3.550   5.328   0.669
 9731SOL    HW230093   3.463   5.278   0.540
 9732SOL     OW30094   6.858   6.212   2.645
 9732SOL    HW130095   6.775   6.259   2.613
 9732SOL    HW230096   6.917   6.193   2.567
 9733SOL     OW30097   5.038   4.984   4.537
 9733SOL    HW130098   5.117   4.960   4.480
 9733SOL    HW230099   4.983   4.902   4.555
 9734SOL     OW30100   5.498   2.258   3.887
 9734SOL    HW130101   5.422   2.224   3.943
 9734SOL    HW230102   5.487   2.226   3.793
 9735SOL     OW30103   2.253   5.300   1.728
 9735SOL    HW130104   2.315   5.242   1.782
 9735SOL    HW230105   2.306   5.358   1.667
 9736SOL     OW30106   4.373   1.157   6.455
 9736SOL    HW130107   4.346   1.229   6.519
 9736SOL    HW230108   4.295   1.097   6.436
 9737SOL     OW30109   4.030   2.233   5.125
 9737SOL    HW130110   4.084   2.316   5.105
 9737SOL    HW230111   4.074   2.181   5.198
 9738SOL     OW30112   1.947   1.182   3.173
 9738SOL    HW130113   1.992   1.212   3.089
 9738SOL    HW230114   1.853   1.154   3.152
 9739SOL     OW30115   6.313   5.126   1.729
 9739SOL    HW130116   6.324   5.162   1.636
 9739SOL    HW230117   6.291   5.028   1.724
 9740SOL     OW30118   6.048   4.826   2.763
 9740SOL    HW130119   6.134   4.817   2.712
 9740SOL    HW230120   5.971   4.808   2.702
 9741SOL     OW30121   4.487   1.830   1.935
 9741SOL    HW130122   4.441   1.820   2.023
 9741SOL    HW230123   4.428   1.879   1.871
 9742SOL     OW30124   5.538   0.903   3.498
 9742SOL    HW130125   5.552   0.903   3.399
 9742SOL    HW230126   5.464   0.840   3.521
 9743SOL     OW30127   1.731   2.980   5.947
 9743SOL    HW130128   1.811   3.004   5.892
 9743SOL    HW230129   1.653   3.035   5.917
 9744SOL     OW30130   1.739   1.502   1.738
 9744SOL    HW130131   1.699   1.510   1.829
 9744SOL    HW230132   1.821   1.445   1.743
 9745SOL     OW30133   0.671   2.240   5.183
 9745SOL    HW130134   0.635   2.320   5.134
 9745SOL    HW230135   0.752   2.206   5.135
 9746SOL     OW30136   5.842   0.788   4.993
 9746SOL    HW130137   5.877   0.724   4.925
 9746SOL    HW230138   5.815   0.738   5.075
 9747SOL     OW30139   0.841   0.045   6.580
 9747SOL    HW130140   0.880   0.030   6.670
 9747SOL    HW230141   0.898   0.108   6.529
 9748SOL     OW30142   1.309   6.067   4.301
 9748SOL    HW130143   1.399   6.083   4.260
 9748SOL    HW230144   1.282   6.147   4.354
 9749SOL     OW30145   0.716   3.675   4.243
 9749SOL    HW130146   0.706   3.603   4.313
 9749SOL    HW230147   0.691   3.763   4.283
 9750SOL     OW30148   4.639   5.117   3.641
 9750SOL    HW130149   4.711   5.184   3.629
 9750SOL    HW230150   4.558   5.145   3.590
 9751SOL     OW30151   1.850   2.293   0.745
 9751SOL    HW130152   1.846   2.229   0.668
 9751SOL    HW230153   1.946   2.307   0.771
 9752SOL     OW30154   4.380   0.610   5.475
 9752SOL    HW130155   4.285   0.584   5.455
 9752SOL    HW230156   4.386   0.709   5.488
 9753SOL     OW30157   6.595   6.049   5.441
 9753SOL    HW130158   6.605   6.140   5.400
 9753SOL    HW230159   6.505   6.040   5.482
 9754SOL     OW30160   1.238   2.012   6.978
 9754SOL    HW130161   1.310   1.977   0.016
 9754SOL    HW230162   1.213   2.104   7.007
 9755SOL     OW30163   3.999   3.693   4.771
 9755SOL    HW130164   3.964   3.689   4.865
 9755SOL    HW230165   4.007   3.788   4.743
 9756SOL     OW30166   5.750   2.543   6.643
 9756SOL    HW130167   5.778   2.477   6.713
 9756SOL    HW230168   5.762   2.636   6.680
 9757SOL     OW30169   5.711   2.483   4.060
 9757SOL    HW130170   5.789   2.447   4.111
 9757SOL    HW230171   5.629   2.434   4.086
 9758SOL     OW30172   3.088   0.560   6.852
 9758SOL    HW130173   3.012   0.501   6.827
 9758SOL    HW230174   3.054   0.638   6.906
 9759SOL     OW30175   3.072   6.638   0.784
 9759SOL    HW130176   3.061   6.638   0.685
 9759SOL    HW230177   3.157   6.686   0.808
 9760SOL     OW30178   5.721   4.316   5.970
 9760SOL    HW130179   5.688   4.283   5.881
 9760SOL    HW230180   5.698   4.249   6.040
 9761SOL     OW30181   5.477   5.325   1.832
 9761SOL    HW130182   5.483   5.226   1.820
 9761SOL    HW230183   5.544   5.370   1.774
 9762SOL     OW30184   2.636   2.359   4.930
 9762SOL    HW130185   2.664   2.360   5.026
 9762SOL    HW230186   2.579   2.439   4.911
 9763SOL     OW30187   2.991   2.026   1.655
 9763SOL    HW130188   2.981   1.929   1.631
 9763SOL    HW230189   2.913   2.054   1.711
 9764SOL     OW30190   1.159   1.923   3.136
 9764SOL    HW130191   1.135   1.866   3.215
 9764SOL    HW230192   1.180   2.015   3.167
 9765SOL     OW30193   0.082   2.362   5.903
 9765SOL    HW130194   0.060   2.460   5.908
 9765SOL    HW230195   0.171   2.351   5.857
 9766SOL     OW30196   2.788   0.102   3.018
 9766SOL    HW130197   2.882   0.081   2.991
 9766SOL    HW230198   2.725   0.042   2.969
 9767SOL     OW30199   4.997   0.690   5.408
 9767SOL    HW130200   4.956   0.723   5.494
 9767SOL    HW230201   4.976   0.594   5.396
 9768SOL     OW30202   4.441   1.967   2.615
 9768SOL    HW130203   4.541   1.966   2.614
 9768SOL    HW230204   4.408   2.049   2.661
 9769SOL     OW30205   1.118   2.156   0.855
 9769SOL    HW130206   1.085   2.067   0.823
 9769SOL    HW230207   1.196   2.143   0.917
 9770SOL     OW30208   5.622   4.503   5.572
 9770SOL    HW130209   5.590   4.490   5.666
 9770SOL    HW230210   5.612   4.417   5.522
 9771SOL     OW30211   3.812   5.575   5.946
 9771SOL    HW130212   3.840   5.660   5.990
 9771SOL    HW230213   3.801   5.591   5.847
 9772SOL     OW30214   0.096   0.327   1.922
 9772SOL    HW130215   0.098   0.231   1.949
 9772SOL    HW230216   0.148   0.339   1.838
 9773SOL     OW30217   6.249   5.311   3.924
 9773SOL    HW130218   6.169   5.369   3.909
 9773SOL    HW230219   6.300   5.345   4.002
 9774SOL     OW30220   6.019   4.696   4.128
 9774SOL    HW130221   6.046   4.606   4.095
 9774SOL    HW230222   5.957   4.686   4.206
 9775SOL     OW30223   1.985   2.425   4.836
 9775SOL    HW130224   1.963   2.456   4.929
 9775SOL    HW230225   1.929   2.346   4.813
 9776SOL     OW30226   0.210   5.947   4.505
 9776SOL    HW130227   0.264   5.932   4.422
 9776SOL    HW230228   0.177   5.859   4.539
 9777SOL     OW30229   5.525   4.424   6.160
 9777SOL    HW130230   5.474   4.351   6.115
 9777SOL    HW230231   5.601   4.384   6.211
 9778SOL     OW30232   4.875   6.744   2.675
 9778SOL    HW130233   4.911   6.752   2.581
 9778SOL    HW230234   4.780   6.775   2.677
 9779SOL     OW30235   2.861   1.851   5.640
 9779SOL    HW130236   2.943   1.884   5.686
 9779SOL    HW230237   2.781   1.899   5.677
 9780SOL     OW30238   2.659   4.232   0.322
 9780SOL    HW130239   2.671   4.205   0.227
 9780SOL    HW230240   2.673   4.152   0.381
 9781SOL     OW30241   2.327   4.858   4.629
 9781SOL    HW130242   2.337   4.929   4.560
 9781SOL    HW230243   2.415   4.815   4.645
 9782SOL     OW30244   6.512   0.218   1.744
 9782SOL    HW130245   6.498   0.310   1.707
 9782SOL    HW230246   6.549   0.226   1.837
 9783SOL     OW30247   5.550   1.533   1.852
 9783SOL    HW130248   5.616   1.509   1.924
 9783SOL    HW230249   5.461   1.492   1.874
 9784SOL     OW30250   4.659   0.807   3.151
 9784SOL    HW130251   4.750   0.767   3.136
 9784SOL    HW230252   4.598   0.738   3.190
 9785SOL     OW30253   0.796   2.492   2.002
 9785SOL    HW130254   0.793   2.534   2.092
 9785SOL    HW230255   0.703   2.471   1.971
 9786SOL     OW30256   3.116   5.833   5.216
 9786SOL    HW130257   3.124   5.886   5.300
 9786SOL    HW230258   3.101   5.894   5.139
 9787SOL     OW30259   5.209   4.390   2.092
 9787SOL    HW130260   5.234   4.315   2.031
 9787SOL    HW230261   5.271   4.467   2.077
 9788SOL     OW30262   6.334   0.752   5.376
 9788SOL    HW130263   6.365   0.700   5.456
 9788SOL    HW230264   6.243   0.721   5.349
 9789SOL     OW30265   2.293   5.146   4.914
 9789SOL    HW130266   2.279   5.050   4.889
 9789SOL    HW230267   2.390   5.161   4.932
 9790SOL     OW30268   5.698   2.261   4.235
 9790SOL    HW130269   5.655   2.189   4.291
 9790SOL    HW230270   5.766   2.308   4.290
 9791SOL     OW30271   0.350   1.937   1.747
 9791SOL    HW130272   0.270   1.983   1.710
 9791SOL    HW230273   0.389   1.994   1.821
 9792SOL     OW30274   4.427   5.039   1.009
 9792SOL    HW130275   4.327   5.037   1.012
 9792SOL    HW230276   4.457   5.110   0.946
 9793SOL     OW30277   5.581   5.757   2.178
 9793SOL    HW130278   5.647   5.806   2.121
 9793SOL    HW230279   5.542   5.819   2.246
 9794SOL     OW30280   4.963   2.941   6.344
 9794SOL    HW130281   4.906   3.022   6.327
 9794SOL    HW230282   4.904   2.864   6.367
 9795SOL     OW30283   1.728   3.350   3.810
 9795SOL    HW130284   1.799   3.382   3.746
 9795SOL    HW230285   1.722   3.251   3.806
 9796SOL     OW30286   3.006   5.022   0.188
 9796SOL    HW130287   2.908   5.002   0.178
 9796SOL    HW230288   3.041   5.063   0.104
 9797SOL     OW30289   4.705   3.301   5.846
 9797SOL    HW130290   4.710   3.398   5.825
 9797SOL    HW230291   4.628   3.260   5.797
 9798SOL     OW30292   2.496   1.708   1.112
 9798SOL    HW130293   2.535   1.662   1.191
 9798SOL    HW230294   2.504   1.649   1.032
 9799SOL     OW30295   2.855   3.499   2.312
 9799SOL    HW130296   2.846   3.591   2.352
 9799SOL    HW230297   2.781   3.484   2.247
 9800SOL     OW30298   4.244   4.960   6.585
 9800SOL    HW130299   4.334   4.964   6.627
 9800SOL    HW230300   4.252   4.980   6.487
 9801SOL     OW30301   4.084   5.871   6.853
 9801SOL    HW130302   4.047   5.786   6.814
 9801SOL    HW230303   4.132   5.922   6.781
 9802SOL     OW30304   6.697   3.509   0.715
 9802SOL    HW130305   6.765   3.553   0.774
 9802SOL    HW230306   6.645   3.443   0.769
 9803SOL     OW30307   6.008   0.557   6.703
 9803SOL    HW130308   6.016   0.656   6.710
 9803SOL    HW230309   6.012   0.529   6.607
 9804SOL     OW30310   6.238   5.988   4.310
 9804SOL    HW130311   6.261   5.974   4.407
 9804SOL    HW230312   6.151   5.943   4.290
 9805SOL     OW30313   1.753   5.181   0.170
 9805SOL    HW130314   1.667   5.216   0.206
 9805SOL    HW230315   1.797   5.122   0.237
 9806SOL     OW30316   0.052   2.201   2.843
 9806SOL    HW130317   6.992   2.164   2.801
 9806SOL    HW230318   0.035   2.295   2.872
 9807SOL     OW30319   4.158   2.409   0.986
 9807SOL    HW130320   4.228   2.395   1.056
 9807SOL    HW230321   4.140   2.507   0.975
 9808SOL     OW30322   0.574   1.651   4.697
 9808SOL    HW130323   0.557   1.621   4.603
 9808SOL    HW230324   0.647   1.719   4.698
 9809SOL     OW30325   0.639   0.962   4.922
 9809SOL    HW130326   0.622   1.058   4.903
 9809SOL    HW230327   0.710   0.928   4.860
 9810SOL     OW30328   3.762   0.886   3.401
 9810SOL    HW130329   3.720   0.951   3.464
 9810SOL    HW230330   3.766   0.926   3.309
 9811SOL     OW30331   0.356   6.840   2.244
 9811SOL    HW130332   0.412   6.826   2.325
 9811SOL    HW230333   0.410   6.882   2.172
 9812SOL     OW30334   4.865   2.670   6.089
 9812SOL    HW130335   4.859   2.573   6.114
 9812SOL    HW230336   4.941   2.684   6.026
 9813SOL     OW30337   6.613   4.536   0.490
 9813SOL    HW130338   6.684   4.468   0.512
 9813SOL    HW230339   6.542   4.493   0.435
 9814SOL     OW30340   6.832   7.020   5.491
 9814SOL    HW130341   6.788   7.009   5.580
 9814SOL    HW230342   6.764   7.009   5.419
 9815SOL     OW30343   5.974   3.413   2.087
 9815SOL    HW130344   6.011   3.360   2.010
 9815SOL    HW230345   5.874   3.401   2.091
 9816SOL     OW30346   6.741   6.695   6.882
 9816SOL    HW130347   6.791   6.765   6.932
 9816SOL    HW230348   6.716   6.621   6.945
 9817SOL     OW30349   2.734   6.460   6.955
 9817SOL    HW130350   2.696   6.476   0.023
 9817SOL    HW230351   2.745   6.361   6.940
 9818SOL     OW30352   1.231   6.672   3.719
 9818SOL    HW130353   1.201   6.678   3.624
 9818SOL    HW230354   1.259   6.762   3.751
 9819SOL     OW30355   0.165   3.591   4.830
 9819SOL    HW130356   0.172   3.653   4.752
 9819SOL    HW230357   0.178   3.497   4.799
 9820SOL     OW30358   3.724   2.020   5.835
 9820SOL    HW130359   3.750   1.925   5.852
 9820SOL    HW230360   3.640   2.041   5.885
 9821SOL     OW30361   4.357   2.494   1.608
 9821SOL    HW130362   4.283   2.543   1.561
 9821SOL    HW230363   4.438   2.552   1.611
 9822SOL     OW30364   3.477   6.319   5.342
 9822SOL    HW130365   3.530   6.322   5.257
 9822SOL    HW230366   3.389   6.275   5.325
 9823SOL     OW30367   1.933   0.296   3.170
 9823SOL    HW130368   1.917   0.373   3.232
 9823SOL    HW230369   1.880   0.309   3.086
 9824SOL     OW30370   1.064   6.035   5.227
 9824SOL    HW130371   0.981   6.003   5.180
 9824SOL    HW230372   1.136   5.967   5.216
 9825SOL     OW30373   5.217   6.202   5.440
 9825SOL    HW130374   5.189   6.263   5.514
 9825SOL    HW230375   5.312   6.219   5.415
 9826SOL     OW30376   1.869   6.237   5.364
 9826SOL    HW130377   1.947   6.182   5.336
 9826SOL    HW230378   1.900   6.324   5.401
 9827SOL     OW30379   1.312   5.588   1.796
 9827SOL    HW130380   1.350   5.550   1.712
 9827SOL    HW230381   1.344   5.682   1.808
 9828SOL     OW30382   4.087   2.236   4.702
 9828SOL    HW130383   4.161   2.270   4.760
 9828SOL    HW230384   4.119   2.228   4.608
 9829SOL     OW30385   4.593   5.306   5.203
 9829SOL    HW130386   4.516   5.313   5.139
 9829SOL    HW230387   4.560   5.279   5.293
 9830SOL     OW30388   6.197   2.458   2.722
 9830SOL    HW130389   6.189   2.551   2.756
 9830SOL    HW230390   6.112   2.408   2.740
 9831SOL     OW30391   0.524   3.817   2.537
 9831SOL    HW130392   0.613   3.808   2.581
 9831SOL    HW230393   0.523   3.899   2.480
 9832SOL     OW30394   4.794   4.886   4.612
 9832SOL    HW130395   4.714   4.918   4.560
 9832SOL    HW230396   4.830   4.962   4.665
 9833SOL     OW30397   3.793   4.038   4.232
 9833SOL    HW130398   3.730   4.115   4.234
 9833SOL    HW230399   3.746   3.958   4.194
 9834SOL     OW30400   2.654   6.182   6.196
 9834SOL    HW130401   2.595   6.109   6.231
 9834SOL    HW230402   2.599   6.246   6.142
 9835SOL     OW30403   3.936   3.857   4.383
 9835SOL    HW130404   3.987   3.798   4.319
 9835SOL    HW230405   3.896   3.933   4.333
 9836SOL     OW30406   0.472   3.794   5.932
 9836SOL    HW130407   0.500   3.817   6.025
 9836SOL    HW230408   0.480   3.874   5.873
 9837SOL     OW30409   5.223   2.243   3.291
 9837SOL    HW130410   5.228   2.144   3.304
 9837SOL    HW230411   5.199   2.262   3.195
 9838SOL     OW30412   1.496   6.852   1.237
 9838SOL    HW130413   1.522   6.870   1.143
 9838SOL    HW230414   1.574   6.870   1.297
 9839SOL     OW30415   4.807   0.150   3.754
 9839SOL    HW130416   4.895   0.148   3.802
 9839SOL    HW230417   4.822   0.167   3.657
 9840SOL     OW30418   6.018   0.875   6.792
 9840SOL    HW130419   6.025   0.904   6.887
 9840SOL    HW230420   5.967   0.943   6.740
 9841SOL     OW30421   0.449   6.265   3.632
 9841SOL    HW130422   0.367   6.289   3.683
 9841SOL    HW230423   0.505   6.347   3.618
 9842SOL     OW30424   2.741   1.891   6.896
 9842SOL    HW130425   2.809   1.818   6.904
 9842SOL    HW230426   2.665   1.860   6.839
 9843SOL     OW30427   0.889   0.527   1.422
 9843SOL    HW130428   0.890   0.474   1.337
 9843SOL    HW230429   0.828   0.605   1.411
 9844SOL     OW30430   4.586   6.710   4.483
 9844SOL    HW130431   4.518   6.743   4.549
 9844SOL    HW230432   4.570   6.613   4.464
 9845SOL     OW30433   1.973   3.804   1.847
 9845SOL    HW130434   1.929   3.846   1.768
 9845SOL    HW230435   1.945   3.851   1.931
 9846SOL     OW30436   5.809   2.301   1.184
 9846SOL    HW130437   5.836   2.279   1.278
 9846SOL    HW230438   5.724   2.255   1.162
 9847SOL     OW30439   4.251   3.910   0.000
 9847SOL    HW130440   4.261   3.811   0.014
 9847SOL    HW230441   4.329   3.944   6.971
 9848SOL     OW30442   3.318   3.825   5.611
 9848SOL    HW130443   3.360   3.818   5.702
 9848SOL    HW230444   3.389   3.844   5.543
 9849SOL     OW30445   0.681   1.864   4.561
 9849SOL    HW130446   0.595   1.812   4.563
 9849SOL    HW230447   0.703   1.887   4.466
 9850SOL     OW30448   1.260   0.232   4.303
 9850SOL    HW130449   1.199   0.283   4.363
 9850SOL    HW230450   1.207   0.170   4.246
 9851SOL     OW30451   3.644   5.047   4.465
 9851SOL    HW130452   3.650   5.067   4.563
 9851SOL    HW230453   3.714   4.980   4.440
 9852SOL     OW30454   2.229   0.802   0.004
 9852SOL    HW130455   2.211   0.788   0.101
 9852SOL    HW230456   2.142   0.812   6.978
 9853SOL     OW30457   6.653   4.576   3.602
 9853SOL    HW130458   6.628   4.672   3.589
 9853SOL    HW230459   6.579   4.528   3.650
 9854SOL     OW30460   0.802   4.343   6.037
 9854SOL    HW130461   0.824   4.440   6.041
 9854SOL    HW230462   0.825   4.299   6.123
 9855SOL     OW30463   1.188   4.671   1.400
 9855SOL    HW130464   1.164   4.583   1.359
 9855SOL    HW230465   1.247   4.722   1.337
 9856SOL     OW30466   5.823   4.240   3.195
 9856SOL    HW130467   5.868   4.300   3.261
 9856SOL    HW230468   5.744   4.287   3.157
 9857SOL     OW30469   3.495   0.723   5.345
 9857SOL    HW130470   3.590   0.754   5.347
 9857SOL    HW230471   3.437   0.792   5.388
 9858SOL     OW30472   5.996   6.603   2.634
 9858SOL    HW130473   5.936   6.552   2.572
 9858SOL    HW230474   5.942   6.642   2.708
 9859SOL     OW30475   0.074   5.911   3.171
 9859SOL    HW130476   0.057   5.904   3.073
 9859SOL    HW230477   0.172   5.907   3.188
 9860SOL     OW30478   1.431   3.118   4.159
 9860SOL    HW130479   1.501   3.053   4.187
 9860SOL    HW230480   1.362   3.125   4.232
 9861SOL     OW30481   3.370   1.670   3.458
 9861SOL    HW130482   3.390   1.623   3.544
 9861SOL    HW230483   3.444   1.652   3.393
 9862SOL     OW30484   1.298   4.721   0.346
 9862SOL    HW130485   1.222   4.783   0.325
 9862SOL    HW230486   1.308   4.714   0.445
 9863SOL     OW30487   3.398   5.771   0.710
 9863SOL    HW130488   3.354   5.681   0.706
 9863SOL    HW230489   3.333   5.839   0.745
 9864SOL     OW30490   2.964   5.453   5.556
 9864SOL    HW130491   2.920   5.540   5.579
 9864SOL    HW230492   2.895   5.382   5.547
 9865SOL     OW30493   0.307   6.121   5.452
 9865SOL    HW130494   0.237   6.049   5.453
 9865SOL    HW230495   0.377   6.100   5.521
 9866SOL     OW30496   6.036   4.285   5.121
 9866SOL    HW130497   6.056   4.341   5.041
 9866SOL    HW230498   5.979   4.338   5.184
 9867SOL     OW30499   4.310   2.049   1.790
 9867SOL    HW130500   4.264   2.084   1.708
 9867SOL    HW230501   4.245   2.049   1.866
 9868SOL     OW30502   2.150   3.552   3.529
 9868SOL    HW130503   2.244   3.537   3.497
 9868SOL    HW230504   2.146   3.639   3.579
 9869SOL     OW30505   6.178   2.888   1.023
 9869SOL    HW130506   6.265   2.841   1.039
 9869SOL    HW230507   6.141   2.922   1.109
 9870SOL     OW30508   2.847   1.177   2.602
 9870SOL    HW130509   2.938   1.164   2.642
 9870SOL    HW230510   2.780   1.123   2.653
 9871SOL     OW30511   6.688   4.444   4.358
 9871SOL    HW130512   6.682   4.431   4.457
 9871SOL    HW230513   6.628   4.519   4.331
 9872SOL     OW30514   0.941   4.674   6.129
 9872SOL    HW130515   0.988   4.692   6.043
 9872SOL    HW230516   0.884   4.753   6.153
 9873SOL     OW30517   1.200   1.801   6.035
 9873SOL    HW130518   1.281   1.805   5.977
 9873SOL    HW230519   1.126   1.755   5.985
 9874SOL     OW30520   0.167   2.542   4.901
 9874SOL    HW130521   0.117   2.626   4.883
 9874SOL    HW230522   0.247   2.536   4.840
 9875SOL     OW30523   6.613   5.665   0.993
 9875SOL    HW130524   6.635   5.609   1.072
 9875SOL    HW230525   6.657   5.627   0.911
 9876SOL     OW30526   1.694   6.321   4.024
 9876SOL    HW130527   1.654   6.412   4.013
 9876SOL    HW230528   1.648   6.258   3.961
 9877SOL     OW30529   0.847   5.020   4.998
 9877SOL    HW130530   0.868   5.008   4.901
 9877SOL    HW230531   0.932   5.028   5.050
 9878SOL     OW30532   2.552   2.809   6.780
 9878SOL    HW130533   2.613   2.802   6.701
 9878SOL    HW230534   2.515   2.902   6.785
 9879SOL     OW30535   6.761   5.216   6.343
 9879SOL    HW130536   6.773   5.133   6.397
 9879SOL    HW230537   6.669   5.253   6.359
 9880SOL     OW30538   2.917   1.663   0.128
 9880SOL    HW130539   2.821   1.647   0.103
 9880SOL    HW230540   2.921   1.708   0.217
 9881SOL     OW30541   5.975   0.729   4.063
 9881SOL    HW130542   6.009   0.745   4.156
 9881SOL    HW230543   5.893   0.671   4.067
 9882SOL     OW30544   3.092   3.077   4.810
 9882SOL    HW130545   3.035   3.154   4.840
 9882SOL    HW230546   3.116   3.020   4.888
 9883SOL     OW30547   2.629   6.758   1.866
 9883SOL    HW130548   2.564   6.829   1.891
 9883SOL    HW230549   2.582   6.686   1.815
 9884SOL     OW30550   2.521   3.584   5.760
 9884SOL    HW130551   2.529   3.671   5.710
 9884SOL    HW230552   2.493   3.512   5.697
 9885SOL     OW30553   5.436   3.025   5.310
 9885SOL    HW130554   5.493   2.954   5.353
 9885SOL    HW230555   5.349   2.985   5.283
 9886SOL     OW30556   4.237   5.787   1.190
 9886SOL    HW130557   4.330   5.797   1.155
 9886SOL    HW230558   4.203   5.695   1.170
 9887SOL     OW30559   3.028   0.217   6.468
 9887SOL    HW130560   3.124   0.217   6.497
 9887SOL    HW230561   3.023   0.208   6.369
 9888SOL     OW30562   6.668   6.544   3.167
 9888SOL    HW130563   6.765   6.568   3.176
 9888SOL    HW230564   6.638   6.496   3.249
 9889SOL     OW30565   6.890   5.638   3.431
 9889SOL    HW130566   6.957   5.712   3.426
 9889SOL    HW230567   6.911   5.579   3.509
 9890SOL     OW30568   0.602   3.792   1.965
 9890SOL    HW130569   0.691   3.749   1.953
 9890SOL    HW230570   0.614   3.890   1.981
 9891SOL     OW30571   5.318   5.607   0.734
 9891SOL    HW130572   5.308   5.706   0.724
 9891SOL    HW230573   5.408   5.579   0.701
 9892SOL     OW30574   1.867   4.956   3.826
 9892SOL    HW130575   1.924   4.873   3.827
 9892SOL    HW230576   1.848   4.985   3.919
 9893SOL     OW30577   5.237   5.315   3.551
 9893SOL    HW130578   5.227   5.220   3.581
 9893SOL    HW230579   5.334   5.338   3.542
 9894SOL     OW30580   3.996   3.363   5.770
 9894SOL    HW130581   4.071   3.427   5.753
 9894SOL    HW230582   3.994   3.338   5.866
 9895SOL     OW30583   5.743   2.146   6.602
 9895SOL    HW130584   5.834   2.110   6.582
 9895SOL    HW230585   5.696   2.083   6.665
 9896SOL     OW30586   3.982   3.943   0.416
 9896SOL    HW130587   3.988   3.845   0.433
 9896SOL    HW230588   3.941   3.988   0.496
 9897SOL     OW30589   6.720   1.936   3.650
 9897SOL    HW130590   6.817   1.931   3.626
 9897SOL    HW230591   6.709   1.980   3.739
 9898SOL     OW30592   1.132   5.297   5.484
 9898SOL    HW130593   1.143   5.393   5.511
 9898SOL    HW230594   1.048   5.287   5.429
 9899SOL     OW30595   5.834   4.836   1.856
 9899SOL    HW130596   5.853   4.851   1.953
 9899SOL    HW230597   5.885   4.902   1.801
 9900SOL     OW30598   0.785   3.642   3.391
 9900SOL    HW130599   0.805   3.544   3.393
 9900SOL    HW230600   0.713   3.659   3.324
 9901SOL     OW30601   3.034   1.834   5.377
 9901SOL    HW130602   2.972   1.769   5.420
 9901SOL    HW230603   3.036   1.918   5.431
 9902SOL     OW30604   4.461   4.007   6.900
 9902SOL    HW130605   4.503   4.094   6.928
 9902SOL    HW230606   4.511   3.971   6.821
 9903SOL     OW30607   3.990   1.505   1.424
 9903SOL    HW130608   4.013   1.431   1.486
 9903SOL    HW230609   4.013   1.593   1.467
 9904SOL     OW30610   6.619   0.275   2.019
 9904SOL    HW130611   6.695   0.332   2.052
 9904SOL    HW230612   6.532   0.321   2.039
 9905SOL     OW30613   1.378   6.314   5.516
 9905SOL    HW130614   1.394   6.402   5.471
 9905SOL    HW230615   1.444   6.302   5.590
 9906SOL     OW30616   3.177   3.228   6.072
 9906SOL    HW130617   3.238   3.202   5.996
 9906SOL    HW230618   3.230   3.233   6.156
 9907SOL     OW30619   2.205   6.558   2.506
 9907SOL    HW130620   2.186   6.503   2.425
 9907SOL    HW230621   2.218   6.654   2.479
 9908SOL     OW30622   1.079   3.213   5.391
 9908SOL    HW130623   1.037   3.277   5.455
 9908SOL    HW230624   1.170   3.188   5.424
 9909SOL     OW30625   4.194   6.647   2.544
 9909SOL    HW130626   4.218   6.626   2.449
 9909SOL    HW230627   4.179   6.561   2.594
 9910SOL     OW30628   0.200   4.201   1.536
 9910SOL    HW130629   0.257   4.121   1.554
 9910SOL    HW230630   0.252   4.284   1.552
 9911SOL     OW30631   2.927   4.820   3.527
 9911SOL    HW130632   2.846   4.878   3.523
 9911SOL    HW230633   3.009   4.877   3.524
 9912SOL     OW30634   4.870   0.245   1.387
 9912SOL    HW130635   4.921   0.161   1.401
 9912SOL    HW230636   4.778   0.224   1.354
 9913SOL     OW30637   4.711   1.976   2.624
 9913SOL    HW130638   4.733   2.030   2.543
 9913SOL    HW230639   4.775   1.899   2.631
 9914SOL     OW30640   1.712   6.097   5.530
 9914SOL    HW130641   1.781   6.144   5.476
 9914SOL    HW230642   1.668   6.163   5.592
 9915SOL     OW30643   5.255   3.616   4.480
 9915SOL    HW130644   5.345   3.655   4.461
 9915SOL    HW230645   5.185   3.666   4.428
 9916SOL     OW30646   2.263   3.031   1.471
 9916SOL    HW130647   2.328   3.104   1.492
 9916SOL    HW230648   2.263   2.963   1.545
 9917SOL     OW30649   2.171   3.454   5.608
 9917SOL    HW130650   2.160   3.554   5.611
 9917SOL    HW230651   2.268   3.431   5.609
 9918SOL     OW30652   1.563   1.109   5.009
 9918SOL    HW130653   1.594   1.050   5.083
 9918SOL    HW230654   1.464   1.100   4.999
 9919SOL     OW30655   0.125   5.547   3.159
 9919SOL    HW130656   0.096   5.492   3.081
 9919SOL    HW230657   0.141   5.488   3.238
 9920SOL     OW30658   4.613   6.900   1.433
 9920SOL    HW130659   4.694   6.857   1.472
 9920SOL    HW230660   4.546   6.916   1.506
 9921SOL     OW30661   5.226   0.124   2.686
 9921SOL    HW130662   5.260   0.075   2.767
 9921SOL    HW230663   5.150   0.183   2.713
 9922SOL     OW30664   4.548   2.974   1.450
 9922SOL    HW130665   4.498   2.977   1.536
 9922SOL    HW230666   4.608   2.894   1.449
 9923SOL     OW30667   6.717   1.622   6.341
 9923SOL    HW130668   6.761   1.646   6.428
 9923SOL    HW230669   6.757   1.677   6.267
 9924SOL     OW30670   5.917   0.680   3.011
 9924SOL    HW130671   5.914   0.643   3.104
 9924SOL    HW230672   6.006   0.660   2.970
 9925SOL     OW30673   2.190   2.794   4.951
 9925SOL    HW130674   2.248   2.875   4.957
 9925SOL    HW230675   2.197   2.755   4.859
 9926SOL     OW30676   1.334   1.233   0.360
 9926SOL    HW130677   1.337   1.305   0.290
 9926SOL    HW230678   1.347   1.144   0.316
 9927SOL     OW30679   0.804   2.432   2.686
 9927SOL    HW130680   0.796   2.372   2.606
 9927SOL    HW230681   0.746   2.397   2.760
 9928SOL     OW30682   0.241   3.061   2.868
 9928SOL    HW130683   0.265   2.968   2.897
 9928SOL    HW230684   0.238   3.121   2.948
 9929SOL     OW30685   1.982   4.298   6.310
 9929SOL    HW130686   1.958   4.271   6.216
 9929SOL    HW230687   2.080   4.287   6.324
 9930SOL     OW30688   0.447   5.911   0.002
 9930SOL    HW130689   0.440   5.855   0.085
 9930SOL    HW230690   0.383   5.877   6.956
 9931SOL     OW30691   2.435   5.725   6.236
 9931SOL    HW130692   2.351   5.670   6.231
 9931SOL    HW230693   2.415   5.818   6.207
 9932SOL     OW30694   2.033   2.350   0.112
 9932SOL    HW130695   2.090   2.283   0.065
 9932SOL    HW230696   2.092   2.417   0.157
 9933SOL     OW30697   1.090   2.336   3.720
 9933SOL    HW130698   1.074   2.415   3.779
 9933SOL    HW230699   1.078   2.252   3.773
 9934SOL     OW30700   3.893   0.962   6.168
 9934SOL    HW130701   3.877   0.934   6.262
 9934SOL    HW230702   3.973   0.914   6.131
 9935SOL     OW30703   2.738   2.119   0.983
 9935SOL    HW130704   2.684   2.064   1.048
 9935SOL    HW230705   2.830   2.132   1.019
 9936SOL     OW30706   5.956   6.487   5.623
 9936SOL    HW130707   5.864   6.489   5.662
 9936SOL    HW230708   6.008   6.411   5.664
 9937SOL     OW30709   0.365   0.358   3.458
 9937SOL    HW130710   0.327   0.393   3.544
 9937SOL    HW230711   0.334   0.264   3.443
 9938SOL     OW30712   6.996   1.426   3.815
 9938SOL    HW130713   0.041   1.353   3.800
 9938SOL    HW230714   7.023   1.507   3.762
 9939SOL     OW30715   3.159   4.309   1.083
 9939SOL    HW130716   3.149   4.356   1.171
 9939SOL    HW230717   3.107   4.224   1.085
 9940SOL     OW30718   0.285   0.955   3.499
 9940SOL    HW130719   0.365   1.000   3.459
 9940SOL    HW230720   0.236   1.020   3.558
 9941SOL     OW30721   5.265   5.150   6.899
 9941SOL    HW130722   5.337   5.195   6.952
 9941SOL    HW230723   5.285   5.158   6.802
 9942SOL     OW30724   4.749   4.745   2.927
 9942SOL    HW130725   4.696   4.825   2.957
 9942SOL    HW230726   4.766   4.751   2.829
 9943SOL     OW30727   2.293   3.827   6.339
 9943SOL    HW130728   2.361   3.888   6.381
 9943SOL    HW230729   2.340   3.746   6.301
 9944SOL     OW30730   0.659   4.716   6.291
 9944SOL    HW130731   0.567   4.718   6.329
 9944SOL    HW230732   0.716   4.654   6.345
 9945SOL     OW30733   6.566   3.287   6.087
 9945SOL    HW130734   6.638   3.321   6.027
 9945SOL    HW230735   6.578   3.188   6.099
 9946SOL     OW30736   5.683   1.675   1.655
 9946SOL    HW130737   5.614   1.746   1.642
 9946SOL    HW230738   5.648   1.606   1.718
 9947SOL     OW30739   1.214   1.967   3.734
 9947SOL    HW130740   1.140   2.022   3.774
 9947SOL    HW230741   1.183   1.927   3.648
 9948SOL     OW30742   5.572   0.121   4.262
 9948SOL    HW130743   5.497   0.082   4.208
 9948SOL    HW230744   5.537   0.151   4.350
 9949SOL     OW30745   6.106   5.200   4.277
 9949SOL    HW130746   6.147   5.113   4.302
 9949SOL    HW230747   6.053   5.189   4.193
 9950SOL     OW30748   5.763   4.054   5.411
 9950SOL    HW130749   5.699   3.991   5.367
 9950SOL    HW230750   5.856   4.018   5.403
 9951SOL     OW30751   0.279   1.927   3.535
 9951SOL    HW130752   0.180   1.924   3.553
 9951SOL    HW230753   0.295   1.936   3.437
 9952SOL     OW30754   0.533   5.151   1.818
 9952SOL    HW130755   0.584   5.223   1.866
 9952SOL    HW230756   0.565   5.145   1.724
 9953SOL     OW30757   5.777   2.301   3.638
 9953SOL    HW130758   5.821   2.333   3.554
 9953SOL    HW230759   5.746   2.380   3.691
 9954SOL     OW30760   3.602   1.344   6.069
 9954SOL    HW130761   3.616   1.433   6.024
 9954SOL    HW230762   3.599   1.357   6.168
 9955SOL     OW30763   5.781   4.227   1.037
 9955SOL    HW130764   5.821   4.296   1.097
 9955SOL    HW230765   5.730   4.161   1.092
 9956SOL     OW30766   2.116   3.395   3.302
 9956SOL    HW130767   2.104   3.477   3.358
 9956SOL    HW230768   2.056   3.323   3.335
 9957SOL     OW30769   5.139   7.002   0.978
 9957SOL    HW130770   5.075   0.043   1.021
 9957SOL    HW230771   5.179   6.943   1.048
 9958SOL     OW30772   5.268   6.089   0.216
 9958SOL    HW130773   5.313   6.060   0.132
 9958SOL    HW230774   5.231   6.009   0.264
 9959SOL     OW30775   5.068   4.535   0.617
 9959SOL    HW130776   5.147   4.476   0.631
 9959SOL    HW230777   5.001   4.518   0.689
 9960SOL     OW30778   0.334   0.453   0.047
 9960SOL    HW130779   0.341   0.541   0.095
 9960SOL    HW230780   0.412   0.443   7.008
 9961SOL     OW30781   3.043   5.237   1.293
 9961SOL    HW130782   3.120   5.212   1.351
 9961SOL    HW230783   3.076   5.290   1.215
 9962SOL     OW30784   3.153   0.485   1.586
 9962SOL    HW130785   3.067   0.523   1.549
 9962SOL    HW230786   3.186   0.414   1.525
 9963SOL     OW30787   0.776   0.863   6.419
 9963SOL    HW130788   0.695   0.815   6.387
 9963SOL    HW230789   0.780   0.954   6.378
 9964SOL     OW30790   4.669   4.149   5.981
 9964SOL    HW130791   4.709   4.073   6.033
 9964SOL    HW230792   4.569   4.141   5.981
 9965SOL     OW30793   2.850   5.481   4.066
 9965SOL    HW130794   2.768   5.493   4.121
 9965SOL    HW230795   2.825   5.466   3.971
 9966SOL     OW30796   3.929   4.827   2.079
 9966SOL    HW130797   3.902   4.872   2.164
 9966SOL    HW230798   3.850   4.778   2.041
 9967SOL     OW30799   6.719   0.555   2.659
 9967SOL    HW130800   6.702   0.625   2.728
 9967SOL    HW230801   6.814   0.525   2.665
 9968SOL     OW30802   3.182   6.695   7.008
 9968SOL    HW130803   3.159   6.760   0.057
 9968SOL    HW230804   3.098   6.659   6.967
 9969SOL     OW30805   1.635   5.845   3.387
 9969SOL    HW130806   1.730   5.839   3.419
 9969SOL    HW230807   1.575   5.857   3.466
 9970SOL     OW30808   6.274   3.871   1.401
 9970SOL    HW130809   6.277   3.772   1.409
 9970SOL    HW230810   6.314   3.912   1.483
 9971SOL     OW30811   0.749   5.293   3.427
 9971SOL    HW130812   0.685   5.232   3.473
 9971SOL    HW230813   0.745   5.277   3.328
 9972SOL     OW30814   2.906   3.752   6.453
 9972SOL    HW130815   2.832   3.818   6.442
 9972SOL    HW230816   2.974   3.766   6.382
 9973SOL     OW30817   2.761   2.199   3.652
 9973SOL    HW130818   2.753   2.206   3.752
 9973SOL    HW230819   2.781   2.104   3.627
 9974SOL     OW30820   1.267   2.948   2.938
 9974SOL    HW130821   1.276   2.869   2.879
 9974SOL    HW230822   1.309   2.929   3.027
 9975SOL     OW30823   2.069   5.094   6.916
 9975SOL    HW130824   2.104   5.187   6.921
 9975SOL    HW230825   2.083   5.049   7.005
 9976SOL     OW30826   3.414   4.038   6.344
 9976SOL    HW130827   3.325   4.054   6.301
 9976SOL    HW230828   3.410   4.063   6.440
 9977SOL     OW30829   4.788   6.509   5.483
 9977SOL    HW130830   4.738   6.575   5.538
 9977SOL    HW230831   4.886   6.516   5.503
 9978SOL     OW30832   0.865   3.533   6.651
 9978SOL    HW130833   0.902   3.467   6.716
 9978SOL    HW230834   0.785   3.494   6.605
 9979SOL     OW30835   3.816   3.392   4.811
 9979SOL    HW130836   3.827   3.491   4.798
 9979SOL    HW230837   3.900   3.354   4.848
 9980SOL     OW30838   2.159   1.752   0.684
 9980SOL    HW130839   2.145   1.848   0.707
 9980SOL    HW230840   2.178   1.701   0.768
 9981SOL     OW30841   6.950   2.870   1.645
 9981SOL    HW130842   6.933   2.909   1.554
 9981SOL    HW230843   6.914   2.777   1.649
 9982SOL     OW30844   2.056   2.048   4.773
 9982SOL    HW130845   1.977   2.108   4.781
 9982SOL    HW230846   2.036   1.961   4.818
 9983SOL     OW30847   0.920   2.571   2.426
 9983SOL    HW130848   0.840   2.627   2.447
 9983SOL    HW230849   0.998   2.604   2.480
 9984SOL     OW30850   0.537   5.769   1.362
 9984SOL    HW130851   0.541   5.671   1.342
 9984SOL    HW230852   0.592   5.789   1.443
 9985SOL     OW30853   4.170   4.651   0.522
 9985SOL    HW130854   4.172   4.566   0.575
 9985SOL    HW230855   4.075   4.674   0.499
 9986SOL     OW30856   5.460   5.274   0.015
 9986SOL    HW130857   5.473   5.334   6.958
 9986SOL    HW230858   5.472   5.327   0.098
 9987SOL     OW30859   5.192   2.852   1.082
 9987SOL    HW130860   5.132   2.774   1.060
 9987SOL    HW230861   5.286   2.829   1.055
 9988SOL     OW30862   5.276   6.446   4.559
 9988SOL    HW130863   5.346   6.506   4.521
 9988SOL    HW230864   5.196   6.500   4.585
 9989SOL     OW30865   6.357   5.156   2.411
 9989SOL    HW130866   6.431   5.222   2.425
 9989SOL    HW230867   6.361   5.120   2.318
 9990SOL     OW30868   0.743   6.948   3.693
 9990SOL    HW130869   0.737   7.012   3.618
 9990SOL    HW230870   0.683   6.870   3.676
 9991SOL     OW30871   1.608   4.855   3.339
 9991SOL    HW130872   1.609   4.839   3.240
 9991SOL    HW230873   1.702   4.851   3.374
 9992SOL     OW30874   3.530   4.979   0.887
 9992SOL    HW130875   3.612   5.036   0.878
 9992SOL    HW230876   3.552   4.897   0.939
 9993SOL     OW30877   3.578   6.756   4.623
 9993SOL    HW130878   3.666   6.762   4.670
 9993SOL    HW230879   3.529   6.843   4.633
 9994SOL     OW30880   6.232   4.879   4.735
 9994SOL    HW130881   6.271   4.879   4.827
 9994SOL    HW230882   6.251   4.967   4.691
 9995SOL     OW30883   2.901   0.730   4.752
 9995SOL    HW130884   2.876   0.687   4.666
 9995SOL    HW230885   2.944   0.663   4.812
 9996SOL     OW30886   2.628   3.279   1.089
 9996SOL    HW130887   2.627   3.378   1.073
 9996SOL    HW230888   2.555   3.255   1.154
 9997SOL     OW30889   6.033   2.762   3.544
 9997SOL    HW130890   6.074   2.846   3.582
 9997SOL    HW230891   6.048   2.687   3.608
 9998SOL     OW30892   4.981   4.430   2.662
 9998SOL    HW130893   5.010   4.522   2.688
 9998SOL    HW230894   4.988   4.369   2.741
 9999SOL     OW30895   1.328   6.302   3.490
 9999SOL    HW130896   1.357   6.234   3.423
 9999SOL    HW230897   1.233   6.329   3.470
10000SOL     OW30898   5.437   2.231   1.584
10000SOL    HW130899   5.509   2.297   1.608
10000SOL    HW230900   5.368   2.229   1.656
10001SOL     OW30901   4.027   6.167   1.837
10001SOL    HW130902   4.046   6.246   1.778
10001SOL    HW230903   4.005   6.200   1.929
10002SOL     OW30904   2.805   0.805   1.655
10002SOL    HW130905   2.890   0.851   1.677
10002SOL    HW230906   2.771   0.757   1.736
10003SOL     OW30907   1.477   0.693   3.980
10003SOL    HW130908   1.489   0.726   4.073
10003SOL    HW230909   1.446   0.768   3.922
10004SOL     OW30910   6.215   3.932   4.937
10004SOL    HW130911   6.137   3.967   4.885
10004SOL    HW230912   6.214   3.970   5.029
10005SOL     OW30913   1.883   5.507   3.357
10005SOL    HW130914   1.913   5.453   3.279
10005SOL    HW230915   1.851   5.597   3.326
10006SOL     OW30916   5.316   0.205   5.112
10006SOL    HW130917   5.236   0.146   5.104
10006SOL    HW230918   5.296   0.282   5.173
10007SOL     OW30919   1.847   4.994   4.092
10007SOL    HW130920   1.932   5.032   4.129
10007SOL    HW230921   1.808   4.929   4.157
10008SOL     OW30922   4.686   1.457   5.956
10008SOL    HW130923   4.728   1.455   6.046
10008SOL    HW230924   4.739   1.401   5.893
10009SOL     OW30925   1.364   3.237   2.062
10009SOL    HW130926   1.460   3.248   2.089
10009SOL    HW230927   1.356   3.250   1.963
10010SOL     OW30928   2.505   3.913   0.177
10010SOL    HW130929   2.444   3.874   0.108
10010SOL    HW230930   2.452   3.955   0.250
10011SOL     OW30931   1.065   3.640   0.336
10011SOL    HW130932   1.056   3.737   0.358
10011SOL    HW230933   1.131   3.597   0.397
10012SOL     OW30934   5.080   1.471   2.653
10012SOL    HW130935   5.104   1.546   2.591
10012SOL    HW230936   4.993   1.492   2.698
10013SOL     OW30937   0.347   5.965   4.872
10013SOL    HW130938   0.262   5.912   4.864
10013SOL    HW230939   0.332   6.042   4.934
10014SOL     OW30940   0.741   6.943   2.812
10014SOL    HW130941   0.714   6.847   2.821
10014SOL    HW230942   0.698   6.997   2.883
10015SOL     OW30943   4.190   4.650   6.070
10015SOL    HW130944   4.174   4.561   6.028
10015SOL    HW230945   4.286   4.655   6.100
10016SOL     OW30946   2.406   0.245   2.641
10016SOL    HW130947   2.484   0.297   2.676
10016SOL    HW230948   2.422   0.221   2.545
10017SOL     OW30949   2.847   1.826   2.904
10017SOL    HW130950   2.790   1.801   2.983
10017SOL    HW230951   2.792   1.879   2.839
10018SOL     OW30952   6.347   2.565   6.130
10018SOL    HW130953   6.253   2.537   6.149
10018SOL    HW230954   6.410   2.503   6.177
10019SOL     OW30955   0.495   1.980   2.694
10019SOL    HW130956   0.566   2.003   2.761
10019SOL    HW230957   0.413   2.033   2.713
10020SOL     OW30958   6.324   0.719   2.195
10020SOL    HW130959   6.290   0.640   2.246
10020SOL    HW230960   6.267   0.798   2.215
10021SOL     OW30961   1.210   4.188   2.298
10021SOL    HW130962   1.285   4.175   2.232
10021SOL    HW230963   1.123   4.182   2.250
10022SOL     OW30964   2.584   6.189   0.324
10022SOL    HW130965   2.516   6.178   0.252
10022SOL    HW230966   2.585   6.284   0.355
10023SOL     OW30967   1.492   6.517   5.921
10023SOL    HW130968   1.402   6.490   5.954
10023SOL    HW230969   1.531   6.586   5.983
10024SOL     OW30970   1.767   4.547   2.777
10024SOL    HW130971   1.790   4.528   2.872
10024SOL    HW230972   1.676   4.510   2.756
10025SOL     OW30973   1.119   4.464   1.750
10025SOL    HW130974   1.109   4.458   1.849
10025SOL    HW230975   1.106   4.373   1.709
10026SOL     OW30976   5.421   1.571   4.142
10026SOL    HW130977   5.476   1.554   4.224
10026SOL    HW230978   5.377   1.660   4.149
10027SOL     OW30979   1.809   1.696   6.116
10027SOL    HW130980   1.799   1.787   6.076
10027SOL    HW230981   1.864   1.639   6.056
10028SOL     OW30982   4.826   0.580   1.678
10028SOL    HW130983   4.757   0.563   1.607
10028SOL    HW230984   4.814   0.673   1.715
10029SOL     OW30985   6.985   3.349   5.025
10029SOL    HW130986   6.946   3.291   5.096
10029SOL    HW230987   0.062   3.340   5.025
10030SOL     OW30988   2.673   6.932   4.966
10030SOL    HW130989   2.595   6.883   4.926
10030SOL    HW230990   2.756   6.877   4.954
10031SOL     OW30991   3.080   4.927   4.295
10031SOL    HW130992   3.142   4.956   4.222
10031SOL    HW230993   3.133   4.892   4.372
10032SOL     OW30994   2.881   6.112   4.711
10032SOL    HW130995   2.825   6.030   4.720
10032SOL    HW230996   2.976   6.090   4.734
10033SOL     OW30997   3.827   1.467   2.924
10033SOL    HW130998   3.735   1.486   2.889
10033SOL    HW230999   3.835   1.501   3.017
10034SOL     OW31000   2.713   0.511   3.400
10034SOL    HW131001   2.747   0.561   3.479
10034SOL    HW231002   2.790   0.465   3.355
10035SOL     OW31003   5.915   3.109   1.930
10035SOL    HW131004   5.880   3.191   1.884
10035SOL    HW231005   5.840   3.047   1.950
10036SOL     OW31006   6.372   0.452   6.475
10036SOL    HW131007   6.292   0.398   6.451
10036SOL    HW231008   6.443   0.438   6.405
10037SOL     OW31009   6.411   6.959   6.800
10037SOL    HW131010   6.401   6.860   6.797
10037SOL    HW231011   6.324   7.001   6.827
10038SOL     OW31012   4.561   0.250   6.983
10038SOL    HW131013   4.469   0.290   6.978
10038SOL    HW231014   4.573   0.185   6.907
10039SOL     OW31015   6.037   5.393   3.571
10039SOL    HW131016   6.127   5.420   3.604
10039SOL    HW231017   5.983   5.474   3.549
10040SOL     OW31018   3.837   0.353   7.016
10040SOL    HW131019   3.936   0.367   7.003
10040SOL    HW231020   3.818   0.255   7.022
10041SOL     OW31021   6.754   4.923   4.949
10041SOL    HW131022   6.837   4.931   4.894
10041SOL    HW231023   6.674   4.945   4.893
10042SOL     OW31024   0.151   0.352   4.973
10042SOL    HW131025   0.216   0.427   4.957
10042SOL    HW231026   0.174   0.306   5.059
10043SOL     OW31027   1.053   0.973   3.006
10043SOL    HW131028   1.143   0.937   3.031
10043SOL    HW231029   0.995   0.899   2.972
10044SOL     OW31030   2.408   1.382   5.714
10044SOL    HW131031   2.401   1.468   5.765
10044SOL    HW231032   2.394   1.401   5.616
10045SOL     OW31033   3.953   6.393   4.882
10045SOL    HW131034   3.892   6.339   4.825
10045SOL    HW231035   4.041   6.405   4.835
10046SOL     OW31036   6.961   2.652   1.850
10046SOL    HW131037   6.989   2.632   1.943
10046SOL    HW231038   0.007   2.617   1.786
10047SOL     OW31039   6.738   1.718   5.199
10047SOL    HW131040   6.770   1.809   5.174
10047SOL    HW231041   6.816   1.657   5.209
10048SOL     OW31042   3.376   1.943   1.534
10048SOL    HW131043   3.430   1.877   1.482
10048SOL    HW231044   3.394   1.932   1.631
10049SOL     OW31045   2.102   0.513   6.320
10049SOL    HW131046   2.016   0.464   6.334
10049SOL    HW231047   2.087   0.588   6.256
10050SOL     OW31048   4.987   2.631   4.340
10050SOL    HW131049   5.061   2.695   4.323
10050SOL    HW231050   5.004   2.582   4.426
10051SOL     OW31051   6.015   2.826   4.635
10051SOL    HW131052   6.021   2.760   4.561
10051SOL    HW231053   5.933   2.882   4.623
10052SOL     OW31054   1.462   3.405   1.661
10052SOL    HW131055   1.516   3.425   1.743
10052SOL    HW231056   1.497   3.459   1.585
10053SOL     OW31057   3.392   4.945   3.711
10053SOL    HW131058   3.485   4.913   3.694
10053SOL    HW231059   3.349   4.970   3.624
10054SOL     OW31060   3.567   5.424   5.209
10054SOL    HW131061   3.592   5.472   5.293
10054SOL    HW231062   3.608   5.470   5.130
10055SOL     OW31063   6.652   2.212   4.930
10055SOL    HW131064   6.576   2.148   4.944
10055SOL    HW231065   6.738   2.162   4.935
10056SOL     OW31066   6.360   4.647   1.823
10056SOL    HW131067   6.448   4.683   1.853
10056SOL    HW231068   6.303   4.627   1.902
10057SOL     OW31069   3.992   1.863   4.251
10057SOL    HW131070   4.060   1.791   4.258
10057SOL    HW231071   3.926   1.854   4.326
10058SOL     OW31072   0.216   5.424   4.145
10058SOL    HW131073   0.163   5.343   4.119
10058SOL    HW231074   0.270   5.455   4.068
10059SOL     OW31075   5.323   0.693   0.879
10059SOL    HW131076   5.280   0.775   0.917
10059SOL    HW231077   5.321   0.620   0.948
10060SOL     OW31078   3.203   2.242   1.676
10060SOL    HW131079   3.128   2.192   1.632
10060SOL    HW231080   3.240   2.186   1.750
10061SOL     OW31081   6.159   1.385   4.339
10061SOL    HW131082   6.134   1.354   4.431
10061SOL    HW231083   6.094   1.347   4.273
10062SOL     OW31084   6.315   5.811   3.509
10062SOL    HW131085   6.334   5.764   3.596
10062SOL    HW231086   6.246   5.758   3.458
10063SOL     OW31087   1.067   3.630   3.607
10063SOL    HW131088   1.124   3.703   3.645
10063SOL    HW231089   1.094   3.611   3.513
10064SOL     OW31090   4.892   5.795   4.225
10064SOL    HW131091   4.854   5.706   4.204
10064SOL    HW231092   4.876   5.817   4.321
10065SOL     OW31093   0.970   6.539   2.711
10065SOL    HW131094   1.001   6.453   2.671
10065SOL    HW231095   0.954   6.526   2.809
10066SOL     OW31096   0.905   6.889   4.300
10066SOL    HW131097   0.809   6.873   4.278
10066SOL    HW231098   0.950   6.802   4.318
10067SOL     OW31099   4.964   4.508   3.961
10067SOL    HW131100   5.051   4.458   3.967
10067SOL    HW231101   4.956   4.550   3.871
10068SOL     OW31102   5.293   2.922   4.478
10068SOL    HW131103   5.316   2.946   4.572
10068SOL    HW231104   5.234   2.993   4.439
10069SOL     OW31105   3.167   1.236   3.681
10069SOL    HW131106   3.208   1.193   3.601
10069SOL    HW231107   3.094   1.177   3.717
10070SOL     OW31108   0.991   6.369   4.941
10070SOL    HW131109   1.082   6.365   4.982
10070SOL    HW231110   1.001   6.373   4.841
10071SOL     OW31111   5.034   5.481   4.053
10071SOL    HW131112   5.115   5.537   4.036
10071SOL    HW231113   5.047   5.390   4.012
10072SOL     OW31114   0.268   6.297   3.396
10072SOL    HW131115   0.311   6.234   3.331
10072SOL    HW231116   0.338   6.330   3.459
10073SOL     OW31117   6.620   4.776   5.588
10073SOL    HW131118   6.669   4.831   5.522
10073SOL    HW231119   6.682   4.749   5.662
10074SOL     OW31120   1.228   0.223   6.297
10074SOL    HW131121   1.310   0.187   6.251
10074SOL    HW231122   1.238   0.321   6.310
10075SOL     OW31123   1.595   2.593   3.954
10075SOL    HW131124   1.521   2.658   3.935
10075SOL    HW231125   1.666   2.602   3.884
10076SOL     OW31126   4.858   6.851   4.494
10076SOL    HW131127   4.827   6.769   4.541
10076SOL    HW231128   4.778   6.906   4.467
10077SOL     OW31129   3.972   2.371   6.226
10077SOL    HW131130   4.061   2.334   6.200
10077SOL    HW231131   3.900   2.312   6.188
10078SOL     OW31132   5.701   0.016   5.238
10078SOL    HW131133   5.629   0.017   5.168
10078SOL    HW231134   5.742   0.106   5.244
10079SOL     OW31135   1.148   2.952   1.249
10079SOL    HW131136   1.052   2.976   1.260
10079SOL    HW231137   1.205   3.029   1.279
10080SOL     OW31138   2.541   2.952   0.087
10080SOL    HW131139   2.538   2.899   0.172
10080SOL    HW231140   2.636   2.969   0.062
10081SOL     OW31141   0.598   0.143   6.624
10081SOL    HW131142   0.689   0.108   6.603
10081SOL    HW231143   0.590   0.237   6.593
10082SOL     OW31144   6.054   2.379   1.553
10082SOL    HW131145   6.124   2.314   1.583
10082SOL    HW231146   6.026   2.435   1.630
10083SOL     OW31147   3.943   0.189   3.794
10083SOL    HW131148   3.943   0.288   3.800
10083SOL    HW231149   4.027   0.158   3.749
10084SOL     OW31150   2.480   1.151   5.825
10084SOL    HW131151   2.435   1.235   5.794
10084SOL    HW231152   2.568   1.141   5.778
10085SOL     OW31153   0.560   5.544   3.251
10085SOL    HW131154   0.638   5.504   3.298
10085SOL    HW231155   0.475   5.508   3.290
10086SOL     OW31156   6.194   4.602   2.022
10086SOL    HW131157   6.096   4.609   2.004
10086SOL    HW231158   6.211   4.532   2.090
10087SOL     OW31159   1.268   0.581   4.292
10087SOL    HW131160   1.265   0.681   4.290
10087SOL    HW231161   1.178   0.545   4.271
10088SOL     OW31162   1.071   6.410   4.678
10088SOL    HW131163   0.987   6.424   4.625
10088SOL    HW231164   1.106   6.317   4.660
10089SOL     OW31165   2.554   1.814   2.561
10089SOL    HW131166   2.519   1.859   2.479
10089SOL    HW231167   2.477   1.777   2.613
10090SOL     OW31168   1.066   4.423   0.602
10090SOL    HW131169   1.039   4.493   0.668
10090SOL    HW231170   1.003   4.346   0.608
10091SOL     OW31171   1.265   3.841   4.171
10091SOL    HW131172   1.281   3.745   4.190
10091SOL    HW231173   1.248   3.890   4.257
10092SOL     OW31174   1.662   3.245   5.010
10092SOL    HW131175   1.686   3.341   5.000
10092SOL    HW231176   1.744   3.189   5.005
10093SOL     OW31177   0.138   5.612   5.252
10093SOL    HW131178   0.168   5.667   5.330
10093SOL    HW231179   0.191   5.637   5.171
10094SOL     OW31180   2.633   0.984   2.363
10094SOL    HW131181   2.659   1.080   2.351
10094SOL    HW231182   2.549   0.979   2.418
10095SOL     OW31183   7.006   1.394   6.016
10095SOL    HW131184   6.980   1.321   6.079
10095SOL    HW231185   7.001   1.360   5.922
10096SOL     OW31186   0.096   5.170   2.795
10096SOL    HW131187   0.163   5.180   2.722
10096SOL    HW231188   0.076   5.260   2.834
10097SOL     OW31189   1.058   1.258   0.977
10097SOL    HW131190   0.974   1.213   1.009
10097SOL    HW231191   1.117   1.189   0.934
10098SOL     OW31192   2.065   6.170   6.026
10098SOL    HW131193   2.043   6.243   6.091
10098SOL    HW231194   2.164   6.157   6.024
10099SOL     OW31195   6.825   3.861   5.130
10099SOL    HW131196   6.733   3.837   5.102
10099SOL    HW231197   6.882   3.779   5.133
10100SOL     OW31198   4.762   0.878   4.947
10100SOL    HW131199   4.710   0.958   4.978
10100SOL    HW231200   4.824   0.849   5.020
10101SOL     OW31201   6.984   4.644   2.469
10101SOL    HW131202   6.967   4.723   2.410
10101SOL    HW231203   6.927   4.567   2.440
10102SOL     OW31204   3.461   1.290   2.147
10102SOL    HW131205   3.524   1.275   2.224
10102SOL    HW231206   3.444   1.388   2.138
10103SOL     OW31207   2.755   1.400   5.357
10103SOL    HW131208   2.754   1.402   5.457
10103SOL    HW231209   2.757   1.494   5.323
10104SOL     OW31210   1.160   4.817   5.492
10104SOL    HW131211   1.065   4.824   5.460
10104SOL    HW231212   1.189   4.904   5.530
10105SOL     OW31213   1.896   1.016   6.275
10105SOL    HW131214   1.921   1.065   6.358
10105SOL    HW231215   1.797   1.018   6.263
10106SOL     OW31216   5.183   5.761   0.936
10106SOL    HW131217   5.135   5.741   1.021
10106SOL    HW231218   5.227   5.678   0.902
10107SOL     OW31219   5.845   1.322   6.037
10107SOL    HW131220   5.762   1.282   6.076
10107SOL    HW231221   5.879   1.264   5.964
10108SOL     OW31222   6.196   6.468   0.447
10108SOL    HW131223   6.199   6.557   0.491
10108SOL    HW231224   6.163   6.399   0.513
10109SOL     OW31225   5.053   5.872   3.410
10109SOL    HW131226   4.987   5.825   3.352
10109SOL    HW231227   5.135   5.894   3.357
10110SOL     OW31228   3.383   6.958   6.051
10110SOL    HW131229   3.434   0.020   6.041
10110SOL    HW231230   3.422   6.888   5.990
10111SOL     OW31231   6.503   3.219   3.609
10111SOL    HW131232   6.499   3.121   3.625
10111SOL    HW231233   6.411   3.254   3.590
10112SOL     OW31234   5.319   4.104   5.429
10112SOL    HW131235   5.235   4.123   5.480
10112SOL    HW231236   5.296   4.068   5.339
10113SOL     OW31237   4.041   0.754   0.076
10113SOL    HW131238   4.128   0.767   0.123
10113SOL    HW231239   3.973   0.719   0.141
10114SOL     OW31240   5.143   1.608   6.818
10114SOL    HW131241   5.118   1.545   6.891
10114SOL    HW231242   5.203   1.563   6.753
10115SOL     OW31243   2.122   2.645   3.989
10115SOL    HW131244   2.070   2.560   3.976
10115SOL    HW231245   2.071   2.721   3.948
10116SOL     OW31246   0.644   6.983   1.219
10116SOL    HW131247   0.635   0.060   1.219
10116SOL    HW231248   0.569   6.943   1.166
10117SOL     OW31249   6.275   0.528   5.057
10117SOL    HW131250   6.218   0.462   5.009
10117SOL    HW231251   6.218   0.598   5.099
10118SOL     OW31252   6.881   5.424   2.686
10118SOL    HW131253   6.890   5.380   2.776
10118SOL    HW231254   6.873   5.523   2.698
10119SOL     OW31255   2.448   0.663   5.171
10119SOL    HW131256   2.432   0.645   5.075
10119SOL    HW231257   2.507   0.744   5.180
10120SOL     OW31258   0.572   3.234   4.113
10120SOL    HW131259   0.604   3.196   4.027
10120SOL    HW231260   0.649   3.273   4.164
10121SOL     OW31261   6.028   4.903   5.048
10121SOL    HW131262   6.064   4.823   5.095
10121SOL    HW231263   5.928   4.904   5.055
10122SOL     OW31264   4.960   2.784   0.227
10122SOL    HW131265   4.959   2.710   0.160
10122SOL    HW231266   5.003   2.865   0.187
10123SOL     OW31267   0.278   6.243   0.745
10123SOL    HW131268   0.330   6.273   0.826
10123SOL    HW231269   0.195   6.297   0.737
10124SOL     OW31270   3.245   4.196   0.163
10124SOL    HW131271   3.289   4.223   0.249
10124SOL    HW231272   3.241   4.274   0.102
10125SOL     OW31273   2.116   1.261   2.978
10125SOL    HW131274   2.158   1.206   2.905
10125SOL    HW231275   2.180   1.333   3.006
10126SOL     OW31276   6.463   5.432   6.978
10126SOL    HW131277   6.445   5.335   6.965
10126SOL    HW231278   6.463   5.478   6.888
10127SOL     OW31279   3.353   5.519   5.414
10127SOL    HW131280   3.383   5.592   5.352
10127SOL    HW231281   3.433   5.467   5.444
10128SOL     OW31282   6.777   1.502   0.730
10128SOL    HW131283   6.810   1.420   0.776
10128SOL    HW231284   6.696   1.479   0.676
10129SOL     OW31285   5.123   2.631   3.914
10129SOL    HW131286   5.029   2.605   3.938
10129SOL    HW231287   5.129   2.646   3.816
10130SOL     OW31288   1.104   5.688   2.618
10130SOL    HW131289   1.097   5.677   2.519
10130SOL    HW231290   1.199   5.682   2.646
10131SOL     OW31291   0.770   1.774   2.168
10131SOL    HW131292   0.702   1.751   2.099
10131SOL    HW231293   0.733   1.752   2.259
10132SOL     OW31294   3.344   6.203   2.769
10132SOL    HW131295   3.310   6.201   2.863
10132SOL    HW231296   3.292   6.270   2.716
10133SOL     OW31297   4.294   6.289   3.860
10133SOL    HW131298   4.248   6.217   3.808
10133SOL    HW231299   4.345   6.348   3.797
10134SOL     OW31300   6.077   1.332   3.590
10134SOL    HW131301   6.071   1.289   3.500
10134SOL    HW231302   6.161   1.303   3.635
10135SOL     OW31303   4.612   4.352   2.743
10135SOL    HW131304   4.544   4.356   2.670
10135SOL    HW231305   4.668   4.435   2.741
10136SOL     OW31306   5.926   6.829   3.515
10136SOL    HW131307   5.978   6.890   3.575
10136SOL    HW231308   5.990   6.771   3.463
10137SOL     OW31309   6.293   5.681   4.766
10137SOL    HW131310   6.387   5.677   4.733
10137SOL    HW231311   6.274   5.602   4.825
10138SOL     OW31312   5.678   2.048   0.635
10138SOL    HW131313   5.611   1.990   0.588
10138SOL    HW231314   5.643   2.071   0.726
10139SOL     OW31315   3.469   2.873   3.335
10139SOL    HW131316   3.499   2.836   3.247
10139SOL    HW231317   3.369   2.883   3.335
10140SOL     OW31318   6.200   5.666   6.774
10140SOL    HW131319   6.217   5.680   6.871
10140SOL    HW231320   6.202   5.568   6.754
10141SOL     OW31321   2.447   2.006   4.862
10141SOL    HW131322   2.533   2.053   4.880
10141SOL    HW231323   2.423   2.016   4.765
10142SOL     OW31324   4.509   6.372   5.081
10142SOL    HW131325   4.504   6.466   5.115
10142SOL    HW231326   4.491   6.309   5.156
10143SOL     OW31327   4.643   0.112   1.290
10143SOL    HW131328   4.623   0.040   1.356
10143SOL    HW231329   4.577   0.187   1.300
10144SOL     OW31330   3.389   5.652   5.718
10144SOL    HW131331   3.407   5.689   5.627
10144SOL    HW231332   3.349   5.560   5.709
10145SOL     OW31333   2.884   5.995   6.214
10145SOL    HW131334   2.979   6.014   6.188
10145SOL    HW231335   2.830   6.078   6.207
10146SOL     OW31336   3.356   5.259   4.681
10146SOL    HW131337   3.343   5.220   4.590
10146SOL    HW231338   3.360   5.185   4.748
10147SOL     OW31339   4.769   4.315   3.959
10147SOL    HW131340   4.831   4.392   3.973
10147SOL    HW231341   4.683   4.349   3.919
10148SOL     OW31342   6.188   5.676   0.385
10148SOL    HW131343   6.166   5.758   0.331
10148SOL    HW231344   6.157   5.595   0.336
10149SOL     OW31345   4.661   1.466   0.484
10149SOL    HW131346   4.573   1.417   0.478
10149SOL    HW231347   4.725   1.412   0.539
10150SOL     OW31348   4.841   4.447   0.760
10150SOL    HW131349   4.790   4.521   0.804
10150SOL    HW231350   4.778   4.376   0.729
10151SOL     OW31351   1.060   6.963   6.349
10151SOL    HW131352   1.066   0.036   6.318
10151SOL    HW231353   0.972   6.925   6.322
10152SOL     OW31354   1.525   5.072   4.171
10152SOL    HW131355   1.583   5.124   4.108
10152SOL    HW231356   1.465   5.135   4.220
10153SOL     OW31357   4.456   5.875   3.746
10153SOL    HW131358   4.463   5.819   3.829
10153SOL    HW231359   4.543   5.875   3.698
10154SOL     OW31360   6.574   6.388   5.916
10154SOL    HW131361   6.551   6.342   6.002
10154SOL    HW231362   6.529   6.341   5.840
10155SOL     OW31363   3.780   0.629   6.080
10155SOL    HW131364   3.864   0.681   6.064
10155SOL    HW231365   3.702   0.684   6.052
10156SOL     OW31366   5.517   7.018   2.649
10156SOL    HW131367   5.552   0.082   2.614
10156SOL    HW231368   5.526   6.948   2.578
10157SOL     OW31369   5.891   1.665   5.993
10157SOL    HW131370   5.882   1.654   5.894
10157SOL    HW231371   5.842   1.592   6.039
10158SOL     OW31372   4.958   3.967   0.041
10158SOL    HW131373   4.994   4.046   0.091
10158SOL    HW231374   5.034   3.909   0.012
10159SOL     OW31375   2.698   3.030   6.101
10159SOL    HW131376   2.740   2.965   6.164
10159SOL    HW231377   2.644   2.980   6.033
10160SOL     OW31378   0.892   4.574   2.820
10160SOL    HW131379   0.827   4.497   2.815
10160SOL    HW231380   0.842   4.660   2.809
10161SOL     OW31381   3.306   4.681   0.425
10161SOL    HW131382   3.345   4.762   0.468
10161SOL    HW231383   3.276   4.703   0.332
10162SOL     OW31384   2.664   3.642   6.972
10162SOL    HW131385   2.678   3.546   6.997
10162SOL    HW231386   2.742   3.697   7.005
10163SOL     OW31387   5.923   4.090   6.362
10163SOL    HW131388   6.014   4.120   6.393
10163SOL    HW231389   5.884   4.028   6.429
10164SOL     OW31390   6.686   3.257   4.648
10164SOL    HW131391   6.603   3.271   4.703
10164SOL    HW231392   6.765   3.293   4.697
10165SOL     OW31393   0.899   2.200   4.643
10165SOL    HW131394   0.933   2.272   4.704
10165SOL    HW231395   0.933   2.111   4.674
10166SOL     OW31396   3.514   0.833   1.853
10166SOL    HW131397   3.492   0.907   1.916
10166SOL    HW231398   3.439   0.767   1.852
10167SOL     OW31399   5.537   1.013   6.521
10167SOL    HW131400   5.554   1.043   6.614
10167SOL    HW231401   5.565   0.917   6.511
10168SOL     OW31402   6.789   4.119   5.276
10168SOL    HW131403   6.866   4.171   5.313
10168SOL    HW231404   6.819   4.026   5.254
10169SOL     OW31405   6.637   4.418   3.340
10169SOL    HW131406   6.644   4.472   3.424
10169SOL    HW231407   6.642   4.478   3.261
10170SOL     OW31408   0.879   4.407   5.669
10170SOL    HW131409   0.898   4.496   5.709
10170SOL    HW231410   0.962   4.370   5.628
10171SOL     OW31411   6.748   3.435   5.919
10171SOL    HW131412   6.714   3.362   5.860
10171SOL    HW231413   6.738   3.523   5.871
10172SOL     OW31414   5.778   0.236   2.797
10172SOL    HW131415   5.833   0.191   2.868
10172SOL    HW231416   5.693   0.269   2.838
10173SOL     OW31417   1.768   2.501   0.886
10173SOL    HW131418   1.801   2.427   0.828
10173SOL    HW231419   1.830   2.513   0.964
10174SOL     OW31420   5.621   4.649   2.934
10174SOL    HW131421   5.549   4.649   2.865
10174SOL    HW231422   5.671   4.735   2.930
10175SOL     OW31423   6.594   2.798   4.108
10175SOL    HW131424   6.512   2.853   4.090
10175SOL    HW231425   6.652   2.797   4.027
10176SOL     OW31426   1.215   3.268   5.931
10176SOL    HW131427   1.309   3.287   5.904
10176SOL    HW231428   1.174   3.203   5.868
10177SOL     OW31429   3.065   0.309   0.669
10177SOL    HW131430   2.993   0.342   0.608
10177SOL    HW231431   3.042   0.217   0.701
10178SOL     OW31432   6.011   3.051   4.391
10178SOL    HW131433   5.927   3.067   4.443
10178SOL    HW231434   6.074   3.127   4.406
10179SOL     OW31435   0.524   2.187   6.295
10179SOL    HW131436   0.606   2.131   6.292
10179SOL    HW231437   0.478   2.176   6.383
10180SOL     OW31438   2.892   5.309   6.118
10180SOL    HW131439   2.858   5.388   6.170
10180SOL    HW231440   2.853   5.310   6.026
10181SOL     OW31441   5.418   3.470   2.015
10181SOL    HW131442   5.424   3.563   2.052
10181SOL    HW231443   5.324   3.451   1.988
10182SOL     OW31444   5.831   1.483   1.460
10182SOL    HW131445   5.902   1.520   1.520
10182SOL    HW231446   5.742   1.519   1.488
10183SOL     OW31447   1.278   2.370   6.527
10183SOL    HW131448   1.341   2.294   6.511
10183SOL    HW231449   1.200   2.337   6.581
10184SOL     OW31450   4.501   1.695   6.125
10184SOL    HW131451   4.540   1.693   6.033
10184SOL    HW231452   4.424   1.758   6.127
10185SOL     OW31453   4.832   6.772   0.910
10185SOL    HW131454   4.910   6.710   0.904
10185SOL    HW231455   4.822   6.821   0.823
10186SOL     OW31456   6.051   3.136   3.303
10186SOL    HW131457   5.986   3.210   3.290
10186SOL    HW231458   6.062   3.085   3.217
10187SOL     OW31459   0.620   1.917   1.902
10187SOL    HW131460   0.603   1.821   1.923
10187SOL    HW231461   0.577   1.975   1.972
10188SOL     OW31462   3.789   6.126   0.140
10188SOL    HW131463   3.725   6.184   0.089
10188SOL    HW231464   3.860   6.092   0.078
10189SOL     OW31465   2.416   0.161   5.502
10189SOL    HW131466   2.438   0.169   5.599
10189SOL    HW231467   2.439   0.246   5.455
10190SOL     OW31468   4.984   2.294   1.169
10190SOL    HW131469   4.912   2.269   1.235
10190SOL    HW231470   4.943   2.307   1.079
10191SOL     OW31471   5.036   4.645   6.907
10191SOL    HW131472   4.962   4.709   6.930
10191SOL    HW231473   5.084   4.677   6.826
10192SOL     OW31474   4.134   0.701   4.815
10192SOL    HW131475   4.218   0.729   4.861
10192SOL    HW231476   4.158   0.655   4.729
10193SOL     OW31477   4.134   3.948   1.529
10193SOL    HW131478   4.140   3.881   1.603
10193SOL    HW231479   4.203   3.928   1.460
10194SOL     OW31480   6.064   4.111   4.815
10194SOL    HW131481   6.005   4.123   4.735
10194SOL    HW231482   6.086   4.200   4.853
10195SOL     OW31483   5.778   4.499   1.599
10195SOL    HW131484   5.802   4.596   1.606
10195SOL    HW231485   5.854   4.448   1.558
10196SOL     OW31486   6.233   1.626   4.916
10196SOL    HW131487   6.239   1.649   4.819
10196SOL    HW231488   6.195   1.703   4.967
10197SOL     OW31489   6.824   1.513   4.768
10197SOL    HW131490   6.760   1.467   4.707
10197SOL    HW231491   6.906   1.539   4.716
10198SOL     OW31492   3.813   0.514   2.453
10198SOL    HW131493   3.881   0.550   2.388
10198SOL    HW231494   3.835   0.546   2.545
10199SOL     OW31495   1.176   2.350   5.894
10199SOL    HW131496   1.205   2.258   5.868
10199SOL    HW231497   1.210   2.372   5.985
10200SOL     OW31498   4.872   2.650   1.096
10200SOL    HW131499   4.963   2.618   1.069
10200SOL    HW231500   4.850   2.616   1.187
10201SOL     OW31501   1.314   4.323   0.715
10201SOL    HW131502   1.336   4.374   0.799
10201SOL    HW231503   1.225   4.351   0.681
10202SOL     OW31504   4.056   1.457   5.570
10202SOL    HW131505   4.079   1.374   5.622
10202SOL    HW231506   4.139   1.511   5.557
10203SOL     OW31507   5.227   2.692   4.753
10203SOL    HW131508   5.306   2.731   4.800
10203SOL    HW231509   5.219   2.595   4.775
10204SOL     OW31510   5.167   6.523   6.571
10204SOL    HW131511   5.228   6.600   6.555
10204SOL    HW231512   5.220   6.444   6.601
10205SOL     OW31513   0.502   1.616   6.877
10205SOL    HW131514   0.585   1.566   6.854
10205SOL    HW231515   0.521   1.714   6.877
10206SOL     OW31516   0.997   0.820   6.087
10206SOL    HW131517   1.019   0.766   6.168
10206SOL    HW231518   1.064   0.893   6.076
10207SOL     OW31519   1.248   1.887   6.302
10207SOL    HW131520   1.189   1.881   6.382
10207SOL    HW231521   1.207   1.836   6.226
10208SOL     OW31522   5.495   5.399   4.718
10208SOL    HW131523   5.534   5.332   4.655
10208SOL    HW231524   5.456   5.352   4.797
10209SOL     OW31525   6.830   0.498   6.051
10209SOL    HW131526   6.896   0.567   6.019
10209SOL    HW231527   6.832   0.494   6.150
10210SOL     OW31528   4.614   6.414   1.324
10210SOL    HW131529   4.559   6.469   1.388
10210SOL    HW231530   4.601   6.317   1.343
10211SOL     OW31531   3.861   6.384   5.375
10211SOL    HW131532   3.933   6.450   5.398
10211SOL    HW231533   3.877   6.348   5.284
10212SOL     OW31534   0.788   0.447   5.637
10212SOL    HW131535   0.883   0.417   5.649
10212SOL    HW231536   0.727   0.388   5.689
10213SOL     OW31537   5.192   2.291   0.607
10213SOL    HW131538   5.094   2.294   0.589
10213SOL    HW231539   5.238   2.237   0.536
10214SOL     OW31540   1.391   2.491   1.519
10214SOL    HW131541   1.398   2.456   1.426
10214SOL    HW231542   1.329   2.569   1.521
10215SOL     OW31543   4.112   3.503   2.494
10215SOL    HW131544   4.176   3.521   2.568
10215SOL    HW231545   4.043   3.437   2.525
10216SOL     OW31546   6.351   0.319   2.131
10216SOL    HW131547   6.367   0.352   2.224
10216SOL    HW231548   6.258   0.283   2.123
10217SOL     OW31549   3.076   0.946   3.629
10217SOL    HW131550   2.998   1.004   3.653
10217SOL    HW231551   3.112   0.975   3.540
10218SOL     OW31552   1.344   2.843   2.486
10218SOL    HW131553   1.368   2.863   2.391
10218SOL    HW231554   1.258   2.792   2.489
10219SOL     OW31555   0.816   1.041   2.272
10219SOL    HW131556   0.731   0.989   2.263
10219SOL    HW231557   0.803   1.133   2.236
10220SOL     OW31558   3.758   2.648   1.365
10220SOL    HW131559   3.822   2.573   1.352
10220SOL    HW231560   3.766   2.683   1.459
10221SOL     OW31561   0.915   6.230   2.871
10221SOL    HW131562   0.959   6.228   2.782
10221SOL    HW231563   0.840   6.296   2.870
10222SOL     OW31564   2.932   3.697   4.614
10222SOL    HW131565   2.921   3.660   4.706
10222SOL    HW231566   2.931   3.797   4.618
10223SOL     OW31567   0.766   5.709   0.932
10223SOL    HW131568   0.677   5.666   0.948
10223SOL    HW231569   0.829   5.683   1.006
10224SOL     OW31570   6.119   4.022   3.243
10224SOL    HW131571   6.210   3.992   3.212
10224SOL    HW231572   6.130   4.092   3.314
10225SOL     OW31573   1.352   3.596   5.816
10225SOL    HW131574   1.384   3.529   5.750
10225SOL    HW231575   1.428   3.624   5.875
10226SOL     OW31576   3.811   2.444   6.924
10226SOL    HW131577   3.871   2.483   6.854
10226SOL    HW231578   3.720   2.429   6.885
10227SOL     OW31579   5.568   3.989   0.685
10227SOL    HW131580   5.562   4.086   0.659
10227SOL    HW231581   5.483   3.961   0.729
10228SOL     OW31582   5.567   1.128   0.549
10228SOL    HW131583   5.604   1.039   0.576
10228SOL    HW231584   5.542   1.180   0.630
10229SOL     OW31585   0.474   3.376   5.038
10229SOL    HW131586   0.464   3.475   5.043
10229SOL    HW231587   0.569   3.352   5.055
10230SOL     OW31588   6.641   5.632   2.480
10230SOL    HW131589   6.714   5.695   2.507
10230SOL    HW231590   6.554   5.665   2.517
10231SOL     OW31591   1.797   6.659   3.217
10231SOL    HW131592   1.734   6.606   3.160
10231SOL    HW231593   1.825   6.605   3.296
10232SOL     OW31594   4.299   6.855   2.701
10232SOL    HW131595   4.251   6.844   2.788
10232SOL    HW231596   4.268   6.785   2.637
10233SOL     OW31597   3.900   4.246   6.220
10233SOL    HW131598   3.832   4.191   6.268
10233SOL    HW231599   3.928   4.199   6.136
10234SOL     OW31600   6.833   0.578   1.721
10234SOL    HW131601   6.916   0.525   1.706
10234SOL    HW231602   6.777   0.577   1.639
10235SOL     OW31603   0.914   0.960   3.273
10235SOL    HW131604   0.954   0.964   3.181
10235SOL    HW231605   0.988   0.961   3.341
10236SOL     OW31606   2.006   0.121   0.856
10236SOL    HW131607   2.064   0.169   0.921
10236SOL    HW231608   2.056   0.043   0.818
10237SOL     OW31609   0.388   3.544   6.870
10237SOL    HW131610   0.321   3.617   6.868
10237SOL    HW231611   0.346   3.460   6.906
10238SOL     OW31612   4.004   5.179   0.723
10238SOL    HW131613   3.930   5.198   0.658
10238SOL    HW231614   4.061   5.261   0.732
10239SOL     OW31615   1.559   2.840   4.761
10239SOL    HW131616   1.596   2.858   4.853
10239SOL    HW231617   1.476   2.895   4.748
10240SOL     OW31618   2.380   0.305   1.250
10240SOL    HW131619   2.415   0.394   1.279
10240SOL    HW231620   2.443   0.233   1.281
10241SOL     OW31621   4.431   2.222   1.505
10241SOL    HW131622   4.530   2.233   1.511
10241SOL    HW231623   4.387   2.311   1.509
10242SOL     OW31624   0.010   2.164   0.814
10242SOL    HW131625   0.093   2.176   0.758
10242SOL    HW231626   6.995   2.073   0.799
10243SOL     OW31627   2.765   4.761   0.702
10243SOL    HW131628   2.827   4.736   0.776
10243SOL    HW231629   2.767   4.691   0.630
10244SOL     OW31630   2.257   4.286   1.844
10244SOL    HW131631   2.239   4.227   1.923
10244SOL    HW231632   2.278   4.229   1.764
10245SOL     OW31633   3.686   4.089   0.403
10245SOL    HW131634   3.719   4.031   0.477
10245SOL    HW231635   3.654   4.176   0.440
10246SOL     OW31636   3.282   2.934   4.134
10246SOL    HW131637   3.336   2.856   4.103
10246SOL    HW231638   3.293   2.945   4.232
10247SOL     OW31639   1.134   3.796   4.706
10247SOL    HW131640   1.073   3.874   4.696
10247SOL    HW231641   1.229   3.825   4.692
10248SOL     OW31642   1.497   0.451   3.311
10248SOL    HW131643   1.531   0.361   3.283
10248SOL    HW231644   1.535   0.476   3.399
10249SOL     OW31645   2.273   4.495   6.739
10249SOL    HW131646   2.220   4.547   6.672
10249SOL    HW231647   2.218   4.481   6.821
10250SOL     OW31648   5.109   2.660   6.673
10250SOL    HW131649   5.187   2.677   6.733
10250SOL    HW231650   5.094   2.561   6.665
10251SOL     OW31651   1.490   0.456   4.160
10251SOL    HW131652   1.509   0.518   4.084
10251SOL    HW231653   1.407   0.485   4.207
10252SOL     OW31654   4.892   4.344   5.822
10252SOL    HW131655   4.981   4.377   5.791
10252SOL    HW231656   4.902   4.298   5.910
10253SOL     OW31657   4.068   6.645   6.973
10253SOL    HW131658   4.120   6.704   6.912
10253SOL    HW231659   4.113   6.557   6.981
10254SOL     OW31660   5.771   1.700   4.616
10254SOL    HW131661   5.870   1.712   4.626
10254SOL    HW231662   5.723   1.760   4.680
10255SOL     OW31663   3.549   5.520   1.603
10255SOL    HW131664   3.564   5.441   1.545
10255SOL    HW231665   3.468   5.506   1.660
10256SOL     OW31666   5.019   1.019   2.484
10256SOL    HW131667   4.963   1.059   2.556
10256SOL    HW231668   5.093   1.081   2.460
10257SOL     OW31669   2.635   4.975   2.803
10257SOL    HW131670   2.648   5.007   2.710
10257SOL    HW231671   2.653   4.876   2.807
10258SOL     OW31672   2.436   2.002   2.388
10258SOL    HW131673   2.408   2.019   2.294
10258SOL    HW231674   2.444   2.089   2.437
10259SOL     OW31675   0.618   4.383   4.150
10259SOL    HW131676   0.602   4.459   4.087
10259SOL    HW231677   0.687   4.322   4.112
10260SOL     OW31678   1.305   1.296   3.677
10260SOL    HW131679   1.337   1.218   3.623
10260SOL    HW231680   1.205   1.301   3.672
10261SOL     OW31681   6.700   4.053   0.714
10261SOL    HW131682   6.643   4.054   0.632
10261SOL    HW231683   6.648   4.089   0.791
10262SOL     OW31684   3.795   1.149   6.829
10262SOL    HW131685   3.837   1.071   6.876
10262SOL    HW231686   3.781   1.223   6.895
10263SOL     OW31687   6.066   1.076   1.557
10263SOL    HW131688   6.090   0.983   1.526
10263SOL    HW231689   6.130   1.141   1.517
10264SOL     OW31690   6.117   5.179   6.702
10264SOL    HW131691   6.098   5.134   6.615
10264SOL    HW231692   6.049   5.150   6.770
10265SOL     OW31693   2.291   2.277   6.999
10265SOL    HW131694   2.286   2.369   0.015
10265SOL    HW231695   2.378   2.236   0.001
10266SOL     OW31696   2.913   3.312   2.558
10266SOL    HW131697   2.860   3.327   2.474
10266SOL    HW231698   2.915   3.397   2.611
10267SOL     OW31699   5.638   0.927   0.726
10267SOL    HW131700   5.620   0.984   0.806
10267SOL    HW231701   5.579   0.847   0.728
10268SOL     OW31702   4.985   6.818   1.195
10268SOL    HW131703   4.905   6.816   1.136
10268SOL    HW231704   5.067   6.800   1.141
10269SOL     OW31705   1.887   2.094   6.459
10269SOL    HW131706   1.820   2.104   6.533
10269SOL    HW231707   1.965   2.154   6.477
10270SOL     OW31708   3.188   6.040   2.122
10270SOL    HW131709   3.224   5.961   2.074
10270SOL    HW231710   3.248   6.119   2.107
10271SOL     OW31711   2.277   2.104   0.602
10271SOL    HW131712   2.212   2.046   0.554
10271SOL    HW231713   2.365   2.057   0.610
10272SOL     OW31714   6.640   0.743   4.399
10272SOL    HW131715   6.685   0.779   4.480
10272SOL    HW231716   6.661   0.802   4.320
10273SOL     OW31717   2.763   5.048   3.959
10273SOL    HW131718   2.826   5.061   4.035
10273SOL    HW231719   2.767   4.952   3.929
10274SOL     OW31720   0.100   4.997   5.546
10274SOL    HW131721   0.091   4.899   5.531
10274SOL    HW231722   0.195   5.025   5.532
10275SOL     OW31723   0.330   0.702   2.941
10275SOL    HW131724   0.363   0.659   3.026
10275SOL    HW231725   0.380   0.664   2.863
10276SOL     OW31726   4.486   5.769   5.489
10276SOL    HW131727   4.462   5.828   5.412
10276SOL    HW231728   4.543   5.694   5.457
10277SOL     OW31729   1.361   6.276   4.045
10277SOL    HW131730   1.363   6.303   3.948
10277SOL    HW231731   1.417   6.194   4.057
10278SOL     OW31732   0.461   0.485   5.315
10278SOL    HW131733   0.449   0.415   5.386
10278SOL    HW231734   0.553   0.525   5.324
10279SOL     OW31735   2.302   5.030   4.142
10279SOL    HW131736   2.369   5.098   4.113
10279SOL    HW231737   2.344   4.939   4.140
10280SOL     OW31738   5.260   4.007   0.844
10280SOL    HW131739   5.222   3.976   0.757
10280SOL    HW231740   5.252   4.107   0.851
10281SOL     OW31741   6.147   2.118   3.302
10281SOL    HW131742   6.166   2.158   3.212
10281SOL    HW231743   6.084   2.041   3.292
10282SOL     OW31744   4.890   3.476   2.753
10282SOL    HW131745   4.942   3.467   2.838
10282SOL    HW231746   4.876   3.573   2.733
10283SOL     OW31747   0.502   4.227   1.121
10283SOL    HW131748   0.475   4.315   1.161
10283SOL    HW231749   0.469   4.222   1.027
10284SOL     OW31750   6.989   2.506   3.573
10284SOL    HW131751   6.906   2.461   3.542
10284SOL    HW231752   0.006   2.560   3.498
10285SOL     OW31753   4.669   6.099   3.658
10285SOL    HW131754   4.696   6.021   3.714
10285SOL    HW231755   4.703   6.183   3.700
10286SOL     OW31756   3.395   1.618   4.255
10286SOL    HW131757   3.353   1.529   4.269
10286SOL    HW231758   3.491   1.615   4.283
10287SOL     OW31759   1.901   6.041   1.924
10287SOL    HW131760   1.988   6.054   1.973
10287SOL    HW231761   1.830   6.015   1.989
10288SOL     OW31762   3.483   0.125   5.057
10288SOL    HW131763   3.566   0.171   5.088
10288SOL    HW231764   3.504   0.032   5.029
10289SOL     OW31765   2.740   6.454   0.720
10289SOL    HW131766   2.722   6.402   0.804
10289SOL    HW231767   2.788   6.538   0.744
10290SOL     OW31768   3.107   3.093   2.632
10290SOL    HW131769   3.032   3.150   2.598
10290SOL    HW231770   3.073   3.030   2.701
10291SOL     OW31771   3.226   0.896   2.531
10291SOL    HW131772   3.256   0.967   2.467
10291SOL    HW231773   3.131   0.872   2.512
10292SOL     OW31774   6.780   0.478   6.328
10292SOL    HW131775   6.717   0.555   6.319
10292SOL    HW231776   6.728   0.395   6.352
10293SOL     OW31777   0.599   3.878   3.720
10293SOL    HW131778   0.660   3.799   3.719
10293SOL    HW231779   0.591   3.916   3.628
10294SOL     OW31780   3.070   2.026   2.902
10294SOL    HW131781   3.058   2.069   2.813
10294SOL    HW231782   2.999   1.957   2.916
10295SOL     OW31783   1.096   2.667   6.813
10295SOL    HW131784   1.095   2.680   6.913
10295SOL    HW231785   1.075   2.753   6.768
10296SOL     OW31786   5.887   0.613   5.821
10296SOL    HW131787   5.806   0.671   5.829
10296SOL    HW231788   5.859   0.517   5.811
10297SOL     OW31789   2.950   1.954   6.705
10297SOL    HW131790   3.023   1.885   6.707
10297SOL    HW231791   2.873   1.923   6.760
10298SOL     OW31792   0.935   3.547   2.450
10298SOL    HW131793   0.840   3.556   2.421
10298SOL    HW231794   0.982   3.481   2.391
10299SOL     OW31795   4.759   6.126   2.073
10299SOL    HW131796   4.749   6.121   2.173
10299SOL    HW231797   4.843   6.080   2.045
10300SOL     OW31798   0.609   3.387   2.062
10300SOL    HW131799   0.529   3.446   2.077
10300SOL    HW231800   0.603   3.306   2.120
10301SOL     OW31801   4.041   1.321   6.267
10301SOL    HW131802   3.989   1.369   6.196
10301SOL    HW231803   4.089   1.388   6.324
10302SOL     OW31804   2.716   6.165   4.209
10302SOL    HW131805   2.655   6.239   4.239
10302SOL    HW231806   2.809   6.200   4.201
10303SOL     OW31807   1.287   6.073   3.801
10303SOL    HW131808   1.206   6.052   3.856
10303SOL    HW231809   1.270   6.052   3.705
10304SOL     OW31810   6.492   6.943   0.073
10304SOL    HW131811   6.491   6.930   6.997
10304SOL    HW231812   6.529   0.010   0.095
10305SOL     OW31813   2.659   3.766   5.946
10305SOL    HW131814   2.594   3.842   5.946
10305SOL    HW231815   2.625   3.694   5.885
10306SOL     OW31816   5.641   0.527   0.970
10306SOL    HW131817   5.622   0.544   1.067
10306SOL    HW231818   5.561   0.484   0.928
10307SOL     OW31819   2.867   0.960   4.614
10307SOL    HW131820   2.837   0.868   4.643
10307SOL    HW231821   2.937   0.993   4.678
10308SOL     OW31822   2.354   4.433   2.573
10308SOL    HW131823   2.362   4.387   2.485
10308SOL    HW231824   2.311   4.372   2.640
10309SOL     OW31825   6.337   0.577   5.577
10309SOL    HW131826   6.289   0.492   5.560
10309SOL    HW231827   6.375   0.576   5.670
10310SOL     OW31828   2.849   3.274   6.742
10310SOL    HW131829   2.920   3.209   6.770
10310SOL    HW231830   2.888   3.366   6.738
10311SOL     OW31831   5.589   5.650   6.615
10311SOL    HW131832   5.508   5.592   6.602
10311SOL    HW231833   5.672   5.595   6.601
10312SOL     OW31834   4.506   0.438   2.310
10312SOL    HW131835   4.557   0.454   2.226
10312SOL    HW231836   4.493   0.524   2.358
10313SOL     OW31837   4.384   5.616   2.841
10313SOL    HW131838   4.422   5.552   2.908
10313SOL    HW231839   4.458   5.655   2.786
10314SOL     OW31840   0.646   6.952   0.076
10314SOL    HW131841   0.709   7.015   0.121
10314SOL    HW231842   0.559   6.951   0.126
10315SOL     OW31843   4.830   6.601   3.763
10315SOL    HW131844   4.849   6.547   3.845
10315SOL    HW231845   4.882   6.686   3.766
10316SOL     OW31846   6.419   2.084   6.309
10316SOL    HW131847   6.454   2.173   6.339
10316SOL    HW231848   6.476   2.049   6.235
10317SOL     OW31849   3.635   6.158   6.327
10317SOL    HW131850   3.711   6.106   6.288
10317SOL    HW231851   3.571   6.094   6.371
10318SOL     OW31852   5.386   0.108   0.178
10318SOL    HW131853   5.475   0.131   0.138
10318SOL    HW231854   5.314   0.155   0.127
10319SOL     OW31855   6.975   4.885   4.760
10319SOL    HW131856   6.955   4.793   4.793
10319SOL    HW231857   0.052   4.898   4.754
10320SOL     OW31858   0.057   0.487   3.462
10320SOL    HW131859   0.114   0.470   3.543
10320SOL    HW231860   0.072   0.414   3.395
10321SOL     OW31861   5.612   2.353   2.096
10321SOL    HW131862   5.651   2.385   2.182
10321SOL    HW231863   5.588   2.256   2.104
10322SOL     OW31864   4.505   4.483   4.065
10322SOL    HW131865   4.567   4.558   4.089
10322SOL    HW231866   4.510   4.466   3.967
10323SOL     OW31867   6.465   4.263   5.702
10323SOL    HW131868   6.472   4.187   5.766
10323SOL    HW231869   6.370   4.294   5.698
10324SOL     OW31870   3.132   3.501   2.272
10324SOL    HW131871   3.033   3.505   2.287
10324SOL    HW231872   3.172   3.588   2.300
10325SOL     OW31873   0.448   5.791   2.226
10325SOL    HW131874   0.360   5.827   2.196
10325SOL    HW231875   0.483   5.846   2.302
10326SOL     OW31876   5.346   3.832   6.549
10326SOL    HW131877   5.351   3.834   6.449
10326SOL    HW231878   5.262   3.786   6.577
10327SOL     OW31879   2.532   3.687   1.088
10327SOL    HW131880   2.576   3.612   1.038
10327SOL    HW231881   2.569   3.692   1.180
10328SOL     OW31882   6.343   3.372   2.061
10328SOL    HW131883   6.435   3.372   2.022
10328SOL    HW231884   6.283   3.315   2.005
10329SOL     OW31885   3.200   1.041   2.977
10329SOL    HW131886   3.244   0.993   2.900
10329SOL    HW231887   3.197   0.980   3.056
10330SOL     OW31888   4.736   0.539   0.566
10330SOL    HW131889   4.763   0.479   0.642
10330SOL    HW231890   4.774   0.504   0.481
10331SOL     OW31891   6.233   6.731   6.818
10331SOL    HW131892   6.287   6.663   6.869
10331SOL    HW231893   6.142   6.738   6.859
10332SOL     OW31894   0.710   0.991   0.342
10332SOL    HW131895   0.780   1.061   0.353
10332SOL    HW231896   0.621   1.028   0.368
10333SOL     OW31897   0.745   5.780   4.190
10333SOL    HW131898   0.691   5.821   4.264
10333SOL    HW231899   0.733   5.834   4.106
10334SOL     OW31900   3.240   7.015   3.837
10334SOL    HW131901   3.199   7.015   3.928
10334SOL    HW231902   3.332   0.032   3.843
10335SOL     OW31903   0.417   4.802   6.387
10335SOL    HW131904   0.359   4.882   6.398
10335SOL    HW231905   0.469   4.786   6.471
10336SOL     OW31906   6.210   6.802   2.627
10336SOL    HW131907   6.162   6.870   2.682
10336SOL    HW231908   6.149   6.724   2.610
10337SOL     OW31909   6.243   5.413   6.694
10337SOL    HW131910   6.203   5.329   6.732
10337SOL    HW231911   6.324   5.390   6.640
10338SOL     OW31912   2.082   6.508   1.938
10338SOL    HW131913   2.073   6.588   1.878
10338SOL    HW231914   2.020   6.436   1.907
10339SOL     OW31915   6.594   3.020   6.070
10339SOL    HW131916   6.543   2.943   6.109
10339SOL    HW231917   6.574   3.027   5.973
10340SOL     OW31918   1.727   3.074   6.239
10340SOL    HW131919   1.738   3.021   6.323
10340SOL    HW231920   1.765   3.023   6.162
10341SOL     OW31921   2.030   3.142   2.490
10341SOL    HW131922   1.948   3.144   2.433
10341SOL    HW231923   2.025   3.216   2.557
10342SOL     OW31924   1.502   0.844   3.561
10342SOL    HW131925   1.584   0.795   3.590
10342SOL    HW231926   1.437   0.779   3.521
10343SOL     OW31927   2.425   5.648   0.896
10343SOL    HW131928   2.392   5.702   0.819
10343SOL    HW231929   2.456   5.559   0.863
10344SOL     OW31930   3.654   3.883   6.574
10344SOL    HW131931   3.578   3.823   6.549
10344SOL    HW231932   3.664   3.884   6.673
10345SOL     OW31933   1.236   2.738   5.326
10345SOL    HW131934   1.264   2.825   5.286
10345SOL    HW231935   1.291   2.664   5.287
10346SOL     OW31936   6.987   5.599   1.560
10346SOL    HW131937   6.932   5.520   1.587
10346SOL    HW231938   6.935   5.656   1.497
10347SOL     OW31939   4.485   0.927   3.761
10347SOL    HW131940   4.385   0.924   3.756
10347SOL    HW231941   4.517   0.863   3.831
10348SOL     OW31942   5.932   3.233   0.349
10348SOL    HW131943   5.932   3.318   0.401
10348SOL    HW231944   6.016   3.227   0.294
10349SOL     OW31945   0.749   6.838   6.528
10349SOL    HW131946   0.789   6.930   6.530
10349SOL    HW231947   0.671   6.834   6.590
10350SOL     OW31948   2.843   6.462   5.514
10350SOL    HW131949   2.783   6.388   5.544
10350SOL    HW231950   2.894   6.432   5.433
10351SOL     OW31951   4.657   5.502   5.704
10351SOL    HW131952   4.559   5.508   5.722
10351SOL    HW231953   4.674   5.525   5.608
10352SOL     OW31954   3.713   1.379   6.325
10352SOL    HW131955   3.702   1.350   6.420
10352SOL    HW231956   3.802   1.351   6.291
10353SOL     OW31957   6.714   3.218   4.375
10353SOL    HW131958   6.744   3.249   4.466
10353SOL    HW231959   6.621   3.249   4.358
10354SOL     OW31960   5.444   0.907   1.618
10354SOL    HW131961   5.469   0.904   1.714
10354SOL    HW231962   5.350   0.941   1.608
10355SOL     OW31963   2.741   5.569   2.336
10355SOL    HW131964   2.765   5.526   2.423
10355SOL    HW231965   2.711   5.663   2.353
10356SOL     OW31966   6.839   4.193   5.609
10356SOL    HW131967   6.785   4.131   5.665
10356SOL    HW231968   6.934   4.193   5.642
10357SOL     OW31969   2.422   2.294   6.750
10357SOL    HW131970   2.332   2.251   6.746
10357SOL    HW231971   2.414   2.386   6.788
10358SOL     OW31972   0.641   2.856   2.725
10358SOL    HW131973   0.610   2.940   2.770
10358SOL    HW231974   0.632   2.866   2.626
10359SOL     OW31975   0.478   1.527   1.771
10359SOL    HW131976   0.382   1.545   1.754
10359SOL    HW231977   0.528   1.528   1.684
10360SOL     OW31978   5.285   5.893   3.290
10360SOL    HW131979   5.356   5.953   3.254
10360SOL    HW231980   5.323   5.837   3.364
10361SOL     OW31981   3.134   5.842   2.312
10361SOL    HW131982   3.063   5.776   2.288
10361SOL    HW231983   3.141   5.911   2.240
10362SOL     OW31984   2.102   4.554   4.708
10362SOL    HW131985   2.166   4.586   4.777
10362SOL    HW231986   2.041   4.629   4.681
10363SOL     OW31987   5.103   0.415   3.222
10363SOL    HW131988   5.107   0.426   3.321
10363SOL    HW231989   5.159   0.486   3.178
10364SOL     OW31990   2.321   4.350   1.321
10364SOL    HW131991   2.337   4.305   1.409
10364SOL    HW231992   2.338   4.285   1.247
10365SOL     OW31993   4.784   5.370   0.361
10365SOL    HW131994   4.829   5.284   0.383
10365SOL    HW231995   4.807   5.397   0.267
10366SOL     OW31996   2.491   6.892   3.579
10366SOL    HW131997   2.400   6.875   3.543
10366SOL    HW231998   2.527   6.977   3.539
10367SOL     OW31999   6.350   2.937   3.173
10367SOL    HW132000   6.411   2.931   3.252
10367SOL    HW232001   6.383   2.876   3.101
10368SOL     OW32002   2.059   1.293   2.028
10368SOL    HW132003   2.113   1.362   2.076
10368SOL    HW232004   2.121   1.227   1.984
10369SOL     OW32005   3.611   2.136   0.394
10369SOL    HW132006   3.576   2.143   0.487
10369SOL    HW232007   3.614   2.226   0.352
10370SOL     OW32008   4.132   0.569   5.406
10370SOL    HW132009   4.104   0.477   5.379
10370SOL    HW232010   4.064   0.635   5.373
10371SOL     OW32011   4.424   5.722   5.128
10371SOL    HW132012   4.373   5.653   5.180
10371SOL    HW232013   4.457   5.793   5.190
10372SOL     OW32014   2.367   1.191   4.108
10372SOL    HW132015   2.290   1.230   4.060
10372SOL    HW232016   2.405   1.115   4.054
10373SOL     OW32017   1.015   6.635   4.344
10373SOL    HW132018   1.020   6.578   4.263
10373SOL    HW232019   0.982   6.580   4.422
10374SOL     OW32020   2.995   1.816   3.354
10374SOL    HW132021   3.078   1.828   3.409
10374SOL    HW232022   2.953   1.728   3.374
10375SOL     OW32023   5.469   1.799   1.089
10375SOL    HW132024   5.536   1.784   1.017
10375SOL    HW232025   5.514   1.839   1.169
10376SOL     OW32026   0.181   0.857   3.799
10376SOL    HW132027   0.216   0.847   3.706
10376SOL    HW232028   0.254   0.837   3.864
10377SOL     OW32029   0.376   0.542   3.860
10377SOL    HW132030   0.291   0.526   3.911
10377SOL    HW232031   0.406   0.636   3.875
10378SOL     OW32032   6.618   0.277   5.981
10378SOL    HW132033   6.659   0.195   6.020
10378SOL    HW232034   6.680   0.354   5.992
10379SOL     OW32035   5.228   0.727   4.578
10379SOL    HW132036   5.298   0.667   4.617
10379SOL    HW232037   5.270   0.787   4.509
10380SOL     OW32038   4.925   0.387   2.258
10380SOL    HW132039   4.938   0.320   2.184
10380SOL    HW232040   4.911   0.478   2.218
10381SOL     OW32041   4.555   4.893   5.756
10381SOL    HW132042   4.555   4.889   5.656
10381SOL    HW232043   4.571   4.987   5.785
10382SOL     OW32044   2.399   4.998   6.588
10382SOL    HW132045   2.365   4.977   6.496
10382SOL    HW232046   2.499   5.003   6.586
10383SOL     OW32047   0.595   2.434   1.633
10383SOL    HW132048   0.671   2.429   1.568
10383SOL    HW232049   0.611   2.369   1.708
10384SOL     OW32050   6.534   6.586   0.707
10384SOL    HW132051   6.516   6.612   0.612
10384SOL    HW232052   6.456   6.534   0.743
10385SOL     OW32053   6.390   1.331   6.581
10385SOL    HW132054   6.322   1.260   6.596
10385SOL    HW232055   6.476   1.305   6.626
10386SOL     OW32056   6.456   3.009   5.418
10386SOL    HW132057   6.473   3.105   5.397
10386SOL    HW232058   6.367   2.982   5.381
10387SOL     OW32059   1.819   2.882   3.109
10387SOL    HW132060   1.845   2.881   3.012
10387SOL    HW232061   1.882   2.824   3.160
10388SOL     OW32062   1.438   5.347   2.926
10388SOL    HW132063   1.435   5.417   2.855
10388SOL    HW232064   1.376   5.372   3.000
10389SOL     OW32065   0.912   4.836   3.856
10389SOL    HW132066   0.972   4.764   3.891
10389SOL    HW232067   0.847   4.796   3.791
10390SOL     OW32068   0.944   3.212   3.698
10390SOL    HW132069   1.026   3.161   3.726
10390SOL    HW232070   0.959   3.250   3.607
10391SOL     OW32071   2.220   6.558   6.146
10391SOL    HW132072   2.207   6.657   6.140
10391SOL    HW232073   2.131   6.514   6.157
10392SOL     OW32074   6.741   5.093   0.577
10392SOL    HW132075   6.733   5.193   0.570
10392SOL    HW232076   6.685   5.050   0.507
10393SOL     OW32077   1.231   1.428   4.051
10393SOL    HW132078   1.241   1.428   4.150
10393SOL    HW232079   1.227   1.523   4.018
10394SOL     OW32080   2.158   6.251   6.811
10394SOL    HW132081   2.141   6.163   6.855
10394SOL    HW232082   2.122   6.325   6.868
10395SOL     OW32083   0.258   0.885   4.992
10395SOL    HW132084   0.211   0.973   4.987
10395SOL    HW232085   0.329   0.889   5.062
10396SOL     OW32086   1.426   6.928   5.239
10396SOL    HW132087   1.443   0.001   5.216
10396SOL    HW232088   1.328   6.912   5.248
10397SOL     OW32089   3.159   1.465   3.077
10397SOL    HW132090   3.101   1.415   3.013
10397SOL    HW232091   3.132   1.561   3.078
10398SOL     OW32092   6.159   2.925   2.154
10398SOL    HW132093   6.233   2.864   2.182
10398SOL    HW232094   6.072   2.877   2.159
10399SOL     OW32095   5.276   2.605   5.244
10399SOL    HW132096   5.256   2.697   5.212
10399SOL    HW232097   5.191   2.553   5.250
10400SOL     OW32098   2.629   5.566   1.828
10400SOL    HW132099   2.591   5.641   1.773
10400SOL    HW232100   2.671   5.604   1.910
10401SOL     OW32101   0.885   6.054   2.027
10401SOL    HW132102   0.888   6.031   2.124
10401SOL    HW232103   0.977   6.078   1.995
10402SOL     OW32104   0.353   3.596   4.264
10402SOL    HW132105   0.284   3.524   4.261
10402SOL    HW232106   0.417   3.584   4.188
10403SOL     OW32107   5.650   1.416   2.085
10403SOL    HW132108   5.615   1.324   2.103
10403SOL    HW232109   5.746   1.410   2.056
10404SOL     OW32110   0.687   6.330   3.880
10404SOL    HW132111   0.728   6.314   3.790
10404SOL    HW232112   0.643   6.420   3.880
10405SOL     OW32113   1.643   6.346   6.100
10405SOL    HW132114   1.551   6.313   6.121
10405SOL    HW232115   1.701   6.339   6.181
10406SOL     OW32116   2.149   4.530   6.094
10406SOL    HW132117   2.103   4.477   6.164
10406SOL    HW232118   2.202   4.469   6.035
10407SOL     OW32119   0.548   2.296   6.866
10407SOL    HW132120   0.577   2.259   6.954
10407SOL    HW232121   0.504   2.223   6.813
10408SOL     OW32122   4.657   5.746   3.033
10408SOL    HW132123   4.617   5.744   2.941
10408SOL    HW232124   4.665   5.841   3.063
10409SOL     OW32125   6.519   4.978   2.833
10409SOL    HW132126   6.536   5.052   2.769
10409SOL    HW232127   6.451   4.916   2.796
10410SOL     OW32128   4.914   0.367   0.742
10410SOL    HW132129   4.882   0.350   0.835
10410SOL    HW232130   4.865   0.308   0.678
10411SOL     OW32131   1.972   4.845   2.844
10411SOL    HW132132   1.952   4.857   2.747
10411SOL    HW232133   2.027   4.763   2.856
10412SOL     OW32134   0.553   1.874   0.993
10412SOL    HW132135   0.641   1.838   1.024
10412SOL    HW232136   0.551   1.973   1.007
10413SOL     OW32137   6.946   2.131   6.919
10413SOL    HW132138   6.921   2.181   6.836
10413SOL    HW232139   7.005   2.188   6.975
10414SOL     OW32140   5.755   5.829   5.527
10414SOL    HW132141   5.702   5.753   5.565
10414SOL    HW232142   5.829   5.792   5.470
10415SOL     OW32143   0.701   6.160   3.413
10415SOL    HW132144   0.617   6.208   3.441
10415SOL    HW232145   0.779   6.200   3.461
10416SOL     OW32146   5.767   1.134   5.598
10416SOL    HW132147   5.757   1.214   5.539
10416SOL    HW232148   5.836   1.073   5.560
10417SOL     OW32149   3.846   4.880   4.406
10417SOL    HW132150   3.862   4.893   4.503
10417SOL    HW232151   3.931   4.852   4.361
10418SOL     OW32152   6.140   3.523   6.519
10418SOL    HW132153   6.234   3.515   6.553
10418SOL    HW232154   6.095   3.598   6.567
10419SOL     OW32155   2.439   1.333   4.541
10419SOL    HW132156   2.535   1.336   4.567
10419SOL    HW232157   2.393   1.417   4.571
10420SOL     OW32158   6.546   3.621   3.220
10420SOL    HW132159   6.594   3.708   3.225
10420SOL    HW232160   6.574   3.563   3.297
10421SOL     OW32161   1.260   4.331   4.765
10421SOL    HW132162   1.281   4.321   4.862
10421SOL    HW232163   1.201   4.410   4.751
10422SOL     OW32164   6.620   3.546   4.912
10422SOL    HW132165   6.707   3.582   4.878
10422SOL    HW232166   6.572   3.617   4.964
10423SOL     OW32167   3.147   5.017   3.841
10423SOL    HW132168   3.227   4.990   3.788
10423SOL    HW232169   3.173   5.025   3.938
10424SOL     OW32170   3.757   1.121   0.441
10424SOL    HW132171   3.801   1.210   0.453
10424SOL    HW232172   3.674   1.117   0.496
10425SOL     OW32173   1.269   2.088   0.600
10425SOL    HW132174   1.250   2.117   0.694
10425SOL    HW232175   1.184   2.089   0.547
10426SOL     OW32176   6.249   2.253   5.999
10426SOL    HW132177   6.273   2.189   5.926
10426SOL    HW232178   6.333   2.286   6.043
10427SOL     OW32179   5.544   6.831   4.404
10427SOL    HW132180   5.492   6.909   4.439
10427SOL    HW232181   5.617   6.865   4.345
10428SOL     OW32182   2.473   0.488   4.116
10428SOL    HW132183   2.461   0.529   4.025
10428SOL    HW232184   2.395   0.428   4.136
10429SOL     OW32185   1.190   2.689   2.075
10429SOL    HW132186   1.113   2.730   2.025
10429SOL    HW232187   1.275   2.731   2.044
10430SOL     OW32188   3.478   0.181   3.289
10430SOL    HW132189   3.495   0.098   3.236
10430SOL    HW232190   3.498   0.163   3.386
10431SOL     OW32191   3.503   0.313   2.844
10431SOL    HW132192   3.513   0.229   2.791
10431SOL    HW232193   3.463   0.292   2.933
10432SOL     OW32194   1.338   5.479   6.169
10432SOL    HW132195   1.302   5.428   6.246
10432SOL    HW232196   1.402   5.423   6.118
10433SOL     OW32197   2.757   0.049   2.580
10433SOL    HW132198   2.840   0.020   2.627
10433SOL    HW232199   2.685   7.005   2.595
10434SOL     OW32200   5.058   6.979   5.581
10434SOL    HW132201   5.072   0.002   5.669
10434SOL    HW232202   5.146   6.956   5.540
10435SOL     OW32203   2.361   1.877   6.916
10435SOL    HW132204   2.266   1.909   6.917
10435SOL    HW232205   2.418   1.945   6.871
10436SOL     OW32206   6.590   3.509   5.310
10436SOL    HW132207   6.665   3.543   5.367
10436SOL    HW232208   6.573   3.574   5.236
10437SOL     OW32209   5.253   6.462   4.875
10437SOL    HW132210   5.333   6.405   4.896
10437SOL    HW232211   5.266   6.506   4.787
10438SOL     OW32212   6.785   5.977   6.795
10438SOL    HW132213   6.702   6.003   6.746
10438SOL    HW232214   6.786   6.021   6.885
10439SOL     OW32215   6.835   6.714   5.305
10439SOL    HW132216   6.832   6.640   5.238
10439SOL    HW232217   6.898   6.785   5.273
10440SOL     OW32218   6.799   2.725   0.700
10440SOL    HW132219   6.808   2.634   0.740
10440SOL    HW232220   6.703   2.753   0.701
10441SOL     OW32221   4.186   1.904   0.696
10441SOL    HW132222   4.285   1.910   0.688
10441SOL    HW232223   4.151   1.986   0.741
10442SOL     OW32224   2.231   1.712   6.067
10442SOL    HW132225   2.239   1.714   6.167
10442SOL    HW232226   2.192   1.798   6.035
10443SOL     OW32227   0.394   1.425   3.161
10443SOL    HW132228   0.469   1.408   3.097
10443SOL    HW232229   0.363   1.520   3.153
10444SOL     OW32230   4.016   5.554   4.383
10444SOL    HW132231   3.935   5.524   4.333
10444SOL    HW232232   4.059   5.631   4.336
10445SOL     OW32233   1.164   3.492   3.046
10445SOL    HW132234   1.071   3.456   3.036
10445SOL    HW232235   1.174   3.575   2.991
10446SOL     OW32236   1.709   4.288   5.709
10446SOL    HW132237   1.620   4.251   5.682
10446SOL    HW232238   1.781   4.224   5.683
10447SOL     OW32239   0.042   1.843   3.250
10447SOL    HW132240   0.077   1.838   3.157
10447SOL    HW232241   0.017   1.937   3.272
10448SOL     OW32242   2.398   6.244   2.586
10448SOL    HW132243   2.409   6.256   2.685
10448SOL    HW232244   2.326   6.305   2.553
10449SOL     OW32245   3.993   4.999   4.637
10449SOL    HW132246   4.071   4.965   4.688
10449SOL    HW232247   4.019   5.017   4.542
10450SOL     OW32248   6.857   0.959   6.147
10450SOL    HW132249   6.828   1.036   6.091
10450SOL    HW232250   6.805   0.877   6.122
10451SOL     OW32251   3.083   0.840   3.201
10451SOL    HW132252   2.989   0.814   3.180
10451SOL    HW232253   3.142   0.817   3.124
10452SOL     OW32254   6.910   4.149   4.633
10452SOL    HW132255   6.972   4.085   4.588
10452SOL    HW232256   6.961   4.203   4.700
10453SOL     OW32257   3.833   5.800   3.502
10453SOL    HW132258   3.736   5.819   3.517
10453SOL    HW232259   3.861   5.721   3.556
10454SOL     OW32260   6.580   0.900   6.035
10454SOL    HW132261   6.579   0.929   6.130
10454SOL    HW232262   6.497   0.933   5.989
10455SOL     OW32263   6.392   5.696   3.748
10455SOL    HW132264   6.473   5.735   3.791
10455SOL    HW232265   6.322   5.679   3.817
10456SOL     OW32266   1.221   5.093   6.751
10456SOL    HW132267   1.191   5.095   6.656
10456SOL    HW232268   1.194   5.006   6.793
10457SOL     OW32269   3.782   2.604   6.496
10457SOL    HW132270   3.742   2.641   6.580
10457SOL    HW232271   3.855   2.540   6.519
10458SOL     OW32272   6.994   5.751   6.548
10458SOL    HW132273   6.961   5.726   6.639
10458SOL    HW232274   0.064   5.717   6.535
10459SOL     OW32275   0.061   5.268   0.465
10459SOL    HW132276   0.093   5.360   0.488
10459SOL    HW232277   0.125   5.226   0.401
10460SOL     OW32278   0.115   1.921   0.651
10460SOL    HW132279   0.127   1.885   0.744
10460SOL    HW232280   0.197   1.902   0.597
10461SOL     OW32281   6.886   5.029   5.972
10461SOL    HW132282   6.881   5.071   5.881
10461SOL    HW232283   6.889   5.100   6.042
10462SOL     OW32284   4.669   2.196   0.728
10462SOL    HW132285   4.693   2.111   0.681
10462SOL    HW232286   4.624   2.175   0.814
10463SOL     OW32287   4.580   2.780   6.244
10463SOL    HW132288   4.512   2.717   6.207
10463SOL    HW232289   4.632   2.822   6.169
10464SOL     OW32290   6.505   4.624   2.254
10464SOL    HW132291   6.464   4.663   2.336
10464SOL    HW232292   6.550   4.538   2.277
10465SOL     OW32293   5.157   4.563   1.438
10465SOL    HW132294   5.234   4.513   1.397
10465SOL    HW232295   5.120   4.627   1.371
10466SOL     OW32296   6.335   4.982   6.747
10466SOL    HW132297   6.267   5.040   6.702
10466SOL    HW232298   6.368   4.913   6.683
10467SOL     OW32299   0.620   3.442   0.318
10467SOL    HW132300   0.663   3.470   0.404
10467SOL    HW232301   0.682   3.461   0.242
10468SOL     OW32302   2.434   4.829   3.901
10468SOL    HW132303   2.494   4.749   3.894
10468SOL    HW232304   2.341   4.804   3.875
10469SOL     OW32305   6.693   1.385   4.172
10469SOL    HW132306   6.668   1.336   4.256
10469SOL    HW232307   6.791   1.379   4.158
10470SOL     OW32308   2.044   2.499   3.168
10470SOL    HW132309   2.106   2.470   3.096
10470SOL    HW232310   2.094   2.508   3.254
10471SOL     OW32311   2.937   6.829   6.836
10471SOL    HW132312   2.862   6.888   6.807
10471SOL    HW232313   2.907   6.734   6.833
10472SOL     OW32314   3.550   4.411   6.405
10472SOL    HW132315   3.570   4.414   6.307
10472SOL    HW232316   3.472   4.470   6.425
10473SOL     OW32317   5.268   5.500   0.421
10473SOL    HW132318   5.208   5.560   0.369
10473SOL    HW232319   5.284   5.416   0.370
10474SOL     OW32320   5.539   0.762   4.097
10474SOL    HW132321   5.510   0.797   4.008
10474SOL    HW232322   5.613   0.818   4.133
10475SOL     OW32323   1.623   6.553   1.094
10475SOL    HW132324   1.601   6.651   1.085
10475SOL    HW232325   1.659   6.535   1.185
10476SOL     OW32326   3.881   5.624   6.994
10476SOL    HW132327   3.793   5.580   7.009
10476SOL    HW232328   3.955   5.560   7.017
10477SOL     OW32329   6.826   5.425   3.858
10477SOL    HW132330   6.767   5.444   3.936
10477SOL    HW232331   6.838   5.326   3.849
10478SOL     OW32332   5.797   0.706   0.276
10478SOL    HW132333   5.709   0.733   0.315
10478SOL    HW232334   5.787   0.689   0.178
10479SOL     OW32335   1.055   2.456   1.697
10479SOL    HW132336   1.075   2.392   1.622
10479SOL    HW232337   1.054   2.406   1.784
10480SOL     OW32338   2.071   0.172   2.286
10480SOL    HW132339   2.041   0.204   2.196
10480SOL    HW232340   2.158   0.214   2.309
10481SOL     OW32341   0.065   1.495   1.969
10481SOL    HW132342   0.078   1.548   2.053
10481SOL    HW232343   0.120   1.412   1.973
10482SOL     OW32344   4.873   3.924   4.752
10482SOL    HW132345   4.900   3.843   4.700
10482SOL    HW232346   4.827   3.989   4.691
10483SOL     OW32347   5.926   6.321   0.468
10483SOL    HW132348   5.976   6.263   0.403
10483SOL    HW232349   5.974   6.321   0.556
10484SOL     OW32350   6.197   1.215   2.278
10484SOL    HW132351   6.222   1.301   2.232
10484SOL    HW232352   6.248   1.207   2.363
10485SOL     OW32353   5.965   3.916   5.374
10485SOL    HW132354   5.984   3.878   5.465
10485SOL    HW232355   5.969   3.843   5.306
10486SOL     OW32356   5.330   2.891   1.759
10486SOL    HW132357   5.260   2.843   1.811
10486SOL    HW232358   5.288   2.963   1.705
10487SOL     OW32359   5.562   6.755   1.808
10487SOL    HW132360   5.487   6.740   1.744
10487SOL    HW232361   5.553   6.692   1.885
10488SOL     OW32362   2.493   2.281   6.280
10488SOL    HW132363   2.502   2.255   6.377
10488SOL    HW232364   2.584   2.292   6.241
10489SOL     OW32365   0.965   6.020   6.366
10489SOL    HW132366   0.945   5.977   6.454
10489SOL    HW232367   0.984   5.950   6.298
10490SOL     OW32368   6.980   1.008   3.758
10490SOL    HW132369   0.028   0.940   3.777
10490SOL    HW232370   6.914   1.009   3.833
10491SOL     OW32371   1.518   3.997   5.980
10491SOL    HW132372   1.454   4.044   6.041
10491SOL    HW232373   1.496   4.019   5.885
10492SOL     OW32374   4.908   3.369   5.143
10492SOL    HW132375   4.907   3.456   5.094
10492SOL    HW232376   4.829   3.363   5.203
10493SOL     OW32377   3.190   1.174   1.409
10493SOL    HW132378   3.250   1.095   1.408
10493SOL    HW232379   3.098   1.146   1.438
10494SOL     OW32380   6.005   2.055   4.603
10494SOL    HW132381   6.093   2.073   4.647
10494SOL    HW232382   5.985   1.957   4.609
10495SOL     OW32383   1.373   6.740   0.350
10495SOL    HW132384   1.338   6.772   0.438
10495SOL    HW232385   1.357   6.810   0.281
10496SOL     OW32386   0.140   7.021   5.345
10496SOL    HW132387   0.183   6.931   5.348
10496SOL    HW232388   0.114   0.026   5.437
10497SOL     OW32389   1.234   1.063   0.942
10497SOL    HW132390   1.288   1.108   1.013
10497SOL    HW232391   1.221   0.967   0.966
10498SOL     OW32392   2.311   6.075   5.999
10498SOL    HW132393   2.364   6.079   5.914
10498SOL    HW232394   2.288   5.980   6.019
10499SOL     OW32395   3.298   5.548   3.051
10499SOL    HW132396   3.206   5.585   3.038
10499SOL    HW232397   3.297   5.484   3.128
10500SOL     OW32398   1.478   1.745   6.375
10500SOL    HW132399   1.487   1.686   6.295
10500SOL    HW232400   1.400   1.806   6.363
10501SOL     OW32401   1.449   3.308   2.714
10501SOL    HW132402   1.414   3.255   2.791
10501SOL    HW232403   1.430   3.260   2.629
10502SOL     OW32404   3.517   5.825   6.407
10502SOL    HW132405   3.446   5.785   6.465
10502SOL    HW232406   3.570   5.890   6.461
10503SOL     OW32407   3.013   3.058   6.780
10503SOL    HW132408   3.086   3.023   6.839
10503SOL    HW232409   2.930   3.005   6.795
10504SOL     OW32410   3.135   3.421   1.095
10504SOL    HW132411   3.104   3.336   1.137
10504SOL    HW232412   3.107   3.423   0.999
10505SOL     OW32413   6.727   5.944   1.733
10505SOL    HW132414   6.789   5.989   1.668
10505SOL    HW232415   6.650   6.005   1.753
10506SOL     OW32416   0.551   4.023   5.799
10506SOL    HW132417   0.463   4.044   5.756
10506SOL    HW232418   0.625   4.068   5.749
10507SOL     OW32419   0.742   0.380   6.166
10507SOL    HW132420   0.756   0.282   6.151
10507SOL    HW232421   0.784   0.431   6.092
10508SOL     OW32422   5.396   4.135   2.995
10508SOL    HW132423   5.308   4.105   3.032
10508SOL    HW232424   5.387   4.157   2.898
10509SOL     OW32425   1.664   0.110   6.572
10509SOL    HW132426   1.627   0.025   6.534
10509SOL    HW232427   1.653   0.109   6.671
10510SOL     OW32428   6.287   5.658   0.041
10510SOL    HW132429   6.365   5.710   0.078
10510SOL    HW232430   6.318   5.567   0.014
10511SOL     OW32431   4.138   2.788   0.512
10511SOL    HW132432   4.215   2.836   0.469
10511SOL    HW232433   4.060   2.850   0.520
10512SOL     OW32434   4.224   6.497   5.962
10512SOL    HW132435   4.137   6.543   5.975
10512SOL    HW232436   4.279   6.504   6.045
10513SOL     OW32437   0.386   2.653   6.988
10513SOL    HW132438   0.323   2.669   6.912
10513SOL    HW232439   0.476   2.628   6.953
10514SOL     OW32440   0.481   4.991   0.988
10514SOL    HW132441   0.386   5.019   0.975
10514SOL    HW232442   0.515   4.949   0.904
10515SOL     OW32443   6.403   2.242   3.059
10515SOL    HW132444   6.387   2.256   2.962
10515SOL    HW232445   6.484   2.293   3.087
10516SOL     OW32446   4.026   0.456   5.872
10516SOL    HW132447   3.993   0.395   5.944
10516SOL    HW232448   4.122   0.478   5.889
10517SOL     OW32449   6.769   2.209   2.555
10517SOL    HW132450   6.853   2.195   2.502
10517SOL    HW232451   6.695   2.235   2.493
10518SOL     OW32452   1.061   5.980   0.906
10518SOL    HW132453   1.048   5.977   0.807
10518SOL    HW232454   1.120   5.906   0.935
10519SOL     OW32455   3.372   3.288   5.443
10519SOL    HW132456   3.345   3.192   5.432
10519SOL    HW232457   3.305   3.347   5.399
10520SOL     OW32458   4.275   2.161   6.941
10520SOL    HW132459   4.339   2.178   7.016
10520SOL    HW232460   4.272   2.063   6.922
10521SOL     OW32461   6.370   5.466   1.085
10521SOL    HW132462   6.318   5.463   1.170
10521SOL    HW232463   6.421   5.552   1.081
10522SOL     OW32464   6.509   0.825   1.572
10522SOL    HW132465   6.496   0.744   1.629
10522SOL    HW232466   6.505   0.797   1.475
10523SOL     OW32467   0.108   5.599   6.152
10523SOL    HW132468   0.116   5.500   6.144
10523SOL    HW232469   0.017   5.623   6.186
10524SOL     OW32470   2.997   0.456   3.759
10524SOL    HW132471   3.041   0.524   3.702
10524SOL    HW232472   3.060   0.381   3.778
10525SOL     OW32473   2.355   6.062   4.986
10525SOL    HW132474   2.325   5.996   4.917
10525SOL    HW232475   2.418   6.127   4.945
10526SOL     OW32476   6.949   1.101   2.581
10526SOL    HW132477   6.948   1.001   2.585
10526SOL    HW232478   6.864   1.137   2.618
10527SOL     OW32479   0.874   2.788   4.449
10527SOL    HW132480   0.812   2.710   4.442
10527SOL    HW232481   0.965   2.760   4.418
10528SOL     OW32482   0.177   4.937   5.090
10528SOL    HW132483   0.197   4.861   5.028
10528SOL    HW232484   0.262   4.972   5.129
10529SOL     OW32485   6.774   0.243   3.589
10529SOL    HW132486   6.693   0.204   3.633
10529SOL    HW232487   6.747   0.295   3.508
10530SOL     OW32488   2.921   1.979   6.158
10530SOL    HW132489   2.983   1.901   6.169
10530SOL    HW232490   2.868   1.968   6.073
10531SOL     OW32491   1.634   2.789   5.038
10531SOL    HW132492   1.601   2.827   5.125
10531SOL    HW232493   1.734   2.788   5.038
10532SOL     OW32494   3.838   2.477   5.581
10532SOL    HW132495   3.873   2.545   5.516
10532SOL    HW232496   3.901   2.468   5.657
10533SOL     OW32497   2.716   1.356   5.695
10533SOL    HW132498   2.638   1.360   5.633
10533SOL    HW232499   2.745   1.261   5.705
10534SOL     OW32500   0.239   5.366   0.849
10534SOL    HW132501   0.318   5.408   0.804
10534SOL    HW232502   0.180   5.438   0.886
10535SOL     OW32503   0.592   1.395   2.300
10535SOL    HW132504   0.648   1.349   2.231
10535SOL    HW232505   0.591   1.493   2.281
10536SOL     OW32506   4.569   0.389   2.658
10536SOL    HW132507   4.629   0.310   2.647
10536SOL    HW232508   4.625   0.470   2.680
10537SOL     OW32509   1.261   4.816   2.190
10537SOL    HW132510   1.302   4.902   2.220
10537SOL    HW232511   1.304   4.788   2.104
10538SOL     OW32512   4.471   3.890   0.428
10538SOL    HW132513   4.519   3.803   0.438
10538SOL    HW232514   4.537   3.964   0.412
10539SOL     OW32515   0.609   3.533   6.535
10539SOL    HW132516   0.566   3.575   6.455
10539SOL    HW232517   0.586   3.435   6.537
10540SOL     OW32518   1.721   0.409   6.786
10540SOL    HW132519   1.789   0.468   6.829
10540SOL    HW232520   1.761   0.319   6.770
10541SOL     OW32521   3.869   3.220   0.168
10541SOL    HW132522   3.802   3.275   0.118
10541SOL    HW232523   3.821   3.152   0.223
10542SOL     OW32524   6.906   2.453   0.486
10542SOL    HW132525   6.908   2.523   0.415
10542SOL    HW232526   6.811   2.431   0.508
10543SOL     OW32527   0.728   1.068   6.042
10543SOL    HW132528   0.656   1.120   5.996
10543SOL    HW232529   0.716   0.971   6.024
10544SOL     OW32530   2.206   2.077   2.202
10544SOL    HW132531   2.229   2.172   2.221
10544SOL    HW232532   2.154   2.039   2.279
10545SOL     OW32533   6.585   0.851   2.618
10545SOL    HW132534   6.614   0.833   2.524
10545SOL    HW232535   6.641   0.925   2.656
10546SOL     OW32536   2.478   0.573   4.388
10546SOL    HW132537   2.484   0.537   4.295
10546SOL    HW232538   2.485   0.672   4.386
10547SOL     OW32539   4.247   1.728   1.578
10547SOL    HW132540   4.279   1.722   1.483
10547SOL    HW232541   4.168   1.789   1.582
10548SOL     OW32542   5.123   4.153   4.782
10548SOL    HW132543   5.034   4.109   4.771
10548SOL    HW232544   5.167   4.119   4.865
10549SOL     OW32545   1.216   1.081   1.989
10549SOL    HW132546   1.308   1.041   1.986
10549SOL    HW232547   1.220   1.171   2.033
10550SOL     OW32548   5.018   6.919   4.276
10550SOL    HW132549   4.975   6.923   4.366
10550SOL    HW232550   4.974   6.984   4.215
10551SOL     OW32551   1.220   2.316   6.194
10551SOL    HW132552   1.217   2.404   6.241
10551SOL    HW232553   1.140   2.261   6.219
10552SOL     OW32554   3.411   2.270   5.286
10552SOL    HW132555   3.458   2.345   5.333
10552SOL    HW232556   3.336   2.307   5.230
10553SOL     OW32557   1.514   5.262   0.291
10553SOL    HW132558   1.437   5.215   0.335
10553SOL    HW232559   1.517   5.357   0.322
10554SOL     OW32560   6.772   4.917   6.946
10554SOL    HW132561   6.687   4.910   6.999
10554SOL    HW232562   6.804   5.011   6.947
10555SOL     OW32563   3.622   1.481   1.400
10555SOL    HW132564   3.657   1.464   1.492
10555SOL    HW232565   3.524   1.459   1.397
10556SOL     OW32566   1.879   3.557   5.068
10556SOL    HW132567   1.796   3.602   5.035
10556SOL    HW232568   1.863   3.521   5.160
10557SOL     OW32569   6.795   2.505   3.163
10557SOL    HW132570   6.808   2.599   3.196
10557SOL    HW232571   6.802   2.504   3.063
10558SOL     OW32572   4.492   5.948   5.284
10558SOL    HW132573   4.440   6.033   5.294
10558SOL    HW232574   4.562   5.959   5.213
10559SOL     OW32575   4.378   2.140   0.641
10559SOL    HW132576   4.379   2.222   0.699
10559SOL    HW232577   4.301   2.145   0.578
10560SOL     OW32578   1.285   3.544   4.145
10560SOL    HW132579   1.198   3.497   4.162
10560SOL    HW232580   1.352   3.479   4.109
10561SOL     OW32581   2.325   4.085   6.897
10561SOL    HW132582   2.416   4.072   6.936
10561SOL    HW232583   2.298   4.002   6.847
10562SOL     OW32584   4.201   1.321   0.359
10562SOL    HW132585   4.170   1.416   0.364
10562SOL    HW232586   4.138   1.263   0.409
10563SOL     OW32587   1.264   2.141   5.565
10563SOL    HW132588   1.273   2.133   5.664
10563SOL    HW232589   1.170   2.119   5.538
10564SOL     OW32590   6.192   1.790   1.851
10564SOL    HW132591   6.092   1.789   1.853
10564SOL    HW232592   6.223   1.839   1.770
10565SOL     OW32593   5.859   1.528   4.963
10565SOL    HW132594   5.901   1.609   4.922
10565SOL    HW232595   5.834   1.547   5.057
10566SOL     OW32596   3.837   3.912   5.943
10566SOL    HW132597   3.775   3.887   5.868
10566SOL    HW232598   3.786   3.913   6.029
10567SOL     OW32599   1.854   3.439   4.087
10567SOL    HW132600   1.882   3.532   4.110
10567SOL    HW232601   1.806   3.439   4.000
10568SOL     OW32602   5.037   1.370   3.054
10568SOL    HW132603   5.023   1.345   2.958
10568SOL    HW232604   5.040   1.288   3.110
10569SOL     OW32605   5.783   2.976   4.544
10569SOL    HW132606   5.744   3.060   4.581
10569SOL    HW232607   5.713   2.925   4.495
10570SOL     OW32608   1.954   4.885   2.560
10570SOL    HW132609   1.893   4.913   2.485
10570SOL    HW232610   2.029   4.951   2.568
10571SOL     OW32611   6.421   6.194   3.017
10571SOL    HW132612   6.425   6.094   3.009
10571SOL    HW232613   6.335   6.227   2.980
10572SOL     OW32614   5.535   3.533   1.775
10572SOL    HW132615   5.503   3.448   1.733
10572SOL    HW232616   5.519   3.530   1.874
10573SOL     OW32617   5.867   5.283   4.893
10573SOL    HW132618   5.853   5.381   4.906
10573SOL    HW232619   5.943   5.252   4.950
10574SOL     OW32620   0.295   1.431   3.436
10574SOL    HW132621   0.352   1.432   3.354
10574SOL    HW232622   0.249   1.519   3.446
10575SOL     OW32623   1.253   0.160   5.387
10575SOL    HW132624   1.350   0.143   5.401
10575SOL    HW232625   1.235   0.174   5.290
10576SOL     OW32626   2.255   5.584   4.328
10576SOL    HW132627   2.353   5.569   4.342
10576SOL    HW232628   2.203   5.523   4.388
10577SOL     OW32629   1.841   2.743   6.049
10577SOL    HW132630   1.818   2.661   5.997
10577SOL    HW232631   1.821   2.824   5.993
10578SOL     OW32632   6.169   0.347   5.529
10578SOL    HW132633   6.179   0.272   5.463
10578SOL    HW232634   6.207   0.318   5.617
10579SOL     OW32635   4.487   1.898   0.601
10579SOL    HW132636   4.436   1.984   0.601
10579SOL    HW232637   4.585   1.918   0.594
10580SOL     OW32638   6.811   6.164   0.190
10580SOL    HW132639   6.853   6.250   0.220
10580SOL    HW232640   6.736   6.183   0.127
10581SOL     OW32641   5.890   0.301   3.302
10581SOL    HW132642   5.958   0.244   3.255
10581SOL    HW232643   5.930   0.341   3.384
10582SOL     OW32644   3.680   5.219   6.440
10582SOL    HW132645   3.607   5.152   6.423
10582SOL    HW232646   3.649   5.310   6.414
10583SOL     OW32647   3.943   0.972   6.981
10583SOL    HW132648   3.950   1.044   0.027
10583SOL    HW232649   3.946   0.883   0.003
10584SOL     OW32650   5.707   0.095   1.374
10584SOL    HW132651   5.619   0.128   1.338
10584SOL    HW232652   5.709   7.018   1.368
10585SOL     OW32653   0.470   2.972   5.942
10585SOL    HW132654   0.556   2.922   5.930
10585SOL    HW232655   0.476   3.030   6.023
10586SOL     OW32656   2.749   6.033   5.545
10586SOL    HW132657   2.833   6.087   5.555
10586SOL    HW232658   2.757   5.949   5.599
10587SOL     OW32659   5.844   3.723   1.086
10587SOL    HW132660   5.893   3.657   1.028
10587SOL    HW232661   5.903   3.800   1.107
10588SOL     OW32662   0.665   5.224   3.160
10588SOL    HW132663   0.572   5.259   3.164
10588SOL    HW232664   0.708   5.253   3.074
10589SOL     OW32665   5.522   1.935   3.856
10589SOL    HW132666   5.520   1.980   3.767
10589SOL    HW232667   5.601   1.967   3.908
10590SOL     OW32668   1.234   0.301   3.220
10590SOL    HW132669   1.235   0.304   3.120
10590SOL    HW232670   1.314   0.350   3.255
10591SOL     OW32671   0.941   2.239   0.033
10591SOL    HW132672   0.935   2.151   0.080
10591SOL    HW232673   1.037   2.264   0.021
10592SOL     OW32674   6.179   1.305   0.342
10592SOL    HW132675   6.085   1.330   0.366
10592SOL    HW232676   6.237   1.316   0.423
10593SOL     OW32677   2.154   5.657   1.108
10593SOL    HW132678   2.176   5.672   1.012
10593SOL    HW232679   2.079   5.718   1.135
10594SOL     OW32680   6.702   2.044   3.901
10594SOL    HW132681   6.640   1.999   3.966
10594SOL    HW232682   6.670   2.137   3.884
10595SOL     OW32683   3.800   6.600   6.415
10595SOL    HW132684   3.864   6.668   6.380
10595SOL    HW232685   3.801   6.603   6.515
10596SOL     OW32686   3.811   0.102   2.365
10596SOL    HW132687   3.861   0.020   2.337
10596SOL    HW232688   3.864   0.151   2.434
10597SOL     OW32689   1.882   0.925   4.953
10597SOL    HW132690   1.874   1.013   4.906
10597SOL    HW232691   1.882   0.851   4.885
10598SOL     OW32692   2.123   2.284   6.684
10598SOL    HW132693   2.122   2.364   6.744
10598SOL    HW232694   2.091   2.311   6.593
10599SOL     OW32695   5.838   1.397   6.879
10599SOL    HW132696   5.845   1.354   6.969
10599SOL    HW232697   5.922   1.380   6.827
10600SOL     OW32698   2.433   3.126   5.687
10600SOL    HW132699   2.522   3.092   5.655
10600SOL    HW232700   2.361   3.090   5.627
10601SOL     OW32701   3.124   6.193   6.510
10601SOL    HW132702   3.051   6.247   6.468
10601SOL    HW232703   3.094   6.099   6.520
10602SOL     OW32704   4.487   1.923   1.621
10602SOL    HW132705   4.405   1.869   1.604
10602SOL    HW232706   4.462   2.007   1.670
10603SOL     OW32707   1.759   5.371   4.153
10603SOL    HW132708   1.756   5.313   4.234
10603SOL    HW232709   1.778   5.315   4.072
10604SOL     OW32710   6.634   4.425   4.625
10604SOL    HW132711   6.636   4.425   4.725
10604SOL    HW232712   6.568   4.358   4.592
10605SOL     OW32713   1.448   5.299   6.634
10605SOL    HW132714   1.538   5.326   6.600
10605SOL    HW232715   1.417   5.218   6.584
10606SOL     OW32716   0.754   0.380   1.794
10606SOL    HW132717   0.690   0.450   1.824
10606SOL    HW232718   0.834   0.380   1.853
10607SOL     OW32719   5.436   4.699   0.137
10607SOL    HW132720   5.397   4.685   0.228
10607SOL    HW232721   5.383   4.649   0.069
10608SOL     OW32722   6.377   1.557   4.301
10608SOL    HW132723   6.325   1.639   4.325
10608SOL    HW232724   6.317   1.477   4.302
10609SOL     OW32725   3.977   6.528   0.957
10609SOL    HW132726   4.025   6.582   0.888
10609SOL    HW232727   3.880   6.524   0.935
10610SOL     OW32728   1.134   3.044   5.731
10610SOL    HW132729   1.059   2.991   5.693
10610SOL    HW232730   1.194   2.983   5.784
10611SOL     OW32731   5.873   2.533   6.113
10611SOL    HW132732   5.833   2.572   6.196
10611SOL    HW232733   5.962   2.493   6.134
10612SOL     OW32734   2.124   0.391   6.989
10612SOL    HW132735   2.131   0.369   6.892
10612SOL    HW232736   2.216   0.398   0.005
10613SOL     OW32737   0.718   6.100   5.644
10613SOL    HW132738   0.784   6.111   5.569
10613SOL    HW232739   0.763   6.058   5.722
10614SOL     OW32740   6.713   0.955   4.248
10614SOL    HW132741   6.637   1.015   4.272
10614SOL    HW232742   6.779   0.953   4.323
10615SOL     OW32743   5.300   5.450   5.403
10615SOL    HW132744   5.388   5.403   5.408
10615SOL    HW232745   5.227   5.382   5.390
10616SOL     OW32746   3.269   6.122   6.736
10616SOL    HW132747   3.360   6.164   6.732
10616SOL    HW232748   3.214   6.153   6.659
10617SOL     OW32749   1.552   2.367   0.215
10617SOL    HW132750   1.649   2.348   0.232
10617SOL    HW232751   1.543   2.416   0.127
10618SOL     OW32752   5.899   2.974   0.188
10618SOL    HW132753   5.925   3.049   0.249
10618SOL    HW232754   5.979   2.918   0.169
10619SOL     OW32755   1.294   4.449   4.378
10619SOL    HW132756   1.387   4.418   4.398
10619SOL    HW232757   1.298   4.531   4.322
10620SOL     OW32758   1.531   5.548   4.619
10620SOL    HW132759   1.599   5.581   4.686
10620SOL    HW232760   1.572   5.548   4.528
10621SOL     OW32761   2.107   6.463   6.978
10621SOL    HW132762   2.043   6.539   6.992
10621SOL    HW232763   2.200   6.499   6.973
10622SOL     OW32764   3.999   0.707   1.171
10622SOL    HW132765   3.919   0.693   1.229
10622SOL    HW232766   4.044   0.793   1.198
10623SOL     OW32767   5.935   2.251   3.843
10623SOL    HW132768   5.895   2.271   3.754
10623SOL    HW232769   5.865   2.208   3.901
10624SOL     OW32770   1.698   0.617   4.267
10624SOL    HW132771   1.634   0.541   4.252
10624SOL    HW232772   1.654   0.686   4.325
10625SOL     OW32773   0.581   3.120   0.758
10625SOL    HW132774   0.539   3.037   0.722
10625SOL    HW232775   0.527   3.153   0.836
10626SOL     OW32776   0.661   2.225   1.820
10626SOL    HW132777   0.597   2.204   1.894
10626SOL    HW232778   0.742   2.166   1.828
10627SOL     OW32779   6.044   6.357   3.603
10627SOL    HW132780   6.138   6.327   3.584
10627SOL    HW232781   6.045   6.422   3.679
10628SOL     OW32782   6.323   5.532   5.958
10628SOL    HW132783   6.413   5.569   5.983
10628SOL    HW232784   6.268   5.604   5.916
10629SOL     OW32785   2.372   5.619   5.840
10629SOL    HW132786   2.314   5.549   5.798
10629SOL    HW232787   2.433   5.657   5.771
10630SOL     OW32788   6.135   1.770   3.412
10630SOL    HW132789   6.065   1.812   3.354
10630SOL    HW232790   6.095   1.694   3.462
10631SOL     OW32791   1.026   6.967   3.640
10631SOL    HW132792   1.074   0.024   3.677
10631SOL    HW232793   0.932   6.966   3.674
10632SOL     OW32794   0.310   1.839   4.795
10632SOL    HW132795   0.295   1.865   4.890
10632SOL    HW232796   0.290   1.918   4.736
10633SOL     OW32797   1.770   5.177   1.621
10633SOL    HW132798   1.864   5.202   1.647
10633SOL    HW232799   1.713   5.172   1.702
10634SOL     OW32800   3.705   6.469   0.970
10634SOL    HW132801   3.707   6.397   1.039
10634SOL    HW232802   3.660   6.434   0.887
10635SOL     OW32803   2.235   1.032   1.165
10635SOL    HW132804   2.295   1.041   1.086
10635SOL    HW232805   2.290   1.017   1.248
10636SOL     OW32806   0.957   2.011   1.115
10636SOL    HW132807   1.007   1.958   1.046
10636SOL    HW232808   0.950   1.957   1.199
10637SOL     OW32809   3.131   4.019   4.758
10637SOL    HW132810   3.171   3.930   4.735
10637SOL    HW232811   3.191   4.092   4.725
10638SOL     OW32812   0.408   6.371   5.375
10638SOL    HW132813   0.367   6.281   5.393
10638SOL    HW232814   0.405   6.426   5.458
10639SOL     OW32815   2.072   0.832   5.144
10639SOL    HW132816   2.010   0.850   5.067
10639SOL    HW232817   2.114   0.742   5.133
10640SOL     OW32818   4.478   0.992   7.019
10640SOL    HW132819   4.549   0.993   0.067
10640SOL    HW232820   4.479   0.904   6.971
10641SOL     OW32821   5.888   1.696   0.006
10641SOL    HW132822   5.888   1.597   0.023
10641SOL    HW232823   5.864   1.712   6.933
10642SOL     OW32824   0.270   2.855   1.861
10642SOL    HW132825   0.312   2.889   1.945
10642SOL    HW232826   0.302   2.909   1.783
10643SOL     OW32827   2.459   3.447   5.549
10643SOL    HW132828   2.479   3.358   5.507
10643SOL    HW232829   2.443   3.514   5.476
10644SOL     OW32830   4.455   1.190   3.839
10644SOL    HW132831   4.504   1.197   3.927
10644SOL    HW232832   4.448   1.093   3.813
10645SOL     OW32833   2.757   0.243   4.851
10645SOL    HW132834   2.760   0.205   4.944
10645SOL    HW232835   2.663   0.238   4.817
10646SOL     OW32836   1.168   3.396   6.416
10646SOL    HW132837   1.210   3.399   6.507
10646SOL    HW232838   1.087   3.455   6.415
10647SOL     OW32839   6.977   5.148   0.708
10647SOL    HW132840   0.014   5.200   0.647
10647SOL    HW232841   6.897   5.117   0.657
10648SOL     OW32842   4.576   2.890   6.799
10648SOL    HW132843   4.546   2.834   6.876
10648SOL    HW232844   4.505   2.955   6.775
10649SOL     OW32845   0.101   4.649   5.853
10649SOL    HW132846   0.035   4.582   5.887
10649SOL    HW232847   0.179   4.601   5.813
10650SOL     OW32848   2.922   6.664   3.786
10650SOL    HW132849   2.894   6.684   3.692
10650SOL    HW232850   2.846   6.621   3.835
10651SOL     OW32851   4.582   6.263   6.412
10651SOL    HW132852   4.640   6.295   6.337
10651SOL    HW232853   4.627   6.281   6.500
10652SOL     OW32854   3.208   0.736   6.084
10652SOL    HW132855   3.194   0.664   6.017
10652SOL    HW232856   3.136   0.732   6.153
10653SOL     OW32857   5.296   3.353   4.103
10653SOL    HW132858   5.321   3.261   4.133
10653SOL    HW232859   5.196   3.360   4.099
10654SOL     OW32860   4.120   0.875   0.425
10654SOL    HW132861   4.150   0.919   0.340
10654SOL    HW232862   4.152   0.928   0.503
10655SOL     OW32863   2.937   6.434   1.260
10655SOL    HW132864   3.011   6.386   1.212
10655SOL    HW232865   2.876   6.476   1.194
10656SOL     OW32866   6.619   2.618   6.731
10656SOL    HW132867   6.644   2.533   6.778
10656SOL    HW232868   6.595   2.687   6.799
10657SOL     OW32869   6.181   0.778   0.952
10657SOL    HW132870   6.237   0.847   0.996
10657SOL    HW232871   6.085   0.808   0.952
10658SOL     OW32872   0.170   5.674   4.498
10658SOL    HW132873   0.108   5.642   4.570
10658SOL    HW232874   0.247   5.611   4.489
10659SOL     OW32875   6.047   0.600   0.336
10659SOL    HW132876   6.017   0.509   0.307
10659SOL    HW232877   5.983   0.669   0.302
10660SOL     OW32878   4.582   5.175   5.787
10660SOL    HW132879   4.509   5.233   5.823
10660SOL    HW232880   4.623   5.218   5.707
10661SOL     OW32881   0.365   6.607   2.564
10661SOL    HW132882   0.402   6.533   2.509
10661SOL    HW232883   0.292   6.653   2.513
10662SOL     OW32884   5.762   1.278   0.790
10662SOL    HW132885   5.708   1.361   0.784
10662SOL    HW232886   5.718   1.213   0.852
10663SOL     OW32887   6.836   0.314   0.097
10663SOL    HW132888   6.847   0.306   7.020
10663SOL    HW232889   6.913   0.365   0.135
10664SOL     OW32890   2.192   5.380   0.244
10664SOL    HW132891   2.196   5.442   0.166
10664SOL    HW232892   2.284   5.348   0.266
10665SOL     OW32893   6.612   1.730   1.118
10665SOL    HW132894   6.628   1.756   1.023
10665SOL    HW232895   6.639   1.804   1.179
10666SOL     OW32896   1.634   6.871   0.141
10666SOL    HW132897   1.700   6.889   0.069
10666SOL    HW232898   1.592   6.957   0.170
10667SOL     OW32899   3.346   2.035   5.346
10667SOL    HW132900   3.246   2.032   5.352
10667SOL    HW232901   3.376   2.130   5.333
10668SOL     OW32902   1.341   1.069   5.928
10668SOL    HW132903   1.423   1.090   5.874
10668SOL    HW232904   1.276   1.018   5.871
10669SOL     OW32905   1.161   7.012   6.961
10669SOL    HW132906   1.124   6.922   6.984
10669SOL    HW232907   1.108   0.060   7.008
10670SOL     OW32908   6.218   4.563   5.556
10670SOL    HW132909   6.225   4.656   5.591
10670SOL    HW232910   6.304   4.537   5.512
10671SOL     OW32911   2.202   0.886   3.550
10671SOL    HW132912   2.124   0.941   3.521
10671SOL    HW232913   2.268   0.880   3.475
10672SOL     OW32914   0.274   2.925   1.213
10672SOL    HW132915   0.241   2.898   1.122
10672SOL    HW232916   0.374   2.930   1.212
10673SOL     OW32917   2.568   2.848   5.377
10673SOL    HW132918   2.517   2.897   5.306
10673SOL    HW232919   2.653   2.812   5.339
10674SOL     OW32920   3.868   2.688   1.626
10674SOL    HW132921   3.876   2.590   1.644
10674SOL    HW232922   3.958   2.731   1.632
10675SOL     OW32923   0.272   0.771   5.614
10675SOL    HW132924   0.300   0.795   5.521
10675SOL    HW232925   0.173   0.754   5.616
10676SOL     OW32926   6.705   0.082   6.133
10676SOL    HW132927   6.782   0.094   6.195
10676SOL    HW232928   6.639   0.018   6.172
10677SOL     OW32929   0.305   0.319   0.780
10677SOL    HW132930   0.218   0.312   0.731
10677SOL    HW232931   0.287   0.334   0.877
10678SOL     OW32932   3.008   6.181   3.361
10678SOL    HW132933   2.960   6.257   3.317
10678SOL    HW232934   2.991   6.096   3.310
10679SOL     OW32935   5.248   4.948   4.378
10679SOL    HW132936   5.280   5.043   4.382
10679SOL    HW232937   5.309   4.895   4.318
10680SOL     OW32938   1.366   2.461   3.431
10680SOL    HW132939   1.456   2.503   3.440
10680SOL    HW232940   1.305   2.523   3.382
10681SOL     OW32941   0.250   1.554   6.131
10681SOL    HW132942   0.253   1.456   6.151
10681SOL    HW232943   0.273   1.605   6.214
10682SOL     OW32944   6.935   1.827   2.763
10682SOL    HW132945   6.917   1.925   2.770
10682SOL    HW232946   6.863   1.777   2.811
10683SOL     OW32947   1.734   1.531   4.842
10683SOL    HW132948   1.801   1.459   4.857
10683SOL    HW232949   1.753   1.578   4.756
10684SOL     OW32950   5.847   5.434   0.236
10684SOL    HW132951   5.933   5.483   0.226
10684SOL    HW232952   5.825   5.388   0.150
10685SOL     OW32953   0.275   2.821   2.617
10685SOL    HW132954   0.240   2.908   2.582
10685SOL    HW232955   0.320   2.836   2.705
10686SOL     OW32956   3.408   4.952   0.350
10686SOL    HW132957   3.440   5.030   0.295
10686SOL    HW232958   3.351   4.893   0.294
10687SOL     OW32959   0.195   4.545   3.021
10687SOL    HW132960   0.193   4.495   3.107
10687SOL    HW232961   0.275   4.605   3.019
10688SOL     OW32962   6.154   5.429   2.135
10688SOL    HW132963   6.156   5.390   2.043
10688SOL    HW232964   6.144   5.529   2.128
10689SOL     OW32965   0.385   0.773   2.415
10689SOL    HW132966   0.345   0.694   2.460
10689SOL    HW232967   0.371   0.855   2.471
10690SOL     OW32968   4.522   5.171   1.764
10690SOL    HW132969   4.479   5.139   1.679
10690SOL    HW232970   4.483   5.122   1.842
10691SOL     OW32971   6.907   1.108   1.669
10691SOL    HW132972   6.931   1.070   1.580
10691SOL    HW232973   6.816   1.149   1.665
10692SOL     OW32974   3.754   6.040   3.800
10692SOL    HW132975   3.660   6.007   3.807
10692SOL    HW232976   3.771   6.074   3.707
10693SOL     OW32977   6.472   1.978   1.925
10693SOL    HW132978   6.491   1.887   1.961
10693SOL    HW232979   6.385   1.977   1.875
10694SOL     OW32980   3.602   6.427   0.712
10694SOL    HW132981   3.516   6.403   0.667
10694SOL    HW232982   3.637   6.512   0.672
10695SOL     OW32983   6.880   3.056   3.854
10695SOL    HW132984   6.904   3.150   3.829
10695SOL    HW232985   6.781   3.046   3.858
10696SOL     OW32986   6.650   6.055   1.983
10696SOL    HW132987   6.630   6.100   2.070
10696SOL    HW232988   6.739   6.086   1.949
10697SOL     OW32989   2.732   5.778   3.802
10697SOL    HW132990   2.790   5.748   3.878
10697SOL    HW232991   2.672   5.851   3.833
10698SOL     OW32992   2.974   0.011   3.426
10698SOL    HW132993   3.072   7.022   3.411
10698SOL    HW232994   2.957   0.030   3.522
10699SOL     OW32995   2.345   2.280   3.104
10699SOL    HW132996   2.416   2.337   3.146
10699SOL    HW232997   2.295   2.335   3.037
10700SOL     OW32998   6.924   0.293   1.355
10700SOL    HW132999   6.988   0.261   1.424
10700SOL    HW233000   6.839   0.322   1.399
10701SOL     OW33001   3.575   6.381   0.343
10701SOL    HW133002   3.555   6.375   0.245
10701SOL    HW233003   3.622   6.298   0.372
10702SOL     OW33004   6.647   3.151   1.193
10702SOL    HW133005   6.606   3.242   1.192
10702SOL    HW233006   6.622   3.103   1.277
10703SOL     OW33007   4.062   3.671   3.734
10703SOL    HW133008   3.965   3.648   3.740
10703SOL    HW233009   4.105   3.656   3.823
10704SOL     OW33010   5.150   6.540   1.658
10704SOL    HW133011   5.091   6.568   1.582
10704SOL    HW233012   5.155   6.440   1.661
10705SOL     OW33013   0.224   2.648   6.783
10705SOL    HW133014   0.133   2.641   6.821
10705SOL    HW233015   0.230   2.593   6.700
10706SOL     OW33016   3.413   1.090   1.981
10706SOL    HW133017   3.415   1.145   2.065
10706SOL    HW233018   3.352   1.133   1.915
10707SOL     OW33019   6.152   0.130   6.030
10707SOL    HW133020   6.129   0.065   6.103
10707SOL    HW233021   6.247   0.159   6.039
10708SOL     OW33022   4.351   1.064   1.389
10708SOL    HW133023   4.291   1.037   1.464
10708SOL    HW233024   4.333   1.159   1.364
10709SOL     OW33025   0.415   5.847   5.876
10709SOL    HW133026   0.449   5.795   5.797
10709SOL    HW233027   0.326   5.811   5.904
10710SOL     OW33028   6.197   5.419   3.243
10710SOL    HW133029   6.261   5.355   3.286
10710SOL    HW233030   6.187   5.500   3.302
10711SOL     OW33031   1.838   5.827   4.564
10711SOL    HW133032   1.761   5.889   4.576
10711SOL    HW233033   1.818   5.762   4.491
10712SOL     OW33034   3.677   1.332   4.885
10712SOL    HW133035   3.634   1.396   4.821
10712SOL    HW233036   3.706   1.250   4.837
10713SOL     OW33037   1.077   5.857   1.751
10713SOL    HW133038   1.116   5.819   1.835
10713SOL    HW233039   1.088   5.791   1.677
10714SOL     OW33040   6.846   4.796   5.766
10714SOL    HW133041   6.858   4.894   5.782
10714SOL    HW233042   6.926   4.746   5.799
10715SOL     OW33043   5.793   1.464   4.166
10715SOL    HW133044   5.734   1.485   4.244
10715SOL    HW233045   5.823   1.548   4.123
10716SOL     OW33046   6.117   0.274   3.085
10716SOL    HW133047   6.160   0.254   3.174
10716SOL    HW233048   6.187   0.305   3.021
10717SOL     OW33049   6.890   6.211   1.983
10717SOL    HW133050   6.983   6.177   1.999
10717SOL    HW233051   6.856   6.258   2.064
10718SOL     OW33052   0.096   4.658   6.834
10718SOL    HW133053   0.071   4.562   6.819
10718SOL    HW233054   0.163   4.686   6.765
10719SOL     OW33055   4.545   0.790   2.025
10719SOL    HW133056   4.525   0.886   2.045
10719SOL    HW233057   4.599   0.751   2.100
10720SOL     OW33058   0.507   3.773   0.204
10720SOL    HW133059   0.460   3.689   0.232
10720SOL    HW233060   0.560   3.755   0.121
10721SOL     OW33061   4.611   2.708   4.136
10721SOL    HW133062   4.532   2.666   4.092
10721SOL    HW233063   4.638   2.654   4.216
10722SOL     OW33064   0.376   4.274   0.503
10722SOL    HW133065   0.335   4.340   0.566
10722SOL    HW233066   0.304   4.229   0.450
10723SOL     OW33067   6.344   4.136   0.437
10723SOL    HW133068   6.325   4.156   0.341
10723SOL    HW233069   6.297   4.202   0.495
10724SOL     OW33070   3.577   6.554   5.687
10724SOL    HW133071   3.601   6.493   5.611
10724SOL    HW233072   3.480   6.578   5.680
10725SOL     OW33073   6.899   6.536   4.911
10725SOL    HW133074   6.937   6.628   4.897
10725SOL    HW233075   6.801   6.537   4.893
10726SOL     OW33076   4.966   0.741   4.607
10726SOL    HW133077   4.929   0.749   4.514
10726SOL    HW233078   5.063   0.719   4.601
10727SOL     OW33079   2.242   6.028   6.968
10727SOL    HW133080   2.305   6.017   6.891
10727SOL    HW233081   2.278   6.097   0.008
10728SOL     OW33082   5.620   5.786   3.622
10728SOL    HW133083   5.637   5.713   3.688
10728SOL    HW233084   5.707   5.823   3.590
10729SOL     OW33085   5.863   3.403   3.748
10729SOL    HW133086   5.938   3.411   3.682
10729SOL    HW233087   5.783   3.452   3.714
10730SOL     OW33088   1.752   5.972   2.799
10730SOL    HW133089   1.780   6.029   2.876
10730SOL    HW233090   1.721   6.030   2.724
10731SOL     OW33091   4.561   6.459   6.768
10731SOL    HW133092   4.568   6.498   6.860
10731SOL    HW233093   4.594   6.525   6.701
10732SOL     OW33094   6.018   5.882   3.188
10732SOL    HW133095   6.080   5.877   3.109
10732SOL    HW233096   6.005   5.977   3.214
10733SOL     OW33097   0.409   0.833   6.537
10733SOL    HW133098   0.345   0.887   6.482
10733SOL    HW233099   0.471   0.783   6.477
10734SOL     OW33100   1.116   1.181   4.520
10734SOL    HW133101   1.212   1.156   4.533
10734SOL    HW233102   1.098   1.267   4.567
10735SOL     OW33103   0.160   6.131   1.925
10735SOL    HW133104   0.197   6.039   1.936
10735SOL    HW233105   0.185   6.167   1.836
10736SOL     OW33106   5.750   6.296   4.132
10736SOL    HW133107   5.707   6.345   4.207
10736SOL    HW233108   5.850   6.299   4.141
10737SOL     OW33109   6.678   1.166   2.402
10737SOL    HW133110   6.722   1.213   2.325
10737SOL    HW233111   6.725   1.079   2.418
10738SOL     OW33112   3.862   1.413   1.192
10738SOL    HW133113   3.905   1.456   1.271
10738SOL    HW233114   3.763   1.412   1.204
10739SOL     OW33115   5.754   2.974   3.298
10739SOL    HW133116   5.793   2.924   3.376
10739SOL    HW233117   5.726   3.065   3.328
10740SOL     OW33118   2.470   0.458   5.872
10740SOL    HW133119   2.514   0.454   5.962
10740SOL    HW233120   2.508   0.385   5.815
10741SOL     OW33121   2.353   2.369   3.906
10741SOL    HW133122   2.273   2.427   3.893
10741SOL    HW233123   2.323   2.274   3.921
10742SOL     OW33124   6.177   6.249   2.390
10742SOL    HW133125   6.168   6.250   2.490
10742SOL    HW233126   6.234   6.325   2.361
10743SOL     OW33127   2.852   1.239   5.970
10743SOL    HW133128   2.763   1.251   6.012
10743SOL    HW233129   2.859   1.298   5.889
10744SOL     OW33130   2.139   1.227   0.332
10744SOL    HW133131   2.084   1.147   0.308
10744SOL    HW233132   2.170   1.219   0.426
10745SOL     OW33133   1.458   4.213   2.181
10745SOL    HW133134   1.510   4.131   2.208
10745SOL    HW233135   1.489   4.291   2.234
10746SOL     OW33136   1.935   6.447   6.624
10746SOL    HW133137   1.936   6.347   6.631
10746SOL    HW233138   2.028   6.482   6.634
10747SOL     OW33139   6.455   1.131   4.774
10747SOL    HW133140   6.504   1.083   4.847
10747SOL    HW233141   6.467   1.230   4.786
10748SOL     OW33142   3.542   6.513   1.637
10748SOL    HW133143   3.483   6.510   1.718
10748SOL    HW233144   3.634   6.483   1.662
10749SOL     OW33145   5.927   4.561   1.917
10749SOL    HW133146   5.882   4.501   1.984
10749SOL    HW233147   5.862   4.629   1.883
10750SOL     OW33148   4.139   2.176   4.425
10750SOL    HW133149   4.063   2.188   4.361
10750SOL    HW233150   4.143   2.081   4.454
10751SOL     OW33151   0.469   5.044   4.810
10751SOL    HW133152   0.560   5.073   4.780
10751SOL    HW233153   0.448   4.955   4.770
10752SOL     OW33154   6.168   6.238   0.675
10752SOL    HW133155   6.111   6.196   0.746
10752SOL    HW233156   6.237   6.172   0.644
10753SOL     OW33157   5.172   6.680   4.275
10753SOL    HW133158   5.099   6.746   4.296
10753SOL    HW233159   5.197   6.689   4.178
10754SOL     OW33160   0.789   3.806   2.597
10754SOL    HW133161   0.817   3.727   2.542
10754SOL    HW233162   0.845   3.885   2.571
10755SOL     OW33163   0.102   2.719   1.363
10755SOL    HW133164   0.179   2.783   1.370
10755SOL    HW233165   0.073   2.713   1.268
10756SOL     OW33166   0.862   1.208   0.410
10756SOL    HW133167   0.837   1.300   0.440
10756SOL    HW233168   0.882   1.151   0.490
10757SOL     OW33169   0.132   3.921   2.008
10757SOL    HW133170   0.048   3.971   1.985
10757SOL    HW233171   0.110   3.849   2.073
10758SOL     OW33172   0.687   0.764   6.821
10758SOL    HW133173   0.587   0.764   6.818
10758SOL    HW233174   0.718   0.838   6.880
10759SOL     OW33175   2.855   2.149   5.757
10759SOL    HW133176   2.844   2.149   5.657
10759SOL    HW233177   2.857   2.243   5.790
10760SOL     OW33178   1.244   5.139   0.210
10760SOL    HW133179   1.245   5.226   0.162
10760SOL    HW233180   1.217   5.153   0.305
10761SOL     OW33181   0.800   1.564   5.810
10761SOL    HW133182   0.820   1.528   5.719
10761SOL    HW233183   0.705   1.546   5.834
10762SOL     OW33184   3.027   5.929   6.484
10762SOL    HW133185   3.058   5.855   6.544
10762SOL    HW233186   3.090   5.940   6.408
10763SOL     OW33187   5.391   0.016   3.541
10763SOL    HW133188   5.485   0.023   3.577
10763SOL    HW233189   5.390   6.979   3.461
10764SOL     OW33190   4.518   0.079   4.609
10764SOL    HW133191   4.431   0.088   4.562
10764SOL    HW233192   4.591   0.068   4.541
10765SOL     OW33193   0.203   2.354   2.233
10765SOL    HW133194   0.247   2.408   2.304
10765SOL    HW233195   0.250   2.368   2.146
10766SOL     OW33196   1.908   4.902   6.786
10766SOL    HW133197   1.909   4.990   6.834
10766SOL    HW233198   1.981   4.843   6.822
10767SOL     OW33199   1.486   5.372   0.638
10767SOL    HW133200   1.476   5.362   0.737
10767SOL    HW233201   1.582   5.382   0.614
10768SOL     OW33202   5.477   5.700   0.194
10768SOL    HW133203   5.575   5.716   0.203
10768SOL    HW233204   5.455   5.678   0.098
10769SOL     OW33205   3.291   3.009   4.396
10769SOL    HW133206   3.338   3.090   4.362
10769SOL    HW233207   3.291   3.010   4.496
10770SOL     OW33208   5.815   6.971   3.294
10770SOL    HW133209   5.721   6.937   3.306
10770SOL    HW233210   5.856   6.988   3.384
10771SOL     OW33211   4.741   5.816   5.541
10771SOL    HW133212   4.647   5.795   5.515
10771SOL    HW233213   4.777   5.887   5.481
10772SOL     OW33214   5.692   5.402   2.526
10772SOL    HW133215   5.784   5.365   2.534
10772SOL    HW233216   5.675   5.429   2.431
10773SOL     OW33217   6.789   3.555   1.324
10773SOL    HW133218   6.863   3.623   1.324
10773SOL    HW233219   6.822   3.470   1.282
10774SOL     OW33220   0.759   2.778   0.692
10774SOL    HW133221   0.826   2.704   0.687
10774SOL    HW233222   0.786   2.841   0.764
10775SOL     OW33223   1.349   3.890   0.558
10775SOL    HW133224   1.390   3.956   0.622
10775SOL    HW233225   1.420   3.850   0.501
10776SOL     OW33226   1.048   2.567   3.863
10776SOL    HW133227   1.103   2.573   3.780
10776SOL    HW233228   1.010   2.656   3.886
10777SOL     OW33229   2.858   1.405   1.454
10777SOL    HW133230   2.790   1.476   1.434
10777SOL    HW233231   2.817   1.337   1.515
10778SOL     OW33232   6.226   0.217   3.312
10778SOL    HW133233   6.198   0.129   3.351
10778SOL    HW233234   6.267   0.273   3.383
10779SOL     OW33235   5.518   4.103   5.078
10779SOL    HW133236   5.613   4.127   5.057
10779SOL    HW233237   5.516   4.024   5.138
10780SOL     OW33238   2.193   5.808   4.843
10780SOL    HW133239   2.127   5.756   4.789
10780SOL    HW233240   2.257   5.746   4.887
10781SOL     OW33241   5.571   2.320   5.093
10781SOL    HW133242   5.626   2.255   5.144
10781SOL    HW233243   5.512   2.271   5.028
10782SOL     OW33244   0.971   1.758   5.456
10782SOL    HW133245   1.010   1.826   5.518
10782SOL    HW233246   0.963   1.670   5.503
10783SOL     OW33247   1.237   2.579   3.678
10783SOL    HW133248   1.303   2.518   3.721
10783SOL    HW233249   1.284   2.655   3.634
10784SOL     OW33250   3.507   5.444   2.656
10784SOL    HW133251   3.501   5.454   2.756
10784SOL    HW233252   3.497   5.347   2.632
10785SOL     OW33253   1.314   5.114   2.262
10785SOL    HW133254   1.273   5.110   2.353
10785SOL    HW233255   1.249   5.155   2.197
10786SOL     OW33256   4.232   1.534   2.128
10786SOL    HW133257   4.207   1.628   2.151
10786SOL    HW233258   4.210   1.516   2.032
10787SOL     OW33259   4.506   0.567   3.288
10787SOL    HW133260   4.430   0.623   3.321
10787SOL    HW233261   4.483   0.470   3.300
10788SOL     OW33262   1.561   4.017   6.999
10788SOL    HW133263   1.511   3.980   0.055
10788SOL    HW233264   1.510   4.093   6.960
10789SOL     OW33265   6.587   1.293   1.728
10789SOL    HW133266   6.573   1.331   1.819
10789SOL    HW233267   6.535   1.208   1.718
10790SOL     OW33268   0.361   1.441   5.240
10790SOL    HW133269   0.316   1.374   5.300
10790SOL    HW233270   0.381   1.398   5.151
10791SOL     OW33271   1.478   1.951   4.360
10791SOL    HW133272   1.454   2.018   4.430
10791SOL    HW233273   1.407   1.950   4.289
10792SOL     OW33274   3.888   1.784   2.575
10792SOL    HW133275   3.921   1.692   2.551
10792SOL    HW233276   3.873   1.836   2.491
10793SOL     OW33277   4.564   2.169   4.874
10793SOL    HW133278   4.563   2.150   4.776
10793SOL    HW233279   4.605   2.092   4.922
10794SOL     OW33280   5.269   1.980   0.909
10794SOL    HW133281   5.354   2.033   0.902
10794SOL    HW233282   5.245   1.967   1.005
10795SOL     OW33283   0.208   3.942   3.620
10795SOL    HW133284   0.144   3.867   3.605
10795SOL    HW233285   0.227   3.988   3.533
10796SOL     OW33286   0.444   6.797   5.744
10796SOL    HW133287   0.528   6.822   5.792
10796SOL    HW233288   0.450   6.827   5.649
10797SOL     OW33289   4.227   4.494   6.553
10797SOL    HW133290   4.181   4.580   6.575
10797SOL    HW233291   4.173   4.443   6.486
10798SOL     OW33292   1.628   0.121   6.847
10798SOL    HW133293   1.631   0.163   6.938
10798SOL    HW233294   1.535   0.121   6.812
10799SOL     OW33295   3.539   1.097   2.755
10799SOL    HW133296   3.508   1.150   2.834
10799SOL    HW233297   3.596   1.154   2.696
10800SOL     OW33298   1.967   0.327   5.675
10800SOL    HW133299   2.036   0.327   5.747
10800SOL    HW233300   2.012   0.332   5.586
10801SOL     OW33301   2.407   6.381   5.785
10801SOL    HW133302   2.392   6.378   5.884
10801SOL    HW233303   2.496   6.422   5.766
10802SOL     OW33304   0.941   4.772   4.529
10802SOL    HW133305   0.895   4.757   4.441
10802SOL    HW233306   1.024   4.717   4.532
10803SOL     OW33307   0.533   4.241   4.597
10803SOL    HW133308   0.528   4.141   4.589
10803SOL    HW233309   0.542   4.282   4.507
10804SOL     OW33310   5.182   4.889   1.137
10804SOL    HW133311   5.100   4.832   1.147
10804SOL    HW233312   5.258   4.832   1.107
10805SOL     OW33313   3.717   6.151   0.392
10805SOL    HW133314   3.755   6.156   0.300
10805SOL    HW233315   3.788   6.172   0.459
10806SOL     OW33316   5.766   3.951   6.949
10806SOL    HW133317   5.813   3.874   6.992
10806SOL    HW233318   5.675   3.960   6.989
10807SOL     OW33319   4.401   7.008   4.036
10807SOL    HW133320   4.435   6.917   4.061
10807SOL    HW233321   4.432   0.008   3.944
10808SOL     OW33322   0.629   2.903   6.892
10808SOL    HW133323   0.630   2.976   6.960
10808SOL    HW233324   0.721   2.865   6.882
10809SOL     OW33325   3.283   0.759   3.028
10809SOL    HW133326   3.357   0.748   3.095
10809SOL    HW233327   3.323   0.772   2.937
10810SOL     OW33328   0.733   2.096   6.514
10810SOL    HW133329   0.797   2.166   6.483
10810SOL    HW233330   0.728   2.023   6.446
10811SOL     OW33331   4.905   4.661   5.423
10811SOL    HW133332   4.855   4.598   5.482
10811SOL    HW233333   4.986   4.616   5.386
10812SOL     OW33334   6.649   2.445   2.473
10812SOL    HW133335   6.743   2.417   2.492
10812SOL    HW233336   6.643   2.478   2.378
10813SOL     OW33337   2.350   5.369   2.217
10813SOL    HW133338   2.304   5.425   2.286
10813SOL    HW233339   2.441   5.407   2.200
10814SOL     OW33340   1.673   6.178   5.143
10814SOL    HW133341   1.756   6.203   5.194
10814SOL    HW233342   1.594   6.180   5.205
10815SOL     OW33343   4.488   2.388   3.362
10815SOL    HW133344   4.417   2.351   3.303
10815SOL    HW233345   4.447   2.447   3.431
10816SOL     OW33346   2.053   2.060   2.403
10816SOL    HW133347   1.974   2.120   2.415
10816SOL    HW233348   2.099   2.048   2.491
10817SOL     OW33349   4.876   6.502   1.973
10817SOL    HW133350   4.823   6.488   1.890
10817SOL    HW233351   4.814   6.508   2.051
10818SOL     OW33352   4.772   3.130   6.752
10818SOL    HW133353   4.861   3.132   6.798
10818SOL    HW233354   4.764   3.047   6.697
10819SOL     OW33355   0.506   3.685   6.321
10819SOL    HW133356   0.540   3.645   6.236
10819SOL    HW233357   0.458   3.770   6.301
10820SOL     OW33358   0.106   6.964   4.426
10820SOL    HW133359   0.146   6.884   4.472
10820SOL    HW233360   0.170   6.997   4.357
10821SOL     OW33361   0.132   6.892   0.274
10821SOL    HW133362   0.120   6.961   0.202
10821SOL    HW233363   0.132   6.936   0.363
10822SOL     OW33364   1.601   4.846   0.851
10822SOL    HW133365   1.574   4.821   0.758
10822SOL    HW233366   1.593   4.766   0.911
10823SOL     OW33367   1.301   2.018   1.874
10823SOL    HW133368   1.284   1.934   1.821
10823SOL    HW233369   1.260   2.096   1.826
10824SOL     OW33370   5.501   0.480   2.967
10824SOL    HW133371   5.502   0.386   2.934
10824SOL    HW233372   5.526   0.482   3.064
10825SOL     OW33373   3.633   1.916   0.790
10825SOL    HW133374   3.614   1.833   0.737
10825SOL    HW233375   3.575   1.991   0.757
10826SOL     OW33376   6.575   3.109   1.474
10826SOL    HW133377   6.496   3.050   1.495
10826SOL    HW233378   6.588   3.175   1.548
10827SOL     OW33379   1.029   2.464   4.338
10827SOL    HW133380   1.033   2.549   4.391
10827SOL    HW233381   0.977   2.480   4.254
10828SOL     OW33382   1.489   6.162   6.726
10828SOL    HW133383   1.462   6.137   6.819
10828SOL    HW233384   1.504   6.260   6.721
10829SOL     OW33385   2.554   3.872   1.647
10829SOL    HW133386   2.482   3.845   1.711
10829SOL    HW233387   2.596   3.791   1.607
10830SOL     OW33388   4.952   1.715   3.785
10830SOL    HW133389   4.933   1.676   3.875
10830SOL    HW233390   4.944   1.815   3.790
10831SOL     OW33391   4.969   2.773   3.229
10831SOL    HW133392   4.884   2.808   3.268
10831SOL    HW233393   5.039   2.844   3.232
10832SOL     OW33394   6.922   2.492   2.097
10832SOL    HW133395   6.990   2.419   2.098
10832SOL    HW233396   6.843   2.463   2.043
10833SOL     OW33397   3.134   0.200   4.273
10833SOL    HW133398   3.201   0.273   4.284
10833SOL    HW233399   3.097   0.175   4.362
10834SOL     OW33400   6.949   1.309   5.739
10834SOL    HW133401   6.861   1.291   5.694
10834SOL    HW233402   7.011   1.352   5.674
10835SOL     OW33403   6.644   1.952   2.370
10835SOL    HW133404   6.718   1.904   2.419
10835SOL    HW233405   6.676   2.042   2.343
10836SOL     OW33406   1.568   2.915   0.458
10836SOL    HW133407   1.547   3.002   0.413
10836SOL    HW233408   1.555   2.925   0.557
10837SOL     OW33409   0.752   5.989   1.280
10837SOL    HW133410   0.720   6.016   1.189
10837SOL    HW233411   0.674   5.967   1.338
10838SOL     OW33412   6.386   6.727   1.298
10838SOL    HW133413   6.321   6.770   1.361
10838SOL    HW233414   6.466   6.696   1.349
10839SOL     OW33415   2.190   1.778   0.413
10839SOL    HW133416   2.173   1.733   0.501
10839SOL    HW233417   2.128   1.740   0.344
10840SOL     OW33418   3.855   4.943   2.327
10840SOL    HW133419   3.758   4.936   2.352
10840SOL    HW233420   3.895   5.023   2.371
10841SOL     OW33421   5.043   3.571   5.483
10841SOL    HW133422   4.976   3.622   5.429
10841SOL    HW233423   4.995   3.508   5.544
10842SOL     OW33424   6.539   2.775   0.841
10842SOL    HW133425   6.446   2.740   0.851
10842SOL    HW233426   6.577   2.796   0.931
10843SOL     OW33427   0.356   1.073   1.753
10843SOL    HW133428   0.408   1.130   1.817
10843SOL    HW233429   0.327   1.127   1.674
10844SOL     OW33430   3.444   6.505   3.452
10844SOL    HW133431   3.388   6.439   3.501
10844SOL    HW233432   3.539   6.499   3.485
10845SOL     OW33433   1.223   2.967   0.955
10845SOL    HW133434   1.183   2.875   0.955
10845SOL    HW233435   1.200   3.013   1.040
10846SOL     OW33436   3.693   2.084   1.743
10846SOL    HW133437   3.673   2.170   1.790
10846SOL    HW233438   3.673   2.094   1.645
10847SOL     OW33439   3.595   2.632   5.740
10847SOL    HW133440   3.584   2.691   5.660
10847SOL    HW233441   3.633   2.544   5.712
10848SOL     OW33442   1.245   1.555   0.573
10848SOL    HW133443   1.317   1.594   0.514
10848SOL    HW233444   1.287   1.491   0.637
10849SOL     OW33445   2.600   5.003   4.410
10849SOL    HW133446   2.561   4.940   4.342
10849SOL    HW233447   2.695   5.023   4.387
10850SOL     OW33448   5.736   0.938   1.977
10850SOL    HW133449   5.702   0.993   2.053
10850SOL    HW233450   5.836   0.938   1.978
10851SOL     OW33451   4.256   2.266   6.192
10851SOL    HW133452   4.266   2.171   6.223
10851SOL    HW233453   4.313   2.326   6.247
10852SOL     OW33454   0.396   6.652   6.102
10852SOL    HW133455   0.363   6.615   6.015
10852SOL    HW233456   0.361   6.745   6.114
10853SOL     OW33457   1.874   1.143   4.727
10853SOL    HW133458   1.967   1.157   4.694
10853SOL    HW233459   1.853   1.210   4.799
10854SOL     OW33460   0.216   6.278   0.297
10854SOL    HW133461   0.238   6.357   0.353
10854SOL    HW233462   0.295   6.253   0.241
10855SOL     OW33463   1.613   6.029   1.482
10855SOL    HW133464   1.597   6.116   1.529
10855SOL    HW233465   1.662   5.966   1.544
10856SOL     OW33466   5.794   0.337   6.344
10856SOL    HW133467   5.785   0.325   6.245
10856SOL    HW233468   5.763   0.254   6.390
10857SOL     OW33469   6.044   0.453   4.695
10857SOL    HW133470   6.065   0.545   4.730
10857SOL    HW233471   6.000   0.461   4.606
10858SOL     OW33472   2.524   2.158   0.049
10858SOL    HW133473   2.538   2.185   0.144
10858SOL    HW233474   2.548   2.062   0.037
10859SOL     OW33475   0.693   5.416   2.391
10859SOL    HW133476   0.636   5.441   2.312
10859SOL    HW233477   0.666   5.472   2.469
10860SOL     OW33478   5.731   3.261   0.819
10860SOL    HW133479   5.722   3.344   0.764
10860SOL    HW233480   5.820   3.261   0.864
10861SOL     OW33481   3.323   2.795   1.936
10861SOL    HW133482   3.390   2.838   1.875
10861SOL    HW233483   3.273   2.725   1.885
10862SOL     OW33484   3.550   3.135   5.687
10862SOL    HW133485   3.635   3.095   5.654
10862SOL    HW233486   3.510   3.193   5.616
10863SOL     OW33487   2.660   0.931   2.945
10863SOL    HW133488   2.613   0.871   3.010
10863SOL    HW233489   2.614   1.019   2.940
10864SOL     OW33490   3.086   4.627   1.672
10864SOL    HW133491   3.046   4.567   1.741
10864SOL    HW233492   3.091   4.580   1.584
10865SOL     OW33493   3.697   1.246   2.586
10865SOL    HW133494   3.790   1.272   2.612
10865SOL    HW233495   3.688   1.251   2.486
10866SOL     OW33496   6.870   3.297   2.984
10866SOL    HW133497   6.817   3.278   2.902
10866SOL    HW233498   6.894   3.210   3.029
10867SOL     OW33499   4.498   3.251   0.697
10867SOL    HW133500   4.452   3.249   0.785
10867SOL    HW233501   4.597   3.241   0.710
10868SOL     OW33502   1.522   0.205   5.404
10868SOL    HW133503   1.570   0.244   5.483
10868SOL    HW233504   1.547   0.256   5.321
10869NA      NA33505   0.075   1.618   5.993
10870NA      NA33506   4.446   4.546   5.230
10871NA      NA33507   1.438   5.103   2.922
10872NA      NA33508   5.883   4.027   3.238
10873NA      NA33509   3.719   2.316   5.473
10874NA      NA33510   2.340   4.955   0.320
10875NA      NA33511   1.339   5.264   6.847
10876NA      NA33512   3.638   4.279   0.961
10877NA      NA33513   4.326   4.810   0.520
10878NA      NA33514   3.373   1.003   6.844
10879NA      NA33515   5.600   0.160   1.725
10880NA      NA33516   2.364   6.720   5.370
10881NA      NA33517   4.132   5.446   1.542
10882NA      NA33518   3.880   3.186   6.481
   7.02274   7.02274   7.02274
