Generated by trjconv : CNT in water t= 451.00000
33518
    1C        C    1   2.843   2.773   4.744
    1C        C    2   2.895   2.719   4.864
    1C        C    3   2.841   2.771   4.982
    1C        C    4   2.849   2.779   4.258
    1C        C    5   2.898   2.728   4.380
    1C        C    6   2.845   2.776   4.502
    1C        C    7   3.013   2.642   4.623
    1C        C    8   2.899   2.726   4.623
    1C        C    9   3.073   2.601   4.744
    1C        C   10   3.006   2.631   4.865
    1C        C   11   3.180   2.491   4.975
    1C        C   12   3.060   2.564   4.975
    1C        C   13   2.847   2.769   3.772
    1C        C   14   2.900   2.721   3.894
    1C        C   15   2.847   2.774   4.014
    1C        C   16   3.019   2.650   4.138
    1C        C   17   2.905   2.733   4.136
    1C        C   18   3.079   2.615   4.261
    1C        C   19   3.013   2.646   4.382
    1C        C   20   3.207   2.552   4.503
    1C        C   21   3.076   2.606   4.502
    1C        C   22   3.276   2.530   4.624
    1C        C   23   3.204   2.547   4.744
    1C        C   24   3.410   2.481   4.861
    1C        C   25   3.268   2.499   4.862
    1C        C   26   3.488   2.474   4.977
    1C        C   27   2.847   2.764   3.280
    1C        C   28   2.899   2.719   3.403
    1C        C   29   2.852   2.771   3.526
    1C        C   30   3.020   2.645   3.650
    1C        C   31   2.905   2.727   3.650
    1C        C   32   3.077   2.601   3.771
    1C        C   33   3.014   2.637   3.892
    1C        C   34   3.208   2.556   4.017
    1C        C   35   3.076   2.608   4.016
    1C        C   36   3.275   2.534   4.139
    1C        C   37   3.208   2.557   4.261
    1C        C   38   3.415   2.501   4.378
    1C        C   39   3.277   2.533   4.382
    1C        C   40   3.486   2.498   4.500
    1C        C   41   3.415   2.505   4.622
    1C        C   42   3.629   2.484   4.742
    1C        C   43   3.487   2.485   4.741
    1C        C   44   3.704   2.485   4.862
    1C        C   45   3.627   2.484   4.979
    1C        C   46   2.833   2.749   2.792
    1C        C   47   2.890   2.705   2.913
    1C        C   48   2.840   2.756   3.035
    1C        C   49   3.016   2.638   3.159
    1C        C   50   2.898   2.716   3.157
    1C        C   51   3.080   2.608   3.282
    1C        C   52   3.017   2.642   3.404
    1C        C   53   3.208   2.551   3.527
    1C        C   54   3.079   2.609   3.527
    1C        C   55   3.276   2.532   3.649
    1C        C   56   3.207   2.547   3.772
    1C        C   57   3.414   2.509   3.893
    1C        C   58   3.274   2.530   3.895
    1C        C   59   3.485   2.503   4.015
    1C        C   60   3.412   2.501   4.136
    1C        C   61   3.626   2.499   4.257
    1C        C   62   3.485   2.492   4.256
    1C        C   63   3.699   2.509   4.378
    1C        C   64   3.627   2.506   4.500
    1C        C   65   3.836   2.539   4.620
    1C        C   66   3.700   2.500   4.621
    1C        C   67   3.904   2.558   4.742
    1C        C   68   3.840   2.522   4.863
    1C        C   69   4.051   2.584   4.977
    1C        C   70   3.924   2.525   4.975
    1C        C   71   2.818   2.728   2.305
    1C        C   72   2.877   2.687   2.427
    1C        C   73   2.828   2.743   2.547
    1C        C   74   3.006   2.627   2.670
    1C        C   75   2.886   2.703   2.669
    1C        C   76   3.071   2.597   2.792
    1C        C   77   3.010   2.629   2.915
    1C        C   78   3.206   2.549   3.034
    1C        C   79   3.074   2.598   3.037
    1C        C   80   3.275   2.532   3.157
    1C        C   81   3.209   2.552   3.280
    1C        C   82   3.412   2.502   3.401
    1C        C   83   3.274   2.529   3.404
    1C        C   84   3.485   2.502   3.522
    1C        C   85   3.415   2.510   3.645
    1C        C   86   3.624   2.503   3.768
    1C        C   87   3.482   2.500   3.769
    1C        C   88   3.696   2.509   3.890
    1C        C   89   3.626   2.507   4.013
    1C        C   90   3.833   2.550   4.134
    1C        C   91   3.696   2.518   4.135
    1C        C   92   3.903   2.568   4.256
    1C        C   93   3.835   2.545   4.378
    1C        C   94   4.030   2.629   4.498
    1C        C   95   3.904   2.565   4.499
    1C        C   96   4.092   2.663   4.620
    1C        C   97   4.031   2.621   4.740
    1C        C   98   4.184   2.767   4.858
    1C        C   99   4.100   2.651   4.861
    1C        C  100   4.208   2.839   4.976
    1C        C  101   2.824   2.733   2.068
    1C        C  102   2.991   2.593   2.186
    1C        C  103   2.872   2.674   2.185
    1C        C  104   3.060   2.575   2.308
    1C        C  105   2.996   2.611   2.429
    1C        C  106   3.199   2.539   2.546
    1C        C  107   3.067   2.589   2.549
    1C        C  108   3.266   2.515   2.668
    1C        C  109   3.199   2.536   2.791
    1C        C  110   3.410   2.497   2.912
    1C        C  111   3.271   2.523   2.911
    1C        C  112   3.482   2.488   3.034
    1C        C  113   3.413   2.504   3.156
    1C        C  114   3.624   2.492   3.276
    1C        C  115   3.483   2.493   3.279
    1C        C  116   3.693   2.508   3.398
    1C        C  117   3.626   2.504   3.522
    1C        C  118   3.832   2.538   3.646
    1C        C  119   3.694   2.506   3.646
    1C        C  120   3.901   2.562   3.767
    1C        C  121   3.833   2.540   3.889
    1C        C  122   4.025   2.633   4.012
    1C        C  123   3.898   2.572   4.011
    1C        C  124   4.090   2.667   4.132
    1C        C  125   4.029   2.632   4.255
    1C        C  126   4.199   2.758   4.374
    1C        C  127   4.092   2.667   4.377
    1C        C  128   4.240   2.817   4.496
    1C        C  129   4.193   2.762   4.617
    1C        C  130   4.322   2.934   4.738
    1C        C  131   4.239   2.819   4.738
    1C        C  132   4.351   3.003   4.857
    1C        C  133   4.276   2.961   4.968
    1C        C  134   3.168   2.461   2.083
    1C        C  135   3.036   2.509   2.080
    1C        C  136   3.257   2.478   2.189
    1C        C  137   3.192   2.521   2.307
    1C        C  138   3.406   2.483   2.424
    1C        C  139   3.266   2.505   2.426
    1C        C  140   3.477   2.484   2.546
    1C        C  141   3.406   2.497   2.667
    1C        C  142   3.619   2.493   2.789
    1C        C  143   3.478   2.492   2.789
    1C        C  144   3.692   2.502   2.909
    1C        C  145   3.623   2.494   3.032
    1C        C  146   3.831   2.539   3.155
    1C        C  147   3.695   2.503   3.154
    1C        C  148   3.899   2.561   3.277
    1C        C  149   3.831   2.541   3.399
    1C        C  150   4.022   2.625   3.522
    1C        C  151   3.897   2.560   3.522
    1C        C  152   4.086   2.661   3.643
    1C        C  153   4.025   2.629   3.767
    1C        C  154   4.193   2.760   3.886
    1C        C  155   4.081   2.675   3.888
    1C        C  156   4.249   2.804   4.008
    1C        C  157   4.200   2.755   4.131
    1C        C  158   4.337   2.917   4.251
    1C        C  159   4.254   2.803   4.252
    1C        C  160   4.370   2.982   4.372
    1C        C  161   4.327   2.929   4.496
    1C        C  162   4.433   3.116   4.613
    1C        C  163   4.365   2.992   4.616
    1C        C  164   4.459   3.186   4.733
    1C        C  165   4.426   3.123   4.855
    1C        C  166   4.512   3.322   4.973
    1C        C  167   4.470   3.189   4.970
    1C        C  168   3.474   2.434   2.069
    1C        C  169   3.396   2.454   2.184
    1C        C  170   3.616   2.467   2.303
    1C        C  171   3.474   2.460   2.302
    1C        C  172   3.687   2.490   2.423
    1C        C  173   3.618   2.491   2.546
    1C        C  174   3.827   2.538   2.664
    1C        C  175   3.690   2.500   2.667
    1C        C  176   3.893   2.562   2.786
    1C        C  177   3.829   2.538   2.910
    1C        C  178   4.026   2.619   3.032
    1C        C  179   3.896   2.561   3.032
    1C        C  180   4.085   2.661   3.153
    1C        C  181   4.026   2.623   3.276
    1C        C  182   4.196   2.744   3.399
    1C        C  183   4.085   2.657   3.399
    1C        C  184   4.247   2.799   3.519
    1C        C  185   4.198   2.746   3.641
    1C        C  186   4.335   2.910   3.765
    1C        C  187   4.249   2.799   3.762
    1C        C  188   4.377   2.971   3.885
    1C        C  189   4.338   2.914   4.008
    1C        C  190   4.441   3.103   4.129
    1C        C  191   4.376   2.977   4.129
    1C        C  192   4.468   3.171   4.250
    1C        C  193   4.435   3.108   4.371
    1C        C  194   4.499   3.315   4.490
    1C        C  195   4.461   3.179   4.490
    1C        C  196   4.520   3.388   4.609
    1C        C  197   4.506   3.321   4.733
    1C        C  198   4.553   3.534   4.850
    1C        C  199   4.531   3.392   4.853
    1C        C  200   4.581   3.619   4.961
    1C        C  201   3.612   2.410   2.072
    1C        C  202   3.822   2.513   2.182
    1C        C  203   3.688   2.464   2.181
    1C        C  204   3.898   2.536   2.301
    1C        C  205   3.826   2.515   2.421
    1C        C  206   4.020   2.613   2.542
    1C        C  207   3.894   2.549   2.540
    1C        C  208   4.082   2.650   2.663
    1C        C  209   4.022   2.620   2.788
    1C        C  210   4.198   2.741   2.908
    1C        C  211   4.084   2.657   2.909
    1C        C  212   4.248   2.792   3.029
    1C        C  213   4.195   2.750   3.153
    1C        C  214   4.336   2.903   3.273
    1C        C  215   4.244   2.797   3.277
    1C        C  216   4.373   2.965   3.395
    1C        C  217   4.331   2.912   3.520
    1C        C  218   4.432   3.098   3.640
    1C        C  219   4.368   2.972   3.642
    1C        C  220   4.456   3.167   3.762
    1C        C  221   4.436   3.100   3.884
    1C        C  222   4.496   3.305   4.000
    1C        C  223   4.463   3.167   4.005
    1C        C  224   4.508   3.376   4.122
    1C        C  225   4.499   3.309   4.246
    1C        C  226   4.516   3.524   4.365
    1C        C  227   4.506   3.383   4.366
    1C        C  228   4.518   3.598   4.486
    1C        C  229   4.529   3.529   4.608
    1C        C  230   4.504   3.743   4.724
    1C        C  231   4.536   3.604   4.727
    1C        C  232   4.500   3.822   4.841
    1C        C  233   4.539   3.753   4.957
    1C        C  234   4.015   2.613   2.061
    1C        C  235   3.894   2.544   2.066
    1C        C  236   4.084   2.645   2.179
    1C        C  237   4.023   2.603   2.299
    1C        C  238   4.194   2.734   2.421
    1C        C  239   4.083   2.645   2.420
    1C        C  240   4.251   2.782   2.541
    1C        C  241   4.196   2.734   2.662
    1C        C  242   4.333   2.898   2.784
    1C        C  243   4.245   2.787   2.783
    1C        C  244   4.374   2.960   2.904
    1C        C  245   4.331   2.906   3.028
    1C        C  246   4.434   3.090   3.147
    1C        C  247   4.372   2.963   3.151
    1C        C  248   4.453   3.158   3.270
    1C        C  249   4.431   3.094   3.393
    1C        C  250   4.481   3.300   3.513
    1C        C  251   4.451   3.162   3.516
    1C        C  252   4.498   3.371   3.634
    1C        C  253   4.491   3.304   3.758
    1C        C  254   4.518   3.516   3.877
    1C        C  255   4.511   3.374   3.878
    1C        C  256   4.514   3.587   3.999
    1C        C  257   4.519   3.517   4.122
    1C        C  258   4.485   3.731   4.239
    1C        C  259   4.511   3.592   4.242
    1C        C  260   4.467   3.804   4.359
    1C        C  261   4.487   3.736   4.481
    1C        C  262   4.425   3.939   4.601
    1C        C  263   4.471   3.806   4.602
    1C        C  264   4.396   4.008   4.721
    1C        C  265   4.431   3.945   4.842
    1C        C  266   4.324   4.135   4.955
    1C        C  267   4.400   4.018   4.957
    1C        C  268   4.262   2.773   2.063
    1C        C  269   4.198   2.728   2.180
    1C        C  270   4.346   2.885   2.300
    1C        C  271   4.253   2.777   2.300
    1C        C  272   4.378   2.951   2.420
    1C        C  273   4.339   2.892   2.543
    1C        C  274   4.443   3.080   2.662
    1C        C  275   4.376   2.956   2.663
    1C        C  276   4.466   3.151   2.782
    1C        C  277   4.443   3.083   2.904
    1C        C  278   4.500   3.290   3.024
    1C        C  279   4.467   3.152   3.025
    1C        C  280   4.507   3.363   3.145
    1C        C  281   4.489   3.295   3.267
    1C        C  282   4.505   3.507   3.388
    1C        C  283   4.498   3.366   3.389
    1C        C  284   4.508   3.580   3.508
    1C        C  285   4.508   3.512   3.632
    1C        C  286   4.487   3.723   3.752
    1C        C  287   4.511   3.584   3.754
    1C        C  288   4.469   3.793   3.873
    1C        C  289   4.485   3.725   3.996
    1C        C  290   4.423   3.932   4.115
    1C        C  291   4.466   3.797   4.116
    1C        C  292   4.397   4.002   4.235
    1C        C  293   4.428   3.939   4.358
    1C        C  294   4.329   4.128   4.475
    1C        C  295   4.401   4.007   4.480
    1C        C  296   4.283   4.186   4.596
    1C        C  297   4.326   4.132   4.719
    1C        C  298   4.198   4.313   4.832
    1C        C  299   4.286   4.200   4.837
    1C        C  300   4.163   4.398   4.942
    1C        C  301   4.349   2.882   2.062
    1C        C  302   4.472   3.064   2.180
    1C        C  303   4.396   2.942   2.180
    1C        C  304   4.482   3.141   2.299
    1C        C  305   4.439   3.078   2.418
    1C        C  306   4.508   3.282   2.535
    1C        C  307   4.468   3.146   2.539
    1C        C  308   4.518   3.355   2.656
    1C        C  309   4.500   3.288   2.779
    1C        C  310   4.520   3.499   2.900
    1C        C  311   4.514   3.358   2.901
    1C        C  312   4.517   3.573   3.020
    1C        C  313   4.512   3.504   3.144
    1C        C  314   4.487   3.717   3.263
    1C        C  315   4.499   3.576   3.265
    1C        C  316   4.474   3.788   3.385
    1C        C  317   4.489   3.720   3.508
    1C        C  318   4.426   3.925   3.627
    1C        C  319   4.470   3.791   3.629
    1C        C  320   4.398   3.992   3.748
    1C        C  321   4.425   3.927   3.871
    1C        C  322   4.321   4.114   3.989
    1C        C  323   4.395   3.994   3.992
    1C        C  324   4.281   4.176   4.109
    1C        C  325   4.326   4.124   4.233
    1C        C  326   4.193   4.291   4.351
    1C        C  327   4.286   4.185   4.354
    1C        C  328   4.139   4.343   4.471
    1C        C  329   4.190   4.292   4.592
    1C        C  330   4.022   4.433   4.711
    1C        C  331   4.140   4.353   4.709
    1C        C  332   3.966   4.487   4.828
    1C        C  333   4.047   4.477   4.942
    1C        C  334   4.549   3.263   2.061
    1C        C  335   4.534   3.124   2.067
    1C        C  336   4.536   3.347   2.173
    1C        C  337   4.519   3.278   2.295
    1C        C  338   4.527   3.495   2.411
    1C        C  339   4.523   3.353   2.415
    1C        C  340   4.517   3.565   2.533
    1C        C  341   4.520   3.496   2.656
    1C        C  342   4.491   3.708   2.773
    1C        C  343   4.516   3.569   2.777
    1C        C  344   4.475   3.780   2.893
    1C        C  345   4.494   3.712   3.016
    1C        C  346   4.424   3.913   3.135
    1C        C  347   4.475   3.782   3.138
    1C        C  348   4.391   3.979   3.255
    1C        C  349   4.425   3.920   3.379
    1C        C  350   4.325   4.106   3.500
    1C        C  351   4.400   3.986   3.502
    1C        C  352   4.276   4.162   3.620
    1C        C  353   4.325   4.113   3.744
    1C        C  354   4.178   4.267   3.864
    1C        C  355   4.278   4.168   3.865
    1C        C  356   4.128   4.321   3.985
    1C        C  357   4.182   4.277   4.108
    1C        C  358   4.013   4.405   4.228
    1C        C  359   4.132   4.328   4.229
    1C        C  360   3.951   4.447   4.348
    1C        C  361   4.022   4.421   4.468
    1C        C  362   3.826   4.510   4.589
    1C        C  363   3.959   4.461   4.588
    1C        C  364   3.760   4.540   4.710
    1C        C  365   3.836   4.543   4.829
    1C        C  366   3.626   4.589   4.948
    1C        C  367   3.765   4.578   4.944
    1C        C  368   4.501   3.561   2.054
    1C        C  369   4.528   3.488   2.171
    1C        C  370   4.502   3.705   2.286
    1C        C  371   4.522   3.565   2.288
    1C        C  372   4.479   3.774   2.407
    1C        C  373   4.495   3.705   2.529
    1C        C  374   4.424   3.906   2.648
    1C        C  375   4.475   3.775   2.650
    1C        C  376   4.391   3.973   2.768
    1C        C  377   4.429   3.913   2.890
    1C        C  378   4.324   4.099   3.010
    1C        C  379   4.398   3.978   3.012
    1C        C  380   4.279   4.156   3.131
    1C        C  381   4.319   4.101   3.254
    1C        C  382   4.177   4.255   3.374
    1C        C  383   4.282   4.160   3.377
    1C        C  384   4.121   4.305   3.494
    1C        C  385   4.174   4.259   3.617
    1C        C  386   4.006   4.386   3.741
    1C        C  387   4.121   4.304   3.740
    1C        C  388   3.942   4.422   3.862
    1C        C  389   4.007   4.393   3.984
    1C        C  390   3.816   4.484   4.104
    1C        C  391   3.947   4.431   4.106
    1C        C  392   3.749   4.511   4.225
    1C        C  393   3.819   4.497   4.347
    1C        C  394   3.614   4.544   4.473
    1C        C  395   3.753   4.522   4.469
    1C        C  396   3.543   4.558   4.594
    1C        C  397   3.620   4.559   4.713
    1C        C  398   3.408   4.549   4.838
    1C        C  399   3.548   4.567   4.834
    1C        C  400   3.341   4.503   4.952
    1C        C  401   4.505   3.700   2.049
    1C        C  402   4.455   3.913   2.164
    1C        C  403   4.490   3.777   2.165
    1C        C  404   4.419   3.980   2.283
    1C        C  405   4.441   3.910   2.404
    1C        C  406   4.327   4.092   2.523
    1C        C  407   4.402   3.973   2.525
    1C        C  408   4.281   4.151   2.643
    1C        C  409   4.321   4.096   2.767
    1C        C  410   4.179   4.254   2.884
    1C        C  411   4.279   4.155   2.888
    1C        C  412   4.122   4.297   3.007
    1C        C  413   4.177   4.254   3.130
    1C        C  414   4.005   4.379   3.251
    1C        C  415   4.121   4.298   3.252
    1C        C  416   3.945   4.415   3.373
    1C        C  417   4.005   4.385   3.497
    1C        C  418   3.810   4.469   3.616
    1C        C  419   3.941   4.417   3.619
    1C        C  420   3.745   4.497   3.738
    1C        C  421   3.811   4.475   3.860
    1C        C  422   3.605   4.521   3.984
    1C        C  423   3.744   4.496   3.983
    1C        C  424   3.538   4.536   4.107
    1C        C  425   3.610   4.536   4.228
    1C        C  426   3.400   4.543   4.353
    1C        C  427   3.541   4.547   4.352
    1C        C  428   3.330   4.540   4.476
    1C        C  429   3.402   4.551   4.596
    1C        C  430   3.192   4.521   4.720
    1C        C  431   3.333   4.543   4.719
    1C        C  432   3.121   4.493   4.840
    1C        C  433   3.202   4.492   4.954
    1C        C  434   4.382   4.121   2.049
    1C        C  435   4.450   3.998   2.053
    1C        C  436   4.302   4.161   2.161
    1C        C  437   4.337   4.096   2.283
    1C        C  438   4.185   4.251   2.401
    1C        C  439   4.284   4.150   2.402
    1C        C  440   4.127   4.297   2.521
    1C        C  441   4.179   4.248   2.643
    1C        C  442   4.004   4.374   2.762
    1C        C  443   4.126   4.302   2.763
    1C        C  444   3.940   4.406   2.884
    1C        C  445   4.003   4.372   3.006
    1C        C  446   3.810   4.460   3.130
    1C        C  447   3.941   4.408   3.128
    1C        C  448   3.742   4.482   3.252
    1C        C  449   3.813   4.467   3.373
    1C        C  450   3.604   4.516   3.493
    1C        C  451   3.743   4.491   3.493
    1C        C  452   3.537   4.529   3.616
    1C        C  453   3.606   4.524   3.739
    1C        C  454   3.394   4.535   3.861
    1C        C  455   3.535   4.532   3.861
    1C        C  456   3.328   4.530   3.986
    1C        C  457   3.396   4.536   4.109
    1C        C  458   3.189   4.503   4.234
    1C        C  459   3.329   4.528   4.233
    1C        C  460   3.124   4.485   4.358
    1C        C  461   3.191   4.512   4.479
    1C        C  462   2.991   4.440   4.602
    1C        C  463   3.121   4.495   4.601
    1C        C  464   2.925   4.405   4.723
    1C        C  465   2.988   4.442   4.845
    1C        C  466   2.794   4.341   4.960
    1C        C  467   2.910   4.420   4.963
    1C        C  468   4.123   4.288   2.043
    1C        C  469   4.186   4.244   2.160
    1C        C  470   4.004   4.366   2.276
    1C        C  471   4.129   4.297   2.279
    1C        C  472   3.939   4.392   2.398
    1C        C  473   4.004   4.366   2.521
    1C        C  474   3.808   4.455   2.640
    1C        C  475   3.940   4.404   2.640
    1C        C  476   3.741   4.480   2.762
    1C        C  477   3.810   4.460   2.884
    1C        C  478   3.604   4.505   3.006
    1C        C  479   3.743   4.480   3.007
    1C        C  480   3.532   4.516   3.127
    1C        C  481   3.603   4.508   3.249
    1C        C  482   3.392   4.524   3.374
    1C        C  483   3.533   4.521   3.371
    1C        C  484   3.323   4.523   3.497
    1C        C  485   3.395   4.535   3.618
    1C        C  486   3.186   4.496   3.742
    1C        C  487   3.323   4.529   3.739
    1C        C  488   3.123   4.476   3.868
    1C        C  489   3.190   4.499   3.990
    1C        C  490   2.996   4.415   4.113
    1C        C  491   3.121   4.482   4.112
    1C        C  492   2.939   4.382   4.238
    1C        C  493   2.997   4.424   4.360
    1C        C  494   2.823   4.306   4.483
    1C        C  495   2.932   4.395   4.482
    1C        C  496   2.770   4.256   4.604
    1C        C  497   2.814   4.316   4.724
    1C        C  498   2.665   4.163   4.845
    1C        C  499   2.755   4.272   4.844
    1C        C  500   2.603   4.111   4.959
    1C        C  501   4.002   4.357   2.035
    1C        C  502   3.815   4.460   2.155
    1C        C  503   3.943   4.401   2.154
    1C        C  504   3.743   4.476   2.275
    1C        C  505   3.809   4.450   2.397
    1C        C  506   3.600   4.495   2.519
    1C        C  507   3.740   4.473   2.517
    1C        C  508   3.530   4.508   2.641
    1C        C  509   3.602   4.505   2.762
    1C        C  510   3.391   4.516   2.885
    1C        C  511   3.532   4.510   2.885
    1C        C  512   3.318   4.513   3.006
    1C        C  513   3.390   4.520   3.127
    1C        C  514   3.184   4.492   3.253
    1C        C  515   3.322   4.521   3.251
    1C        C  516   3.117   4.469   3.375
    1C        C  517   3.186   4.490   3.497
    1C        C  518   2.992   4.411   3.622
    1C        C  519   3.119   4.473   3.620
    1C        C  520   2.935   4.376   3.747
    1C        C  521   2.995   4.417   3.868
    1C        C  522   2.829   4.286   3.995
    1C        C  523   2.937   4.377   3.991
    1C        C  524   2.782   4.239   4.119
    1C        C  525   2.834   4.288   4.241
    1C        C  526   2.690   4.135   4.363
    1C        C  527   2.776   4.247   4.364
    1C        C  528   2.651   4.077   4.486
    1C        C  529   2.684   4.144   4.606
    1C        C  530   2.579   3.959   4.731
    1C        C  531   2.635   4.090   4.727
    1C        C  532   2.536   3.900   4.853
    1C        C  533   2.529   3.992   4.963
    1C        C  534   3.616   4.556   2.041
    1C        C  535   3.749   4.511   2.043
    1C        C  536   3.532   4.534   2.154
    1C        C  537   3.604   4.507   2.274
    1C        C  538   3.391   4.514   2.397
    1C        C  539   3.533   4.511   2.396
    1C        C  540   3.319   4.508   2.518
    1C        C  541   3.389   4.515   2.641
    1C        C  542   3.181   4.480   2.762
    1C        C  543   3.319   4.511   2.764
    1C        C  544   3.114   4.461   2.885
    1C        C  545   3.179   4.483   3.008
    1C        C  546   2.987   4.406   3.131
    1C        C  547   3.113   4.470   3.132
    1C        C  548   2.930   4.368   3.255
    1C        C  549   2.990   4.408   3.376
    1C        C  550   2.824   4.281   3.503
    1C        C  551   2.933   4.371   3.500
    1C        C  552   2.775   4.236   3.628
    1C        C  553   2.826   4.286   3.749
    1C        C  554   2.698   4.120   3.873
    1C        C  555   2.779   4.236   3.873
    1C        C  556   2.659   4.064   3.997
    1C        C  557   2.692   4.130   4.117
    1C        C  558   2.594   3.946   4.243
    1C        C  559   2.654   4.074   4.241
    1C        C  560   2.569   3.881   4.366
    1C        C  561   2.589   3.951   4.488
    1C        C  562   2.530   3.749   4.615
    1C        C  563   2.564   3.886   4.611
    1C        C  564   2.510   3.682   4.738
    1C        C  565   2.516   3.759   4.857
    1C        C  566   2.526   3.546   4.976
    1C        C  567   2.528   3.685   4.976
    1C        C  568   3.325   4.470   2.037
    1C        C  569   3.391   4.513   2.153
    1C        C  570   3.182   4.475   2.275
    1C        C  571   3.320   4.510   2.276
    1C        C  572   3.111   4.461   2.396
    1C        C  573   3.180   4.484   2.517
    1C        C  574   2.984   4.406   2.642
    1C        C  575   3.113   4.464   2.640
    1C        C  576   2.923   4.368   2.764
    1C        C  577   2.987   4.400   2.886
    1C        C  578   2.824   4.269   3.013
    1C        C  579   2.930   4.362   3.010
    1C        C  580   2.775   4.220   3.136
    1C        C  581   2.824   4.275   3.257
    1C        C  582   2.691   4.114   3.382
    1C        C  583   2.776   4.227   3.381
    1C        C  584   2.653   4.059   3.507
    1C        C  585   2.691   4.122   3.627
    1C        C  586   2.600   3.932   3.753
    1C        C  587   2.661   4.060   3.750
    1C        C  588   2.574   3.872   3.877
    1C        C  589   2.597   3.937   4.001
    1C        C  590   2.534   3.737   4.129
    1C        C  591   2.570   3.874   4.124
    1C        C  592   2.519   3.669   4.251
    1C        C  593   2.534   3.744   4.370
    1C        C  594   2.516   3.536   4.494
    1C        C  595   2.522   3.678   4.494
    1C        C  596   2.519   3.467   4.617
    1C        C  597   2.514   3.540   4.739
    1C        C  598   2.533   3.327   4.862
    1C        C  599   2.522   3.468   4.860
    1C        C  600   2.529   3.245   4.976
    1C        C  601   3.191   4.436   2.038
    1C        C  602   2.979   4.393   2.156
    1C        C  603   3.114   4.440   2.155
    1C        C  604   2.924   4.357   2.282
    1C        C  605   2.986   4.396   2.403
    1C        C  606   2.813   4.271   2.526
    1C        C  607   2.920   4.362   2.524
    1C        C  608   2.762   4.224   2.650
    1C        C  609   2.816   4.276   2.770
    1C        C  610   2.683   4.110   2.892
    1C        C  611   2.770   4.221   2.892
    1C        C  612   2.648   4.052   3.016
    1C        C  613   2.689   4.107   3.139
    1C        C  614   2.585   3.925   3.267
    1C        C  615   2.651   4.050   3.263
    1C        C  616   2.563   3.862   3.392
    1C        C  617   2.593   3.932   3.511
    1C        C  618   2.529   3.729   3.638
    1C        C  619   2.567   3.865   3.633
    1C        C  620   2.520   3.662   3.762
    1C        C  621   2.534   3.736   3.882
    1C        C  622   2.512   3.528   4.007
    1C        C  623   2.521   3.669   4.006
    1C        C  624   2.516   3.457   4.129
    1C        C  625   2.512   3.528   4.251
    1C        C  626   2.538   3.321   4.377
    1C        C  627   2.516   3.461   4.375
    1C        C  628   2.553   3.254   4.501
    1C        C  629   2.535   3.327   4.620
    1C        C  630   2.594   3.121   4.743
    1C        C  631   2.551   3.256   4.741
    1C        C  632   2.615   3.050   4.864
    1C        C  633   2.557   3.108   4.981
    1C        C  634   2.779   4.306   2.053
    1C        C  635   2.888   4.393   2.045
    1C        C  636   2.746   4.230   2.166
    1C        C  637   2.809   4.273   2.285
    1C        C  638   2.669   4.110   2.409
    1C        C  639   2.760   4.218   2.406
    1C        C  640   2.634   4.049   2.531
    1C        C  641   2.679   4.110   2.650
    1C        C  642   2.589   3.917   2.775
    1C        C  643   2.642   4.048   2.771
    1C        C  644   2.563   3.854   2.899
    1C        C  645   2.590   3.923   3.019
    1C        C  646   2.528   3.724   3.146
    1C        C  647   2.559   3.862   3.143
    1C        C  648   2.519   3.655   3.269
    1C        C  649   2.531   3.725   3.391
    1C        C  650   2.513   3.517   3.517
    1C        C  651   2.520   3.658   3.515
    1C        C  652   2.516   3.449   3.640
    1C        C  653   2.515   3.521   3.761
    1C        C  654   2.535   3.316   3.888
    1C        C  655   2.513   3.455   3.887
    1C        C  656   2.551   3.247   4.011
    1C        C  657   2.539   3.317   4.133
    1C        C  658   2.602   3.117   4.256
    1C        C  659   2.552   3.249   4.256
    1C        C  660   2.630   3.056   4.381
    1C        C  661   2.598   3.120   4.502
    1C        C  662   2.704   2.936   4.623
    1C        C  663   2.625   3.053   4.623
    1C        C  664   2.748   2.878   4.745
    1C        C  665   2.694   2.930   4.866
    1C        C  666   2.747   2.873   4.982
    1C        C  667   2.683   4.025   2.052
    1C        C  668   2.684   4.103   2.168
    1C        C  669   2.591   3.910   2.287
    1C        C  670   2.641   4.044   2.288
    1C        C  671   2.557   3.849   2.410
    1C        C  672   2.577   3.920   2.531
    1C        C  673   2.524   3.715   2.657
    1C        C  674   2.566   3.850   2.653
    1C        C  675   2.510   3.646   2.780
    1C        C  676   2.526   3.718   2.900
    1C        C  677   2.512   3.511   3.030
    1C        C  678   2.521   3.652   3.025
    1C        C  679   2.515   3.442   3.153
    1C        C  680   2.512   3.514   3.274
    1C        C  681   2.531   3.303   3.400
    1C        C  682   2.512   3.443   3.396
    1C        C  683   2.553   3.237   3.523
    1C        C  684   2.540   3.310   3.644
    1C        C  685   2.598   3.110   3.768
    1C        C  686   2.551   3.243   3.768
    1C        C  687   2.630   3.049   3.892
    1C        C  688   2.598   3.114   4.013
    1C        C  689   2.705   2.931   4.135
    1C        C  690   2.628   3.049   4.135
    1C        C  691   2.751   2.880   4.258
    1C        C  692   2.708   2.938   4.380
    1C        C  693   2.749   2.879   4.502
    1C        C  694   2.631   3.895   2.056
    1C        C  695   2.527   3.701   2.174
    1C        C  696   2.578   3.833   2.170
    1C        C  697   2.509   3.634   2.297
    1C        C  698   2.520   3.713   2.414
    1C        C  699   2.487   3.504   2.542
    1C        C  700   2.506   3.643   2.536
    1C        C  701   2.500   3.432   2.663
    1C        C  702   2.505   3.505   2.783
    1C        C  703   2.536   3.300   2.910
    1C        C  704   2.511   3.439   2.908
    1C        C  705   2.548   3.231   3.033
    1C        C  706   2.534   3.302   3.154
    1C        C  707   2.599   3.102   3.275
    1C        C  708   2.550   3.235   3.278
    1C        C  709   2.624   3.039   3.399
    1C        C  710   2.597   3.103   3.522
    1C        C  711   2.708   2.928   3.646
    1C        C  712   2.626   3.043   3.647
    1C        C  713   2.756   2.876   3.769
    1C        C  714   2.708   2.932   3.890
    1C        C  715   2.750   2.876   4.013
    1C        C  716   2.446   3.497   2.059
    1C        C  717   2.494   3.629   2.058
    1C        C  718   2.464   3.421   2.179
    1C        C  719   2.483   3.495   2.298
    1C        C  720   2.512   3.289   2.421
    1C        C  721   2.485   3.427   2.423
    1C        C  722   2.540   3.222   2.542
    1C        C  723   2.522   3.292   2.664
    1C        C  724   2.589   3.095   2.788
    1C        C  725   2.542   3.228   2.788
    1C        C  726   2.620   3.031   2.910
    1C        C  727   2.595   3.098   3.032
    1C        C  728   2.706   2.918   3.157
    1C        C  729   2.629   3.036   3.154
    1C        C  730   2.749   2.866   3.281
    1C        C  731   2.704   2.923   3.403
    1C        C  732   2.752   2.871   3.525
    1C        C  733   2.488   3.196   2.069
    1C        C  734   2.482   3.279   2.182
    1C        C  735   2.581   3.084   2.303
    1C        C  736   2.520   3.212   2.302
    1C        C  737   2.614   3.021   2.425
    1C        C  738   2.591   3.091   2.546
    1C        C  739   2.697   2.908   2.668
    1C        C  740   2.621   3.027   2.668
    1C        C  741   2.735   2.851   2.791
    1C        C  742   2.690   2.908   2.913
    1C        C  743   2.743   2.859   3.034
    1C        C  744   2.540   3.067   2.072
    1C        C  745   2.687   2.899   2.182
    1C        C  746   2.606   3.014   2.183
    1C        C  747   2.727   2.837   2.303
    1C        C  748   2.683   2.898   2.423
    1C        C  749   2.736   2.850   2.545
    1C        C  750   2.734   2.839   2.064
    1C        C  751   3.674   2.318   1.974
    1C        O  752   3.712   2.204   2.009
    1C        O  753   3.612   2.293   1.851
    1C        C  754   4.617   3.047   1.971
    1C        O  755   4.605   3.065   1.846
    1C        O  756   4.729   2.975   2.011
    1C        C  757   4.457   4.234   1.990
    1C        O  758   4.567   4.275   2.037
    1C        O  759   4.453   4.260   1.853
    1C        C  760   3.599   4.670   1.948
    1C        O  761   3.651   4.782   1.971
    1C        O  762   3.535   4.658   1.824
    1C        C  763   2.882   4.488   1.932
    1C        O  764   2.885   4.447   1.812
    1C        O  765   2.842   4.622   1.939
    1C        C  766   2.326   3.472   1.977
    1C        O  767   2.333   3.460   1.852
    1C        O  768   2.203   3.522   2.022
    1C        C  769   4.671   3.581   5.072
    1C        O  770   4.642   3.579   5.194
    1C        O  771   4.810   3.590   5.050
    1C        C  772   4.275   4.464   5.013
    1C        O  773   4.286   4.468   5.139
    1C        O  774   4.372   4.542   4.948
    1C        C  775   4.140   2.555   5.092
    1C        O  776   4.169   2.435   5.116
    1C        O  777   4.110   2.609   5.218
    1C        C  778   2.911   4.514   5.077
    1C        O  779   2.876   4.634   5.057
    1C        O  780   2.946   4.476   5.207
    1C        C  781   2.463   3.031   5.066
    1C        O  782   2.361   2.973   5.020
    1C        O  783   2.477   3.048   5.203
    1C        C  784   2.432   3.981   5.073
    1C        O  785   2.313   4.021   5.074
    1C        O  786   2.457   3.950   5.208
    1C        C  787   2.950   2.421   1.998
    1C        O  788   2.947   2.440   1.873
    1C        O  789   2.869   2.323   2.054
    1C        C  790   3.192   2.382   5.074
    1C        O  791   3.169   2.263   5.038
    1C        O  792   3.239   2.399   5.205
    1C        H  793   4.247   3.038   5.036
    1C        H  794   4.176   2.803   5.072
    1C        H  795   4.509   3.124   5.045
    1C        H  796   4.575   3.346   5.056
    1C        H  797   4.593   3.813   5.028
    1C        H  798   4.429   3.981   5.053
    1C        H  799   4.275   4.162   5.046
    1C        H  800   4.019   4.527   5.032
    1C        H  801   3.816   4.613   5.031
    1C        H  802   3.577   4.601   5.042
    1C        H  803   3.396   4.442   5.021
    1C        H  804   3.162   4.476   5.052
    1C        H  805   3.907   2.457   5.056
    1C        H  806   3.677   2.473   5.073
    1C        H  807   3.009   2.577   5.068
    1C        H  808   3.434   2.463   5.068
    1C        H  809   2.833   2.708   5.069
    1C        H  810   2.717   2.903   5.080
    1C        H  811   2.491   3.286   5.067
    1C        H  812   2.479   3.501   5.062
    1C        H  813   2.525   3.729   5.073
    1C        H  814   2.575   4.186   5.031
    1C        H  815   2.711   4.388   5.007
    1C        H  816   2.703   2.877   1.969
    1C        H  817   2.883   2.713   1.980
    1C        H  818   3.200   2.390   2.009
    1C        H  819   3.445   2.497   1.987
    1C        H  820   3.875   2.481   1.982
    1C        H  821   4.071   2.590   1.973
    1C        H  822   4.293   2.693   2.000
    1C        H  823   4.357   2.934   1.969
    1C        H  824   4.580   3.305   1.968
    1C        H  825   4.458   3.508   1.971
    1C        H  826   4.563   3.745   1.972
    1C        H  827   3.791   4.495   1.945
    1C        H  828   3.935   4.325   1.958
    1C        H  829   4.186   4.284   1.957
    1C        H  830   4.528   3.995   1.980
    1C        H  831   2.644   3.841   1.965
    1C        H  832   2.688   4.073   1.956
    1C        H  833   2.708   4.295   1.973
    1C        H  834   3.378   4.459   1.945
    1C        H  835   3.156   4.396   1.945
    1C        H  836   2.493   3.005   1.998
    1C        H  837   2.400   3.202   2.008
    1C        H  838   2.551   3.653   1.971
    2V3OU   H29  839   2.806   3.547   5.103
    2V3OU   C27  840   2.779   3.499   5.201
    2V3OU   H27  841   2.723   3.569   5.269
    2V3OU   H28  842   2.725   3.401   5.201
    2V3OU   O11  843   2.902   3.475   5.269
    2V3OU   C15  844   2.916   3.390   5.377
    2V3OU   C13  845   3.047   3.374   5.426
    2V3OU   C14  846   3.073   3.273   5.519
    2V3OU   C16  847   2.972   3.189   5.565
    2V3OU    H6  848   2.994   3.099   5.624
    2V3OU   C12  849   3.211   3.233   5.556
    2V3OU    O2  850   3.239   3.130   5.621
    2V3OU   C10  851   3.324   3.309   5.499
    2V3OU    C8  852   3.456   3.268   5.513
    2V3OU   O10  853   3.485   3.148   5.570
    2V3OU   H26  854   3.396   3.119   5.596
    2V3OU    C6  855   3.563   3.347   5.460
    2V3OU    C5  856   3.535   3.462   5.388
    2V3OU    C4  857   3.700   3.288   5.464
    2V3OU    H4  858   3.721   3.222   5.553
    2V3OU    H5  859   3.705   3.223   5.371
    2V3OU    C2  860   3.813   3.390   5.451
    2V3OU    O6  861   3.805   3.470   5.570
    2V3OU   H21  862   3.761   3.551   5.540
    2V3OU    C3  863   3.778   3.489   5.341
    2V3OU    H2  864   3.859   3.566   5.342
    2V3OU    H3  865   3.780   3.429   5.247
    2V3OU   C25  866   3.949   3.321   5.442
    2V3OU    O7  867   3.991   3.288   5.331
    2V3OU   C26  868   4.029   3.287   5.567
    2V3OU   H22  869   4.067   3.385   5.606
    2V3OU   H23  870   4.114   3.219   5.540
    2V3OU    O8  871   3.968   3.207   5.665
    2V3OU   H24  872   3.916   3.267   5.721
    2V3OU    C1  873   3.644   3.561   5.357
    2V3OU    H1  874   3.623   3.614   5.260
    2V3OU    O3  875   3.658   3.658   5.461
    2V3OU   C19  876   3.617   3.792   5.438
    2V3OU    H9  877   3.515   3.795   5.389
    2V3OU    O4  878   3.709   3.848   5.347
    2V3OU   C20  879   3.839   3.873   5.402
    2V3OU   H10  880   3.890   3.773   5.417
    2V3OU   C24  881   3.605   3.856   5.577
    2V3OU   H16  882   3.539   3.790   5.639
    2V3OU   H17  883   3.560   3.957   5.561
    2V3OU   C23  884   3.746   3.872   5.634
    2V3OU   H15  885   3.794   3.771   5.657
    2V3OU    N1  886   3.732   3.950   5.756
    2V3OU   H19  887   3.802   3.924   5.822
    2V3OU   H20  888   3.644   3.931   5.799
    2V3OU   C21  889   3.843   3.946   5.536
    2V3OU   H11  890   3.950   3.928   5.568
    2V3OU    O5  891   3.822   4.087   5.537
    2V3OU   H18  892   3.775   4.096   5.622
    2V3OU   C22  893   3.911   3.948   5.292
    2V3OU   H12  894   3.857   4.043   5.267
    2V3OU   H13  895   3.909   3.888   5.197
    2V3OU   H14  896   4.019   3.962   5.320
    2V3OU   C11  897   3.158   3.466   5.401
    2V3OU    O1  898   3.134   3.584   5.368
    2V3OU    C9  899   3.298   3.419   5.413
    2V3OU    C7  900   3.400   3.495   5.356
    2V3OU    O9  901   3.385   3.607   5.278
    2V3OU   H25  902   3.290   3.628   5.272
    2V3OU   C17  903   2.816   3.310   5.437
    2V3OU    H7  904   2.713   3.341   5.417
    2V3OU   C18  905   2.839   3.210   5.531
    2V3OU    H8  906   2.755   3.155   5.576
    3SOL     OW  907   3.893   3.710   4.159
    3SOL    HW1  908   3.848   3.798   4.149
    3SOL    HW2  909   3.882   3.656   4.075
    4SOL     OW  910   6.918   0.352   0.217
    4SOL    HW1  911   6.889   0.413   0.292
    4SOL    HW2  912   6.840   0.298   0.186
    5SOL     OW  913   5.153   1.965   1.326
    5SOL    HW1  914   5.088   2.041   1.333
    5SOL    HW2  915   5.235   1.995   1.277
    6SOL     OW  916   5.893   0.610   2.666
    6SOL    HW1  917   5.794   0.611   2.663
    6SOL    HW2  918   5.927   0.517   2.652
    7SOL     OW  919   1.307   4.033   4.462
    7SOL    HW1  920   1.284   4.080   4.547
    7SOL    HW2  921   1.382   4.081   4.417
    8SOL     OW  922   1.816   3.976   5.372
    8SOL    HW1  923   1.830   3.980   5.273
    8SOL    HW2  924   1.806   3.881   5.401
    9SOL     OW  925   6.847   0.770   6.118
    9SOL    HW1  926   6.784   0.833   6.162
    9SOL    HW2  927   6.810   0.742   6.029
   10SOL     OW  928   4.857   4.492   2.773
   10SOL    HW1  929   4.887   4.405   2.735
   10SOL    HW2  930   4.771   4.519   2.730
   11SOL     OW  931   2.433   1.434   0.113
   11SOL    HW1  932   2.510   1.404   0.056
   11SOL    HW2  933   2.445   1.401   0.206
   12SOL     OW  934   3.364   5.022   3.216
   12SOL    HW1  935   3.449   4.969   3.218
   12SOL    HW2  936   3.378   5.109   3.264
   13SOL     OW  937   5.121   6.324   1.253
   13SOL    HW1  938   5.153   6.272   1.332
   13SOL    HW2  939   5.088   6.413   1.284
   14SOL     OW  940   4.578   5.479   4.857
   14SOL    HW1  941   4.608   5.394   4.815
   14SOL    HW2  942   4.645   5.509   4.925
   15SOL     OW  943   6.761   6.469   6.022
   15SOL    HW1  944   6.734   6.502   5.931
   15SOL    HW2  945   6.855   6.434   6.018
   16SOL     OW  946   1.039   3.857   4.868
   16SOL    HW1  947   0.980   3.778   4.885
   16SOL    HW2  948   0.984   3.934   4.837
   17SOL     OW  949   6.400   1.968   5.213
   17SOL    HW1  950   6.352   1.882   5.230
   17SOL    HW2  951   6.443   1.964   5.123
   18SOL     OW  952   2.766   1.361   5.698
   18SOL    HW1  953   2.723   1.317   5.777
   18SOL    HW2  954   2.725   1.451   5.683
   19SOL     OW  955   2.462   0.873   3.229
   19SOL    HW1  956   2.421   0.784   3.208
   19SOL    HW2  957   2.548   0.882   3.179
   20SOL     OW  958   6.619   1.678   5.767
   20SOL    HW1  959   6.635   1.668   5.668
   20SOL    HW2  960   6.521   1.687   5.784
   21SOL     OW  961   2.937   4.840   3.490
   21SOL    HW1  962   2.877   4.913   3.457
   21SOL    HW2  963   3.031   4.858   3.460
   22SOL     OW  964   1.598   0.188   6.572
   22SOL    HW1  965   1.541   0.270   6.561
   22SOL    HW2  966   1.541   0.112   6.604
   23SOL     OW  967   6.070   4.811   1.324
   23SOL    HW1  968   6.036   4.739   1.263
   23SOL    HW2  969   6.022   4.896   1.305
   24SOL     OW  970   4.637   1.152   0.725
   24SOL    HW1  971   4.732   1.124   0.740
   24SOL    HW2  972   4.634   1.220   0.651
   25SOL     OW  973   1.108   1.080   4.776
   25SOL    HW1  974   1.085   1.176   4.796
   25SOL    HW2  975   1.153   1.040   4.856
   26SOL     OW  976   1.246   2.857   6.877
   26SOL    HW1  977   1.303   2.775   6.874
   26SOL    HW2  978   1.296   2.934   6.839
   27SOL     OW  979   6.359   0.940   1.012
   27SOL    HW1  980   6.328   0.857   1.058
   27SOL    HW2  981   6.419   0.915   0.936
   28SOL     OW  982   2.647   0.722   5.231
   28SOL    HW1  983   2.554   0.704   5.262
   28SOL    HW2  984   2.694   0.780   5.298
   29SOL     OW  985   0.727   0.458   1.039
   29SOL    HW1  986   0.753   0.554   1.037
   29SOL    HW2  987   0.752   0.419   1.128
   30SOL     OW  988   4.405   0.279   5.349
   30SOL    HW1  989   4.330   0.324   5.397
   30SOL    HW2  990   4.481   0.343   5.339
   31SOL     OW  991   0.934   3.852   5.724
   31SOL    HW1  992   0.964   3.777   5.664
   31SOL    HW2  993   1.012   3.885   5.777
   32SOL     OW  994   3.096   0.413   0.855
   32SOL    HW1  995   3.044   0.466   0.923
   32SOL    HW2  996   3.194   0.428   0.869
   33SOL     OW  997   1.521   5.439   6.065
   33SOL    HW1  998   1.519   5.527   6.018
   33SOL    HW2  999   1.566   5.450   6.154
   34SOL     OW 1000   2.240   5.412   5.231
   34SOL    HW1 1001   2.311   5.464   5.278
   34SOL    HW2 1002   2.206   5.339   5.290
   35SOL     OW 1003   2.477   3.390   6.942
   35SOL    HW1 1004   2.397   3.445   6.964
   35SOL    HW2 1005   2.545   3.447   6.896
   36SOL     OW 1006   4.459   1.178   4.833
   36SOL    HW1 1007   4.554   1.160   4.809
   36SOL    HW2 1008   4.413   1.092   4.853
   37SOL     OW 1009   3.069   0.484   4.231
   37SOL    HW1 1010   3.106   0.392   4.245
   37SOL    HW2 1011   2.973   0.477   4.202
   38SOL     OW 1012   0.029   4.208   2.900
   38SOL    HW1 1013   0.028   4.196   3.000
   38SOL    HW2 1014   0.091   4.283   2.877
   39SOL     OW 1015   6.652   5.403   6.713
   39SOL    HW1 1016   6.689   5.494   6.695
   39SOL    HW2 1017   6.552   5.407   6.720
   40SOL     OW 1018   4.008   1.087   6.765
   40SOL    HW1 1019   4.069   1.012   6.792
   40SOL    HW2 1020   3.934   1.094   6.831
   41SOL     OW 1021   5.630   3.773   1.763
   41SOL    HW1 1022   5.625   3.775   1.862
   41SOL    HW2 1023   5.559   3.833   1.724
   42SOL     OW 1024   2.437   5.695   6.268
   42SOL    HW1 1025   2.344   5.665   6.290
   42SOL    HW2 1026   2.433   5.786   6.226
   43SOL     OW 1027   3.850   0.011   4.647
   43SOL    HW1 1028   3.924   0.075   4.626
   43SOL    HW2 1029   3.865   6.945   4.597
   44SOL     OW 1030   6.899   0.993   5.724
   44SOL    HW1 1031   6.917   1.081   5.769
   44SOL    HW2 1032   6.817   1.002   5.667
   45SOL     OW 1033   2.893   5.518   0.124
   45SOL    HW1 1034   2.948   5.525   0.041
   45SOL    HW2 1035   2.900   5.426   0.162
   46SOL     OW 1036   0.350   2.755   4.106
   46SOL    HW1 1037   0.426   2.820   4.105
   46SOL    HW2 1038   0.276   2.791   4.049
   47SOL     OW 1039   5.785   2.990   0.742
   47SOL    HW1 1040   5.685   2.988   0.742
   47SOL    HW2 1041   5.819   2.899   0.718
   48SOL     OW 1042   6.647   3.537   0.985
   48SOL    HW1 1043   6.737   3.516   0.947
   48SOL    HW2 1044   6.649   3.523   1.084
   49SOL     OW 1045   4.140   4.215   0.308
   49SOL    HW1 1046   4.222   4.255   0.268
   49SOL    HW2 1047   4.166   4.137   0.366
   50SOL     OW 1048   6.469   3.060   0.184
   50SOL    HW1 1049   6.505   3.136   0.131
   50SOL    HW2 1050   6.371   3.051   0.166
   51SOL     OW 1051   2.391   5.933   3.007
   51SOL    HW1 1052   2.489   5.921   2.987
   51SOL    HW2 1053   2.356   6.010   2.954
   52SOL     OW 1054   5.646   2.415   1.346
   52SOL    HW1 1055   5.566   2.433   1.288
   52SOL    HW2 1056   5.652   2.487   1.415
   53SOL     OW 1057   4.205   0.090   2.126
   53SOL    HW1 1058   4.247   0.152   2.193
   53SOL    HW2 1059   4.180   0.004   2.171
   54SOL     OW 1060   5.512   6.979   6.737
   54SOL    HW1 1061   5.488   6.996   6.832
   54SOL    HW2 1062   5.450   0.010   6.677
   55SOL     OW 1063   0.728   3.358   6.730
   55SOL    HW1 1064   0.811   3.308   6.752
   55SOL    HW2 1065   0.744   3.415   6.649
   56SOL     OW 1066   0.961   2.942   6.852
   56SOL    HW1 1067   0.904   2.947   6.934
   56SOL    HW2 1068   1.045   2.892   6.874
   57SOL     OW 1069   4.521   6.612   6.931
   57SOL    HW1 1070   4.579   6.665   6.992
   57SOL    HW2 1071   4.476   6.673   6.865
   58SOL     OW 1072   0.658   0.175   6.956
   58SOL    HW1 1073   0.561   0.198   6.963
   58SOL    HW2 1074   0.671   0.102   6.890
   59SOL     OW 1075   5.074   3.065   5.985
   59SOL    HW1 1076   5.108   3.015   5.906
   59SOL    HW2 1077   5.122   3.034   6.067
   60SOL     OW 1078   5.079   0.705   2.812
   60SOL    HW1 1079   5.122   0.634   2.756
   60SOL    HW2 1080   5.143   0.734   2.883
   61SOL     OW 1081   6.496   5.941   4.514
   61SOL    HW1 1082   6.545   5.945   4.426
   61SOL    HW2 1083   6.429   5.867   4.511
   62SOL     OW 1084   6.170   2.659   2.277
   62SOL    HW1 1085   6.248   2.600   2.257
   62SOL    HW2 1086   6.115   2.617   2.349
   63SOL     OW 1087   4.282   6.753   4.979
   63SOL    HW1 1088   4.231   6.827   4.935
   63SOL    HW2 1089   4.266   6.668   4.930
   64SOL     OW 1090   0.704   4.202   5.944
   64SOL    HW1 1091   0.634   4.132   5.926
   64SOL    HW2 1092   0.777   4.162   5.999
   65SOL     OW 1093   0.727   0.095   5.493
   65SOL    HW1 1094   0.706   0.060   5.584
   65SOL    HW2 1095   0.775   0.182   5.501
   66SOL     OW 1096   4.265   0.719   2.038
   66SOL    HW1 1097   4.259   0.814   2.068
   66SOL    HW2 1098   4.260   0.659   2.118
   67SOL     OW 1099   0.472   2.857   1.561
   67SOL    HW1 1100   0.471   2.782   1.494
   67SOL    HW2 1101   0.527   2.830   1.640
   68SOL     OW 1102   6.978   1.922   5.187
   68SOL    HW1 1103   6.973   2.003   5.130
   68SOL    HW2 1104   6.890   1.906   5.232
   69SOL     OW 1105   0.767   5.953   6.240
   69SOL    HW1 1106   0.685   5.900   6.261
   69SOL    HW2 1107   0.783   6.021   6.312
   70SOL     OW 1108   5.222   3.301   4.295
   70SOL    HW1 1109   5.320   3.318   4.292
   70SOL    HW2 1110   5.184   3.307   4.202
   71SOL     OW 1111   5.248   1.727   4.937
   71SOL    HW1 1112   5.340   1.764   4.925
   71SOL    HW2 1113   5.214   1.749   5.028
   72SOL     OW 1114   0.189   0.786   3.686
   72SOL    HW1 1115   0.154   0.698   3.717
   72SOL    HW2 1116   0.166   0.799   3.590
   73SOL     OW 1117   3.077   0.854   1.311
   73SOL    HW1 1118   3.040   0.765   1.284
   73SOL    HW2 1119   3.005   0.910   1.352
   74SOL     OW 1120   2.211   1.988   0.712
   74SOL    HW1 1121   2.219   1.995   0.612
   74SOL    HW2 1122   2.281   2.045   0.755
   75SOL     OW 1123   3.623   3.756   0.431
   75SOL    HW1 1124   3.620   3.851   0.462
   75SOL    HW2 1125   3.692   3.706   0.482
   76SOL     OW 1126   3.264   4.759   5.315
   76SOL    HW1 1127   3.362   4.772   5.328
   76SOL    HW2 1128   3.237   4.670   5.352
   77SOL     OW 1129   1.033   4.520   4.677
   77SOL    HW1 1130   0.976   4.521   4.595
   77SOL    HW2 1131   1.100   4.594   4.673
   78SOL     OW 1132   4.591   1.886   1.001
   78SOL    HW1 1133   4.594   1.930   0.911
   78SOL    HW2 1134   4.655   1.810   1.003
   79SOL     OW 1135   1.525   4.461   3.138
   79SOL    HW1 1136   1.449   4.438   3.077
   79SOL    HW2 1137   1.565   4.548   3.110
   80SOL     OW 1138   4.137   0.858   5.032
   80SOL    HW1 1139   4.138   0.888   4.937
   80SOL    HW2 1140   4.066   0.789   5.045
   81SOL     OW 1141   3.867   5.836   1.434
   81SOL    HW1 1142   3.946   5.886   1.471
   81SOL    HW2 1143   3.785   5.862   1.485
   82SOL     OW 1144   2.569   6.460   2.127
   82SOL    HW1 1145   2.615   6.416   2.204
   82SOL    HW2 1146   2.552   6.392   2.056
   83SOL     OW 1147   5.170   0.792   4.576
   83SOL    HW1 1148   5.239   0.775   4.646
   83SOL    HW2 1149   5.128   0.881   4.591
   84SOL     OW 1150   5.129   2.413   2.119
   84SOL    HW1 1151   5.077   2.472   2.057
   84SOL    HW2 1152   5.184   2.469   2.181
   85SOL     OW 1153   2.095   0.220   4.390
   85SOL    HW1 1154   2.064   0.159   4.317
   85SOL    HW2 1155   2.127   0.166   4.467
   86SOL     OW 1156   6.126   0.247   6.958
   86SOL    HW1 1157   6.121   0.327   6.898
   86SOL    HW2 1158   6.174   0.272   0.023
   87SOL     OW 1159   2.597   4.431   6.555
   87SOL    HW1 1160   2.606   4.357   6.489
   87SOL    HW2 1161   2.500   4.452   6.569
   88SOL     OW 1162   3.701   4.189   0.191
   88SOL    HW1 1163   3.785   4.234   0.163
   88SOL    HW2 1164   3.716   4.090   0.196
   89SOL     OW 1165   3.041   3.842   4.158
   89SOL    HW1 1166   3.129   3.877   4.127
   89SOL    HW2 1167   3.026   3.867   4.254
   90SOL     OW 1168   4.867   3.861   2.459
   90SOL    HW1 1169   4.888   3.777   2.409
   90SOL    HW2 1170   4.883   3.940   2.400
   91SOL     OW 1171   4.776   5.173   5.271
   91SOL    HW1 1172   4.695   5.210   5.316
   91SOL    HW2 1173   4.829   5.247   5.230
   92SOL     OW 1174   5.761   3.708   6.286
   92SOL    HW1 1175   5.854   3.735   6.311
   92SOL    HW2 1176   5.760   3.676   6.191
   93SOL     OW 1177   2.934   3.293   2.272
   93SOL    HW1 1178   2.943   3.226   2.346
   93SOL    HW2 1179   2.841   3.330   2.272
   94SOL     OW 1180   2.871   1.545   4.890
   94SOL    HW1 1181   2.845   1.450   4.906
   94SOL    HW2 1182   2.837   1.573   4.800
   95SOL     OW 1183   0.701   0.868   3.986
   95SOL    HW1 1184   0.801   0.858   3.981
   95SOL    HW2 1185   0.659   0.778   3.993
   96SOL     OW 1186   6.389   4.743   0.508
   96SOL    HW1 1187   6.426   4.660   0.467
   96SOL    HW2 1188   6.320   4.782   0.447
   97SOL     OW 1189   2.048   5.056   5.704
   97SOL    HW1 1190   2.139   5.095   5.691
   97SOL    HW2 1191   2.026   5.054   5.802
   98SOL     OW 1192   1.749   2.348   3.087
   98SOL    HW1 1193   1.703   2.292   3.018
   98SOL    HW2 1194   1.798   2.423   3.041
   99SOL     OW 1195   3.709   3.437   5.001
   99SOL    HW1 1196   3.625   3.492   5.004
   99SOL    HW2 1197   3.789   3.497   5.007
  100SOL     OW 1198   6.533   1.395   4.621
  100SOL    HW1 1199   6.515   1.489   4.649
  100SOL    HW2 1200   6.446   1.348   4.604
  101SOL     OW 1201   6.497   3.530   2.365
  101SOL    HW1 1202   6.442   3.600   2.412
  101SOL    HW2 1203   6.519   3.562   2.273
  102SOL     OW 1204   4.325   6.968   0.049
  102SOL    HW1 1205   4.345   7.013   6.982
  102SOL    HW2 1206   4.406   6.967   0.107
  103SOL     OW 1207   3.439   0.949   2.132
  103SOL    HW1 1208   3.361   1.004   2.161
  103SOL    HW2 1209   3.449   0.954   2.033
  104SOL     OW 1210   6.847   4.310   2.319
  104SOL    HW1 1211   6.940   4.275   2.324
  104SOL    HW2 1212   6.800   4.272   2.239
  105SOL     OW 1213   6.355   1.111   5.547
  105SOL    HW1 1214   6.265   1.119   5.503
  105SOL    HW2 1215   6.387   1.202   5.575
  106SOL     OW 1216   5.119   4.934   1.717
  106SOL    HW1 1217   5.087   4.923   1.623
  106SOL    HW2 1218   5.080   5.018   1.756
  107SOL     OW 1219   6.231   6.809   1.006
  107SOL    HW1 1220   6.271   6.863   1.080
  107SOL    HW2 1221   6.147   6.853   0.975
  108SOL     OW 1222   2.151   1.376   4.543
  108SOL    HW1 1223   2.219   1.449   4.533
  108SOL    HW2 1224   2.193   1.288   4.523
  109SOL     OW 1225   1.779   1.130   4.297
  109SOL    HW1 1226   1.846   1.055   4.305
  109SOL    HW2 1227   1.700   1.110   4.354
  110SOL     OW 1228   3.523   4.205   5.471
  110SOL    HW1 1229   3.503   4.129   5.411
  110SOL    HW2 1230   3.495   4.183   5.564
  111SOL     OW 1231   6.268   1.764   1.489
  111SOL    HW1 1232   6.363   1.796   1.490
  111SOL    HW2 1233   6.247   1.721   1.577
  112SOL     OW 1234   4.892   6.235   6.678
  112SOL    HW1 1235   4.968   6.177   6.649
  112SOL    HW2 1236   4.879   6.309   6.612
  113SOL     OW 1237   0.448   6.018   2.234
  113SOL    HW1 1238   0.536   5.996   2.192
  113SOL    HW2 1239   0.462   6.077   2.313
  114SOL     OW 1240   0.422   3.722   2.778
  114SOL    HW1 1241   0.352   3.651   2.770
  114SOL    HW2 1242   0.466   3.716   2.867
  115SOL     OW 1243   5.515   0.221   3.681
  115SOL    HW1 1244   5.488   0.150   3.746
  115SOL    HW2 1245   5.609   0.249   3.698
  116SOL     OW 1246   6.933   4.925   0.364
  116SOL    HW1 1247   6.871   4.977   0.305
  116SOL    HW2 1248   7.006   4.985   0.397
  117SOL     OW 1249   1.885   2.200   0.442
  117SOL    HW1 1250   1.824   2.179   0.519
  117SOL    HW2 1251   1.948   2.123   0.428
  118SOL     OW 1252   1.128   2.308   3.811
  118SOL    HW1 1253   1.039   2.294   3.857
  118SOL    HW2 1254   1.198   2.255   3.858
  119SOL     OW 1255   6.138   6.846   5.862
  119SOL    HW1 1256   6.069   6.842   5.789
  119SOL    HW2 1257   6.227   6.866   5.821
  120SOL     OW 1258   4.974   2.690   4.884
  120SOL    HW1 1259   4.895   2.654   4.834
  120SOL    HW2 1260   5.025   2.752   4.824
  121SOL     OW 1261   1.112   4.790   6.786
  121SOL    HW1 1262   1.181   4.768   6.856
  121SOL    HW2 1263   1.039   4.722   6.789
  122SOL     OW 1264   0.521   4.344   6.494
  122SOL    HW1 1265   0.536   4.422   6.432
  122SOL    HW2 1266   0.432   4.354   6.539
  123SOL     OW 1267   1.027   1.603   1.670
  123SOL    HW1 1268   1.038   1.599   1.769
  123SOL    HW2 1269   1.039   1.698   1.639
  124SOL     OW 1270   2.171   2.624   0.485
  124SOL    HW1 1271   2.085   2.585   0.452
  124SOL    HW2 1272   2.230   2.551   0.519
  125SOL     OW 1273   4.067   3.750   0.482
  125SOL    HW1 1274   4.050   3.686   0.406
  125SOL    HW2 1275   4.086   3.698   0.565
  126SOL     OW 1276   3.962   3.640   4.614
  126SOL    HW1 1277   4.022   3.594   4.679
  126SOL    HW2 1278   4.009   3.651   4.527
  127SOL     OW 1279   0.608   5.497   5.510
  127SOL    HW1 1280   0.576   5.427   5.574
  127SOL    HW2 1281   0.535   5.565   5.496
  128SOL     OW 1282   4.230   3.195   6.946
  128SOL    HW1 1283   4.164   3.259   6.987
  128SOL    HW2 1284   4.295   3.166   7.016
  129SOL     OW 1285   1.305   5.298   1.785
  129SOL    HW1 1286   1.246   5.309   1.704
  129SOL    HW2 1287   1.299   5.380   1.841
  130SOL     OW 1288   6.286   2.963   4.358
  130SOL    HW1 1289   6.247   3.055   4.363
  130SOL    HW2 1290   6.374   2.960   4.406
  131SOL     OW 1291   0.563   2.105   3.753
  131SOL    HW1 1292   0.574   2.007   3.739
  131SOL    HW2 1293   0.524   2.122   3.844
  132SOL     OW 1294   3.965   3.511   2.341
  132SOL    HW1 1295   4.048   3.456   2.355
  132SOL    HW2 1296   3.962   3.586   2.406
  133SOL     OW 1297   5.369   6.335   6.463
  133SOL    HW1 1298   5.321   6.326   6.550
  133SOL    HW2 1299   5.426   6.418   6.465
  134SOL     OW 1300   5.291   1.556   1.619
  134SOL    HW1 1301   5.306   1.649   1.587
  134SOL    HW2 1302   5.256   1.557   1.712
  135SOL     OW 1303   4.943   2.864   3.512
  135SOL    HW1 1304   5.029   2.830   3.551
  135SOL    HW2 1305   4.957   2.957   3.476
  136SOL     OW 1306   3.521   0.033   6.736
  136SOL    HW1 1307   3.554   0.073   6.821
  136SOL    HW2 1308   3.486   6.960   6.754
  137SOL     OW 1309   3.197   3.192   6.002
  137SOL    HW1 1310   3.185   3.290   6.018
  137SOL    HW2 1311   3.122   3.141   6.046
  138SOL     OW 1312   0.949   5.473   6.448
  138SOL    HW1 1313   0.901   5.460   6.535
  138SOL    HW2 1314   0.893   5.436   6.373
  139SOL     OW 1315   1.892   6.228   0.750
  139SOL    HW1 1316   1.902   6.278   0.836
  139SOL    HW2 1317   1.974   6.240   0.694
  140SOL     OW 1318   3.276   0.328   1.204
  140SOL    HW1 1319   3.374   0.328   1.184
  140SOL    HW2 1320   3.262   0.337   1.303
  141SOL     OW 1321   6.874   2.615   0.556
  141SOL    HW1 1322   6.879   2.673   0.637
  141SOL    HW2 1323   6.782   2.620   0.517
  142SOL     OW 1324   1.314   4.307   1.882
  142SOL    HW1 1325   1.407   4.342   1.892
  142SOL    HW2 1326   1.288   4.310   1.786
  143SOL     OW 1327   5.173   6.176   1.941
  143SOL    HW1 1328   5.205   6.165   1.847
  143SOL    HW2 1329   5.242   6.224   1.995
  144SOL     OW 1330   3.174   5.179   4.125
  144SOL    HW1 1331   3.184   5.087   4.163
  144SOL    HW2 1332   3.152   5.173   4.028
  145SOL     OW 1333   6.948   4.901   2.986
  145SOL    HW1 1334   6.896   4.887   3.071
  145SOL    HW2 1335   0.010   4.956   3.005
  146SOL     OW 1336   5.682   1.062   6.394
  146SOL    HW1 1337   5.645   1.016   6.313
  146SOL    HW2 1338   5.765   1.111   6.368
  147SOL     OW 1339   5.257   0.859   5.072
  147SOL    HW1 1340   5.260   0.928   5.144
  147SOL    HW2 1341   5.164   0.850   5.038
  148SOL     OW 1342   0.792   5.445   0.765
  148SOL    HW1 1343   0.837   5.438   0.676
  148SOL    HW2 1344   0.693   5.443   0.753
  149SOL     OW 1345   2.004   2.773   5.398
  149SOL    HW1 1346   2.001   2.802   5.302
  149SOL    HW2 1347   2.018   2.674   5.401
  150SOL     OW 1348   4.402   1.542   5.047
  150SOL    HW1 1349   4.383   1.556   4.950
  150SOL    HW2 1350   4.500   1.550   5.064
  151SOL     OW 1351   3.861   2.925   0.892
  151SOL    HW1 1352   3.889   3.021   0.894
  151SOL    HW2 1353   3.817   2.906   0.804
  152SOL     OW 1354   0.697   2.349   0.834
  152SOL    HW1 1355   0.796   2.350   0.846
  152SOL    HW2 1356   0.658   2.435   0.867
  153SOL     OW 1357   3.199   1.201   3.500
  153SOL    HW1 1358   3.285   1.175   3.543
  153SOL    HW2 1359   3.125   1.144   3.535
  154SOL     OW 1360   6.445   1.518   2.539
  154SOL    HW1 1361   6.512   1.582   2.577
  154SOL    HW2 1362   6.467   1.425   2.569
  155SOL     OW 1363   0.543   6.739   2.234
  155SOL    HW1 1364   0.476   6.755   2.307
  155SOL    HW2 1365   0.497   6.738   2.145
  156SOL     OW 1366   4.820   2.615   0.609
  156SOL    HW1 1367   4.793   2.524   0.641
  156SOL    HW2 1368   4.842   2.673   0.687
  157SOL     OW 1369   3.652   5.387   0.566
  157SOL    HW1 1370   3.749   5.370   0.550
  157SOL    HW2 1371   3.620   5.331   0.642
  158SOL     OW 1372   0.429   2.596   3.564
  158SOL    HW1 1373   0.345   2.548   3.540
  158SOL    HW2 1374   0.489   2.533   3.614
  159SOL     OW 1375   6.032   5.205   0.747
  159SOL    HW1 1376   6.006   5.111   0.771
  159SOL    HW2 1377   5.951   5.262   0.744
  160SOL     OW 1378   6.673   6.898   2.013
  160SOL    HW1 1379   6.740   6.972   2.012
  160SOL    HW2 1380   6.582   6.935   1.994
  161SOL     OW 1381   0.298   6.594   0.714
  161SOL    HW1 1382   0.350   6.666   0.668
  161SOL    HW2 1383   0.233   6.553   0.650
  162SOL     OW 1384   4.777   6.863   6.907
  162SOL    HW1 1385   4.838   6.942   6.916
  162SOL    HW2 1386   4.742   6.858   6.814
  163SOL     OW 1387   0.146   3.861   3.014
  163SOL    HW1 1388   0.071   3.813   2.968
  163SOL    HW2 1389   0.108   3.924   3.081
  164SOL     OW 1390   2.340   2.348   3.630
  164SOL    HW1 1391   2.362   2.406   3.552
  164SOL    HW2 1392   2.344   2.252   3.603
  165SOL     OW 1393   0.176   6.136   3.391
  165SOL    HW1 1394   0.250   6.102   3.450
  165SOL    HW2 1395   0.144   6.224   3.426
  166SOL     OW 1396   6.822   4.337   3.586
  166SOL    HW1 1397   6.854   4.298   3.672
  166SOL    HW2 1398   6.770   4.269   3.535
  167SOL     OW 1399   3.191   2.224   0.066
  167SOL    HW1 1400   3.227   2.212   6.993
  167SOL    HW2 1401   3.093   2.205   0.066
  168SOL     OW 1402   5.033   4.358   1.469
  168SOL    HW1 1403   4.968   4.318   1.404
  168SOL    HW2 1404   5.016   4.320   1.560
  169SOL     OW 1405   4.881   2.550   0.908
  169SOL    HW1 1406   4.874   2.646   0.880
  169SOL    HW2 1407   4.960   2.508   0.863
  170SOL     OW 1408   0.062   6.087   2.410
  170SOL    HW1 1409   0.035   6.129   2.323
  170SOL    HW2 1410   0.036   5.990   2.409
  171SOL     OW 1411   3.442   3.960   0.553
  171SOL    HW1 1412   3.478   4.031   0.492
  171SOL    HW2 1413   3.457   3.987   0.648
  172SOL     OW 1414   0.034   2.160   6.730
  172SOL    HW1 1415   0.120   2.111   6.720
  172SOL    HW2 1416   0.051   2.258   6.742
  173SOL     OW 1417   6.813   1.566   4.044
  173SOL    HW1 1418   6.805   1.596   3.949
  173SOL    HW2 1419   6.723   1.569   4.088
  174SOL     OW 1420   5.785   5.379   5.470
  174SOL    HW1 1421   5.729   5.311   5.518
  174SOL    HW2 1422   5.831   5.336   5.392
  175SOL     OW 1423   0.550   0.274   0.978
  175SOL    HW1 1424   0.620   0.343   0.998
  175SOL    HW2 1425   0.553   0.252   0.880
  176SOL     OW 1426   5.799   4.122   1.655
  176SOL    HW1 1427   5.826   4.218   1.667
  176SOL    HW2 1428   5.778   4.106   1.558
  177SOL     OW 1429   5.913   3.017   4.399
  177SOL    HW1 1430   5.935   3.074   4.477
  177SOL    HW2 1431   5.815   2.997   4.398
  178SOL     OW 1432   1.991   6.210   6.102
  178SOL    HW1 1433   2.075   6.186   6.151
  178SOL    HW2 1434   1.985   6.156   6.018
  179SOL     OW 1435   3.104   4.742   1.274
  179SOL    HW1 1436   3.040   4.771   1.345
  179SOL    HW2 1437   3.112   4.813   1.205
  180SOL     OW 1438   4.065   1.149   0.511
  180SOL    HW1 1439   4.044   1.195   0.425
  180SOL    HW2 1440   4.162   1.123   0.512
  181SOL     OW 1441   3.057   2.214   5.595
  181SOL    HW1 1442   3.107   2.228   5.681
  181SOL    HW2 1443   3.050   2.301   5.546
  182SOL     OW 1444   4.272   2.643   0.040
  182SOL    HW1 1445   4.172   2.648   0.037
  182SOL    HW2 1446   4.302   2.644   0.136
  183SOL     OW 1447   3.430   1.506   3.322
  183SOL    HW1 1448   3.501   1.533   3.388
  183SOL    HW2 1449   3.346   1.484   3.372
  184SOL     OW 1450   5.225   5.966   3.407
  184SOL    HW1 1451   5.195   5.872   3.421
  184SOL    HW2 1452   5.234   5.983   3.308
  185SOL     OW 1453   6.803   0.699   3.857
  185SOL    HW1 1454   6.765   0.783   3.894
  185SOL    HW2 1455   6.748   0.668   3.779
  186SOL     OW 1456   4.266   6.521   3.722
  186SOL    HW1 1457   4.183   6.512   3.668
  186SOL    HW2 1458   4.335   6.571   3.669
  187SOL     OW 1459   4.325   6.490   1.898
  187SOL    HW1 1460   4.420   6.520   1.904
  187SOL    HW2 1461   4.322   6.392   1.877
  188SOL     OW 1462   1.502   3.520   3.606
  188SOL    HW1 1463   1.512   3.501   3.704
  188SOL    HW2 1464   1.425   3.583   3.593
  189SOL     OW 1465   6.109   4.874   6.261
  189SOL    HW1 1466   6.152   4.924   6.186
  189SOL    HW2 1467   6.065   4.791   6.225
  190SOL     OW 1468   5.756   0.464   6.913
  190SOL    HW1 1469   5.804   0.550   6.895
  190SOL    HW2 1470   5.809   0.388   6.875
  191SOL     OW 1471   6.866   1.360   5.122
  191SOL    HW1 1472   6.823   1.449   5.102
  191SOL    HW2 1473   6.964   1.372   5.132
  192SOL     OW 1474   0.530   5.503   0.739
  192SOL    HW1 1475   0.441   5.519   0.781
  192SOL    HW2 1476   0.520   5.503   0.640
  193SOL     OW 1477   2.852   6.002   6.969
  193SOL    HW1 1478   2.785   6.075   6.985
  193SOL    HW2 1479   2.804   5.917   6.946
  194SOL     OW 1480   4.068   6.351   2.296
  194SOL    HW1 1481   3.972   6.325   2.306
  194SOL    HW2 1482   4.117   6.277   2.249
  195SOL     OW 1483   3.853   1.078   0.843
  195SOL    HW1 1484   3.924   1.148   0.854
  195SOL    HW2 1485   3.777   1.097   0.906
  196SOL     OW 1486   2.914   1.600   0.129
  196SOL    HW1 1487   3.007   1.569   0.113
  196SOL    HW2 1488   2.864   1.603   0.042
  197SOL     OW 1489   2.369   7.018   0.268
  197SOL    HW1 1490   2.435   0.073   0.265
  197SOL    HW2 1491   2.278   0.032   0.242
  198SOL     OW 1492   4.660   0.660   6.334
  198SOL    HW1 1493   4.645   0.579   6.278
  198SOL    HW2 1494   4.584   0.724   6.322
  199SOL     OW 1495   0.126   7.019   3.366
  199SOL    HW1 1496   0.044   0.037   3.322
  199SOL    HW2 1497   0.194   6.996   3.297
  200SOL     OW 1498   0.519   3.974   3.356
  200SOL    HW1 1499   0.492   4.061   3.396
  200SOL    HW2 1500   0.490   3.971   3.260
  201SOL     OW 1501   4.204   1.038   6.431
  201SOL    HW1 1502   4.237   0.967   6.493
  201SOL    HW2 1503   4.162   1.112   6.483
  202SOL     OW 1504   3.109   0.127   2.950
  202SOL    HW1 1505   3.184   0.174   2.996
  202SOL    HW2 1506   3.032   0.118   3.012
  203SOL     OW 1507   5.742   2.951   6.562
  203SOL    HW1 1508   5.662   3.011   6.562
  203SOL    HW2 1509   5.818   2.997   6.515
  204SOL     OW 1510   2.355   6.867   1.116
  204SOL    HW1 1511   2.286   6.797   1.134
  204SOL    HW2 1512   2.441   6.822   1.091
  205SOL     OW 1513   5.914   1.373   0.317
  205SOL    HW1 1514   5.962   1.461   0.316
  205SOL    HW2 1515   5.955   1.312   0.250
  206SOL     OW 1516   1.160   4.359   1.657
  206SOL    HW1 1517   1.209   4.439   1.621
  206SOL    HW2 1518   1.073   4.387   1.696
  207SOL     OW 1519   4.809   0.358   5.536
  207SOL    HW1 1520   4.777   0.440   5.583
  207SOL    HW2 1521   4.880   0.313   5.590
  208SOL     OW 1522   3.927   4.840   6.277
  208SOL    HW1 1523   3.989   4.887   6.340
  208SOL    HW2 1524   3.980   4.786   6.212
  209SOL     OW 1525   6.957   5.765   5.637
  209SOL    HW1 1526   6.963   5.697   5.709
  209SOL    HW2 1527   6.867   5.808   5.638
  210SOL     OW 1528   3.828   2.596   1.606
  210SOL    HW1 1529   3.760   2.524   1.622
  210SOL    HW2 1530   3.813   2.637   1.516
  211SOL     OW 1531   1.836   2.004   1.397
  211SOL    HW1 1532   1.794   2.015   1.307
  211SOL    HW2 1533   1.925   1.960   1.387
  212SOL     OW 1534   0.519   5.727   3.607
  212SOL    HW1 1535   0.496   5.699   3.700
  212SOL    HW2 1536   0.457   5.681   3.543
  213SOL     OW 1537   4.762   2.188   0.259
  213SOL    HW1 1538   4.823   2.267   0.261
  213SOL    HW2 1539   4.668   2.219   0.242
  214SOL     OW 1540   1.388   0.680   3.330
  214SOL    HW1 1541   1.400   0.616   3.406
  214SOL    HW2 1542   1.391   0.630   3.243
  215SOL     OW 1543   3.448   3.245   2.825
  215SOL    HW1 1544   3.357   3.270   2.859
  215SOL    HW2 1545   3.506   3.326   2.822
  216SOL     OW 1546   0.822   6.263   5.875
  216SOL    HW1 1547   0.901   6.318   5.848
  216SOL    HW2 1548   0.848   6.167   5.884
  217SOL     OW 1549   0.941   2.976   3.230
  217SOL    HW1 1550   0.936   2.959   3.132
  217SOL    HW2 1551   0.999   2.908   3.274
  218SOL     OW 1552   1.226   4.202   5.575
  218SOL    HW1 1553   1.315   4.161   5.557
  218SOL    HW2 1554   1.220   4.229   5.671
  219SOL     OW 1555   4.936   5.304   0.112
  219SOL    HW1 1556   4.942   5.373   0.040
  219SOL    HW2 1557   5.027   5.271   0.135
  220SOL     OW 1558   3.178   4.855   0.979
  220SOL    HW1 1559   3.159   4.934   0.921
  220SOL    HW2 1560   3.093   4.808   1.001
  221SOL     OW 1561   5.953   2.248   4.522
  221SOL    HW1 1562   5.938   2.197   4.607
  221SOL    HW2 1563   5.884   2.222   4.454
  222SOL     OW 1564   1.019   6.542   5.256
  222SOL    HW1 1565   1.089   6.470   5.257
  222SOL    HW2 1566   0.966   6.534   5.172
  223SOL     OW 1567   6.518   3.699   1.417
  223SOL    HW1 1568   6.503   3.752   1.500
  223SOL    HW2 1569   6.616   3.681   1.406
  224SOL     OW 1570   3.096   2.290   1.694
  224SOL    HW1 1571   3.189   2.328   1.686
  224SOL    HW2 1572   3.038   2.355   1.743
  225SOL     OW 1573   6.190   0.468   6.706
  225SOL    HW1 1574   6.234   0.426   6.627
  225SOL    HW2 1575   6.249   0.539   6.743
  226SOL     OW 1576   6.472   5.939   1.013
  226SOL    HW1 1577   6.391   5.984   0.976
  226SOL    HW2 1578   6.522   5.894   0.938
  227SOL     OW 1579   1.807   2.907   4.098
  227SOL    HW1 1580   1.798   2.873   4.192
  227SOL    HW2 1581   1.890   2.962   4.090
  228SOL     OW 1582   4.078   0.114   3.516
  228SOL    HW1 1583   4.151   0.097   3.449
  228SOL    HW2 1584   4.090   0.204   3.557
  229SOL     OW 1585   6.007   5.503   2.725
  229SOL    HW1 1586   6.010   5.524   2.823
  229SOL    HW2 1587   6.030   5.406   2.712
  230SOL     OW 1588   1.740   4.651   5.267
  230SOL    HW1 1589   1.657   4.647   5.212
  230SOL    HW2 1590   1.787   4.738   5.252
  231SOL     OW 1591   0.626   2.199   6.688
  231SOL    HW1 1592   0.700   2.257   6.654
  231SOL    HW2 1593   0.658   2.146   6.767
  232SOL     OW 1594   1.933   4.623   6.757
  232SOL    HW1 1595   1.942   4.529   6.789
  232SOL    HW2 1596   1.934   4.624   6.657
  233SOL     OW 1597   2.554   1.074   6.128
  233SOL    HW1 1598   2.587   1.120   6.210
  233SOL    HW2 1599   2.620   1.087   6.054
  234SOL     OW 1600   2.657   5.916   0.252
  234SOL    HW1 1601   2.624   6.010   0.245
  234SOL    HW2 1602   2.739   5.905   0.196
  235SOL     OW 1603   3.134   3.531   5.052
  235SOL    HW1 1604   3.075   3.586   5.112
  235SOL    HW2 1605   3.093   3.441   5.038
  236SOL     OW 1606   0.155   2.164   4.822
  236SOL    HW1 1607   0.233   2.224   4.802
  236SOL    HW2 1608   0.188   2.080   4.866
  237SOL     OW 1609   0.309   0.134   1.400
  237SOL    HW1 1610   0.278   0.148   1.494
  237SOL    HW2 1611   0.323   0.037   1.383
  238SOL     OW 1612   5.757   2.464   2.572
  238SOL    HW1 1613   5.793   2.373   2.551
  238SOL    HW2 1614   5.699   2.460   2.653
  239SOL     OW 1615   0.163   5.899   0.307
  239SOL    HW1 1616   0.160   5.980   0.365
  239SOL    HW2 1617   0.157   5.927   0.211
  240SOL     OW 1618   6.821   3.444   5.843
  240SOL    HW1 1619   6.744   3.411   5.788
  240SOL    HW2 1620   6.868   3.517   5.793
  241SOL     OW 1621   0.683   0.670   3.224
  241SOL    HW1 1622   0.705   0.739   3.155
  241SOL    HW2 1623   0.685   0.711   3.315
  242SOL     OW 1624   1.648   3.529   4.128
  242SOL    HW1 1625   1.677   3.539   4.032
  242SOL    HW2 1626   1.550   3.548   4.135
  243SOL     OW 1627   4.764   0.178   5.308
  243SOL    HW1 1628   4.765   0.249   5.379
  243SOL    HW2 1629   4.734   0.092   5.348
  244SOL     OW 1630   6.327   2.409   5.845
  244SOL    HW1 1631   6.248   2.366   5.887
  244SOL    HW2 1632   6.315   2.509   5.846
  245SOL     OW 1633   6.099   1.544   3.613
  245SOL    HW1 1634   6.125   1.632   3.573
  245SOL    HW2 1635   6.179   1.485   3.618
  246SOL     OW 1636   5.353   3.433   3.223
  246SOL    HW1 1637   5.441   3.445   3.268
  246SOL    HW2 1638   5.365   3.437   3.124
  247SOL     OW 1639   2.830   1.881   3.295
  247SOL    HW1 1640   2.749   1.855   3.243
  247SOL    HW2 1641   2.813   1.870   3.393
  248SOL     OW 1642   5.909   1.442   2.820
  248SOL    HW1 1643   5.820   1.484   2.801
  248SOL    HW2 1644   5.920   1.360   2.763
  249SOL     OW 1645   3.713   0.184   3.880
  249SOL    HW1 1646   3.623   0.147   3.905
  249SOL    HW2 1647   3.777   0.167   3.955
  250SOL     OW 1648   4.764   2.853   5.997
  250SOL    HW1 1649   4.750   2.936   5.943
  250SOL    HW2 1650   4.832   2.870   6.069
  251SOL     OW 1651   3.058   2.387   1.242
  251SOL    HW1 1652   3.057   2.352   1.148
  251SOL    HW2 1653   3.031   2.483   1.242
  252SOL     OW 1654   0.445   1.227   5.799
  252SOL    HW1 1655   0.401   1.311   5.768
  252SOL    HW2 1656   0.536   1.249   5.836
  253SOL     OW 1657   2.822   3.662   6.102
  253SOL    HW1 1658   2.775   3.636   6.018
  253SOL    HW2 1659   2.874   3.584   6.137
  254SOL     OW 1660   5.863   3.124   5.121
  254SOL    HW1 1661   5.809   3.117   5.037
  254SOL    HW2 1662   5.809   3.089   5.198
  255SOL     OW 1663   3.205   2.055   4.417
  255SOL    HW1 1664   3.297   2.042   4.381
  255SOL    HW2 1665   3.186   1.985   4.487
  256SOL     OW 1666   6.170   5.489   6.558
  256SOL    HW1 1667   6.072   5.510   6.565
  256SOL    HW2 1668   6.195   5.429   6.634
  257SOL     OW 1669   3.279   5.963   6.053
  257SOL    HW1 1670   3.208   5.941   6.120
  257SOL    HW2 1671   3.250   5.931   5.962
  258SOL     OW 1672   5.393   4.314   4.027
  258SOL    HW1 1673   5.348   4.281   4.110
  258SOL    HW2 1674   5.473   4.257   4.008
  259SOL     OW 1675   1.131   2.720   2.724
  259SOL    HW1 1676   1.184   2.801   2.699
  259SOL    HW2 1677   1.034   2.737   2.708
  260SOL     OW 1678   6.202   0.427   6.056
  260SOL    HW1 1679   6.123   0.398   6.001
  260SOL    HW2 1680   6.260   0.348   6.075
  261SOL     OW 1681   0.838   2.578   2.536
  261SOL    HW1 1682   0.762   2.514   2.525
  261SOL    HW2 1683   0.903   2.566   2.461
  262SOL     OW 1684   0.856   5.083   2.059
  262SOL    HW1 1685   0.828   5.166   2.010
  262SOL    HW2 1686   0.956   5.077   2.058
  263SOL     OW 1687   1.284   2.403   4.038
  263SOL    HW1 1688   1.342   2.458   4.098
  263SOL    HW2 1689   1.338   2.331   3.995
  264SOL     OW 1690   3.124   5.198   6.570
  264SOL    HW1 1691   3.202   5.138   6.551
  264SOL    HW2 1692   3.106   5.198   6.668
  265SOL     OW 1693   5.212   4.418   4.939
  265SOL    HW1 1694   5.252   4.409   5.030
  265SOL    HW2 1695   5.115   4.393   4.943
  266SOL     OW 1696   3.832   2.384   0.437
  266SOL    HW1 1697   3.780   2.469   0.423
  266SOL    HW2 1698   3.769   2.308   0.451
  267SOL     OW 1699   1.155   2.070   5.884
  267SOL    HW1 1700   1.065   2.046   5.846
  267SOL    HW2 1701   1.143   2.103   5.977
  268SOL     OW 1702   3.489   4.990   4.444
  268SOL    HW1 1703   3.513   5.061   4.510
  268SOL    HW2 1704   3.391   4.992   4.427
  269SOL     OW 1705   1.072   1.315   5.659
  269SOL    HW1 1706   1.119   1.351   5.740
  269SOL    HW2 1707   0.973   1.317   5.675
  270SOL     OW 1708   4.908   1.140   3.702
  270SOL    HW1 1709   4.899   1.082   3.783
  270SOL    HW2 1710   4.866   1.093   3.623
  271SOL     OW 1711   1.601   0.889   7.001
  271SOL    HW1 1712   1.682   0.843   6.966
  271SOL    HW2 1713   1.598   0.983   6.966
  272SOL     OW 1714   3.716   5.609   2.916
  272SOL    HW1 1715   3.737   5.705   2.902
  272SOL    HW2 1716   3.711   5.589   3.015
  273SOL     OW 1717   2.824   6.683   5.278
  273SOL    HW1 1718   2.794   6.774   5.305
  273SOL    HW2 1719   2.919   6.668   5.307
  274SOL     OW 1720   5.558   2.180   1.260
  274SOL    HW1 1721   5.631   2.113   1.269
  274SOL    HW2 1722   5.588   2.268   1.296
  275SOL     OW 1723   6.043   5.980   4.882
  275SOL    HW1 1724   5.957   5.992   4.832
  275SOL    HW2 1725   6.052   5.885   4.910
  276SOL     OW 1726   6.369   6.313   3.475
  276SOL    HW1 1727   6.453   6.272   3.440
  276SOL    HW2 1728   6.303   6.321   3.400
  277SOL     OW 1729   5.262   1.376   5.161
  277SOL    HW1 1730   5.319   1.340   5.234
  277SOL    HW2 1731   5.194   1.307   5.134
  278SOL     OW 1732   6.128   2.837   2.821
  278SOL    HW1 1733   6.037   2.846   2.860
  278SOL    HW2 1734   6.196   2.835   2.895
  279SOL     OW 1735   0.149   3.036   4.213
  279SOL    HW1 1736   0.131   2.937   4.210
  279SOL    HW2 1737   0.190   3.060   4.300
  280SOL     OW 1738   3.475   1.158   3.599
  280SOL    HW1 1739   3.531   1.078   3.624
  280SOL    HW2 1740   3.516   1.203   3.519
  281SOL     OW 1741   5.303   5.610   3.519
  281SOL    HW1 1742   5.289   5.520   3.561
  281SOL    HW2 1743   5.387   5.651   3.554
  282SOL     OW 1744   2.824   1.739   0.378
  282SOL    HW1 1745   2.845   1.669   0.311
  282SOL    HW2 1746   2.891   1.735   0.453
  283SOL     OW 1747   6.710   2.311   4.632
  283SOL    HW1 1748   6.781   2.246   4.662
  283SOL    HW2 1749   6.705   2.310   4.532
  284SOL     OW 1750   5.394   5.771   2.946
  284SOL    HW1 1751   5.303   5.749   2.980
  284SOL    HW2 1752   5.462   5.757   3.018
  285SOL     OW 1753   4.526   0.494   5.822
  285SOL    HW1 1754   4.470   0.489   5.905
  285SOL    HW2 1755   4.562   0.404   5.800
  286SOL     OW 1756   1.908   5.117   5.102
  286SOL    HW1 1757   1.941   5.174   5.178
  286SOL    HW2 1758   1.833   5.163   5.056
  287SOL     OW 1759   3.262   0.401   6.562
  287SOL    HW1 1760   3.351   0.354   6.558
  287SOL    HW2 1761   3.271   0.492   6.523
  288SOL     OW 1762   4.080   0.694   0.885
  288SOL    HW1 1763   3.999   0.682   0.827
  288SOL    HW2 1764   4.059   0.757   0.960
  289SOL     OW 1765   5.994   5.876   3.277
  289SOL    HW1 1766   6.060   5.878   3.353
  289SOL    HW2 1767   5.932   5.954   3.285
  290SOL     OW 1768   3.369   0.740   6.024
  290SOL    HW1 1769   3.389   0.655   6.074
  290SOL    HW2 1770   3.428   0.813   6.059
  291SOL     OW 1771   3.108   6.807   4.943
  291SOL    HW1 1772   3.182   6.762   4.893
  291SOL    HW2 1773   3.087   6.895   4.900
  292SOL     OW 1774   4.519   6.798   4.074
  292SOL    HW1 1775   4.461   6.717   4.071
  292SOL    HW2 1776   4.594   6.783   4.139
  293SOL     OW 1777   5.993   0.040   2.253
  293SOL    HW1 1778   5.949   7.019   2.333
  293SOL    HW2 1779   6.015   0.136   2.272
  294SOL     OW 1780   6.334   0.869   6.044
  294SOL    HW1 1781   6.380   0.933   6.106
  294SOL    HW2 1782   6.382   0.868   5.956
  295SOL     OW 1783   1.333   1.262   5.104
  295SOL    HW1 1784   1.235   1.260   5.086
  295SOL    HW2 1785   1.373   1.342   5.059
  296SOL     OW 1786   6.910   2.589   1.295
  296SOL    HW1 1787   6.844   2.530   1.248
  296SOL    HW2 1788   7.000   2.547   1.291
  297SOL     OW 1789   4.925   3.090   4.157
  297SOL    HW1 1790   4.882   3.005   4.127
  297SOL    HW2 1791   4.942   3.086   4.255
  298SOL     OW 1792   4.105   0.791   6.315
  298SOL    HW1 1793   4.094   0.881   6.356
  298SOL    HW2 1794   4.024   0.736   6.333
  299SOL     OW 1795   1.138   0.828   6.929
  299SOL    HW1 1796   1.222   0.816   6.980
  299SOL    HW2 1797   1.064   0.853   6.991
  300SOL     OW 1798   4.104   6.742   3.575
  300SOL    HW1 1799   4.085   6.796   3.657
  300SOL    HW2 1800   4.038   6.667   3.568
  301SOL     OW 1801   6.711   5.611   1.219
  301SOL    HW1 1802   6.797   5.570   1.249
  301SOL    HW2 1803   6.726   5.656   1.131
  302SOL     OW 1804   0.266   5.689   2.135
  302SOL    HW1 1805   0.199   5.626   2.174
  302SOL    HW2 1806   0.359   5.658   2.157
  303SOL     OW 1807   5.457   5.935   2.743
  303SOL    HW1 1808   5.535   5.996   2.755
  303SOL    HW2 1809   5.460   5.863   2.813
  304SOL     OW 1810   2.152   5.722   4.615
  304SOL    HW1 1811   2.103   5.643   4.652
  304SOL    HW2 1812   2.087   5.793   4.591
  305SOL     OW 1813   0.956   3.206   2.076
  305SOL    HW1 1814   0.901   3.285   2.049
  305SOL    HW2 1815   1.048   3.213   2.038
  306SOL     OW 1816   0.187   6.567   2.708
  306SOL    HW1 1817   0.124   6.574   2.786
  306SOL    HW2 1818   0.136   6.579   2.623
  307SOL     OW 1819   3.001   3.226   3.372
  307SOL    HW1 1820   2.958   3.237   3.462
  307SOL    HW2 1821   2.979   3.305   3.315
  308SOL     OW 1822   5.189   2.169   3.960
  308SOL    HW1 1823   5.244   2.092   3.927
  308SOL    HW2 1824   5.248   2.250   3.971
  309SOL     OW 1825   1.109   6.538   6.409
  309SOL    HW1 1826   1.200   6.562   6.376
  309SOL    HW2 1827   1.112   6.516   6.506
  310SOL     OW 1828   5.043   6.890   5.220
  310SOL    HW1 1829   4.953   6.871   5.181
  310SOL    HW2 1830   5.111   6.832   5.176
  311SOL     OW 1831   1.752   5.883   2.696
  311SOL    HW1 1832   1.695   5.943   2.640
  311SOL    HW2 1833   1.793   5.812   2.639
  312SOL     OW 1834   4.691   1.851   2.754
  312SOL    HW1 1835   4.768   1.787   2.753
  312SOL    HW2 1836   4.720   1.939   2.718
  313SOL     OW 1837   3.942   3.668   3.110
  313SOL    HW1 1838   3.846   3.663   3.139
  313SOL    HW2 1839   3.993   3.727   3.173
  314SOL     OW 1840   2.426   5.932   6.130
  314SOL    HW1 1841   2.353   5.999   6.143
  314SOL    HW2 1842   2.451   5.928   6.033
  315SOL     OW 1843   6.191   1.435   3.067
  315SOL    HW1 1844   6.135   1.516   3.050
  315SOL    HW2 1845   6.196   1.380   2.984
  316SOL     OW 1846   3.565   1.276   5.801
  316SOL    HW1 1847   3.604   1.220   5.875
  316SOL    HW2 1848   3.525   1.216   5.732
  317SOL     OW 1849   1.236   1.610   1.915
  317SOL    HW1 1850   1.295   1.690   1.922
  317SOL    HW2 1851   1.202   1.585   2.006
  318SOL     OW 1852   0.924   0.536   5.195
  318SOL    HW1 1853   0.887   0.590   5.119
  318SOL    HW2 1854   0.877   0.447   5.198
  319SOL     OW 1855   1.697   1.559   2.344
  319SOL    HW1 1856   1.611   1.522   2.378
  319SOL    HW2 1857   1.692   1.569   2.245
  320SOL     OW 1858   6.111   1.816   6.012
  320SOL    HW1 1859   6.040   1.767   6.063
  320SOL    HW2 1860   6.192   1.827   6.070
  321SOL     OW 1861   4.209   3.260   0.619
  321SOL    HW1 1862   4.275   3.300   0.681
  321SOL    HW2 1863   4.137   3.326   0.599
  322SOL     OW 1864   3.416   3.322   5.842
  322SOL    HW1 1865   3.448   3.334   5.936
  322SOL    HW2 1866   3.347   3.250   5.839
  323SOL     OW 1867   0.425   3.318   2.650
  323SOL    HW1 1868   0.378   3.322   2.739
  323SOL    HW2 1869   0.361   3.346   2.578
  324SOL     OW 1870   7.018   0.063   3.824
  324SOL    HW1 1871   0.012   0.089   3.919
  324SOL    HW2 1872   0.069   7.017   3.797
  325SOL     OW 1873   0.090   3.909   2.215
  325SOL    HW1 1874   0.072   3.894   2.118
  325SOL    HW2 1875   0.182   3.947   2.227
  326SOL     OW 1876   0.856   6.409   6.337
  326SOL    HW1 1877   0.769   6.441   6.302
  326SOL    HW2 1878   0.922   6.484   6.338
  327SOL     OW 1879   4.578   5.433   4.129
  327SOL    HW1 1880   4.566   5.367   4.204
  327SOL    HW2 1881   4.534   5.519   4.153
  328SOL     OW 1882   2.018   4.070   2.302
  328SOL    HW1 1883   2.028   4.033   2.209
  328SOL    HW2 1884   2.102   4.118   2.328
  329SOL     OW 1885   3.225   3.569   2.267
  329SOL    HW1 1886   3.221   3.668   2.284
  329SOL    HW2 1887   3.308   3.548   2.216
  330SOL     OW 1888   3.408   5.944   0.581
  330SOL    HW1 1889   3.402   5.941   0.680
  330SOL    HW2 1890   3.369   6.030   0.547
  331SOL     OW 1891   5.447   5.227   6.921
  331SOL    HW1 1892   5.369   5.207   6.861
  331SOL    HW2 1893   5.532   5.200   6.876
  332SOL     OW 1894   5.408   1.905   3.233
  332SOL    HW1 1895   5.365   1.974   3.174
  332SOL    HW2 1896   5.419   1.820   3.182
  333SOL     OW 1897   3.445   0.713   5.723
  333SOL    HW1 1898   3.372   0.746   5.663
  333SOL    HW2 1899   3.426   0.743   5.817
  334SOL     OW 1900   4.115   3.476   3.317
  334SOL    HW1 1901   4.126   3.388   3.270
  334SOL    HW2 1902   4.095   3.547   3.249
  335SOL     OW 1903   3.800   6.948   6.888
  335SOL    HW1 1904   3.748   6.869   6.921
  335SOL    HW2 1905   3.750   0.013   6.910
  336SOL     OW 1906   2.532   2.128   3.808
  336SOL    HW1 1907   2.510   2.148   3.904
  336SOL    HW2 1908   2.550   2.213   3.759
  337SOL     OW 1909   1.909   0.250   6.148
  337SOL    HW1 1910   1.915   0.271   6.050
  337SOL    HW2 1911   1.984   0.295   6.196
  338SOL     OW 1912   4.237   1.636   1.132
  338SOL    HW1 1913   4.319   1.642   1.076
  338SOL    HW2 1914   4.186   1.553   1.108
  339SOL     OW 1915   4.258   5.543   5.306
  339SOL    HW1 1916   4.192   5.598   5.357
  339SOL    HW2 1917   4.339   5.599   5.286
  340SOL     OW 1918   4.545   2.105   3.794
  340SOL    HW1 1919   4.538   2.205   3.790
  340SOL    HW2 1920   4.603   2.072   3.720
  341SOL     OW 1921   5.717   6.821   2.884
  341SOL    HW1 1922   5.693   6.865   2.970
  341SOL    HW2 1923   5.660   6.740   2.871
  342SOL     OW 1924   4.419   2.347   2.572
  342SOL    HW1 1925   4.451   2.437   2.543
  342SOL    HW2 1926   4.404   2.289   2.492
  343SOL     OW 1927   0.093   5.946   2.734
  343SOL    HW1 1928   0.083   5.897   2.821
  343SOL    HW2 1929   0.003   5.967   2.697
  344SOL     OW 1930   2.476   2.145   1.502
  344SOL    HW1 1931   2.456   2.217   1.435
  344SOL    HW2 1932   2.455   2.179   1.594
  345SOL     OW 1933   6.754   3.780   4.064
  345SOL    HW1 1934   6.716   3.689   4.085
  345SOL    HW2 1935   6.725   3.808   3.973
  346SOL     OW 1936   1.945   0.021   3.376
  346SOL    HW1 1937   1.854   0.035   3.335
  346SOL    HW2 1938   2.013   0.011   3.303
  347SOL     OW 1939   3.055   5.116   0.582
  347SOL    HW1 1940   3.011   5.203   0.600
  347SOL    HW2 1941   3.026   5.049   0.651
  348SOL     OW 1942   4.194   5.465   1.828
  348SOL    HW1 1943   4.187   5.543   1.765
  348SOL    HW2 1944   4.259   5.487   1.901
  349SOL     OW 1945   6.268   4.332   1.524
  349SOL    HW1 1946   6.348   4.380   1.558
  349SOL    HW2 1947   6.231   4.274   1.597
  350SOL     OW 1948   3.178   3.062   0.639
  350SOL    HW1 1949   3.191   3.014   0.552
  350SOL    HW2 1950   3.179   3.160   0.623
  351SOL     OW 1951   3.195   4.192   1.266
  351SOL    HW1 1952   3.144   4.270   1.301
  351SOL    HW2 1953   3.132   4.119   1.242
  352SOL     OW 1954   3.963   0.007   3.274
  352SOL    HW1 1955   3.989   0.089   3.325
  352SOL    HW2 1956   3.865   0.008   3.255
  353SOL     OW 1957   1.941   6.137   0.059
  353SOL    HW1 1958   1.978   6.227   0.036
  353SOL    HW2 1959   1.956   6.074   7.002
  354SOL     OW 1960   6.962   2.564   0.173
  354SOL    HW1 1961   0.012   2.565   0.244
  354SOL    HW2 1962   6.896   2.637   0.190
  355SOL     OW 1963   1.995   1.908   2.221
  355SOL    HW1 1964   1.924   1.887   2.289
  355SOL    HW2 1965   1.985   1.846   2.143
  356SOL     OW 1966   0.898   6.691   6.100
  356SOL    HW1 1967   0.958   6.612   6.089
  356SOL    HW2 1968   0.953   6.775   6.101
  357SOL     OW 1969   5.818   6.295   4.535
  357SOL    HW1 1970   5.874   6.378   4.531
  357SOL    HW2 1971   5.869   6.218   4.498
  358SOL     OW 1972   4.518   5.567   0.380
  358SOL    HW1 1973   4.606   5.546   0.424
  358SOL    HW2 1974   4.528   5.559   0.281
  359SOL     OW 1975   2.258   2.367   2.753
  359SOL    HW1 1976   2.349   2.406   2.740
  359SOL    HW2 1977   2.247   2.339   2.849
  360SOL     OW 1978   1.325   4.758   4.384
  360SOL    HW1 1979   1.306   4.853   4.407
  360SOL    HW2 1980   1.322   4.747   4.284
  361SOL     OW 1981   6.438   6.995   3.372
  361SOL    HW1 1982   6.485   7.003   3.284
  361SOL    HW2 1983   6.406   6.901   3.384
  362SOL     OW 1984   4.176   4.863   0.967
  362SOL    HW1 1985   4.129   4.857   0.879
  362SOL    HW2 1986   4.272   4.840   0.955
  363SOL     OW 1987   5.028   5.666   2.332
  363SOL    HW1 1988   4.986   5.674   2.241
  363SOL    HW2 1989   5.032   5.570   2.358
  364SOL     OW 1990   0.496   5.867   6.314
  364SOL    HW1 1991   0.471   5.962   6.298
  364SOL    HW2 1992   0.438   5.808   6.258
  365SOL     OW 1993   4.861   2.122   2.673
  365SOL    HW1 1994   4.918   2.166   2.604
  365SOL    HW2 1995   4.895   2.146   2.764
  366SOL     OW 1996   5.642   2.553   0.145
  366SOL    HW1 1997   5.555   2.561   0.193
  366SOL    HW2 1998   5.627   2.569   0.047
  367SOL     OW 1999   4.647   2.064   5.504
  367SOL    HW1 2000   4.624   1.973   5.539
  367SOL    HW2 2001   4.574   2.096   5.444
  368SOL     OW 2002   6.557   2.367   5.707
  368SOL    HW1 2003   6.485   2.388   5.772
  368SOL    HW2 2004   6.586   2.451   5.661
  369SOL     OW 2005   5.875   3.180   2.189
  369SOL    HW1 2006   5.870   3.093   2.239
  369SOL    HW2 2007   5.952   3.177   2.124
  370SOL     OW 2008   2.084   3.271   4.648
  370SOL    HW1 2009   2.129   3.199   4.701
  370SOL    HW2 2010   2.079   3.355   4.703
  371SOL     OW 2011   1.280   4.279   6.858
  371SOL    HW1 2012   1.367   4.242   6.892
  371SOL    HW2 2013   1.282   4.379   6.865
  372SOL     OW 2014   3.788   6.623   6.448
  372SOL    HW1 2015   3.793   6.613   6.548
  372SOL    HW2 2016   3.692   6.619   6.419
  373SOL     OW 2017   5.660   5.798   3.937
  373SOL    HW1 2018   5.671   5.759   4.029
  373SOL    HW2 2019   5.724   5.873   3.924
  374SOL     OW 2020   2.875   1.815   2.672
  374SOL    HW1 2021   2.840   1.814   2.578
  374SOL    HW2 2022   2.798   1.809   2.736
  375SOL     OW 2023   1.130   4.842   4.970
  375SOL    HW1 2024   1.205   4.884   5.023
  375SOL    HW2 2025   1.053   4.824   5.031
  376SOL     OW 2026   2.227   0.920   4.739
  376SOL    HW1 2027   2.318   0.897   4.773
  376SOL    HW2 2028   2.162   0.918   4.815
  377SOL     OW 2029   1.176   2.461   6.474
  377SOL    HW1 2030   1.205   2.365   6.472
  377SOL    HW2 2031   1.120   2.481   6.393
  378SOL     OW 2032   3.664   1.245   1.724
  378SOL    HW1 2033   3.746   1.244   1.668
  378SOL    HW2 2034   3.597   1.307   1.683
  379SOL     OW 2035   6.259   2.101   5.599
  379SOL    HW1 2036   6.200   2.181   5.609
  379SOL    HW2 2037   6.202   2.018   5.603
  380SOL     OW 2038   4.055   2.116   0.911
  380SOL    HW1 2039   4.033   2.047   0.842
  380SOL    HW2 2040   4.107   2.075   0.985
  381SOL     OW 2041   1.464   4.088   3.477
  381SOL    HW1 2042   1.419   4.157   3.420
  381SOL    HW2 2043   1.546   4.055   3.431
  382SOL     OW 2044   5.262   0.783   0.044
  382SOL    HW1 2045   5.252   0.802   6.966
  382SOL    HW2 2046   5.345   0.828   0.078
  383SOL     OW 2047   3.964   3.410   0.625
  383SOL    HW1 2048   3.903   3.341   0.665
  383SOL    HW2 2049   3.911   3.491   0.601
  384SOL     OW 2050   5.988   4.273   4.711
  384SOL    HW1 2051   5.961   4.186   4.669
  384SOL    HW2 2052   5.934   4.289   4.793
  385SOL     OW 2053   4.774   4.855   0.254
  385SOL    HW1 2054   4.773   4.834   0.352
  385SOL    HW2 2055   4.786   4.770   0.202
  386SOL     OW 2056   3.206   6.891   3.952
  386SOL    HW1 2057   3.172   6.981   3.979
  386SOL    HW2 2058   3.130   6.835   3.920
  387SOL     OW 2059   1.992   5.678   3.905
  387SOL    HW1 2060   2.039   5.685   3.817
  387SOL    HW2 2061   2.008   5.588   3.944
  388SOL     OW 2062   2.332   2.907   6.490
  388SOL    HW1 2063   2.314   2.850   6.410
  388SOL    HW2 2064   2.260   2.976   6.499
  389SOL     OW 2065   2.991   3.904   3.433
  389SOL    HW1 2066   3.058   3.875   3.502
  389SOL    HW2 2067   2.950   3.823   3.391
  390SOL     OW 2068   1.792   1.395   4.428
  390SOL    HW1 2069   1.790   1.322   4.360
  390SOL    HW2 2070   1.863   1.375   4.496
  391SOL     OW 2071   0.863   3.040   0.296
  391SOL    HW1 2072   0.838   3.136   0.303
  391SOL    HW2 2073   0.870   3.000   0.388
  392SOL     OW 2074   2.321   4.950   2.445
  392SOL    HW1 2075   2.295   4.946   2.349
  392SOL    HW2 2076   2.410   4.906   2.458
  393SOL     OW 2077   5.914   4.207   5.344
  393SOL    HW1 2078   5.974   4.227   5.267
  393SOL    HW2 2079   5.933   4.115   5.378
  394SOL     OW 2080   0.897   6.815   0.873
  394SOL    HW1 2081   0.962   6.802   0.948
  394SOL    HW2 2082   0.811   6.852   0.909
  395SOL     OW 2083   5.366   3.872   1.720
  395SOL    HW1 2084   5.342   3.803   1.788
  395SOL    HW2 2085   5.286   3.930   1.703
  396SOL     OW 2086   3.025   3.934   3.753
  396SOL    HW1 2087   3.098   3.892   3.699
  396SOL    HW2 2088   2.980   4.005   3.698
  397SOL     OW 2089   4.472   2.285   5.683
  397SOL    HW1 2090   4.519   2.356   5.735
  397SOL    HW2 2091   4.459   2.317   5.589
  398SOL     OW 2092   1.146   5.368   2.215
  398SOL    HW1 2093   1.114   5.455   2.253
  398SOL    HW2 2094   1.243   5.376   2.190
  399SOL     OW 2095   4.884   5.274   1.551
  399SOL    HW1 2096   4.981   5.258   1.567
  399SOL    HW2 2097   4.831   5.195   1.583
  400SOL     OW 2098   0.186   6.286   5.317
  400SOL    HW1 2099   0.194   6.209   5.380
  400SOL    HW2 2100   0.273   6.298   5.268
  401SOL     OW 2101   4.702   2.082   6.626
  401SOL    HW1 2102   4.687   1.988   6.596
  401SOL    HW2 2103   4.783   2.120   6.582
  402SOL     OW 2104   6.268   5.792   2.073
  402SOL    HW1 2105   6.173   5.812   2.095
  402SOL    HW2 2106   6.316   5.765   2.157
  403SOL     OW 2107   4.840   1.822   5.807
  403SOL    HW1 2108   4.797   1.754   5.747
  403SOL    HW2 2109   4.894   1.885   5.752
  404SOL     OW 2110   0.504   6.867   4.833
  404SOL    HW1 2111   0.412   6.830   4.820
  404SOL    HW2 2112   0.547   6.824   4.913
  405SOL     OW 2113   1.090   1.929   0.680
  405SOL    HW1 2114   1.171   1.987   0.669
  405SOL    HW2 2115   1.107   1.861   0.751
  406SOL     OW 2116   1.496   2.632   4.459
  406SOL    HW1 2117   1.518   2.572   4.383
  406SOL    HW2 2118   1.397   2.641   4.467
  407SOL     OW 2119   2.794   6.949   5.339
  407SOL    HW1 2120   2.741   6.994   5.411
  407SOL    HW2 2121   2.781   6.998   5.253
  408SOL     OW 2122   1.312   0.228   3.761
  408SOL    HW1 2123   1.340   0.132   3.764
  408SOL    HW2 2124   1.225   0.237   3.711
  409SOL     OW 2125   5.932   3.312   3.481
  409SOL    HW1 2126   5.996   3.297   3.405
  409SOL    HW2 2127   5.971   3.379   3.544
  410SOL     OW 2128   2.465   0.508   6.824
  410SOL    HW1 2129   2.532   0.548   6.762
  410SOL    HW2 2130   2.434   0.420   6.788
  411SOL     OW 2131   6.259   4.062   5.593
  411SOL    HW1 2132   6.349   4.105   5.605
  411SOL    HW2 2133   6.233   4.065   5.497
  412SOL     OW 2134   3.582   7.019   2.628
  412SOL    HW1 2135   3.641   6.991   2.552
  412SOL    HW2 2136   3.567   6.942   2.689
  413SOL     OW 2137   3.365   5.936   0.856
  413SOL    HW1 2138   3.402   6.029   0.864
  413SOL    HW2 2139   3.415   5.875   0.918
  414SOL     OW 2140   4.739   4.826   0.925
  414SOL    HW1 2141   4.746   4.885   1.006
  414SOL    HW2 2142   4.743   4.882   0.842
  415SOL     OW 2143   1.793   6.072   1.666
  415SOL    HW1 2144   1.789   6.092   1.763
  415SOL    HW2 2145   1.701   6.050   1.632
  416SOL     OW 2146   4.209   6.547   4.786
  416SOL    HW1 2147   4.273   6.502   4.724
  416SOL    HW2 2148   4.200   6.643   4.760
  417SOL     OW 2149   3.579   6.232   2.410
  417SOL    HW1 2150   3.524   6.169   2.355
  417SOL    HW2 2151   3.602   6.189   2.497
  418SOL     OW 2152   4.993   5.925   0.493
  418SOL    HW1 2153   4.997   5.825   0.495
  418SOL    HW2 2154   4.935   5.957   0.568
  419SOL     OW 2155   0.162   0.046   0.899
  419SOL    HW1 2156   0.181   6.975   0.862
  419SOL    HW2 2157   0.210   0.057   0.986
  420SOL     OW 2158   5.752   4.019   0.434
  420SOL    HW1 2159   5.684   4.034   0.362
  420SOL    HW2 2160   5.732   3.933   0.480
  421SOL     OW 2161   2.655   5.822   6.927
  421SOL    HW1 2162   2.570   5.831   6.979
  421SOL    HW2 2163   2.653   5.737   6.875
  422SOL     OW 2164   6.362   4.353   6.992
  422SOL    HW1 2165   6.430   4.363   6.920
  422SOL    HW2 2166   6.361   4.436   0.030
  423SOL     OW 2167   6.235   2.880   0.017
  423SOL    HW1 2168   6.283   2.945   6.978
  423SOL    HW2 2169   6.139   2.906   0.023
  424SOL     OW 2170   3.282   4.154   0.180
  424SOL    HW1 2171   3.240   4.223   0.239
  424SOL    HW2 2172   3.266   4.063   0.218
  425SOL     OW 2173   4.427   1.551   1.432
  425SOL    HW1 2174   4.347   1.503   1.396
  425SOL    HW2 2175   4.499   1.484   1.453
  426SOL     OW 2176   5.081   2.419   5.676
  426SOL    HW1 2177   5.138   2.342   5.706
  426SOL    HW2 2178   4.986   2.402   5.704
  427SOL     OW 2179   5.300   4.092   1.432
  427SOL    HW1 2180   5.249   4.154   1.373
  427SOL    HW2 2181   5.253   4.003   1.437
  428SOL     OW 2182   4.217   0.620   5.373
  428SOL    HW1 2183   4.211   0.527   5.409
  428SOL    HW2 2184   4.305   0.660   5.399
  429SOL     OW 2185   1.532   4.776   0.162
  429SOL    HW1 2186   1.599   4.766   0.088
  429SOL    HW2 2187   1.581   4.785   0.249
  430SOL     OW 2188   1.093   0.021   4.582
  430SOL    HW1 2189   1.000   7.015   4.610
  430SOL    HW2 2190   1.151   6.959   4.581
  431SOL     OW 2191   3.546   1.809   6.880
  431SOL    HW1 2192   3.558   1.871   6.957
  431SOL    HW2 2193   3.558   1.714   6.910
  432SOL     OW 2194   6.823   1.932   0.417
  432SOL    HW1 2195   6.892   2.004   0.423
  432SOL    HW2 2196   6.732   1.974   0.409
  433SOL     OW 2197   2.797   6.852   4.821
  433SOL    HW1 2198   2.855   6.813   4.893
  433SOL    HW2 2199   2.768   6.780   4.758
  434SOL     OW 2200   5.909   3.720   1.027
  434SOL    HW1 2201   5.882   3.624   1.032
  434SOL    HW2 2202   5.959   3.736   0.942
  435SOL     OW 2203   3.193   3.459   6.121
  435SOL    HW1 2204   3.218   3.535   6.180
  435SOL    HW2 2205   3.094   3.449   6.119
  436SOL     OW 2206   2.015   0.210   1.597
  436SOL    HW1 2207   1.946   0.141   1.621
  436SOL    HW2 2208   2.045   0.256   1.680
  437SOL     OW 2209   0.206   6.997   6.243
  437SOL    HW1 2210   0.153   0.053   6.280
  437SOL    HW2 2211   0.246   0.005   6.155
  438SOL     OW 2212   1.486   2.963   1.977
  438SOL    HW1 2213   1.553   3.004   1.915
  438SOL    HW2 2214   1.530   2.945   2.065
  439SOL     OW 2215   6.489   4.660   2.437
  439SOL    HW1 2216   6.485   4.570   2.393
  439SOL    HW2 2217   6.572   4.708   2.408
  440SOL     OW 2218   0.900   2.610   4.308
  440SOL    HW1 2219   0.838   2.535   4.332
  440SOL    HW2 2220   0.954   2.583   4.228
  441SOL     OW 2221   2.037   1.520   3.327
  441SOL    HW1 2222   2.029   1.528   3.227
  441SOL    HW2 2223   2.128   1.548   3.356
  442SOL     OW 2224   0.212   3.988   6.813
  442SOL    HW1 2225   0.219   3.936   6.728
  442SOL    HW2 2226   0.302   4.026   6.837
  443SOL     OW 2227   1.242   4.430   5.217
  443SOL    HW1 2228   1.306   4.357   5.192
  443SOL    HW2 2229   1.154   4.391   5.242
  444SOL     OW 2230   3.977   2.893   6.344
  444SOL    HW1 2231   4.040   2.952   6.395
  444SOL    HW2 2232   4.011   2.799   6.345
  445SOL     OW 2233   2.213   4.969   3.499
  445SOL    HW1 2234   2.265   5.031   3.440
  445SOL    HW2 2235   2.175   4.896   3.443
  446SOL     OW 2236   3.389   5.029   3.819
  446SOL    HW1 2237   3.369   4.971   3.740
  446SOL    HW2 2238   3.427   5.116   3.787
  447SOL     OW 2239   6.980   4.509   0.047
  447SOL    HW1 2240   6.936   4.423   0.074
  447SOL    HW2 2241   6.964   4.578   0.118
  448SOL     OW 2242   3.989   0.815   5.313
  448SOL    HW1 2243   4.034   0.896   5.274
  448SOL    HW2 2244   4.056   0.742   5.326
  449SOL     OW 2245   5.961   1.344   4.643
  449SOL    HW1 2246   5.991   1.349   4.548
  449SOL    HW2 2247   5.988   1.428   4.691
  450SOL     OW 2248   6.851   5.679   3.643
  450SOL    HW1 2249   6.838   5.778   3.641
  450SOL    HW2 2250   6.876   5.647   3.551
  451SOL     OW 2251   0.953   1.942   2.361
  451SOL    HW1 2252   0.881   1.908   2.300
  451SOL    HW2 2253   0.918   2.018   2.415
  452SOL     OW 2254   6.895   5.275   0.144
  452SOL    HW1 2255   6.974   5.266   0.204
  452SOL    HW2 2256   6.816   5.231   0.187
  453SOL     OW 2257   3.228   1.219   0.030
  453SOL    HW1 2258   3.166   1.207   0.107
  453SOL    HW2 2259   3.311   1.266   0.061
  454SOL     OW 2260   6.980   5.879   6.034
  454SOL    HW1 2261   0.032   5.949   6.031
  454SOL    HW2 2262   0.003   5.789   6.037
  455SOL     OW 2263   5.756   0.092   4.121
  455SOL    HW1 2264   5.717   0.009   4.081
  455SOL    HW2 2265   5.683   0.159   4.136
  456SOL     OW 2266   4.197   5.945   6.193
  456SOL    HW1 2267   4.158   5.854   6.183
  456SOL    HW2 2268   4.189   5.994   6.106
  457SOL     OW 2269   2.184   4.081   3.419
  457SOL    HW1 2270   2.203   4.077   3.517
  457SOL    HW2 2271   2.139   3.997   3.390
  458SOL     OW 2272   5.574   5.895   5.829
  458SOL    HW1 2273   5.636   5.970   5.850
  458SOL    HW2 2274   5.603   5.813   5.879
  459SOL     OW 2275   0.892   0.049   2.940
  459SOL    HW1 2276   0.794   0.066   2.938
  459SOL    HW2 2277   0.918   0.008   3.028
  460SOL     OW 2278   0.173   1.746   2.074
  460SOL    HW1 2279   0.219   1.764   1.987
  460SOL    HW2 2280   0.173   1.648   2.092
  461SOL     OW 2281   4.652   0.088   5.018
  461SOL    HW1 2282   4.683   0.007   4.969
  461SOL    HW2 2283   4.727   0.154   5.026
  462SOL     OW 2284   3.299   2.539   5.933
  462SOL    HW1 2285   3.391   2.564   5.962
  462SOL    HW2 2286   3.283   2.573   5.841
  463SOL     OW 2287   6.127   5.151   3.081
  463SOL    HW1 2288   6.029   5.131   3.093
  463SOL    HW2 2289   6.144   5.247   3.102
  464SOL     OW 2290   1.909   0.973   6.413
  464SOL    HW1 2291   1.960   1.036   6.472
  464SOL    HW2 2292   1.878   0.895   6.467
  465SOL     OW 2293   0.744   1.441   4.281
  465SOL    HW1 2294   0.661   1.413   4.329
  465SOL    HW2 2295   0.815   1.463   4.347
  466SOL     OW 2296   0.580   6.780   3.555
  466SOL    HW1 2297   0.504   6.827   3.599
  466SOL    HW2 2298   0.623   6.717   3.620
  467SOL     OW 2299   0.753   0.477   6.265
  467SOL    HW1 2300   0.722   0.569   6.288
  467SOL    HW2 2301   0.691   0.437   6.199
  468SOL     OW 2302   4.054   5.710   1.099
  468SOL    HW1 2303   4.126   5.750   1.041
  468SOL    HW2 2304   3.973   5.769   1.096
  469SOL     OW 2305   2.218   5.463   0.361
  469SOL    HW1 2306   2.155   5.401   0.406
  469SOL    HW2 2307   2.243   5.537   0.424
  470SOL     OW 2308   4.461   0.410   2.140
  470SOL    HW1 2309   4.458   0.507   2.117
  470SOL    HW2 2310   4.556   0.382   2.156
  471SOL     OW 2311   1.447   2.457   4.252
  471SOL    HW1 2312   1.369   2.494   4.303
  471SOL    HW2 2313   1.478   2.373   4.296
  472SOL     OW 2314   4.696   4.443   5.896
  472SOL    HW1 2315   4.738   4.528   5.864
  472SOL    HW2 2316   4.767   4.377   5.919
  473SOL     OW 2317   0.213   2.698   1.701
  473SOL    HW1 2318   0.157   2.630   1.654
  473SOL    HW2 2319   0.259   2.756   1.634
  474SOL     OW 2320   4.257   5.209   4.175
  474SOL    HW1 2321   4.206   5.131   4.138
  474SOL    HW2 2322   4.287   5.268   4.099
  475SOL     OW 2323   6.539   0.131   6.474
  475SOL    HW1 2324   6.490   0.045   6.462
  475SOL    HW2 2325   6.536   0.184   6.389
  476SOL     OW 2326   6.598   3.873   2.288
  476SOL    HW1 2327   6.696   3.890   2.297
  476SOL    HW2 2328   6.561   3.846   2.377
  477SOL     OW 2329   2.229   4.965   4.773
  477SOL    HW1 2330   2.157   5.034   4.778
  477SOL    HW2 2331   2.243   4.925   4.864
  478SOL     OW 2332   2.947   6.033   3.111
  478SOL    HW1 2333   2.940   5.935   3.132
  478SOL    HW2 2334   3.042   6.062   3.120
  479SOL     OW 2335   3.144   1.757   0.369
  479SOL    HW1 2336   3.086   1.804   0.302
  479SOL    HW2 2337   3.186   1.824   0.429
  480SOL     OW 2338   1.452   0.152   1.701
  480SOL    HW1 2339   1.381   0.120   1.763
  480SOL    HW2 2340   1.535   0.174   1.752
  481SOL     OW 2341   2.477   1.095   1.563
  481SOL    HW1 2342   2.387   1.132   1.586
  481SOL    HW2 2343   2.487   1.091   1.464
  482SOL     OW 2344   5.066   4.391   2.409
  482SOL    HW1 2345   5.033   4.366   2.501
  482SOL    HW2 2346   5.155   4.348   2.393
  483SOL     OW 2347   5.288   2.373   1.628
  483SOL    HW1 2348   5.260   2.402   1.536
  483SOL    HW2 2349   5.269   2.275   1.639
  484SOL     OW 2350   0.843   2.950   4.658
  484SOL    HW1 2351   0.821   2.854   4.643
  484SOL    HW2 2352   0.925   2.975   4.607
  485SOL     OW 2353   3.514   4.874   2.240
  485SOL    HW1 2354   3.492   4.969   2.218
  485SOL    HW2 2355   3.546   4.827   2.158
  486SOL     OW 2356   1.065   1.243   0.900
  486SOL    HW1 2357   1.082   1.165   0.841
  486SOL    HW2 2358   1.148   1.266   0.951
  487SOL     OW 2359   0.731   2.056   6.875
  487SOL    HW1 2360   0.727   1.990   6.950
  487SOL    HW2 2361   0.819   2.048   6.828
  488SOL     OW 2362   1.183   1.423   1.529
  488SOL    HW1 2363   1.107   1.463   1.581
  488SOL    HW2 2364   1.245   1.495   1.499
  489SOL     OW 2365   3.495   5.754   7.003
  489SOL    HW1 2366   3.546   5.669   0.001
  489SOL    HW2 2367   3.559   5.827   6.979
  490SOL     OW 2368   6.376   6.201   4.288
  490SOL    HW1 2369   6.373   6.161   4.196
  490SOL    HW2 2370   6.284   6.199   4.328
  491SOL     OW 2371   0.127   2.813   2.569
  491SOL    HW1 2372   0.121   2.714   2.582
  491SOL    HW2 2373   0.223   2.840   2.563
  492SOL     OW 2374   3.294   0.269   5.837
  492SOL    HW1 2375   3.385   0.311   5.842
  492SOL    HW2 2376   3.225   0.338   5.861
  493SOL     OW 2377   6.484   4.814   6.293
  493SOL    HW1 2378   6.424   4.790   6.217
  493SOL    HW2 2379   6.475   4.745   6.365
  494SOL     OW 2380   0.315   5.934   6.764
  494SOL    HW1 2381   0.382   5.885   6.709
  494SOL    HW2 2382   0.296   6.023   6.723
  495SOL     OW 2383   5.033   5.434   2.517
  495SOL    HW1 2384   5.027   5.341   2.480
  495SOL    HW2 2385   4.969   5.444   2.593
  496SOL     OW 2386   5.227   2.842   2.964
  496SOL    HW1 2387   5.148   2.839   2.902
  496SOL    HW2 2388   5.247   2.936   2.987
  497SOL     OW 2389   3.446   1.039   5.241
  497SOL    HW1 2390   3.502   1.068   5.318
  497SOL    HW2 2391   3.399   1.117   5.201
  498SOL     OW 2392   1.216   3.291   2.021
  498SOL    HW1 2393   1.309   3.319   2.046
  498SOL    HW2 2394   1.155   3.370   2.025
  499SOL     OW 2395   3.019   0.940   4.301
  499SOL    HW1 2396   2.966   0.899   4.376
  499SOL    HW2 2397   2.956   0.979   4.234
  500SOL     OW 2398   0.919   4.689   3.859
  500SOL    HW1 2399   0.831   4.733   3.873
  500SOL    HW2 2400   0.928   4.660   3.764
  501SOL     OW 2401   2.730   1.918   6.944
  501SOL    HW1 2402   2.799   1.893   6.877
  501SOL    HW2 2403   2.678   1.997   6.912
  502SOL     OW 2404   5.686   4.286   5.560
  502SOL    HW1 2405   5.694   4.361   5.493
  502SOL    HW2 2406   5.603   4.299   5.614
  503SOL     OW 2407   6.457   4.273   5.977
  503SOL    HW1 2408   6.484   4.369   5.987
  503SOL    HW2 2409   6.376   4.254   6.032
  504SOL     OW 2410   2.222   6.359   4.205
  504SOL    HW1 2411   2.290   6.304   4.253
  504SOL    HW2 2412   2.141   6.372   4.263
  505SOL     OW 2413   4.040   0.277   5.888
  505SOL    HW1 2414   4.088   0.364   5.889
  505SOL    HW2 2415   4.094   0.209   5.938
  506SOL     OW 2416   1.925   4.954   4.658
  506SOL    HW1 2417   1.844   4.906   4.627
  506SOL    HW2 2418   1.919   4.969   4.757
  507SOL     OW 2419   2.602   6.914   4.486
  507SOL    HW1 2420   2.667   6.967   4.540
  507SOL    HW2 2421   2.600   6.820   4.518
  508SOL     OW 2422   6.218   3.250   2.841
  508SOL    HW1 2423   6.240   3.180   2.774
  508SOL    HW2 2424   6.123   3.239   2.871
  509SOL     OW 2425   3.774   0.944   1.610
  509SOL    HW1 2426   3.738   0.865   1.659
  509SOL    HW2 2427   3.867   0.924   1.580
  510SOL     OW 2428   6.915   4.800   5.705
  510SOL    HW1 2429   6.951   4.865   5.638
  510SOL    HW2 2430   6.883   4.850   5.785
  511SOL     OW 2431   0.017   6.364   6.927
  511SOL    HW1 2432   0.077   6.418   6.868
  511SOL    HW2 2433   6.999   6.422   6.999
  512SOL     OW 2434   0.495   2.722   0.302
  512SOL    HW1 2435   0.475   2.790   0.372
  512SOL    HW2 2436   0.466   2.757   0.213
  513SOL     OW 2437   5.665   6.217   2.483
  513SOL    HW1 2438   5.582   6.160   2.485
  513SOL    HW2 2439   5.731   6.175   2.421
  514SOL     OW 2440   6.617   2.509   4.114
  514SOL    HW1 2441   6.655   2.494   4.205
  514SOL    HW2 2442   6.530   2.558   4.122
  515SOL     OW 2443   2.607   6.757   6.168
  515SOL    HW1 2444   2.525   6.775   6.222
  515SOL    HW2 2445   2.659   6.683   6.209
  516SOL     OW 2446   2.789   4.612   1.607
  516SOL    HW1 2447   2.868   4.637   1.552
  516SOL    HW2 2448   2.819   4.577   1.696
  517SOL     OW 2449   5.078   6.502   2.471
  517SOL    HW1 2450   5.133   6.585   2.484
  517SOL    HW2 2451   4.989   6.515   2.513
  518SOL     OW 2452   2.418   2.263   1.723
  518SOL    HW1 2453   2.356   2.324   1.673
  518SOL    HW2 2454   2.460   2.314   1.798
  519SOL     OW 2455   6.861   0.626   4.828
  519SOL    HW1 2456   6.931   0.583   4.771
  519SOL    HW2 2457   6.771   0.609   4.787
  520SOL     OW 2458   5.497   4.417   6.279
  520SOL    HW1 2459   5.482   4.506   6.323
  520SOL    HW2 2460   5.438   4.349   6.322
  521SOL     OW 2461   6.195   1.575   6.236
  521SOL    HW1 2462   6.146   1.516   6.171
  521SOL    HW2 2463   6.128   1.631   6.286
  522SOL     OW 2464   3.937   3.052   5.213
  522SOL    HW1 2465   3.994   2.991   5.268
  522SOL    HW2 2466   3.959   3.147   5.236
  523SOL     OW 2467   6.644   5.830   3.850
  523SOL    HW1 2468   6.670   5.819   3.946
  523SOL    HW2 2469   6.617   5.741   3.813
  524SOL     OW 2470   2.920   0.928   6.471
  524SOL    HW1 2471   2.841   0.907   6.528
  524SOL    HW2 2472   2.895   0.919   6.375
  525SOL     OW 2473   2.362   3.685   6.592
  525SOL    HW1 2474   2.374   3.721   6.500
  525SOL    HW2 2475   2.380   3.586   6.592
  526SOL     OW 2476   2.539   5.691   4.693
  526SOL    HW1 2477   2.488   5.633   4.756
  526SOL    HW2 2478   2.635   5.664   4.693
  527SOL     OW 2479   6.536   1.989   5.954
  527SOL    HW1 2480   6.497   1.971   5.864
  527SOL    HW2 2481   6.466   2.029   6.013
  528SOL     OW 2482   1.563   1.497   4.377
  528SOL    HW1 2483   1.582   1.570   4.310
  528SOL    HW2 2484   1.648   1.448   4.397
  529SOL     OW 2485   0.843   4.871   4.910
  529SOL    HW1 2486   0.795   4.903   4.991
  529SOL    HW2 2487   0.851   4.771   4.913
  530SOL     OW 2488   2.574   2.885   5.372
  530SOL    HW1 2489   2.561   2.796   5.327
  530SOL    HW2 2490   2.534   2.957   5.316
  531SOL     OW 2491   0.473   1.143   0.994
  531SOL    HW1 2492   0.494   1.157   0.898
  531SOL    HW2 2493   0.558   1.132   1.046
  532SOL     OW 2494   0.538   2.154   6.023
  532SOL    HW1 2495   0.563   2.203   5.940
  532SOL    HW2 2496   0.440   2.166   6.041
  533SOL     OW 2497   5.032   6.290   4.357
  533SOL    HW1 2498   5.100   6.216   4.354
  533SOL    HW2 2499   4.980   6.284   4.442
  534SOL     OW 2500   4.719   5.412   3.859
  534SOL    HW1 2501   4.736   5.346   3.786
  534SOL    HW2 2502   4.646   5.378   3.918
  535SOL     OW 2503   1.003   4.272   3.865
  535SOL    HW1 2504   1.003   4.173   3.884
  535SOL    HW2 2505   0.939   4.317   3.927
  536SOL     OW 2506   0.312   5.518   1.497
  536SOL    HW1 2507   0.271   5.605   1.525
  536SOL    HW2 2508   0.245   5.462   1.449
  537SOL     OW 2509   1.900   6.198   3.731
  537SOL    HW1 2510   1.904   6.185   3.830
  537SOL    HW2 2511   1.910   6.109   3.686
  538SOL     OW 2512   0.977   5.538   3.703
  538SOL    HW1 2513   0.896   5.555   3.647
  538SOL    HW2 2514   0.951   5.487   3.785
  539SOL     OW 2515   1.152   5.289   1.548
  539SOL    HW1 2516   1.155   5.189   1.560
  539SOL    HW2 2517   1.062   5.315   1.513
  540SOL     OW 2518   0.446   2.193   2.313
  540SOL    HW1 2519   0.479   2.109   2.269
  540SOL    HW2 2520   0.417   2.172   2.406
  541SOL     OW 2521   3.109   6.438   4.735
  541SOL    HW1 2522   3.020   6.413   4.772
  541SOL    HW2 2523   3.182   6.398   4.792
  542SOL     OW 2524   6.427   6.305   0.066
  542SOL    HW1 2525   6.479   6.250   0.000
  542SOL    HW2 2526   6.462   6.398   0.066
  543SOL     OW 2527   0.738   5.364   6.587
  543SOL    HW1 2528   0.801   5.324   6.653
  543SOL    HW2 2529   0.682   5.291   6.547
  544SOL     OW 2530   0.993   4.528   1.295
  544SOL    HW1 2531   1.020   4.433   1.277
  544SOL    HW2 2532   0.952   4.534   1.386
  545SOL     OW 2533   3.786   1.517   3.419
  545SOL    HW1 2534   3.712   1.580   3.441
  545SOL    HW2 2535   3.870   1.549   3.464
  546SOL     OW 2536   1.093   3.315   1.669
  546SOL    HW1 2537   1.119   3.253   1.595
  546SOL    HW2 2538   1.002   3.352   1.650
  547SOL     OW 2539   2.319   2.164   0.051
  547SOL    HW1 2540   2.339   2.123   0.141
  547SOL    HW2 2541   2.258   2.242   0.063
  548SOL     OW 2542   3.947   3.508   3.533
  548SOL    HW1 2543   4.024   3.519   3.470
  548SOL    HW2 2544   3.861   3.517   3.483
  549SOL     OW 2545   5.118   3.617   1.319
  549SOL    HW1 2546   5.050   3.567   1.265
  549SOL    HW2 2547   5.096   3.608   1.417
  550SOL     OW 2548   6.845   3.241   2.761
  550SOL    HW1 2549   6.749   3.217   2.751
  550SOL    HW2 2550   6.901   3.160   2.748
  551SOL     OW 2551   6.719   1.660   0.685
  551SOL    HW1 2552   6.658   1.739   0.696
  551SOL    HW2 2553   6.727   1.638   0.588
  552SOL     OW 2554   3.902   5.237   0.857
  552SOL    HW1 2555   3.909   5.311   0.924
  552SOL    HW2 2556   3.867   5.155   0.901
  553SOL     OW 2557   1.791   0.647   2.624
  553SOL    HW1 2558   1.841   0.712   2.681
  553SOL    HW2 2559   1.822   0.554   2.644
  554SOL     OW 2560   5.503   6.405   6.023
  554SOL    HW1 2561   5.475   6.320   5.979
  554SOL    HW2 2562   5.573   6.450   5.967
  555SOL     OW 2563   2.004   4.910   4.174
  555SOL    HW1 2564   2.029   4.916   4.270
  555SOL    HW2 2565   2.034   4.993   4.126
  556SOL     OW 2566   6.225   2.183   4.108
  556SOL    HW1 2567   6.229   2.139   4.197
  556SOL    HW2 2568   6.138   2.233   4.099
  557SOL     OW 2569   6.964   6.131   6.382
  557SOL    HW1 2570   6.879   6.077   6.379
  557SOL    HW2 2571   6.944   6.224   6.413
  558SOL     OW 2572   4.149   3.455   5.171
  558SOL    HW1 2573   4.115   3.363   5.187
  558SOL    HW2 2574   4.083   3.506   5.116
  559SOL     OW 2575   6.731   5.974   6.297
  559SOL    HW1 2576   6.789   5.974   6.216
  559SOL    HW2 2577   6.640   6.007   6.273
  560SOL     OW 2578   4.603   6.235   6.912
  560SOL    HW1 2579   4.516   6.277   6.939
  560SOL    HW2 2580   4.597   6.136   6.924
  561SOL     OW 2581   5.800   6.721   0.225
  561SOL    HW1 2582   5.837   6.635   0.190
  561SOL    HW2 2583   5.848   6.747   0.309
  562SOL     OW 2584   5.282   0.729   6.126
  562SOL    HW1 2585   5.210   0.711   6.193
  562SOL    HW2 2586   5.359   0.667   6.142
  563SOL     OW 2587   2.727   6.545   3.798
  563SOL    HW1 2588   2.730   6.467   3.861
  563SOL    HW2 2589   2.779   6.523   3.716
  564SOL     OW 2590   2.003   1.863   6.181
  564SOL    HW1 2591   1.957   1.878   6.093
  564SOL    HW2 2592   2.026   1.767   6.190
  565SOL     OW 2593   4.387   3.582   5.591
  565SOL    HW1 2594   4.383   3.610   5.495
  565SOL    HW2 2595   4.425   3.489   5.596
  566SOL     OW 2596   4.142   4.795   3.285
  566SOL    HW1 2597   4.096   4.841   3.210
  566SOL    HW2 2598   4.232   4.763   3.255
  567SOL     OW 2599   3.397   3.237   4.179
  567SOL    HW1 2600   3.339   3.267   4.255
  567SOL    HW2 2601   3.442   3.151   4.203
  568SOL     OW 2602   2.851   2.334   0.300
  568SOL    HW1 2603   2.811   2.425   0.288
  568SOL    HW2 2604   2.857   2.289   0.211
  569SOL     OW 2605   1.728   2.793   0.637
  569SOL    HW1 2606   1.776   2.705   0.634
  569SOL    HW2 2607   1.635   2.782   0.602
  570SOL     OW 2608   1.485   6.464   0.577
  570SOL    HW1 2609   1.554   6.524   0.619
  570SOL    HW2 2610   1.394   6.498   0.601
  571SOL     OW 2611   3.495   5.182   2.891
  571SOL    HW1 2612   3.545   5.230   2.819
  571SOL    HW2 2613   3.499   5.235   2.976
  572SOL     OW 2614   1.944   3.994   5.737
  572SOL    HW1 2615   2.016   4.062   5.745
  572SOL    HW2 2616   1.983   3.902   5.737
  573SOL     OW 2617   4.556   1.150   5.123
  573SOL    HW1 2618   4.484   1.092   5.161
  573SOL    HW2 2619   4.521   1.198   5.043
  574SOL     OW 2620   2.227   2.145   4.462
  574SOL    HW1 2621   2.272   2.161   4.550
  574SOL    HW2 2622   2.152   2.081   4.474
  575SOL     OW 2623   6.467   2.861   0.351
  575SOL    HW1 2624   6.479   2.938   0.289
  575SOL    HW2 2625   6.372   2.831   0.350
  576SOL     OW 2626   0.893   2.572   2.268
  576SOL    HW1 2627   0.892   2.667   2.235
  576SOL    HW2 2628   0.861   2.511   2.196
  577SOL     OW 2629   2.284   2.000   3.767
  577SOL    HW1 2630   2.375   2.037   3.780
  577SOL    HW2 2631   2.241   1.984   3.856
  578SOL     OW 2632   0.468   3.078   3.440
  578SOL    HW1 2633   0.391   3.116   3.389
  578SOL    HW2 2634   0.444   2.988   3.475
  579SOL     OW 2635   3.692   1.978   0.926
  579SOL    HW1 2636   3.774   1.933   0.889
  579SOL    HW2 2637   3.697   1.981   1.025
  580SOL     OW 2638   0.931   5.294   6.768
  580SOL    HW1 2639   1.018   5.335   6.793
  580SOL    HW2 2640   0.933   5.196   6.790
  581SOL     OW 2641   3.648   3.130   2.653
  581SOL    HW1 2642   3.612   3.176   2.734
  581SOL    HW2 2643   3.650   3.195   2.576
  582SOL     OW 2644   5.645   3.802   2.687
  582SOL    HW1 2645   5.695   3.732   2.737
  582SOL    HW2 2646   5.615   3.874   2.750
  583SOL     OW 2647   2.611   4.715   0.072
  583SOL    HW1 2648   2.527   4.752   0.112
  583SOL    HW2 2649   2.643   4.639   0.127
  584SOL     OW 2650   0.409   4.909   5.260
  584SOL    HW1 2651   0.411   4.931   5.163
  584SOL    HW2 2652   0.499   4.877   5.289
  585SOL     OW 2653   0.109   2.276   5.649
  585SOL    HW1 2654   0.058   2.227   5.719
  585SOL    HW2 2655   0.202   2.295   5.682
  586SOL     OW 2656   2.771   6.598   1.134
  586SOL    HW1 2657   2.846   6.554   1.183
  586SOL    HW2 2658   2.684   6.565   1.170
  587SOL     OW 2659   1.077   3.067   6.158
  587SOL    HW1 2660   1.064   3.141   6.224
  587SOL    HW2 2661   1.027   2.986   6.189
  588SOL     OW 2662   3.765   6.848   1.180
  588SOL    HW1 2663   3.820   6.902   1.116
  588SOL    HW2 2664   3.819   6.826   1.261
  589SOL     OW 2665   3.706   5.018   2.717
  589SOL    HW1 2666   3.646   4.957   2.666
  589SOL    HW2 2667   3.741   5.089   2.655
  590SOL     OW 2668   6.907   2.175   1.919
  590SOL    HW1 2669   6.950   2.263   1.940
  590SOL    HW2 2670   6.974   2.115   1.875
  591SOL     OW 2671   3.768   0.187   3.591
  591SOL    HW1 2672   3.854   0.139   3.573
  591SOL    HW2 2673   3.738   0.168   3.685
  592SOL     OW 2674   4.813   0.709   0.744
  592SOL    HW1 2675   4.771   0.636   0.798
  592SOL    HW2 2676   4.778   0.706   0.650
  593SOL     OW 2677   4.810   2.646   3.775
  593SOL    HW1 2678   4.854   2.633   3.686
  593SOL    HW2 2679   4.801   2.557   3.821
  594SOL     OW 2680   4.103   3.855   1.033
  594SOL    HW1 2681   4.037   3.837   1.106
  594SOL    HW2 2682   4.195   3.839   1.068
  595SOL     OW 2683   3.406   5.940   3.903
  595SOL    HW1 2684   3.500   5.926   3.874
  595SOL    HW2 2685   3.352   5.859   3.882
  596SOL     OW 2686   0.621   4.586   2.801
  596SOL    HW1 2687   0.704   4.641   2.791
  596SOL    HW2 2688   0.561   4.628   2.869
  597SOL     OW 2689   4.705   0.286   6.441
  597SOL    HW1 2690   4.613   0.306   6.407
  597SOL    HW2 2691   4.771   0.298   6.366
  598SOL     OW 2692   4.024   4.603   0.463
  598SOL    HW1 2693   3.990   4.692   0.494
  598SOL    HW2 2694   4.092   4.617   0.391
  599SOL     OW 2695   6.979   0.200   2.770
  599SOL    HW1 2696   6.893   0.195   2.719
  599SOL    HW2 2697   0.036   0.205   2.707
  600SOL     OW 2698   1.369   0.013   0.312
  600SOL    HW1 2699   1.306   0.088   0.333
  600SOL    HW2 2700   1.380   6.975   0.393
  601SOL     OW 2701   2.585   5.429   3.653
  601SOL    HW1 2702   2.645   5.376   3.594
  601SOL    HW2 2703   2.583   5.524   3.621
  602SOL     OW 2704   1.839   0.447   1.509
  602SOL    HW1 2705   1.794   0.483   1.427
  602SOL    HW2 2706   1.872   0.354   1.490
  603SOL     OW 2707   4.402   1.953   3.240
  603SOL    HW1 2708   4.346   1.893   3.298
  603SOL    HW2 2709   4.393   2.048   3.273
  604SOL     OW 2710   0.983   3.342   6.323
  604SOL    HW1 2711   0.945   3.282   6.393
  604SOL    HW2 2712   0.939   3.432   6.328
  605SOL     OW 2713   6.511   6.335   3.133
  605SOL    HW1 2714   6.561   6.387   3.203
  605SOL    HW2 2715   6.562   6.338   3.047
  606SOL     OW 2716   3.940   0.558   4.205
  606SOL    HW1 2717   3.873   0.546   4.133
  606SOL    HW2 2718   4.028   0.520   4.175
  607SOL     OW 2719   5.123   1.445   4.085
  607SOL    HW1 2720   5.077   1.529   4.058
  607SOL    HW2 2721   5.180   1.412   4.010
  608SOL     OW 2722   3.910   0.910   0.591
  608SOL    HW1 2723   3.886   0.950   0.680
  608SOL    HW2 2724   3.992   0.955   0.556
  609SOL     OW 2725   3.248   2.940   3.833
  609SOL    HW1 2726   3.268   2.903   3.924
  609SOL    HW2 2727   3.333   2.952   3.782
  610SOL     OW 2728   5.348   1.962   4.404
  610SOL    HW1 2729   5.359   1.900   4.482
  610SOL    HW2 2730   5.392   1.923   4.323
  611SOL     OW 2731   0.224   0.398   0.470
  611SOL    HW1 2732   0.232   0.486   0.422
  611SOL    HW2 2733   0.315   0.364   0.492
  612SOL     OW 2734   3.457   5.734   6.151
  612SOL    HW1 2735   3.394   5.658   6.130
  612SOL    HW2 2736   3.411   5.821   6.134
  613SOL     OW 2737   4.235   1.421   6.040
  613SOL    HW1 2738   4.238   1.407   6.139
  613SOL    HW2 2739   4.242   1.519   6.020
  614SOL     OW 2740   6.016   4.542   0.789
  614SOL    HW1 2741   6.115   4.545   0.805
  614SOL    HW2 2742   5.983   4.448   0.805
  615SOL     OW 2743   0.032   0.123   0.699
  615SOL    HW1 2744   0.075   0.074   0.775
  615SOL    HW2 2745   6.988   0.191   0.735
  616SOL     OW 2746   5.632   1.676   4.446
  616SOL    HW1 2747   5.672   1.590   4.478
  616SOL    HW2 2748   5.668   1.697   4.355
  617SOL     OW 2749   0.324   5.085   5.478
  617SOL    HW1 2750   0.335   5.031   5.395
  617SOL    HW2 2751   0.333   5.026   5.558
  618SOL     OW 2752   5.877   3.622   0.387
  618SOL    HW1 2753   5.923   3.564   0.454
  618SOL    HW2 2754   5.929   3.705   0.374
  619SOL     OW 2755   3.386   0.593   0.537
  619SOL    HW1 2756   3.312   0.607   0.603
  619SOL    HW2 2757   3.371   0.651   0.457
  620SOL     OW 2758   5.746   2.868   1.984
  620SOL    HW1 2759   5.832   2.832   1.949
  620SOL    HW2 2760   5.754   2.883   2.083
  621SOL     OW 2761   2.632   0.575   6.621
  621SOL    HW1 2762   2.670   0.665   6.641
  621SOL    HW2 2763   2.624   0.563   6.522
  622SOL     OW 2764   1.091   2.034   5.398
  622SOL    HW1 2765   1.099   2.118   5.344
  622SOL    HW2 2766   1.181   2.008   5.434
  623SOL     OW 2767   5.753   6.207   4.215
  623SOL    HW1 2768   5.671   6.168   4.257
  623SOL    HW2 2769   5.739   6.216   4.116
  624SOL     OW 2770   6.598   1.318   6.389
  624SOL    HW1 2771   6.575   1.324   6.292
  624SOL    HW2 2772   6.659   1.394   6.413
  625SOL     OW 2773   3.123   0.779   0.604
  625SOL    HW1 2774   3.154   0.849   0.668
  625SOL    HW2 2775   3.030   0.750   0.628
  626SOL     OW 2776   0.579   5.385   3.789
  626SOL    HW1 2777   0.630   5.471   3.779
  626SOL    HW2 2778   0.614   5.318   3.723
  627SOL     OW 2779   6.269   0.034   6.874
  627SOL    HW1 2780   6.223   7.019   6.792
  627SOL    HW2 2781   6.209   0.099   6.920
  628SOL     OW 2782   5.092   4.369   5.349
  628SOL    HW1 2783   5.004   4.341   5.311
  628SOL    HW2 2784   5.133   4.293   5.399
  629SOL     OW 2785   6.977   0.334   6.479
  629SOL    HW1 2786   6.924   0.274   6.419
  629SOL    HW2 2787   7.007   0.414   6.427
  630SOL     OW 2788   6.291   1.649   1.247
  630SOL    HW1 2789   6.274   1.681   1.340
  630SOL    HW2 2790   6.388   1.661   1.225
  631SOL     OW 2791   1.920   2.676   4.990
  631SOL    HW1 2792   1.885   2.617   4.917
  631SOL    HW2 2793   2.002   2.723   4.959
  632SOL     OW 2794   3.760   3.426   0.223
  632SOL    HW1 2795   3.720   3.334   0.215
  632SOL    HW2 2796   3.690   3.490   0.254
  633SOL     OW 2797   1.220   5.863   1.926
  633SOL    HW1 2798   1.278   5.786   1.900
  633SOL    HW2 2799   1.258   5.908   2.007
  634SOL     OW 2800   2.884   3.467   4.123
  634SOL    HW1 2801   2.917   3.385   4.077
  634SOL    HW2 2802   2.890   3.545   4.061
  635SOL     OW 2803   5.585   1.243   6.560
  635SOL    HW1 2804   5.603   1.163   6.503
  635SOL    HW2 2805   5.640   1.238   6.643
  636SOL     OW 2806   3.114   0.456   6.798
  636SOL    HW1 2807   3.181   0.432   6.728
  636SOL    HW2 2808   3.119   0.555   6.816
  637SOL     OW 2809   6.741   0.969   1.276
  637SOL    HW1 2810   6.765   0.950   1.371
  637SOL    HW2 2811   6.710   1.064   1.268
  638SOL     OW 2812   6.395   3.478   4.367
  638SOL    HW1 2813   6.464   3.419   4.408
  638SOL    HW2 2814   6.326   3.502   4.436
  639SOL     OW 2815   4.564   4.883   3.127
  639SOL    HW1 2816   4.635   4.843   3.070
  639SOL    HW2 2817   4.601   4.960   3.179
  640SOL     OW 2818   0.605   2.726   2.342
  640SOL    HW1 2819   0.669   2.675   2.399
  640SOL    HW2 2820   0.568   2.665   2.271
  641SOL     OW 2821   1.859   4.661   4.795
  641SOL    HW1 2822   1.865   4.637   4.698
  641SOL    HW2 2823   1.940   4.713   4.823
  642SOL     OW 2824   0.883   3.632   4.886
  642SOL    HW1 2825   0.953   3.572   4.848
  642SOL    HW2 2826   0.866   3.608   4.982
  643SOL     OW 2827   4.564   5.579   6.738
  643SOL    HW1 2828   4.564   5.480   6.755
  643SOL    HW2 2829   4.531   5.596   6.645
  644SOL     OW 2830   6.336   0.194   4.858
  644SOL    HW1 2831   6.307   0.100   4.840
  644SOL    HW2 2832   6.435   0.198   4.865
  645SOL     OW 2833   4.061   4.982   2.436
  645SOL    HW1 2834   3.967   4.965   2.406
  645SOL    HW2 2835   4.061   5.027   2.525
  646SOL     OW 2836   4.247   0.581   5.118
  646SOL    HW1 2837   4.217   0.603   5.211
  646SOL    HW2 2838   4.181   0.618   5.052
  647SOL     OW 2839   4.896   2.052   4.988
  647SOL    HW1 2840   4.989   2.017   4.977
  647SOL    HW2 2841   4.871   2.049   5.085
  648SOL     OW 2842   6.117   2.181   3.050
  648SOL    HW1 2843   6.191   2.145   3.107
  648SOL    HW2 2844   6.066   2.250   3.101
  649SOL     OW 2845   2.361   4.999   0.397
  649SOL    HW1 2846   2.378   4.906   0.430
  649SOL    HW2 2847   2.326   5.055   0.472
  650SOL     OW 2848   6.798   5.489   0.839
  650SOL    HW1 2849   6.756   5.420   0.898
  650SOL    HW2 2850   6.759   5.482   0.747
  651SOL     OW 2851   1.165   0.134   5.268
  651SOL    HW1 2852   1.195   0.131   5.173
  651SOL    HW2 2853   1.103   0.058   5.286
  652SOL     OW 2854   4.133   6.989   1.907
  652SOL    HW1 2855   4.209   6.995   1.842
  652SOL    HW2 2856   4.160   0.011   1.993
  653SOL     OW 2857   0.520   6.130   1.432
  653SOL    HW1 2858   0.587   6.186   1.480
  653SOL    HW2 2859   0.541   6.130   1.334
  654SOL     OW 2860   6.944   6.984   5.537
  654SOL    HW1 2861   6.962   6.899   5.487
  654SOL    HW2 2862   6.957   0.042   5.476
  655SOL     OW 2863   0.009   4.556   1.951
  655SOL    HW1 2864   0.101   4.521   1.967
  655SOL    HW2 2865   0.010   4.656   1.961
  656SOL     OW 2866   3.624   6.536   0.635
  656SOL    HW1 2867   3.718   6.569   0.626
  656SOL    HW2 2868   3.621   6.437   0.622
  657SOL     OW 2869   3.499   2.827   1.728
  657SOL    HW1 2870   3.458   2.736   1.725
  657SOL    HW2 2871   3.426   2.895   1.737
  658SOL     OW 2872   2.270   4.141   4.421
  658SOL    HW1 2873   2.213   4.221   4.402
  658SOL    HW2 2874   2.358   4.152   4.374
  659SOL     OW 2875   2.345   6.623   5.895
  659SOL    HW1 2876   2.276   6.566   5.939
  659SOL    HW2 2877   2.307   6.715   5.879
  660SOL     OW 2878   4.743   4.366   2.185
  660SOL    HW1 2879   4.674   4.325   2.126
  660SOL    HW2 2880   4.764   4.305   2.261
  661SOL     OW 2881   4.247   4.683   4.085
  661SOL    HW1 2882   4.335   4.729   4.076
  661SOL    HW2 2883   4.214   4.692   4.179
  662SOL     OW 2884   4.931   3.514   0.272
  662SOL    HW1 2885   5.012   3.569   0.294
  662SOL    HW2 2886   4.850   3.555   0.313
  663SOL     OW 2887   0.165   4.457   0.337
  663SOL    HW1 2888   0.203   4.366   0.321
  663SOL    HW2 2889   0.111   4.457   0.421
  664SOL     OW 2890   1.399   6.569   6.357
  664SOL    HW1 2891   1.425   6.650   6.305
  664SOL    HW2 2892   1.460   6.493   6.334
  665SOL     OW 2893   3.875   5.922   1.185
  665SOL    HW1 2894   3.868   5.877   1.274
  665SOL    HW2 2895   3.876   6.021   1.197
  666SOL     OW 2896   3.678   1.940   0.080
  666SOL    HW1 2897   3.749   1.944   0.150
  666SOL    HW2 2898   3.613   2.015   0.095
  667SOL     OW 2899   0.994   3.760   3.057
  667SOL    HW1 2900   0.913   3.734   3.108
  667SOL    HW2 2901   1.028   3.681   3.005
  668SOL     OW 2902   4.897   6.487   0.722
  668SOL    HW1 2903   4.834   6.514   0.649
  668SOL    HW2 2904   4.890   6.389   0.738
  669SOL     OW 2905   1.025   6.523   3.795
  669SOL    HW1 2906   1.041   6.604   3.851
  669SOL    HW2 2907   0.933   6.526   3.756
  670SOL     OW 2908   3.015   3.527   3.724
  670SOL    HW1 2909   2.978   3.578   3.802
  670SOL    HW2 2910   3.113   3.514   3.736
  671SOL     OW 2911   2.508   0.088   6.300
  671SOL    HW1 2912   2.593   0.115   6.345
  671SOL    HW2 2913   2.469   0.009   6.347
  672SOL     OW 2914   2.063   3.501   4.438
  672SOL    HW1 2915   2.094   3.471   4.528
  672SOL    HW2 2916   1.982   3.449   4.412
  673SOL     OW 2917   5.046   0.525   0.368
  673SOL    HW1 2918   5.083   0.516   0.276
  673SOL    HW2 2919   4.946   0.527   0.364
  674SOL     OW 2920   0.547   1.827   3.464
  674SOL    HW1 2921   0.464   1.774   3.445
  674SOL    HW2 2922   0.557   1.839   3.563
  675SOL     OW 2923   0.495   1.948   4.183
  675SOL    HW1 2924   0.435   1.970   4.259
  675SOL    HW2 2925   0.542   1.861   4.201
  676SOL     OW 2926   2.463   4.665   4.638
  676SOL    HW1 2927   2.448   4.589   4.575
  676SOL    HW2 2928   2.417   4.747   4.602
  677SOL     OW 2929   6.322   0.039   0.726
  677SOL    HW1 2930   6.366   6.974   0.754
  677SOL    HW2 2931   6.251   0.019   0.659
  678SOL     OW 2932   2.285   0.824   6.309
  678SOL    HW1 2933   2.276   0.725   6.323
  678SOL    HW2 2934   2.199   0.860   6.272
  679SOL     OW 2935   4.242   0.486   2.696
  679SOL    HW1 2936   4.312   0.483   2.767
  679SOL    HW2 2937   4.273   0.544   2.621
  680SOL     OW 2938   4.883   4.118   5.869
  680SOL    HW1 2939   4.793   4.124   5.827
  680SOL    HW2 2940   4.888   4.036   5.926
  681SOL     OW 2941   0.800   6.726   1.299
  681SOL    HW1 2942   0.871   6.732   1.370
  681SOL    HW2 2943   0.716   6.689   1.339
  682SOL     OW 2944   1.605   5.803   0.512
  682SOL    HW1 2945   1.618   5.800   0.611
  682SOL    HW2 2946   1.623   5.895   0.479
  683SOL     OW 2947   4.094   1.368   6.960
  683SOL    HW1 2948   4.016   1.317   6.995
  683SOL    HW2 2949   4.092   1.461   6.994
  684SOL     OW 2950   0.495   6.032   5.639
  684SOL    HW1 2951   0.588   5.998   5.656
  684SOL    HW2 2952   0.490   6.129   5.665
  685SOL     OW 2953   5.178   0.021   5.696
  685SOL    HW1 2954   5.235   6.993   5.762
  685SOL    HW2 2955   5.236   0.076   5.636
  686SOL     OW 2956   5.001   3.632   2.964
  686SOL    HW1 2957   4.937   3.568   2.921
  686SOL    HW2 2958   4.976   3.643   3.061
  687SOL     OW 2959   0.333   3.289   5.657
  687SOL    HW1 2960   0.248   3.297   5.605
  687SOL    HW2 2961   0.328   3.345   5.740
  688SOL     OW 2962   0.927   4.064   6.073
  688SOL    HW1 2963   0.958   4.013   5.993
  688SOL    HW2 2964   0.999   4.126   6.104
  689SOL     OW 2965   6.305   3.781   5.832
  689SOL    HW1 2966   6.307   3.683   5.850
  689SOL    HW2 2967   6.359   3.802   5.751
  690SOL     OW 2968   1.410   2.294   3.300
  690SOL    HW1 2969   1.394   2.384   3.259
  690SOL    HW2 2970   1.508   2.276   3.302
  691SOL     OW 2971   0.976   2.472   6.761
  691SOL    HW1 2972   1.070   2.451   6.790
  691SOL    HW2 2973   0.955   2.419   6.679
  692SOL     OW 2974   2.608   0.379   2.949
  692SOL    HW1 2975   2.508   0.381   2.950
  692SOL    HW2 2976   2.644   0.468   2.921
  693SOL     OW 2977   6.573   2.699   2.850
  693SOL    HW1 2978   6.637   2.629   2.817
  693SOL    HW2 2979   6.516   2.661   2.922
  694SOL     OW 2980   1.993   6.435   1.158
  694SOL    HW1 2981   1.917   6.494   1.187
  694SOL    HW2 2982   2.079   6.485   1.168
  695SOL     OW 2983   5.402   5.285   5.409
  695SOL    HW1 2984   5.351   5.221   5.466
  695SOL    HW2 2985   5.444   5.235   5.333
  696SOL     OW 2986   4.287   4.820   2.453
  696SOL    HW1 2987   4.313   4.754   2.382
  696SOL    HW2 2988   4.209   4.874   2.420
  697SOL     OW 2989   1.026   4.183   4.622
  697SOL    HW1 2990   1.091   4.232   4.680
  697SOL    HW2 2991   0.969   4.123   4.678
  698SOL     OW 2992   4.700   0.489   3.895
  698SOL    HW1 2993   4.643   0.416   3.859
  698SOL    HW2 2994   4.642   0.563   3.929
  699SOL     OW 2995   1.227   3.781   0.908
  699SOL    HW1 2996   1.146   3.727   0.931
  699SOL    HW2 2997   1.204   3.848   0.838
  700SOL     OW 2998   2.504   2.592   4.279
  700SOL    HW1 2999   2.556   2.535   4.343
  700SOL    HW2 3000   2.492   2.543   4.193
  701SOL     OW 3001   0.945   4.409   6.477
  701SOL    HW1 3002   0.928   4.410   6.576
  701SOL    HW2 3003   0.893   4.334   6.435
  702SOL     OW 3004   5.288   6.879   4.485
  702SOL    HW1 3005   5.332   6.800   4.528
  702SOL    HW2 3006   5.227   6.922   4.552
  703SOL     OW 3007   4.138   4.128   6.213
  703SOL    HW1 3008   4.138   4.074   6.128
  703SOL    HW2 3009   4.136   4.225   6.191
  704SOL     OW 3010   1.286   6.801   0.077
  704SOL    HW1 3011   1.337   6.837   0.155
  704SOL    HW2 3012   1.242   6.715   0.102
  705SOL     OW 3013   5.417   1.277   2.972
  705SOL    HW1 3014   5.454   1.292   2.881
  705SOL    HW2 3015   5.374   1.187   2.976
  706SOL     OW 3016   3.734   2.132   4.051
  706SOL    HW1 3017   3.742   2.148   3.952
  706SOL    HW2 3018   3.732   2.220   4.098
  707SOL     OW 3019   5.538   0.281   1.554
  707SOL    HW1 3020   5.502   0.371   1.528
  707SOL    HW2 3021   5.462   0.219   1.573
  708SOL     OW 3022   4.109   0.450   1.039
  708SOL    HW1 3023   4.155   0.457   1.128
  708SOL    HW2 3024   4.146   0.520   0.978
  709SOL     OW 3025   1.059   4.997   1.103
  709SOL    HW1 3026   1.075   4.965   1.196
  709SOL    HW2 3027   0.973   5.048   1.100
  710SOL     OW 3028   3.089   3.924   2.617
  710SOL    HW1 3029   3.034   3.854   2.570
  710SOL    HW2 3030   3.124   3.989   2.549
  711SOL     OW 3031   6.250   1.641   4.481
  711SOL    HW1 3032   6.224   1.547   4.458
  711SOL    HW2 3033   6.258   1.695   4.397
  712SOL     OW 3034   1.231   3.757   1.624
  712SOL    HW1 3035   1.268   3.748   1.531
  712SOL    HW2 3036   1.239   3.670   1.672
  713SOL     OW 3037   3.701   2.897   2.572
  713SOL    HW1 3038   3.660   2.981   2.605
  713SOL    HW2 3039   3.679   2.884   2.476
  714SOL     OW 3040   5.609   4.478   5.066
  714SOL    HW1 3041   5.632   4.571   5.097
  714SOL    HW2 3042   5.590   4.421   5.146
  715SOL     OW 3043   4.638   6.745   6.073
  715SOL    HW1 3044   4.676   6.657   6.043
  715SOL    HW2 3045   4.711   6.811   6.084
  716SOL     OW 3046   0.308   4.951   1.750
  716SOL    HW1 3047   0.373   5.005   1.697
  716SOL    HW2 3048   0.329   4.959   1.847
  717SOL     OW 3049   6.291   3.312   6.822
  717SOL    HW1 3050   6.280   3.318   6.723
  717SOL    HW2 3051   6.231   3.241   6.858
  718SOL     OW 3052   3.807   3.581   6.411
  718SOL    HW1 3053   3.803   3.503   6.473
  718SOL    HW2 3054   3.740   3.650   6.439
  719SOL     OW 3055   6.929   3.476   1.193
  719SOL    HW1 3056   6.950   3.398   1.134
  719SOL    HW2 3057   6.965   3.458   1.285
  720SOL     OW 3058   2.426   1.726   5.926
  720SOL    HW1 3059   2.401   1.807   5.979
  720SOL    HW2 3060   2.458   1.754   5.836
  721SOL     OW 3061   1.886   0.377   5.650
  721SOL    HW1 3062   1.857   0.464   5.609
  721SOL    HW2 3063   1.805   0.325   5.679
  722SOL     OW 3064   4.044   0.178   4.591
  722SOL    HW1 3065   3.984   0.224   4.526
  722SOL    HW2 3066   4.129   0.150   4.545
  723SOL     OW 3067   1.382   2.608   2.155
  723SOL    HW1 3068   1.387   2.515   2.119
  723SOL    HW2 3069   1.446   2.617   2.232
  724SOL     OW 3070   0.080   1.027   4.723
  724SOL    HW1 3071   0.144   1.038   4.647
  724SOL    HW2 3072   0.061   1.116   4.764
  725SOL     OW 3073   2.114   4.757   2.558
  725SOL    HW1 3074   2.151   4.839   2.514
  725SOL    HW2 3075   2.189   4.692   2.574
  726SOL     OW 3076   3.394   6.248   6.947
  726SOL    HW1 3077   3.417   6.258   6.851
  726SOL    HW2 3078   3.322   6.178   6.957
  727SOL     OW 3079   3.140   5.588   4.421
  727SOL    HW1 3080   3.075   5.609   4.494
  727SOL    HW2 3081   3.133   5.492   4.396
  728SOL     OW 3082   0.217   4.046   5.336
  728SOL    HW1 3083   0.120   4.066   5.350
  728SOL    HW2 3084   0.272   4.115   5.384
  729SOL     OW 3085   2.222   0.839   1.127
  729SOL    HW1 3086   2.189   0.923   1.171
  729SOL    HW2 3087   2.149   0.770   1.129
  730SOL     OW 3088   5.841   0.659   3.628
  730SOL    HW1 3089   5.917   0.687   3.569
  730SOL    HW2 3090   5.783   0.595   3.578
  731SOL     OW 3091   5.583   3.470   4.525
  731SOL    HW1 3092   5.544   3.451   4.435
  731SOL    HW2 3093   5.594   3.385   4.575
  732SOL     OW 3094   6.777   3.000   1.334
  732SOL    HW1 3095   6.723   3.010   1.418
  732SOL    HW2 3096   6.867   2.963   1.356
  733SOL     OW 3097   4.827   3.914   3.985
  733SOL    HW1 3098   4.814   3.988   3.919
  733SOL    HW2 3099   4.832   3.827   3.937
  734SOL     OW 3100   6.780   4.568   1.466
  734SOL    HW1 3101   6.830   4.535   1.386
  734SOL    HW2 3102   6.827   4.540   1.549
  735SOL     OW 3103   1.165   3.613   6.896
  735SOL    HW1 3104   1.144   3.620   6.799
  735SOL    HW2 3105   1.114   3.683   6.947
  736SOL     OW 3106   6.694   0.247   2.955
  736SOL    HW1 3107   6.652   0.166   2.996
  736SOL    HW2 3108   6.660   0.329   3.001
  737SOL     OW 3109   5.282   3.811   1.070
  737SOL    HW1 3110   5.231   3.725   1.069
  737SOL    HW2 3111   5.339   3.816   1.151
  738SOL     OW 3112   0.077   3.928   4.415
  738SOL    HW1 3113   0.061   4.021   4.379
  738SOL    HW2 3114   0.154   3.930   4.479
  739SOL     OW 3115   3.936   6.396   5.738
  739SOL    HW1 3116   3.917   6.318   5.798
  739SOL    HW2 3117   3.920   6.481   5.789
  740SOL     OW 3118   5.950   6.988   1.136
  740SOL    HW1 3119   5.944   0.062   1.102
  740SOL    HW2 3120   5.929   6.924   1.062
  741SOL     OW 3121   1.567   6.611   3.048
  741SOL    HW1 3122   1.535   6.519   3.030
  741SOL    HW2 3123   1.571   6.627   3.147
  742SOL     OW 3124   1.424   6.678   3.708
  742SOL    HW1 3125   1.467   6.618   3.776
  742SOL    HW2 3126   1.382   6.623   3.636
  743SOL     OW 3127   1.791   4.112   4.359
  743SOL    HW1 3128   1.824   4.164   4.280
  743SOL    HW2 3129   1.834   4.146   4.442
  744SOL     OW 3130   7.013   5.806   0.043
  744SOL    HW1 3131   7.012   5.707   0.056
  744SOL    HW2 3132   6.919   5.840   0.043
  745SOL     OW 3133   1.142   5.969   2.987
  745SOL    HW1 3134   1.087   6.007   2.912
  745SOL    HW2 3135   1.196   6.042   3.028
  746SOL     OW 3136   0.894   6.964   5.054
  746SOL    HW1 3137   0.983   6.926   5.026
  746SOL    HW2 3138   0.845   6.997   4.973
  747SOL     OW 3139   4.455   4.520   3.344
  747SOL    HW1 3140   4.396   4.535   3.424
  747SOL    HW2 3141   4.424   4.577   3.268
  748SOL     OW 3142   4.262   3.928   0.807
  748SOL    HW1 3143   4.209   3.917   0.891
  748SOL    HW2 3144   4.245   4.019   0.768
  749SOL     OW 3145   0.287   1.909   4.872
  749SOL    HW1 3146   0.244   1.821   4.889
  749SOL    HW2 3147   0.357   1.927   4.942
  750SOL     OW 3148   2.063   3.318   0.261
  750SOL    HW1 3149   2.052   3.357   0.170
  750SOL    HW2 3150   2.160   3.296   0.277
  751SOL     OW 3151   4.834   1.002   0.413
  751SOL    HW1 3152   4.858   1.092   0.376
  751SOL    HW2 3153   4.913   0.964   0.461
  752SOL     OW 3154   4.177   2.406   1.738
  752SOL    HW1 3155   4.190   2.501   1.709
  752SOL    HW2 3156   4.087   2.374   1.708
  753SOL     OW 3157   1.727   3.388   5.078
  753SOL    HW1 3158   1.727   3.366   4.981
  753SOL    HW2 3159   1.706   3.485   5.090
  754SOL     OW 3160   4.633   4.317   6.488
  754SOL    HW1 3161   4.665   4.223   6.501
  754SOL    HW2 3162   4.534   4.320   6.498
  755SOL     OW 3163   0.610   5.693   0.053
  755SOL    HW1 3164   0.559   5.775   0.028
  755SOL    HW2 3165   0.651   5.705   0.144
  756SOL     OW 3166   5.211   0.500   1.672
  756SOL    HW1 3167   5.156   0.541   1.745
  756SOL    HW2 3168   5.180   0.534   1.583
  757SOL     OW 3169   0.418   6.520   3.667
  757SOL    HW1 3170   0.322   6.493   3.675
  757SOL    HW2 3171   0.444   6.577   3.745
  758SOL     OW 3172   3.340   2.036   1.518
  758SOL    HW1 3173   3.310   2.123   1.479
  758SOL    HW2 3174   3.312   2.032   1.615
  759SOL     OW 3175   0.850   1.641   6.758
  759SOL    HW1 3176   0.944   1.674   6.771
  759SOL    HW2 3177   0.836   1.615   6.663
  760SOL     OW 3178   5.536   1.759   6.897
  760SOL    HW1 3179   5.495   1.675   6.862
  760SOL    HW2 3180   5.514   1.835   6.836
  761SOL     OW 3181   6.577   2.506   0.314
  761SOL    HW1 3182   6.549   2.556   0.396
  761SOL    HW2 3183   6.639   2.563   0.260
  762SOL     OW 3184   2.474   5.665   3.508
  762SOL    HW1 3185   2.486   5.709   3.419
  762SOL    HW2 3186   2.377   5.662   3.531
  763SOL     OW 3187   4.296   5.901   6.961
  763SOL    HW1 3188   4.213   5.887   6.907
  763SOL    HW2 3189   4.364   5.950   6.907
  764SOL     OW 3190   3.239   1.656   2.352
  764SOL    HW1 3191   3.296   1.576   2.336
  764SOL    HW2 3192   3.188   1.644   2.437
  765SOL     OW 3193   0.370   6.471   2.501
  765SOL    HW1 3194   0.290   6.418   2.474
  765SOL    HW2 3195   0.358   6.567   2.477
  766SOL     OW 3196   6.771   0.075   6.639
  766SOL    HW1 3197   6.684   0.095   6.594
  766SOL    HW2 3198   6.801   0.156   6.690
  767SOL     OW 3199   6.968   6.465   2.251
  767SOL    HW1 3200   6.885   6.502   2.291
  767SOL    HW2 3201   0.014   6.539   2.234
  768SOL     OW 3202   2.849   0.517   2.598
  768SOL    HW1 3203   2.794   0.460   2.536
  768SOL    HW2 3204   2.856   0.473   2.687
  769SOL     OW 3205   4.496   0.214   4.807
  769SOL    HW1 3206   4.548   0.140   4.849
  769SOL    HW2 3207   4.422   0.242   4.868
  770SOL     OW 3208   2.905   5.225   3.884
  770SOL    HW1 3209   2.901   5.126   3.867
  770SOL    HW2 3210   2.842   5.248   3.958
  771SOL     OW 3211   1.957   5.661   3.273
  771SOL    HW1 3212   1.965   5.760   3.263
  771SOL    HW2 3213   1.909   5.623   3.194
  772SOL     OW 3214   6.962   4.280   6.685
  772SOL    HW1 3215   6.901   4.277   6.605
  772SOL    HW2 3216   6.958   4.193   6.733
  773SOL     OW 3217   7.012   3.473   3.313
  773SOL    HW1 3218   7.000   3.382   3.351
  773SOL    HW2 3219   6.967   3.540   3.372
  774SOL     OW 3220   1.383   1.365   2.063
  774SOL    HW1 3221   1.322   1.418   2.122
  774SOL    HW2 3222   1.460   1.422   2.036
  775SOL     OW 3223   1.047   2.027   3.830
  775SOL    HW1 3224   1.096   2.061   3.750
  775SOL    HW2 3225   1.082   1.937   3.855
  776SOL     OW 3226   1.577   0.555   6.291
  776SOL    HW1 3227   1.558   0.519   6.200
  776SOL    HW2 3228   1.668   0.595   6.292
  777SOL     OW 3229   4.415   1.320   1.137
  777SOL    HW1 3230   4.426   1.405   1.087
  777SOL    HW2 3231   4.480   1.252   1.102
  778SOL     OW 3232   4.159   0.740   3.857
  778SOL    HW1 3233   4.147   0.837   3.878
  778SOL    HW2 3234   4.070   0.696   3.848
  779SOL     OW 3235   0.840   2.070   1.962
  779SOL    HW1 3236   0.879   2.114   2.042
  779SOL    HW2 3237   0.741   2.066   1.970
  780SOL     OW 3238   6.670   3.053   3.930
  780SOL    HW1 3239   6.671   2.953   3.942
  780SOL    HW2 3240   6.763   3.088   3.940
  781SOL     OW 3241   6.875   1.401   6.173
  781SOL    HW1 3242   6.794   1.454   6.148
  781SOL    HW2 3243   6.921   1.445   6.250
  782SOL     OW 3244   0.404   2.870   0.867
  782SOL    HW1 3245   0.404   2.885   0.966
  782SOL    HW2 3246   0.488   2.907   0.829
  783SOL     OW 3247   2.912   5.350   0.593
  783SOL    HW1 3248   2.877   5.375   0.683
  783SOL    HW2 3249   2.885   5.420   0.526
  784SOL     OW 3250   3.927   0.417   5.279
  784SOL    HW1 3251   3.962   0.476   5.207
  784SOL    HW2 3252   3.842   0.373   5.249
  785SOL     OW 3253   6.250   1.766   2.924
  785SOL    HW1 3254   6.303   1.702   2.980
  785SOL    HW2 3255   6.250   1.736   2.829
  786SOL     OW 3256   6.811   6.838   0.172
  786SOL    HW1 3257   6.764   6.925   0.187
  786SOL    HW2 3258   6.753   6.762   0.201
  787SOL     OW 3259   2.523   1.416   6.350
  787SOL    HW1 3260   2.486   1.472   6.424
  787SOL    HW2 3261   2.454   1.408   6.277
  788SOL     OW 3262   2.115   3.782   4.712
  788SOL    HW1 3263   2.106   3.685   4.737
  788SOL    HW2 3264   2.102   3.792   4.613
  789SOL     OW 3265   5.546   3.593   1.564
  789SOL    HW1 3266   5.579   3.668   1.621
  789SOL    HW2 3267   5.513   3.518   1.622
  790SOL     OW 3268   2.395   1.501   4.196
  790SOL    HW1 3269   2.316   1.543   4.240
  790SOL    HW2 3270   2.439   1.568   4.135
  791SOL     OW 3271   3.990   0.986   4.057
  791SOL    HW1 3272   3.897   0.949   4.063
  791SOL    HW2 3273   3.988   1.085   4.072
  792SOL     OW 3274   6.296   0.677   2.049
  792SOL    HW1 3275   6.280   0.632   1.961
  792SOL    HW2 3276   6.216   0.665   2.108
  793SOL     OW 3277   5.267   6.675   1.087
  793SOL    HW1 3278   5.228   6.641   1.001
  793SOL    HW2 3279   5.329   6.607   1.125
  794SOL     OW 3280   2.893   4.755   5.433
  794SOL    HW1 3281   2.797   4.732   5.416
  794SOL    HW2 3282   2.924   4.821   5.365
  795SOL     OW 3283   3.806   5.223   5.892
  795SOL    HW1 3284   3.748   5.192   5.816
  795SOL    HW2 3285   3.840   5.143   5.942
  796SOL     OW 3286   0.250   2.210   5.132
  796SOL    HW1 3287   0.264   2.289   5.191
  796SOL    HW2 3288   0.154   2.205   5.104
  797SOL     OW 3289   5.907   2.235   3.458
  797SOL    HW1 3290   5.883   2.188   3.374
  797SOL    HW2 3291   5.848   2.315   3.470
  798SOL     OW 3292   4.870   0.211   0.563
  798SOL    HW1 3293   4.784   0.260   0.576
  798SOL    HW2 3294   4.941   0.255   0.618
  799SOL     OW 3295   6.360   1.929   3.493
  799SOL    HW1 3296   6.359   1.991   3.572
  799SOL    HW2 3297   6.455   1.909   3.469
  800SOL     OW 3298   5.050   0.975   2.691
  800SOL    HW1 3299   5.036   0.876   2.701
  800SOL    HW2 3300   4.964   1.023   2.706
  801SOL     OW 3301   1.314   2.474   3.696
  801SOL    HW1 3302   1.245   2.451   3.765
  801SOL    HW2 3303   1.270   2.490   3.608
  802SOL     OW 3304   5.392   2.292   0.394
  802SOL    HW1 3305   5.422   2.204   0.358
  802SOL    HW2 3306   5.293   2.289   0.410
  803SOL     OW 3307   5.999   5.714   3.874
  803SOL    HW1 3308   6.097   5.725   3.857
  803SOL    HW2 3309   5.947   5.766   3.806
  804SOL     OW 3310   0.089   6.432   0.600
  804SOL    HW1 3311   7.008   6.431   0.597
  804SOL    HW2 3312   0.125   6.449   0.508
  805SOL     OW 3313   3.717   2.603   5.608
  805SOL    HW1 3314   3.801   2.555   5.635
  805SOL    HW2 3315   3.724   2.629   5.511
  806SOL     OW 3316   4.711   1.772   6.474
  806SOL    HW1 3317   4.623   1.791   6.432
  806SOL    HW2 3318   4.705   1.688   6.527
  807SOL     OW 3319   0.819   0.633   3.681
  807SOL    HW1 3320   0.845   0.695   3.755
  807SOL    HW2 3321   0.777   0.685   3.608
  808SOL     OW 3322   5.158   2.861   5.793
  808SOL    HW1 3323   5.207   2.945   5.772
  808SOL    HW2 3324   5.145   2.808   5.709
  809SOL     OW 3325   1.077   4.707   0.776
  809SOL    HW1 3326   1.061   4.663   0.864
  809SOL    HW2 3327   1.029   4.656   0.704
  810SOL     OW 3328   4.867   3.824   0.814
  810SOL    HW1 3329   4.780   3.797   0.773
  810SOL    HW2 3330   4.850   3.872   0.900
  811SOL     OW 3331   5.100   5.362   3.171
  811SOL    HW1 3332   5.164   5.364   3.247
  811SOL    HW2 3333   5.135   5.302   3.099
  812SOL     OW 3334   6.858   0.574   1.428
  812SOL    HW1 3335   6.943   0.531   1.458
  812SOL    HW2 3336   6.854   0.669   1.461
  813SOL     OW 3337   4.267   5.898   3.697
  813SOL    HW1 3338   4.284   5.800   3.703
  813SOL    HW2 3339   4.194   5.915   3.631
  814SOL     OW 3340   5.553   6.851   1.922
  814SOL    HW1 3341   5.492   6.773   1.935
  814SOL    HW2 3342   5.563   6.900   2.008
  815SOL     OW 3343   6.618   2.513   1.709
  815SOL    HW1 3344   6.640   2.481   1.801
  815SOL    HW2 3345   6.530   2.560   1.710
  816SOL     OW 3346   6.791   6.721   0.511
  816SOL    HW1 3347   6.838   6.749   0.595
  816SOL    HW2 3348   6.847   6.744   0.432
  817SOL     OW 3349   1.630   3.620   1.938
  817SOL    HW1 3350   1.558   3.551   1.942
  817SOL    HW2 3351   1.710   3.588   1.989
  818SOL     OW 3352   5.954   2.148   0.724
  818SOL    HW1 3353   6.006   2.118   0.804
  818SOL    HW2 3354   6.011   2.206   0.667
  819SOL     OW 3355   6.748   2.097   3.750
  819SOL    HW1 3356   6.774   2.169   3.686
  819SOL    HW2 3357   6.829   2.064   3.798
  820SOL     OW 3358   0.785   2.699   4.568
  820SOL    HW1 3359   0.695   2.656   4.558
  820SOL    HW2 3360   0.841   2.677   4.488
  821SOL     OW 3361   1.828   3.981   0.828
  821SOL    HW1 3362   1.821   3.994   0.729
  821SOL    HW2 3363   1.901   3.917   0.849
  822SOL     OW 3364   0.447   4.107   5.119
  822SOL    HW1 3365   0.450   4.007   5.116
  822SOL    HW2 3366   0.457   4.137   5.214
  823SOL     OW 3367   5.400   3.859   6.067
  823SOL    HW1 3368   5.491   3.896   6.081
  823SOL    HW2 3369   5.392   3.772   6.116
  824SOL     OW 3370   4.889   2.223   5.507
  824SOL    HW1 3371   4.856   2.313   5.535
  824SOL    HW2 3372   4.817   2.176   5.454
  825SOL     OW 3373   1.979   3.428   1.951
  825SOL    HW1 3374   1.995   3.363   1.877
  825SOL    HW2 3375   2.067   3.455   1.991
  826SOL     OW 3376   5.784   3.450   6.869
  826SOL    HW1 3377   5.774   3.498   6.956
  826SOL    HW2 3378   5.744   3.359   6.876
  827SOL     OW 3379   3.606   5.506   6.896
  827SOL    HW1 3380   3.665   5.577   6.859
  827SOL    HW2 3381   3.654   5.418   6.896
  828SOL     OW 3382   6.057   0.837   5.344
  828SOL    HW1 3383   6.137   0.784   5.373
  828SOL    HW2 3384   5.985   0.829   5.413
  829SOL     OW 3385   3.168   3.084   4.299
  829SOL    HW1 3386   3.093   3.149   4.287
  829SOL    HW2 3387   3.194   3.081   4.396
  830SOL     OW 3388   4.505   4.039   5.299
  830SOL    HW1 3389   4.436   4.111   5.303
  830SOL    HW2 3390   4.584   4.066   5.355
  831SOL     OW 3391   5.780   0.462   5.161
  831SOL    HW1 3392   5.870   0.497   5.135
  831SOL    HW2 3393   5.790   0.392   5.232
  832SOL     OW 3394   1.957   1.459   6.957
  832SOL    HW1 3395   2.056   1.455   6.940
  832SOL    HW2 3396   1.916   1.526   6.896
  833SOL     OW 3397   6.428   6.711   6.204
  833SOL    HW1 3398   6.445   6.678   6.111
  833SOL    HW2 3399   6.497   6.780   6.228
  834SOL     OW 3400   3.235   3.362   3.994
  834SOL    HW1 3401   3.204   3.441   4.046
  834SOL    HW2 3402   3.282   3.298   4.055
  835SOL     OW 3403   3.350   6.233   3.953
  835SOL    HW1 3404   3.329   6.221   4.050
  835SOL    HW2 3405   3.351   6.143   3.908
  836SOL     OW 3406   3.633   0.006   0.380
  836SOL    HW1 3407   3.554   6.969   0.354
  836SOL    HW2 3408   3.704   7.019   0.310
  837SOL     OW 3409   5.248   0.163   6.839
  837SOL    HW1 3410   5.190   0.121   6.768
  837SOL    HW2 3411   5.267   0.095   6.910
  838SOL     OW 3412   1.142   6.120   4.556
  838SOL    HW1 3413   1.227   6.104   4.605
  838SOL    HW2 3414   1.152   6.091   4.461
  839SOL     OW 3415   2.592   1.467   3.849
  839SOL    HW1 3416   2.546   1.495   3.765
  839SOL    HW2 3417   2.655   1.539   3.878
  840SOL     OW 3418   0.823   0.964   6.683
  840SOL    HW1 3419   0.910   0.975   6.636
  840SOL    HW2 3420   0.805   0.867   6.699
  841SOL     OW 3421   6.674   3.665   6.860
  841SOL    HW1 3422   6.745   3.705   6.802
  841SOL    HW2 3423   6.637   3.583   6.816
  842SOL     OW 3424   3.944   5.458   3.287
  842SOL    HW1 3425   3.962   5.395   3.363
  842SOL    HW2 3426   4.023   5.460   3.226
  843SOL     OW 3427   6.490   1.970   1.899
  843SOL    HW1 3428   6.456   2.063   1.884
  843SOL    HW2 3429   6.487   1.949   1.997
  844SOL     OW 3430   5.231   6.018   0.427
  844SOL    HW1 3431   5.145   5.977   0.457
  844SOL    HW2 3432   5.233   6.020   0.327
  845SOL     OW 3433   6.987   3.760   4.852
  845SOL    HW1 3434   6.975   3.829   4.780
  845SOL    HW2 3435   6.965   3.801   4.940
  846SOL     OW 3436   5.998   1.166   6.905
  846SOL    HW1 3437   5.979   1.121   6.818
  846SOL    HW2 3438   6.038   1.256   6.888
  847SOL     OW 3439   6.225   3.336   0.702
  847SOL    HW1 3440   6.259   3.378   0.787
  847SOL    HW2 3441   6.299   3.335   0.634
  848SOL     OW 3442   6.370   0.051   5.727
  848SOL    HW1 3443   6.437   0.032   5.798
  848SOL    HW2 3444   6.373   6.998   5.658
  849SOL     OW 3445   0.529   5.445   4.848
  849SOL    HW1 3446   0.540   5.350   4.879
  849SOL    HW2 3447   0.468   5.493   4.912
  850SOL     OW 3448   4.500   1.403   3.466
  850SOL    HW1 3449   4.471   1.370   3.376
  850SOL    HW2 3450   4.583   1.459   3.455
  851SOL     OW 3451   0.499   1.206   0.093
  851SOL    HW1 3452   0.535   1.263   0.166
  851SOL    HW2 3453   0.496   1.259   0.008
  852SOL     OW 3454   2.482   3.135   6.594
  852SOL    HW1 3455   2.404   3.084   6.558
  852SOL    HW2 3456   2.516   3.090   6.677
  853SOL     OW 3457   0.927   2.791   2.154
  853SOL    HW1 3458   0.972   2.878   2.175
  853SOL    HW2 3459   0.964   2.753   2.070
  854SOL     OW 3460   5.181   5.952   2.711
  854SOL    HW1 3461   5.277   5.928   2.726
  854SOL    HW2 3462   5.176   6.025   2.644
  855SOL     OW 3463   5.984   0.053   1.801
  855SOL    HW1 3464   5.989   0.123   1.729
  855SOL    HW2 3465   5.893   0.012   1.801
  856SOL     OW 3466   1.976   6.034   5.444
  856SOL    HW1 3467   2.042   6.057   5.516
  856SOL    HW2 3468   1.891   6.083   5.461
  857SOL     OW 3469   6.242   3.645   0.558
  857SOL    HW1 3470   6.235   3.624   0.655
  857SOL    HW2 3471   6.165   3.603   0.509
  858SOL     OW 3472   3.095   4.724   1.858
  858SOL    HW1 3473   3.135   4.782   1.929
  858SOL    HW2 3474   3.013   4.680   1.894
  859SOL     OW 3475   0.372   5.101   6.668
  859SOL    HW1 3476   0.280   5.140   6.662
  859SOL    HW2 3477   0.407   5.112   6.761
  860SOL     OW 3478   3.213   4.211   0.693
  860SOL    HW1 3479   3.262   4.128   0.720
  860SOL    HW2 3480   3.277   4.287   0.687
  861SOL     OW 3481   2.605   5.713   5.462
  861SOL    HW1 3482   2.620   5.702   5.560
  861SOL    HW2 3483   2.544   5.790   5.445
  862SOL     OW 3484   5.285   4.703   4.930
  862SOL    HW1 3485   5.267   4.739   4.838
  862SOL    HW2 3486   5.256   4.607   4.935
  863SOL     OW 3487   0.314   1.259   1.197
  863SOL    HW1 3488   0.241   1.288   1.134
  863SOL    HW2 3489   0.368   1.187   1.154
  864SOL     OW 3490   5.387   4.458   2.481
  864SOL    HW1 3491   5.339   4.545   2.489
  864SOL    HW2 3492   5.383   4.426   2.386
  865SOL     OW 3493   1.552   0.328   3.743
  865SOL    HW1 3494   1.630   0.292   3.794
  865SOL    HW2 3495   1.470   0.276   3.767
  866SOL     OW 3496   3.462   2.071   1.981
  866SOL    HW1 3497   3.466   2.004   1.906
  866SOL    HW2 3498   3.542   2.130   1.977
  867SOL     OW 3499   3.025   3.000   6.505
  867SOL    HW1 3500   3.042   2.904   6.483
  867SOL    HW2 3501   3.023   3.054   6.420
  868SOL     OW 3502   5.895   0.612   3.326
  868SOL    HW1 3503   5.877   0.557   3.244
  868SOL    HW2 3504   5.984   0.587   3.364
  869SOL     OW 3505   5.757   6.286   1.564
  869SOL    HW1 3506   5.734   6.344   1.642
  869SOL    HW2 3507   5.680   6.285   1.500
  870SOL     OW 3508   6.723   2.138   1.679
  870SOL    HW1 3509   6.756   2.138   1.773
  870SOL    HW2 3510   6.630   2.175   1.676
  871SOL     OW 3511   5.637   2.605   1.825
  871SOL    HW1 3512   5.660   2.508   1.832
  871SOL    HW2 3513   5.633   2.645   1.916
  872SOL     OW 3514   6.640   2.760   3.950
  872SOL    HW1 3515   6.663   2.688   3.883
  872SOL    HW2 3516   6.701   2.751   4.029
  873SOL     OW 3517   3.310   6.784   3.701
  873SOL    HW1 3518   3.331   6.852   3.630
  873SOL    HW2 3519   3.283   6.832   3.785
  874SOL     OW 3520   1.345   3.901   5.585
  874SOL    HW1 3521   1.359   3.924   5.489
  874SOL    HW2 3522   1.433   3.886   5.629
  875SOL     OW 3523   5.623   4.085   0.221
  875SOL    HW1 3524   5.603   4.183   0.223
  875SOL    HW2 3525   5.695   4.067   0.154
  876SOL     OW 3526   6.886   3.188   2.443
  876SOL    HW1 3527   6.825   3.158   2.517
  876SOL    HW2 3528   6.924   3.277   2.465
  877SOL     OW 3529   4.947   5.577   7.011
  877SOL    HW1 3530   4.920   5.641   6.939
  877SOL    HW2 3531   5.039   5.542   6.991
  878SOL     OW 3532   2.778   5.100   0.679
  878SOL    HW1 3533   2.807   5.187   0.639
  878SOL    HW2 3534   2.731   5.046   0.609
  879SOL     OW 3535   3.976   2.200   2.797
  879SOL    HW1 3536   3.973   2.242   2.706
  879SOL    HW2 3537   4.055   2.233   2.847
  880SOL     OW 3538   3.574   5.188   0.773
  880SOL    HW1 3539   3.567   5.140   0.686
  880SOL    HW2 3540   3.637   5.139   0.833
  881SOL     OW 3541   3.501   4.925   4.755
  881SOL    HW1 3542   3.560   4.999   4.723
  881SOL    HW2 3543   3.457   4.881   4.677
  882SOL     OW 3544   1.481   0.725   4.677
  882SOL    HW1 3545   1.432   0.789   4.736
  882SOL    HW2 3546   1.505   0.643   4.728
  883SOL     OW 3547   3.318   5.626   6.814
  883SOL    HW1 3548   3.380   5.573   6.757
  883SOL    HW2 3549   3.360   5.640   6.904
  884SOL     OW 3550   5.806   3.171   1.410
  884SOL    HW1 3551   5.897   3.188   1.446
  884SOL    HW2 3552   5.753   3.255   1.411
  885SOL     OW 3553   5.650   5.735   0.354
  885SOL    HW1 3554   5.552   5.726   0.369
  885SOL    HW2 3555   5.694   5.776   0.434
  886SOL     OW 3556   4.494   1.737   6.770
  886SOL    HW1 3557   4.533   1.668   6.710
  886SOL    HW2 3558   4.421   1.786   6.721
  887SOL     OW 3559   4.204   0.151   5.663
  887SOL    HW1 3560   4.145   0.191   5.734
  887SOL    HW2 3561   4.154   0.077   5.617
  888SOL     OW 3562   6.335   6.187   2.838
  888SOL    HW1 3563   6.311   6.095   2.872
  888SOL    HW2 3564   6.292   6.201   2.749
  889SOL     OW 3565   0.647   6.710   5.389
  889SOL    HW1 3566   0.714   6.660   5.445
  889SOL    HW2 3567   0.692   6.788   5.346
  890SOL     OW 3568   2.737   4.692   2.164
  890SOL    HW1 3569   2.778   4.666   2.077
  890SOL    HW2 3570   2.799   4.753   2.214
  891SOL     OW 3571   5.330   3.134   0.272
  891SOL    HW1 3572   5.243   3.107   0.313
  891SOL    HW2 3573   5.360   3.221   0.310
  892SOL     OW 3574   3.036   4.473   0.910
  892SOL    HW1 3575   2.994   4.385   0.932
  892SOL    HW2 3576   3.092   4.464   0.828
  893SOL     OW 3577   1.603   0.988   0.254
  893SOL    HW1 3578   1.652   0.915   0.302
  893SOL    HW2 3579   1.603   0.969   0.156
  894SOL     OW 3580   1.263   5.780   4.589
  894SOL    HW1 3581   1.179   5.810   4.544
  894SOL    HW2 3582   1.337   5.778   4.522
  895SOL     OW 3583   2.111   0.000   4.570
  895SOL    HW1 3584   2.053   6.949   4.530
  895SOL    HW2 3585   2.147   6.989   4.658
  896SOL     OW 3586   6.004   6.543   2.967
  896SOL    HW1 3587   5.907   6.557   2.986
  896SOL    HW2 3588   6.015   6.462   2.909
  897SOL     OW 3589   4.879   2.346   6.763
  897SOL    HW1 3590   4.843   2.425   6.812
  897SOL    HW2 3591   4.818   2.324   6.686
  898SOL     OW 3592   5.559   6.600   2.831
  898SOL    HW1 3593   5.586   6.551   2.748
  898SOL    HW2 3594   5.460   6.599   2.840
  899SOL     OW 3595   0.591   4.564   6.329
  899SOL    HW1 3596   0.560   4.628   6.258
  899SOL    HW2 3597   0.686   4.539   6.312
  900SOL     OW 3598   0.401   6.118   3.584
  900SOL    HW1 3599   0.459   6.084   3.510
  900SOL    HW2 3600   0.453   6.182   3.640
  901SOL     OW 3601   6.227   1.039   4.106
  901SOL    HW1 3602   6.277   0.977   4.165
  901SOL    HW2 3603   6.145   1.072   4.154
  902SOL     OW 3604   0.229   6.756   0.407
  902SOL    HW1 3605   0.148   6.808   0.380
  902SOL    HW2 3606   0.283   6.734   0.326
  903SOL     OW 3607   0.679   4.875   0.428
  903SOL    HW1 3608   0.656   4.959   0.478
  903SOL    HW2 3609   0.719   4.899   0.340
  904SOL     OW 3610   1.846   1.732   3.229
  904SOL    HW1 3611   1.877   1.794   3.302
  904SOL    HW2 3612   1.914   1.659   3.217
  905SOL     OW 3613   5.493   1.637   5.122
  905SOL    HW1 3614   5.457   1.728   5.139
  905SOL    HW2 3615   5.418   1.575   5.098
  906SOL     OW 3616   6.896   3.646   5.632
  906SOL    HW1 3617   6.900   3.576   5.560
  906SOL    HW2 3618   6.962   3.719   5.611
  907SOL     OW 3619   6.333   2.325   2.374
  907SOL    HW1 3620   6.332   2.342   2.473
  907SOL    HW2 3621   6.264   2.257   2.351
  908SOL     OW 3622   1.688   0.622   4.294
  908SOL    HW1 3623   1.678   0.692   4.223
  908SOL    HW2 3624   1.778   0.579   4.285
  909SOL     OW 3625   4.018   1.264   1.842
  909SOL    HW1 3626   3.989   1.169   1.857
  909SOL    HW2 3627   3.977   1.298   1.757
  910SOL     OW 3628   2.023   1.380   0.711
  910SOL    HW1 3629   1.979   1.452   0.657
  910SOL    HW2 3630   2.108   1.416   0.750
  911SOL     OW 3631   0.327   4.909   2.037
  911SOL    HW1 3632   0.301   4.954   2.122
  911SOL    HW2 3633   0.427   4.910   2.028
  912SOL     OW 3634   0.688   6.658   5.862
  912SOL    HW1 3635   0.611   6.705   5.819
  912SOL    HW2 3636   0.690   6.682   5.959
  913SOL     OW 3637   3.191   0.813   2.313
  913SOL    HW1 3638   3.286   0.838   2.293
  913SOL    HW2 3639   3.188   0.756   2.394
  914SOL     OW 3640   2.762   5.971   2.544
  914SOL    HW1 3641   2.694   5.898   2.550
  914SOL    HW2 3642   2.721   6.058   2.570
  915SOL     OW 3643   1.106   2.473   0.741
  915SOL    HW1 3644   1.198   2.510   0.755
  915SOL    HW2 3645   1.062   2.519   0.664
  916SOL     OW 3646   2.136   2.950   3.044
  916SOL    HW1 3647   2.183   3.038   3.051
  916SOL    HW2 3648   2.145   2.915   2.951
  917SOL     OW 3649   4.304   1.830   0.898
  917SOL    HW1 3650   4.220   1.786   0.929
  917SOL    HW2 3651   4.363   1.849   0.977
  918SOL     OW 3652   2.129   6.831   6.285
  918SOL    HW1 3653   2.071   6.867   6.358
  918SOL    HW2 3654   2.181   6.906   6.244
  919SOL     OW 3655   1.909   6.180   2.580
  919SOL    HW1 3656   1.934   6.206   2.673
  919SOL    HW2 3657   1.814   6.148   2.578
  920SOL     OW 3658   2.387   0.821   4.208
  920SOL    HW1 3659   2.392   0.818   4.308
  920SOL    HW2 3660   2.291   0.823   4.180
  921SOL     OW 3661   5.572   5.072   4.318
  921SOL    HW1 3662   5.625   5.033   4.394
  921SOL    HW2 3663   5.511   5.144   4.354
  922SOL     OW 3664   3.183   3.365   6.942
  922SOL    HW1 3665   3.264   3.423   6.929
  922SOL    HW2 3666   3.201   3.297   7.012
  923SOL     OW 3667   3.308   6.817   6.712
  923SOL    HW1 3668   3.254   6.734   6.723
  923SOL    HW2 3669   3.254   6.896   6.741
  924SOL     OW 3670   5.957   3.226   2.737
  924SOL    HW1 3671   5.995   3.171   2.663
  924SOL    HW2 3672   5.859   3.212   2.743
  925SOL     OW 3673   0.440   1.581   4.000
  925SOL    HW1 3674   0.515   1.581   4.067
  925SOL    HW2 3675   0.354   1.558   4.046
  926SOL     OW 3676   5.351   5.508   0.957
  926SOL    HW1 3677   5.393   5.597   0.971
  926SOL    HW2 3678   5.364   5.479   0.863
  927SOL     OW 3679   4.005   4.862   4.430
  927SOL    HW1 3680   3.958   4.915   4.501
  927SOL    HW2 3681   4.102   4.886   4.429
  928SOL     OW 3682   2.119   1.240   1.224
  928SOL    HW1 3683   2.096   1.273   1.133
  928SOL    HW2 3684   2.179   1.306   1.270
  929SOL     OW 3685   6.936   2.912   3.008
  929SOL    HW1 3686   6.923   2.813   3.011
  929SOL    HW2 3687   6.870   2.952   2.945
  930SOL     OW 3688   4.912   5.463   4.383
  930SOL    HW1 3689   4.834   5.473   4.445
  930SOL    HW2 3690   4.907   5.534   4.313
  931SOL     OW 3691   1.360   2.567   2.791
  931SOL    HW1 3692   1.346   2.488   2.851
  931SOL    HW2 3693   1.273   2.613   2.776
  932SOL     OW 3694   4.822   6.843   0.992
  932SOL    HW1 3695   4.766   6.886   1.062
  932SOL    HW2 3696   4.919   6.853   1.016
  933SOL     OW 3697   1.578   6.164   3.395
  933SOL    HW1 3698   1.638   6.235   3.432
  933SOL    HW2 3699   1.546   6.192   3.304
  934SOL     OW 3700   3.281   1.300   5.491
  934SOL    HW1 3701   3.209   1.350   5.538
  934SOL    HW2 3702   3.260   1.294   5.393
  935SOL     OW 3703   3.697   3.597   5.988
  935SOL    HW1 3704   3.652   3.528   6.045
  935SOL    HW2 3705   3.651   3.604   5.900
  936SOL     OW 3706   1.053   0.920   1.327
  936SOL    HW1 3707   1.081   0.938   1.233
  936SOL    HW2 3708   1.119   0.960   1.390
  937SOL     OW 3709   4.577   1.983   4.739
  937SOL    HW1 3710   4.621   2.048   4.676
  937SOL    HW2 3711   4.488   1.957   4.703
  938SOL     OW 3712   0.727   2.962   6.675
  938SOL    HW1 3713   0.798   2.980   6.743
  938SOL    HW2 3714   0.637   2.973   6.717
  939SOL     OW 3715   6.016   1.361   5.556
  939SOL    HW1 3716   6.007   1.410   5.469
  939SOL    HW2 3717   6.033   1.264   5.537
  940SOL     OW 3718   6.722   1.300   3.678
  940SOL    HW1 3719   6.809   1.251   3.681
  940SOL    HW2 3720   6.739   1.397   3.657
  941SOL     OW 3721   5.335   1.645   4.301
  941SOL    HW1 3722   5.400   1.711   4.263
  941SOL    HW2 3723   5.360   1.625   4.396
  942SOL     OW 3724   5.572   6.567   5.633
  942SOL    HW1 3725   5.499   6.500   5.643
  942SOL    HW2 3726   5.622   6.574   5.720
  943SOL     OW 3727   5.523   1.884   1.489
  943SOL    HW1 3728   5.440   1.835   1.516
  943SOL    HW2 3729   5.564   1.928   1.569
  944SOL     OW 3730   5.120   4.115   3.710
  944SOL    HW1 3731   5.209   4.132   3.666
  944SOL    HW2 3732   5.065   4.198   3.705
  945SOL     OW 3733   5.318   4.249   4.327
  945SOL    HW1 3734   5.247   4.178   4.324
  945SOL    HW2 3735   5.408   4.206   4.328
  946SOL     OW 3736   5.771   2.763   5.414
  946SOL    HW1 3737   5.682   2.757   5.460
  946SOL    HW2 3738   5.815   2.674   5.415
  947SOL     OW 3739   2.339   2.394   6.129
  947SOL    HW1 3740   2.431   2.427   6.151
  947SOL    HW2 3741   2.305   2.339   6.205
  948SOL     OW 3742   3.943   1.983   0.192
  948SOL    HW1 3743   3.948   2.043   0.112
  948SOL    HW2 3744   3.950   2.038   0.276
  949SOL     OW 3745   6.209   6.021   6.112
  949SOL    HW1 3746   6.208   6.107   6.062
  949SOL    HW2 3747   6.163   5.950   6.058
  950SOL     OW 3748   4.661   5.504   1.063
  950SOL    HW1 3749   4.702   5.513   1.154
  950SOL    HW2 3750   4.561   5.503   1.073
  951SOL     OW 3751   1.095   1.255   2.247
  951SOL    HW1 3752   1.007   1.262   2.294
  951SOL    HW2 3753   1.114   1.341   2.199
  952SOL     OW 3754   5.710   0.878   3.318
  952SOL    HW1 3755   5.807   0.883   3.343
  952SOL    HW2 3756   5.703   0.849   3.222
  953SOL     OW 3757   4.420   6.292   6.098
  953SOL    HW1 3758   4.376   6.270   6.185
  953SOL    HW2 3759   4.438   6.390   6.094
  954SOL     OW 3760   6.502   0.261   0.687
  954SOL    HW1 3761   6.462   0.336   0.740
  954SOL    HW2 3762   6.434   0.190   0.673
  955SOL     OW 3763   0.451   6.182   2.481
  955SOL    HW1 3764   0.421   6.273   2.510
  955SOL    HW2 3765   0.434   6.116   2.554
  956SOL     OW 3766   1.461   2.554   1.163
  956SOL    HW1 3767   1.515   2.637   1.148
  956SOL    HW2 3768   1.364   2.574   1.147
  957SOL     OW 3769   1.791   5.181   4.510
  957SOL    HW1 3770   1.839   5.107   4.557
  957SOL    HW2 3771   1.803   5.171   4.411
  958SOL     OW 3772   4.898   2.647   1.507
  958SOL    HW1 3773   4.871   2.692   1.592
  958SOL    HW2 3774   4.955   2.568   1.528
  959SOL     OW 3775   2.509   4.486   2.981
  959SOL    HW1 3776   2.461   4.411   2.935
  959SOL    HW2 3777   2.500   4.474   3.080
  960SOL     OW 3778   1.673   5.546   4.733
  960SOL    HW1 3779   1.581   5.514   4.713
  960SOL    HW2 3780   1.686   5.550   4.832
  961SOL     OW 3781   3.752   6.651   1.775
  961SOL    HW1 3782   3.760   6.553   1.794
  961SOL    HW2 3783   3.835   6.698   1.806
  962SOL     OW 3784   2.018   0.423   3.488
  962SOL    HW1 3785   1.952   0.438   3.415
  962SOL    HW2 3786   2.088   0.358   3.458
  963SOL     OW 3787   6.717   0.292   1.049
  963SOL    HW1 3788   6.785   0.222   1.027
  963SOL    HW2 3789   6.747   0.380   1.013
  964SOL     OW 3790   5.389   3.545   1.275
  964SOL    HW1 3791   5.289   3.546   1.273
  964SOL    HW2 3792   5.422   3.635   1.304
  965SOL     OW 3793   0.030   2.344   0.036
  965SOL    HW1 3794   0.128   2.326   0.036
  965SOL    HW2 3795   0.010   2.424   0.093
  966SOL     OW 3796   6.526   1.941   2.415
  966SOL    HW1 3797   6.483   1.957   2.504
  966SOL    HW2 3798   6.532   2.028   2.365
  967SOL     OW 3799   1.506   5.645   1.398
  967SOL    HW1 3800   1.410   5.655   1.425
  967SOL    HW2 3801   1.512   5.588   1.316
  968SOL     OW 3802   5.057   2.785   2.744
  968SOL    HW1 3803   4.991   2.826   2.807
  968SOL    HW2 3804   5.056   2.835   2.657
  969SOL     OW 3805   4.624   6.089   5.511
  969SOL    HW1 3806   4.606   6.164   5.575
  969SOL    HW2 3807   4.714   6.103   5.469
  970SOL     OW 3808   4.355   2.386   5.455
  970SOL    HW1 3809   4.259   2.413   5.457
  970SOL    HW2 3810   4.373   2.334   5.371
  971SOL     OW 3811   6.575   1.670   1.604
  971SOL    HW1 3812   6.528   1.753   1.633
  971SOL    HW2 3813   6.599   1.616   1.685
  972SOL     OW 3814   6.589   5.150   0.795
  972SOL    HW1 3815   6.490   5.135   0.806
  972SOL    HW2 3816   6.604   5.224   0.730
  973SOL     OW 3817   6.172   4.681   5.724
  973SOL    HW1 3818   6.168   4.585   5.753
  973SOL    HW2 3819   6.256   4.696   5.672
  974SOL     OW 3820   2.925   1.081   3.541
  974SOL    HW1 3821   2.954   0.992   3.576
  974SOL    HW2 3822   2.866   1.125   3.608
  975SOL     OW 3823   3.067   5.886   6.214
  975SOL    HW1 3824   3.069   5.817   6.286
  975SOL    HW2 3825   3.014   5.853   6.137
  976SOL     OW 3826   0.192   3.798   3.486
  976SOL    HW1 3827   0.120   3.732   3.468
  976SOL    HW2 3828   0.173   3.847   3.570
  977SOL     OW 3829   1.527   1.061   4.039
  977SOL    HW1 3830   1.563   0.968   4.041
  977SOL    HW2 3831   1.490   1.085   4.128
  978SOL     OW 3832   5.080   4.133   4.793
  978SOL    HW1 3833   4.990   4.103   4.826
  978SOL    HW2 3834   5.150   4.068   4.823
  979SOL     OW 3835   6.047   0.987   2.840
  979SOL    HW1 3836   6.077   0.892   2.829
  979SOL    HW2 3837   5.968   0.989   2.901
  980SOL     OW 3838   5.381   2.058   4.724
  980SOL    HW1 3839   5.343   1.969   4.746
  980SOL    HW2 3840   5.336   2.128   4.779
  981SOL     OW 3841   1.102   1.910   4.655
  981SOL    HW1 3842   1.075   1.844   4.726
  981SOL    HW2 3843   1.086   1.870   4.565
  982SOL     OW 3844   0.728   2.777   1.714
  982SOL    HW1 3845   0.757   2.870   1.738
  982SOL    HW2 3846   0.688   2.734   1.795
  983SOL     OW 3847   6.462   1.929   3.021
  983SOL    HW1 3848   6.410   1.845   3.007
  983SOL    HW2 3849   6.554   1.918   2.984
  984SOL     OW 3850   4.848   1.331   4.934
  984SOL    HW1 3851   4.887   1.399   4.873
  984SOL    HW2 3852   4.812   1.254   4.881
  985SOL     OW 3853   2.950   5.490   0.837
  985SOL    HW1 3854   2.931   5.463   0.931
  985SOL    HW2 3855   2.939   5.589   0.827
  986SOL     OW 3856   4.352   4.626   6.363
  986SOL    HW1 3857   4.349   4.725   6.377
  986SOL    HW2 3858   4.380   4.606   6.269
  987SOL     OW 3859   3.382   6.737   2.300
  987SOL    HW1 3860   3.361   6.672   2.227
  987SOL    HW2 3861   3.359   6.829   2.269
  988SOL     OW 3862   3.773   3.050   0.618
  988SOL    HW1 3863   3.697   3.067   0.555
  988SOL    HW2 3864   3.859   3.080   0.576
  989SOL     OW 3865   0.580   0.004   5.744
  989SOL    HW1 3866   0.507   6.966   5.709
  989SOL    HW2 3867   0.541   0.085   5.788
  990SOL     OW 3868   4.427   0.539   4.176
  990SOL    HW1 3869   4.458   0.596   4.252
  990SOL    HW2 3870   4.489   0.549   4.098
  991SOL     OW 3871   0.617   1.701   4.699
  991SOL    HW1 3872   0.672   1.639   4.754
  991SOL    HW2 3873   0.520   1.690   4.722
  992SOL     OW 3874   0.427   3.211   0.288
  992SOL    HW1 3875   0.467   3.192   0.198
  992SOL    HW2 3876   0.328   3.222   0.278
  993SOL     OW 3877   2.896   4.856   3.067
  993SOL    HW1 3878   2.973   4.914   3.091
  993SOL    HW2 3879   2.881   4.789   3.140
  994SOL     OW 3880   3.214   3.098   2.652
  994SOL    HW1 3881   3.174   3.074   2.740
  994SOL    HW2 3882   3.285   3.031   2.628
  995SOL     OW 3883   1.639   2.474   5.710
  995SOL    HW1 3884   1.713   2.424   5.667
  995SOL    HW2 3885   1.629   2.445   5.805
  996SOL     OW 3886   2.122   3.776   2.865
  996SOL    HW1 3887   2.197   3.724   2.825
  996SOL    HW2 3888   2.036   3.750   2.822
  997SOL     OW 3889   0.859   0.472   1.478
  997SOL    HW1 3890   0.871   0.425   1.566
  997SOL    HW2 3891   0.871   0.570   1.491
  998SOL     OW 3892   4.504   0.026   2.287
  998SOL    HW1 3893   4.501   6.949   2.309
  998SOL    HW2 3894   4.571   0.043   2.215
  999SOL     OW 3895   6.590   5.372   1.289
  999SOL    HW1 3896   6.676   5.321   1.293
  999SOL    HW2 3897   6.608   5.467   1.265
 1000SOL     OW 3898   2.431   2.489   4.019
 1000SOL    HW1 3899   2.338   2.452   4.022
 1000SOL    HW2 3900   2.445   2.540   3.934
 1001SOL     OW 3901   4.906   6.948   6.113
 1001SOL    HW1 3902   4.961   6.874   6.074
 1001SOL    HW2 3903   4.912   6.946   6.213
 1002SOL     OW 3904   5.850   1.516   6.980
 1002SOL    HW1 3905   5.793   1.494   0.040
 1002SOL    HW2 3906   5.931   1.458   6.979
 1003SOL     OW 3907   2.989   6.046   2.396
 1003SOL    HW1 3908   2.918   6.007   2.454
 1003SOL    HW2 3909   2.977   6.146   2.390
 1004SOL     OW 3910   6.598   6.914   6.842
 1004SOL    HW1 3911   6.662   6.978   6.799
 1004SOL    HW2 3912   6.509   6.958   6.853
 1005SOL     OW 3913   0.734   0.401   2.896
 1005SOL    HW1 3914   0.772   0.396   2.989
 1005SOL    HW2 3915   0.689   0.489   2.884
 1006SOL     OW 3916   2.694   4.987   0.972
 1006SOL    HW1 3917   2.730   4.917   1.035
 1006SOL    HW2 3918   2.616   4.949   0.922
 1007SOL     OW 3919   6.973   1.110   3.029
 1007SOL    HW1 3920   6.908   1.164   2.976
 1007SOL    HW2 3921   0.031   1.086   2.971
 1008SOL     OW 3922   1.089   3.814   3.731
 1008SOL    HW1 3923   1.061   3.885   3.796
 1008SOL    HW2 3924   1.042   3.829   3.644
 1009SOL     OW 3925   0.246   5.898   4.650
 1009SOL    HW1 3926   0.163   5.900   4.706
 1009SOL    HW2 3927   0.325   5.877   4.709
 1010SOL     OW 3928   4.213   2.331   0.247
 1010SOL    HW1 3929   4.254   2.420   0.268
 1010SOL    HW2 3930   4.165   2.296   0.328
 1011SOL     OW 3931   2.294   5.660   4.233
 1011SOL    HW1 3932   2.349   5.695   4.309
 1011SOL    HW2 3933   2.281   5.733   4.166
 1012SOL     OW 3934   5.958   5.299   0.011
 1012SOL    HW1 3935   5.894   5.273   0.083
 1012SOL    HW2 3936   5.948   5.396   7.010
 1013SOL     OW 3937   1.179   0.709   0.688
 1013SOL    HW1 3938   1.142   0.682   0.599
 1013SOL    HW2 3939   1.228   0.632   0.728
 1014SOL     OW 3940   4.408   6.654   5.667
 1014SOL    HW1 3941   4.330   6.666   5.729
 1014SOL    HW2 3942   4.376   6.618   5.579
 1015SOL     OW 3943   3.322   6.258   4.814
 1015SOL    HW1 3944   3.385   6.284   4.741
 1015SOL    HW2 3945   3.371   6.206   4.884
 1016SOL     OW 3946   3.663   3.028   1.153
 1016SOL    HW1 3947   3.761   3.047   1.147
 1016SOL    HW2 3948   3.645   2.970   1.233
 1017SOL     OW 3949   4.238   2.794   0.555
 1017SOL    HW1 3950   4.162   2.739   0.521
 1017SOL    HW2 3951   4.218   2.824   0.648
 1018SOL     OW 3952   0.852   3.350   3.899
 1018SOL    HW1 3953   0.885   3.427   3.844
 1018SOL    HW2 3954   0.850   3.268   3.842
 1019SOL     OW 3955   6.932   1.286   6.885
 1019SOL    HW1 3956   7.016   1.246   6.921
 1019SOL    HW2 3957   6.945   1.384   6.871
 1020SOL     OW 3958   2.863   1.043   0.900
 1020SOL    HW1 3959   2.812   1.030   0.986
 1020SOL    HW2 3960   2.837   0.972   0.835
 1021SOL     OW 3961   6.587   1.507   1.155
 1021SOL    HW1 3962   6.676   1.462   1.151
 1021SOL    HW2 3963   6.585   1.571   1.232
 1022SOL     OW 3964   4.353   3.463   6.082
 1022SOL    HW1 3965   4.279   3.514   6.125
 1022SOL    HW2 3966   4.340   3.461   5.983
 1023SOL     OW 3967   6.079   0.648   2.220
 1023SOL    HW1 3968   6.039   0.721   2.276
 1023SOL    HW2 3969   6.006   0.600   2.171
 1024SOL     OW 3970   6.267   1.771   4.119
 1024SOL    HW1 3971   6.276   1.799   4.024
 1024SOL    HW2 3972   6.175   1.734   4.134
 1025SOL     OW 3973   3.190   4.530   0.665
 1025SOL    HW1 3974   3.161   4.535   0.570
 1025SOL    HW2 3975   3.286   4.503   0.669
 1026SOL     OW 3976   2.378   2.069   6.541
 1026SOL    HW1 3977   2.349   2.138   6.607
 1026SOL    HW2 3978   2.398   2.114   6.453
 1027SOL     OW 3979   3.160   4.890   2.038
 1027SOL    HW1 3980   3.123   4.982   2.023
 1027SOL    HW2 3981   3.207   4.887   2.126
 1028SOL     OW 3982   1.964   5.943   1.262
 1028SOL    HW1 3983   1.994   5.891   1.183
 1028SOL    HW2 3984   1.876   5.988   1.242
 1029SOL     OW 3985   2.237   0.468   0.323
 1029SOL    HW1 3986   2.141   0.446   0.305
 1029SOL    HW2 3987   2.295   0.417   0.260
 1030SOL     OW 3988   3.947   3.613   4.995
 1030SOL    HW1 3989   3.994   3.593   4.909
 1030SOL    HW2 3990   3.967   3.706   5.024
 1031SOL     OW 3991   2.341   5.158   1.756
 1031SOL    HW1 3992   2.385   5.120   1.675
 1031SOL    HW2 3993   2.400   5.145   1.835
 1032SOL     OW 3994   1.903   1.686   4.412
 1032SOL    HW1 3995   1.871   1.755   4.347
 1032SOL    HW2 3996   1.932   1.604   4.363
 1033SOL     OW 3997   2.262   5.977   1.593
 1033SOL    HW1 3998   2.247   6.070   1.561
 1033SOL    HW2 3999   2.233   5.912   1.522
 1034SOL     OW 4000   2.329   5.406   3.445
 1034SOL    HW1 4001   2.377   5.318   3.444
 1034SOL    HW2 4002   2.389   5.476   3.484
 1035SOL     OW 4003   2.877   1.261   4.978
 1035SOL    HW1 4004   2.945   1.261   4.904
 1035SOL    HW2 4005   2.861   1.168   5.009
 1036SOL     OW 4006   4.411   2.462   1.074
 1036SOL    HW1 4007   4.391   2.424   0.984
 1036SOL    HW2 4008   4.505   2.497   1.075
 1037SOL     OW 4009   2.439   0.895   0.553
 1037SOL    HW1 4010   2.500   0.957   0.505
 1037SOL    HW2 4011   2.430   0.810   0.500
 1038SOL     OW 4012   1.961   1.246   5.723
 1038SOL    HW1 4013   1.862   1.259   5.712
 1038SOL    HW2 4014   1.985   1.152   5.698
 1039SOL     OW 4015   3.900   1.910   4.449
 1039SOL    HW1 4016   3.812   1.864   4.435
 1039SOL    HW2 4017   3.974   1.850   4.417
 1040SOL     OW 4018   5.748   4.015   2.515
 1040SOL    HW1 4019   5.672   4.037   2.577
 1040SOL    HW2 4020   5.791   3.930   2.544
 1041SOL     OW 4021   6.904   1.021   3.927
 1041SOL    HW1 4022   6.917   1.098   3.990
 1041SOL    HW2 4023   6.812   0.984   3.939
 1042SOL     OW 4024   5.540   5.234   1.079
 1042SOL    HW1 4025   5.633   5.201   1.067
 1042SOL    HW2 4026   5.489   5.222   0.994
 1043SOL     OW 4027   3.507   1.619   6.510
 1043SOL    HW1 4028   3.496   1.558   6.432
 1043SOL    HW2 4029   3.520   1.564   6.593
 1044SOL     OW 4030   3.917   3.294   2.008
 1044SOL    HW1 4031   3.971   3.215   2.037
 1044SOL    HW2 4032   3.970   3.348   1.943
 1045SOL     OW 4033   3.105   1.292   3.123
 1045SOL    HW1 4034   3.144   1.356   3.189
 1045SOL    HW2 4035   3.005   1.293   3.132
 1046SOL     OW 4036   3.622   6.920   0.939
 1046SOL    HW1 4037   3.639   6.878   1.029
 1046SOL    HW2 4038   3.568   6.857   0.883
 1047SOL     OW 4039   1.025   5.277   2.989
 1047SOL    HW1 4040   0.976   5.203   2.943
 1047SOL    HW2 4041   1.116   5.245   3.017
 1048SOL     OW 4042   5.260   4.736   4.665
 1048SOL    HW1 4043   5.305   4.809   4.614
 1048SOL    HW2 4044   5.252   4.655   4.607
 1049SOL     OW 4045   0.254   3.960   4.610
 1049SOL    HW1 4046   0.345   3.920   4.616
 1049SOL    HW2 4047   0.193   3.914   4.675
 1050SOL     OW 4048   3.953   7.013   6.656
 1050SOL    HW1 4049   4.009   6.930   6.649
 1050SOL    HW2 4050   3.873   6.994   6.713
 1051SOL     OW 4051   5.209   4.783   0.085
 1051SOL    HW1 4052   5.306   4.784   0.062
 1051SOL    HW2 4053   5.181   4.690   0.108
 1052SOL     OW 4054   3.754   0.334   4.948
 1052SOL    HW1 4055   3.684   0.344   5.018
 1052SOL    HW2 4056   3.768   0.421   4.901
 1053SOL     OW 4057   4.546   5.015   3.697
 1053SOL    HW1 4058   4.509   5.015   3.790
 1053SOL    HW2 4059   4.637   5.056   3.698
 1054SOL     OW 4060   3.146   5.009   5.398
 1054SOL    HW1 4061   3.179   4.929   5.347
 1054SOL    HW2 4062   3.156   4.992   5.496
 1055SOL     OW 4063   4.314   6.079   5.052
 1055SOL    HW1 4064   4.228   6.050   5.012
 1055SOL    HW2 4065   4.296   6.131   5.136
 1056SOL     OW 4066   1.776   6.403   5.716
 1056SOL    HW1 4067   1.848   6.390   5.647
 1056SOL    HW2 4068   1.695   6.442   5.673
 1057SOL     OW 4069   3.219   3.370   2.909
 1057SOL    HW1 4070   3.163   3.288   2.917
 1057SOL    HW2 4071   3.251   3.398   2.999
 1058SOL     OW 4072   3.319   1.412   2.259
 1058SOL    HW1 4073   3.225   1.392   2.230
 1058SOL    HW2 4074   3.381   1.401   2.181
 1059SOL     OW 4075   4.290   1.294   1.613
 1059SOL    HW1 4076   4.385   1.270   1.593
 1059SOL    HW2 4077   4.287   1.377   1.669
 1060SOL     OW 4078   1.091   2.814   5.474
 1060SOL    HW1 4079   1.062   2.809   5.570
 1060SOL    HW2 4080   1.046   2.743   5.421
 1061SOL     OW 4081   3.228   4.985   1.369
 1061SOL    HW1 4082   3.239   4.982   1.468
 1061SOL    HW2 4083   3.229   4.891   1.333
 1062SOL     OW 4084   6.266   5.781   5.666
 1062SOL    HW1 4085   6.270   5.748   5.571
 1062SOL    HW2 4086   6.346   5.750   5.716
 1063SOL     OW 4087   2.032   3.121   0.766
 1063SOL    HW1 4088   1.954   3.062   0.789
 1063SOL    HW2 4089   2.033   3.136   0.667
 1064SOL     OW 4090   0.585   3.222   1.846
 1064SOL    HW1 4091   0.638   3.196   1.926
 1064SOL    HW2 4092   0.489   3.198   1.859
 1065SOL     OW 4093   5.738   6.627   4.049
 1065SOL    HW1 4094   5.793   6.680   3.985
 1065SOL    HW2 4095   5.654   6.597   4.004
 1066SOL     OW 4096   4.911   0.170   3.521
 1066SOL    HW1 4097   4.865   0.123   3.446
 1066SOL    HW2 4098   4.876   0.135   3.608
 1067SOL     OW 4099   2.000   3.002   1.969
 1067SOL    HW1 4100   1.998   3.046   1.879
 1067SOL    HW2 4101   2.054   3.058   2.032
 1068SOL     OW 4102   0.270   3.410   2.440
 1068SOL    HW1 4103   0.177   3.447   2.440
 1068SOL    HW2 4104   0.323   3.453   2.366
 1069SOL     OW 4105   4.224   4.475   1.229
 1069SOL    HW1 4106   4.233   4.573   1.250
 1069SOL    HW2 4107   4.180   4.464   1.140
 1070SOL     OW 4108   2.209   0.969   0.444
 1070SOL    HW1 4109   2.132   0.926   0.491
 1070SOL    HW2 4110   2.294   0.946   0.492
 1071SOL     OW 4111   3.676   6.366   3.258
 1071SOL    HW1 4112   3.713   6.319   3.338
 1071SOL    HW2 4113   3.726   6.338   3.176
 1072SOL     OW 4114   3.052   6.443   2.921
 1072SOL    HW1 4115   3.006   6.489   2.845
 1072SOL    HW2 4116   3.122   6.381   2.884
 1073SOL     OW 4117   2.778   4.756   2.599
 1073SOL    HW1 4118   2.817   4.666   2.577
 1073SOL    HW2 4119   2.754   4.758   2.696
 1074SOL     OW 4120   0.823   4.768   2.033
 1074SOL    HW1 4121   0.906   4.735   1.988
 1074SOL    HW2 4122   0.848   4.833   2.106
 1075SOL     OW 4123   5.152   4.536   3.875
 1075SOL    HW1 4124   5.151   4.570   3.969
 1075SOL    HW2 4125   5.247   4.521   3.846
 1076SOL     OW 4126   0.468   4.378   4.150
 1076SOL    HW1 4127   0.541   4.445   4.164
 1076SOL    HW2 4128   0.486   4.325   4.067
 1077SOL     OW 4129   4.772   0.285   1.125
 1077SOL    HW1 4130   4.690   0.326   1.165
 1077SOL    HW2 4131   4.745   0.210   1.064
 1078SOL     OW 4132   1.529   2.126   1.489
 1078SOL    HW1 4133   1.564   2.042   1.447
 1078SOL    HW2 4134   1.498   2.188   1.418
 1079SOL     OW 4135   2.948   5.523   3.622
 1079SOL    HW1 4136   2.894   5.515   3.706
 1079SOL    HW2 4137   3.008   5.444   3.614
 1080SOL     OW 4138   2.064   5.093   3.714
 1080SOL    HW1 4139   2.107   5.063   3.628
 1080SOL    HW2 4140   1.966   5.101   3.700
 1081SOL     OW 4141   1.751   0.583   0.416
 1081SOL    HW1 4142   1.759   0.508   0.350
 1081SOL    HW2 4143   1.761   0.670   0.367
 1082SOL     OW 4144   1.332   0.207   5.737
 1082SOL    HW1 4145   1.359   0.112   5.754
 1082SOL    HW2 4146   1.355   0.262   5.817
 1083SOL     OW 4147   3.544   3.746   2.274
 1083SOL    HW1 4148   3.448   3.770   2.255
 1083SOL    HW2 4149   3.593   3.738   2.187
 1084SOL     OW 4150   5.987   4.354   1.148
 1084SOL    HW1 4151   5.889   4.373   1.142
 1084SOL    HW2 4152   6.010   4.325   1.241
 1085SOL     OW 4153   1.784   4.571   4.063
 1085SOL    HW1 4154   1.717   4.645   4.054
 1085SOL    HW2 4155   1.749   4.502   4.126
 1086SOL     OW 4156   4.284   4.618   2.250
 1086SOL    HW1 4157   4.251   4.536   2.296
 1086SOL    HW2 4158   4.350   4.593   2.179
 1087SOL     OW 4159   4.441   2.932   5.365
 1087SOL    HW1 4160   4.386   3.009   5.333
 1087SOL    HW2 4161   4.386   2.848   5.362
 1088SOL     OW 4162   4.943   4.346   3.952
 1088SOL    HW1 4163   5.008   4.395   3.893
 1088SOL    HW2 4164   4.965   4.365   4.048
 1089SOL     OW 4165   0.123   0.155   4.314
 1089SOL    HW1 4166   0.185   0.104   4.373
 1089SOL    HW2 4167   0.030   0.118   4.322
 1090SOL     OW 4168   1.619   1.390   6.666
 1090SOL    HW1 4169   1.537   1.333   6.666
 1090SOL    HW2 4170   1.689   1.348   6.608
 1091SOL     OW 4171   1.658   1.788   4.921
 1091SOL    HW1 4172   1.729   1.724   4.890
 1091SOL    HW2 4173   1.698   1.853   4.985
 1092SOL     OW 4174   2.448   3.912   1.707
 1092SOL    HW1 4175   2.446   3.998   1.758
 1092SOL    HW2 4176   2.381   3.849   1.745
 1093SOL     OW 4177   0.555   2.547   2.146
 1093SOL    HW1 4178   0.634   2.495   2.114
 1093SOL    HW2 4179   0.479   2.485   2.165
 1094SOL     OW 4180   0.418   6.923   1.300
 1094SOL    HW1 4181   0.377   6.851   1.245
 1094SOL    HW2 4182   0.515   6.929   1.280
 1095SOL     OW 4183   6.367   3.031   6.240
 1095SOL    HW1 4184   6.394   2.943   6.200
 1095SOL    HW2 4185   6.282   3.061   6.196
 1096SOL     OW 4186   3.308   4.149   1.518
 1096SOL    HW1 4187   3.220   4.112   1.547
 1096SOL    HW2 4188   3.304   4.173   1.421
 1097SOL     OW 4189   1.206   5.299   5.039
 1097SOL    HW1 4190   1.159   5.226   4.989
 1097SOL    HW2 4191   1.263   5.259   5.111
 1098SOL     OW 4192   5.027   2.026   2.258
 1098SOL    HW1 4193   5.046   1.931   2.235
 1098SOL    HW2 4194   4.931   2.046   2.240
 1099SOL     OW 4195   4.288   1.729   4.122
 1099SOL    HW1 4196   4.319   1.749   4.215
 1099SOL    HW2 4197   4.194   1.697   4.125
 1100SOL     OW 4198   0.648   0.713   6.407
 1100SOL    HW1 4199   0.658   0.804   6.367
 1100SOL    HW2 4200   0.558   0.705   6.450
 1101SOL     OW 4201   5.036   3.646   0.714
 1101SOL    HW1 4202   4.990   3.561   0.687
 1101SOL    HW2 4203   4.971   3.706   0.760
 1102SOL     OW 4204   0.296   4.562   3.827
 1102SOL    HW1 4205   0.263   4.531   3.916
 1102SOL    HW2 4206   0.221   4.604   3.776
 1103SOL     OW 4207   1.854   2.160   1.841
 1103SOL    HW1 4208   1.916   2.238   1.852
 1103SOL    HW2 4209   1.793   2.177   1.764
 1104SOL     OW 4210   3.734   4.626   6.268
 1104SOL    HW1 4211   3.790   4.708   6.282
 1104SOL    HW2 4212   3.662   4.646   6.201
 1105SOL     OW 4213   5.166   4.259   6.277
 1105SOL    HW1 4214   5.200   4.217   6.193
 1105SOL    HW2 4215   5.238   4.256   6.347
 1106SOL     OW 4216   0.314   2.655   5.260
 1106SOL    HW1 4217   0.252   2.687   5.331
 1106SOL    HW2 4218   0.329   2.557   5.271
 1107SOL     OW 4219   1.299   0.503   0.843
 1107SOL    HW1 4220   1.313   0.432   0.775
 1107SOL    HW2 4221   1.277   0.461   0.931
 1108SOL     OW 4222   1.731   0.859   5.420
 1108SOL    HW1 4223   1.631   0.859   5.430
 1108SOL    HW2 4224   1.763   0.953   5.410
 1109SOL     OW 4225   4.259   6.389   4.301
 1109SOL    HW1 4226   4.238   6.448   4.379
 1109SOL    HW2 4227   4.307   6.441   4.231
 1110SOL     OW 4228   2.993   3.865   2.150
 1110SOL    HW1 4229   2.930   3.846   2.226
 1110SOL    HW2 4230   2.952   3.833   2.065
 1111SOL     OW 4231   5.749   0.838   0.084
 1111SOL    HW1 4232   5.685   0.862   0.011
 1111SOL    HW2 4233   5.822   0.781   0.048
 1112SOL     OW 4234   6.742   1.001   2.069
 1112SOL    HW1 4235   6.745   0.912   2.024
 1112SOL    HW2 4236   6.768   1.072   2.003
 1113SOL     OW 4237   6.418   3.429   2.761
 1113SOL    HW1 4238   6.327   3.415   2.801
 1113SOL    HW2 4239   6.460   3.341   2.741
 1114SOL     OW 4240   4.656   1.365   5.678
 1114SOL    HW1 4241   4.630   1.364   5.582
 1114SOL    HW2 4242   4.593   1.306   5.730
 1115SOL     OW 4243   2.857   3.397   0.980
 1115SOL    HW1 4244   2.949   3.428   0.958
 1115SOL    HW2 4245   2.861   3.332   1.056
 1116SOL     OW 4246   4.020   6.467   4.190
 1116SOL    HW1 4247   3.935   6.460   4.244
 1116SOL    HW2 4248   4.091   6.412   4.233
 1117SOL     OW 4249   3.241   2.940   1.085
 1117SOL    HW1 4250   3.148   2.947   1.049
 1117SOL    HW2 4251   3.302   2.996   1.029
 1118SOL     OW 4252   2.357   4.414   3.231
 1118SOL    HW1 4253   2.301   4.467   3.168
 1118SOL    HW2 4254   2.340   4.317   3.218
 1119SOL     OW 4255   4.096   3.786   1.580
 1119SOL    HW1 4256   4.138   3.745   1.661
 1119SOL    HW2 4257   4.152   3.862   1.548
 1120SOL     OW 4258   4.660   7.013   5.641
 1120SOL    HW1 4259   4.662   6.916   5.666
 1120SOL    HW2 4260   4.693   0.004   5.548
 1121SOL     OW 4261   5.498   2.886   1.851
 1121SOL    HW1 4262   5.557   2.813   1.817
 1121SOL    HW2 4263   5.554   2.956   1.895
 1122SOL     OW 4264   5.083   3.285   6.354
 1122SOL    HW1 4265   5.102   3.202   6.405
 1122SOL    HW2 4266   4.986   3.307   6.361
 1123SOL     OW 4267   4.369   0.896   2.625
 1123SOL    HW1 4268   4.324   0.980   2.593
 1123SOL    HW2 4269   4.336   0.874   2.717
 1124SOL     OW 4270   6.631   4.051   4.776
 1124SOL    HW1 4271   6.587   3.988   4.713
 1124SOL    HW2 4272   6.578   4.136   4.781
 1125SOL     OW 4273   3.451   3.098   5.096
 1125SOL    HW1 4274   3.358   3.100   5.058
 1125SOL    HW2 4275   3.515   3.137   5.030
 1126SOL     OW 4276   5.027   6.514   1.485
 1126SOL    HW1 4277   5.108   6.488   1.538
 1126SOL    HW2 4278   4.957   6.444   1.496
 1127SOL     OW 4279   2.012   5.001   0.078
 1127SOL    HW1 4280   1.926   5.037   0.113
 1127SOL    HW2 4281   2.033   4.914   0.122
 1128SOL     OW 4282   3.127   1.787   4.245
 1128SOL    HW1 4283   3.131   1.861   4.178
 1128SOL    HW2 4284   3.219   1.753   4.263
 1129SOL     OW 4285   5.272   0.428   6.837
 1129SOL    HW1 4286   5.258   0.329   6.833
 1129SOL    HW2 4287   5.283   0.457   6.932
 1130SOL     OW 4288   0.815   4.310   6.703
 1130SOL    HW1 4289   0.718   4.320   6.723
 1130SOL    HW2 4290   0.864   4.286   6.786
 1131SOL     OW 4291   0.529   6.157   5.302
 1131SOL    HW1 4292   0.612   6.213   5.306
 1131SOL    HW2 4293   0.486   6.154   5.392
 1132SOL     OW 4294   4.753   6.533   5.589
 1132SOL    HW1 4295   4.732   6.551   5.493
 1132SOL    HW2 4296   4.814   6.605   5.623
 1133SOL     OW 4297   0.424   3.757   1.503
 1133SOL    HW1 4298   0.515   3.754   1.461
 1133SOL    HW2 4299   0.368   3.683   1.468
 1134SOL     OW 4300   5.239   2.549   6.302
 1134SOL    HW1 4301   5.169   2.564   6.233
 1134SOL    HW2 4302   5.251   2.451   6.317
 1135SOL     OW 4303   2.609   2.159   3.283
 1135SOL    HW1 4304   2.606   2.071   3.235
 1135SOL    HW2 4305   2.691   2.209   3.254
 1136SOL     OW 4306   3.277   5.553   3.503
 1136SOL    HW1 4307   3.282   5.494   3.583
 1136SOL    HW2 4308   3.279   5.649   3.532
 1137SOL     OW 4309   0.817   1.357   6.248
 1137SOL    HW1 4310   0.730   1.342   6.200
 1137SOL    HW2 4311   0.825   1.453   6.274
 1138SOL     OW 4312   1.359   3.780   5.888
 1138SOL    HW1 4313   1.430   3.746   5.950
 1138SOL    HW2 4314   1.393   3.861   5.840
 1139SOL     OW 4315   1.734   6.742   2.455
 1139SOL    HW1 4316   1.766   6.807   2.524
 1139SOL    HW2 4317   1.640   6.715   2.476
 1140SOL     OW 4318   3.594   1.682   3.494
 1140SOL    HW1 4319   3.679   1.730   3.515
 1140SOL    HW2 4320   3.533   1.743   3.444
 1141SOL     OW 4321   6.465   5.639   5.136
 1141SOL    HW1 4322   6.408   5.721   5.124
 1141SOL    HW2 4323   6.408   5.557   5.130
 1142SOL     OW 4324   5.207   0.274   4.081
 1142SOL    HW1 4325   5.127   0.241   4.031
 1142SOL    HW2 4326   5.179   0.344   4.147
 1143SOL     OW 4327   4.021   2.202   3.155
 1143SOL    HW1 4328   4.080   2.227   3.078
 1143SOL    HW2 4329   3.926   2.201   3.125
 1144SOL     OW 4330   0.349   4.961   4.588
 1144SOL    HW1 4331   0.400   5.036   4.630
 1144SOL    HW2 4332   0.350   4.882   4.649
 1145SOL     OW 4333   0.033   5.495   4.431
 1145SOL    HW1 4334   7.002   5.581   4.432
 1145SOL    HW2 4335   0.081   5.486   4.343
 1146SOL     OW 4336   5.831   1.975   1.172
 1146SOL    HW1 4337   5.902   1.981   1.243
 1146SOL    HW2 4338   5.873   1.987   1.082
 1147SOL     OW 4339   0.553   3.534   1.958
 1147SOL    HW1 4340   0.584   3.629   1.947
 1147SOL    HW2 4341   0.481   3.515   1.892
 1148SOL     OW 4342   4.027   6.722   6.682
 1148SOL    HW1 4343   3.930   6.743   6.672
 1148SOL    HW2 4344   4.048   6.703   6.778
 1149SOL     OW 4345   6.903   3.496   2.659
 1149SOL    HW1 4346   6.811   3.532   2.645
 1149SOL    HW2 4347   6.897   3.401   2.688
 1150SOL     OW 4348   1.645   4.813   0.434
 1150SOL    HW1 4349   1.715   4.880   0.459
 1150SOL    HW2 4350   1.680   4.721   0.452
 1151SOL     OW 4351   6.154   4.844   6.519
 1151SOL    HW1 4352   6.142   4.852   6.420
 1151SOL    HW2 4353   6.172   4.935   6.557
 1152SOL     OW 4354   1.938   0.294   4.905
 1152SOL    HW1 4355   1.891   0.236   4.838
 1152SOL    HW2 4356   1.931   0.253   4.996
 1153SOL     OW 4357   2.141   5.791   2.972
 1153SOL    HW1 4358   2.161   5.698   3.002
 1153SOL    HW2 4359   2.214   5.852   3.002
 1154SOL     OW 4360   0.618   3.798   1.928
 1154SOL    HW1 4361   0.599   3.824   2.022
 1154SOL    HW2 4362   0.564   3.855   1.866
 1155SOL     OW 4363   3.567   5.751   1.830
 1155SOL    HW1 4364   3.602   5.660   1.852
 1155SOL    HW2 4365   3.642   5.817   1.830
 1156SOL     OW 4366   2.199   0.645   4.439
 1156SOL    HW1 4367   2.228   0.613   4.348
 1156SOL    HW2 4368   2.247   0.592   4.509
 1157SOL     OW 4369   0.524   2.969   4.160
 1157SOL    HW1 4370   0.599   2.929   4.212
 1157SOL    HW2 4371   0.480   3.042   4.213
 1158SOL     OW 4372   5.624   5.143   5.307
 1158SOL    HW1 4373   5.636   5.090   5.391
 1158SOL    HW2 4374   5.594   5.082   5.233
 1159SOL     OW 4375   3.714   5.165   3.413
 1159SOL    HW1 4376   3.754   5.074   3.427
 1159SOL    HW2 4377   3.704   5.182   3.315
 1160SOL     OW 4378   4.038   3.612   2.063
 1160SOL    HW1 4379   3.987   3.573   2.140
 1160SOL    HW2 4380   4.079   3.699   2.090
 1161SOL     OW 4381   5.357   0.939   3.410
 1161SOL    HW1 4382   5.316   0.962   3.498
 1161SOL    HW2 4383   5.416   0.859   3.421
 1162SOL     OW 4384   3.402   4.111   2.262
 1162SOL    HW1 4385   3.339   4.156   2.198
 1162SOL    HW2 4386   3.496   4.121   2.229
 1163SOL     OW 4387   5.054   2.359   2.623
 1163SOL    HW1 4388   5.002   2.441   2.599
 1163SOL    HW2 4389   5.094   2.320   2.540
 1164SOL     OW 4390   5.630   2.804   3.151
 1164SOL    HW1 4391   5.592   2.780   3.062
 1164SOL    HW2 4392   5.707   2.867   3.138
 1165SOL     OW 4393   0.687   4.452   3.402
 1165SOL    HW1 4394   0.656   4.372   3.454
 1165SOL    HW2 4395   0.768   4.428   3.349
 1166SOL     OW 4396   4.118   2.646   5.947
 1166SOL    HW1 4397   4.109   2.548   5.931
 1166SOL    HW2 4398   4.066   2.696   5.878
 1167SOL     OW 4399   5.082   1.156   5.048
 1167SOL    HW1 4400   5.086   1.084   4.980
 1167SOL    HW2 4401   5.008   1.220   5.026
 1168SOL     OW 4402   6.851   6.691   3.277
 1168SOL    HW1 4403   6.933   6.698   3.221
 1168SOL    HW2 4404   6.834   6.779   3.322
 1169SOL     OW 4405   0.670   3.768   1.364
 1169SOL    HW1 4406   0.752   3.810   1.403
 1169SOL    HW2 4407   0.673   3.776   1.265
 1170SOL     OW 4408   3.188   1.113   2.220
 1170SOL    HW1 4409   3.163   1.192   2.165
 1170SOL    HW2 4410   3.118   1.041   2.210
 1171SOL     OW 4411   2.861   5.745   0.820
 1171SOL    HW1 4412   2.767   5.741   0.857
 1171SOL    HW2 4413   2.884   5.840   0.800
 1172SOL     OW 4414   3.021   3.539   4.685
 1172SOL    HW1 4415   2.994   3.551   4.589
 1172SOL    HW2 4416   3.079   3.457   4.692
 1173SOL     OW 4417   3.103   1.033   6.194
 1173SOL    HW1 4418   3.185   1.057   6.247
 1173SOL    HW2 4419   3.029   1.096   6.217
 1174SOL     OW 4420   2.941   6.132   1.200
 1174SOL    HW1 4421   3.014   6.115   1.133
 1174SOL    HW2 4422   2.918   6.229   1.199
 1175SOL     OW 4423   6.336   4.952   5.891
 1175SOL    HW1 4424   6.428   4.936   5.926
 1175SOL    HW2 4425   6.339   4.961   5.791
 1176SOL     OW 4426   5.710   4.346   1.134
 1176SOL    HW1 4427   5.734   4.256   1.100
 1176SOL    HW2 4428   5.617   4.370   1.105
 1177SOL     OW 4429   6.738   2.913   5.728
 1177SOL    HW1 4430   6.831   2.948   5.722
 1177SOL    HW2 4431   6.715   2.864   5.644
 1178SOL     OW 4432   5.699   3.428   1.427
 1178SOL    HW1 4433   5.766   3.481   1.375
 1178SOL    HW2 4434   5.639   3.490   1.478
 1179SOL     OW 4435   1.874   5.680   6.970
 1179SOL    HW1 4436   1.791   5.731   6.946
 1179SOL    HW2 4437   1.931   5.737   0.010
 1180SOL     OW 4438   1.788   2.038   4.417
 1180SOL    HW1 4439   1.854   2.015   4.489
 1180SOL    HW2 4440   1.695   2.029   4.452
 1181SOL     OW 4441   2.015   4.281   3.226
 1181SOL    HW1 4442   1.917   4.263   3.214
 1181SOL    HW2 4443   2.067   4.197   3.212
 1182SOL     OW 4444   2.496   4.513   4.021
 1182SOL    HW1 4445   2.446   4.550   4.099
 1182SOL    HW2 4446   2.540   4.588   3.971
 1183SOL     OW 4447   4.361   5.971   0.714
 1183SOL    HW1 4448   4.367   5.963   0.813
 1183SOL    HW2 4449   4.305   5.896   0.678
 1184SOL     OW 4450   2.986   2.783   5.569
 1184SOL    HW1 4451   3.070   2.825   5.535
 1184SOL    HW2 4452   3.008   2.718   5.642
 1185SOL     OW 4453   2.041   0.635   7.016
 1185SOL    HW1 4454   2.122   0.672   6.970
 1185SOL    HW2 4455   2.039   0.668   0.091
 1186SOL     OW 4456   5.054   0.544   4.643
 1186SOL    HW1 4457   5.094   0.498   4.723
 1186SOL    HW2 4458   5.127   0.586   4.589
 1187SOL     OW 4459   5.835   0.250   5.312
 1187SOL    HW1 4460   5.864   0.206   5.227
 1187SOL    HW2 4461   5.903   0.235   5.382
 1188SOL     OW 4462   1.618   0.244   6.266
 1188SOL    HW1 4463   1.595   0.233   6.363
 1188SOL    HW2 4464   1.718   0.240   6.256
 1189SOL     OW 4465   5.812   0.550   1.404
 1189SOL    HW1 4466   5.745   0.611   1.447
 1189SOL    HW2 4467   5.774   0.458   1.398
 1190SOL     OW 4468   4.479   5.022   2.315
 1190SOL    HW1 4469   4.566   4.975   2.334
 1190SOL    HW2 4470   4.403   4.958   2.330
 1191SOL     OW 4471   3.221   5.639   6.491
 1191SOL    HW1 4472   3.269   5.564   6.445
 1191SOL    HW2 4473   3.236   5.633   6.590
 1192SOL     OW 4474   5.761   5.382   2.970
 1192SOL    HW1 4475   5.663   5.401   2.972
 1192SOL    HW2 4476   5.784   5.335   2.885
 1193SOL     OW 4477   5.282   0.674   3.703
 1193SOL    HW1 4478   5.225   0.594   3.722
 1193SOL    HW2 4479   5.224   0.754   3.689
 1194SOL     OW 4480   6.305   0.430   0.414
 1194SOL    HW1 4481   6.400   0.432   0.443
 1194SOL    HW2 4482   6.247   0.396   0.488
 1195SOL     OW 4483   5.687   0.297   6.516
 1195SOL    HW1 4484   5.778   0.338   6.524
 1195SOL    HW2 4485   5.638   0.308   6.603
 1196SOL     OW 4486   0.398   5.110   2.714
 1196SOL    HW1 4487   0.482   5.097   2.662
 1196SOL    HW2 4488   0.395   5.204   2.749
 1197SOL     OW 4489   3.990   5.808   5.607
 1197SOL    HW1 4490   3.941   5.797   5.520
 1197SOL    HW2 4491   4.088   5.798   5.591
 1198SOL     OW 4492   3.323   2.111   3.351
 1198SOL    HW1 4493   3.338   2.152   3.440
 1198SOL    HW2 4494   3.229   2.079   3.344
 1199SOL     OW 4495   3.554   4.236   1.609
 1199SOL    HW1 4496   3.470   4.191   1.578
 1199SOL    HW2 4497   3.586   4.193   1.694
 1200SOL     OW 4498   4.106   4.300   6.617
 1200SOL    HW1 4499   4.048   4.220   6.606
 1200SOL    HW2 4500   4.087   4.344   6.705
 1201SOL     OW 4501   1.160   1.707   5.292
 1201SOL    HW1 4502   1.071   1.737   5.259
 1201SOL    HW2 4503   1.148   1.645   5.370
 1202SOL     OW 4504   5.934   0.158   5.068
 1202SOL    HW1 4505   6.013   0.215   5.090
 1202SOL    HW2 4506   5.899   0.182   4.977
 1203SOL     OW 4507   5.331   0.060   0.975
 1203SOL    HW1 4508   5.418   0.101   0.947
 1203SOL    HW2 4509   5.349   7.005   1.040
 1204SOL     OW 4510   3.691   0.779   0.496
 1204SOL    HW1 4511   3.612   0.821   0.453
 1204SOL    HW2 4512   3.764   0.846   0.506
 1205SOL     OW 4513   5.825   2.152   5.278
 1205SOL    HW1 4514   5.727   2.132   5.286
 1205SOL    HW2 4515   5.875   2.066   5.268
 1206SOL     OW 4516   2.114   1.932   5.027
 1206SOL    HW1 4517   2.117   1.883   4.940
 1206SOL    HW2 4518   2.075   2.023   5.014
 1207SOL     OW 4519   5.780   7.019   6.764
 1207SOL    HW1 4520   5.814   0.007   6.670
 1207SOL    HW2 4521   5.685   6.988   6.762
 1208SOL     OW 4522   3.874   3.548   2.876
 1208SOL    HW1 4523   3.899   3.579   2.967
 1208SOL    HW2 4524   3.956   3.524   2.825
 1209SOL     OW 4525   5.409   4.988   4.129
 1209SOL    HW1 4526   5.488   4.985   4.190
 1209SOL    HW2 4527   5.383   5.083   4.113
 1210SOL     OW 4528   4.392   6.537   2.368
 1210SOL    HW1 4529   4.385   6.580   2.278
 1210SOL    HW2 4530   4.440   6.599   2.430
 1211SOL     OW 4531   0.877   4.377   4.886
 1211SOL    HW1 4532   0.830   4.300   4.842
 1211SOL    HW2 4533   0.922   4.433   4.817
 1212SOL     OW 4534   1.417   4.201   5.200
 1212SOL    HW1 4535   1.448   4.164   5.287
 1212SOL    HW2 4536   1.493   4.205   5.136
 1213SOL     OW 4537   6.441   2.455   5.353
 1213SOL    HW1 4538   6.367   2.400   5.392
 1213SOL    HW2 4539   6.527   2.404   5.358
 1214SOL     OW 4540   2.056   3.816   3.715
 1214SOL    HW1 4541   2.063   3.747   3.642
 1214SOL    HW2 4542   2.133   3.880   3.707
 1215SOL     OW 4543   1.372   4.525   2.384
 1215SOL    HW1 4544   1.405   4.446   2.332
 1215SOL    HW2 4545   1.449   4.587   2.401
 1216SOL     OW 4546   1.492   0.445   1.927
 1216SOL    HW1 4547   1.449   0.482   1.845
 1216SOL    HW2 4548   1.592   0.453   1.919
 1217SOL     OW 4549   1.505   6.630   1.653
 1217SOL    HW1 4550   1.442   6.632   1.731
 1217SOL    HW2 4551   1.555   6.717   1.649
 1218SOL     OW 4552   0.353   3.591   4.182
 1218SOL    HW1 4553   0.271   3.534   4.186
 1218SOL    HW2 4554   0.423   3.554   4.243
 1219SOL     OW 4555   3.610   6.469   1.299
 1219SOL    HW1 4556   3.513   6.445   1.292
 1219SOL    HW2 4557   3.666   6.388   1.278
 1220SOL     OW 4558   6.081   3.303   3.268
 1220SOL    HW1 4559   6.178   3.301   3.289
 1220SOL    HW2 4560   6.068   3.305   3.169
 1221SOL     OW 4561   5.118   3.799   0.100
 1221SOL    HW1 4562   5.019   3.795   0.113
 1221SOL    HW2 4563   5.138   3.803   0.002
 1222SOL     OW 4564   0.272   6.507   1.227
 1222SOL    HW1 4565   0.217   6.433   1.187
 1222SOL    HW2 4566   0.218   6.554   1.297
 1223SOL     OW 4567   6.157   0.098   6.027
 1223SOL    HW1 4568   6.252   0.131   6.025
 1223SOL    HW2 4569   6.142   0.034   5.952
 1224SOL     OW 4570   4.788   5.512   1.345
 1224SOL    HW1 4571   4.754   5.528   1.438
 1224SOL    HW2 4572   4.831   5.422   1.340
 1225SOL     OW 4573   4.765   2.218   0.571
 1225SOL    HW1 4574   4.786   2.202   0.474
 1225SOL    HW2 4575   4.742   2.131   0.614
 1226SOL     OW 4576   6.162   6.148   0.937
 1226SOL    HW1 4577   6.079   6.161   0.991
 1226SOL    HW2 4578   6.221   6.228   0.947
 1227SOL     OW 4579   6.081   3.858   5.085
 1227SOL    HW1 4580   6.005   3.798   5.110
 1227SOL    HW2 4581   6.167   3.808   5.093
 1228SOL     OW 4582   3.990   3.028   2.551
 1228SOL    HW1 4583   3.904   2.989   2.583
 1228SOL    HW2 4584   4.035   2.963   2.489
 1229SOL     OW 4585   2.129   5.978   2.533
 1229SOL    HW1 4586   2.050   6.038   2.521
 1229SOL    HW2 4587   2.109   5.889   2.491
 1230SOL     OW 4588   5.315   5.082   1.159
 1230SOL    HW1 4589   5.336   4.989   1.188
 1230SOL    HW2 4590   5.400   5.130   1.136
 1231SOL     OW 4591   1.946   2.355   6.722
 1231SOL    HW1 4592   1.977   2.428   6.783
 1231SOL    HW2 4593   1.964   2.267   6.765
 1232SOL     OW 4594   2.898   0.551   5.552
 1232SOL    HW1 4595   2.817   0.555   5.494
 1232SOL    HW2 4596   2.971   0.605   5.511
 1233SOL     OW 4597   0.192   5.830   4.189
 1233SOL    HW1 4598   0.140   5.888   4.252
 1233SOL    HW2 4599   0.130   5.787   4.124
 1234SOL     OW 4600   6.517   2.943   6.806
 1234SOL    HW1 4601   6.528   2.908   6.713
 1234SOL    HW2 4602   6.422   2.967   6.823
 1235SOL     OW 4603   6.120   5.106   6.959
 1235SOL    HW1 4604   6.059   5.177   6.994
 1235SOL    HW2 4605   6.204   5.105   7.014
 1236SOL     OW 4606   1.734   1.558   1.655
 1236SOL    HW1 4607   1.773   1.485   1.599
 1236SOL    HW2 4608   1.690   1.517   1.736
 1237SOL     OW 4609   0.887   6.895   4.695
 1237SOL    HW1 4610   0.963   6.855   4.746
 1237SOL    HW2 4611   0.820   6.933   4.759
 1238SOL     OW 4612   6.718   0.678   4.138
 1238SOL    HW1 4613   6.681   0.753   4.084
 1238SOL    HW2 4614   6.802   0.645   4.096
 1239SOL     OW 4615   6.224   4.488   4.277
 1239SOL    HW1 4616   6.292   4.440   4.332
 1239SOL    HW2 4617   6.242   4.587   4.281
 1240SOL     OW 4618   5.813   4.638   3.747
 1240SOL    HW1 4619   5.755   4.693   3.687
 1240SOL    HW2 4620   5.791   4.541   3.736
 1241SOL     OW 4621   5.337   4.793   4.415
 1241SOL    HW1 4622   5.397   4.872   4.413
 1241SOL    HW2 4623   5.391   4.710   4.432
 1242SOL     OW 4624   1.049   4.689   0.238
 1242SOL    HW1 4625   1.032   4.593   0.216
 1242SOL    HW2 4626   0.963   4.739   0.243
 1243SOL     OW 4627   0.880   4.607   5.042
 1243SOL    HW1 4628   0.841   4.591   5.132
 1243SOL    HW2 4629   0.880   4.522   4.989
 1244SOL     OW 4630   5.107   6.546   4.607
 1244SOL    HW1 4631   5.169   6.477   4.645
 1244SOL    HW2 4632   5.136   6.568   4.513
 1245SOL     OW 4633   4.882   6.655   2.091
 1245SOL    HW1 4634   4.903   6.693   2.001
 1245SOL    HW2 4635   4.960   6.669   2.152
 1246SOL     OW 4636   4.373   1.677   0.419
 1246SOL    HW1 4637   4.307   1.736   0.372
 1246SOL    HW2 4638   4.402   1.604   0.358
 1247SOL     OW 4639   6.470   6.607   3.459
 1247SOL    HW1 4640   6.422   6.525   3.492
 1247SOL    HW2 4641   6.417   6.688   3.483
 1248SOL     OW 4642   1.098   6.775   4.830
 1248SOL    HW1 4643   1.098   6.679   4.860
 1248SOL    HW2 4644   1.185   6.818   4.856
 1249SOL     OW 4645   6.592   4.623   6.930
 1249SOL    HW1 4646   6.543   4.604   6.845
 1249SOL    HW2 4647   6.622   4.537   6.971
 1250SOL     OW 4648   6.731   3.149   4.736
 1250SOL    HW1 4649   6.716   3.102   4.649
 1250SOL    HW2 4650   6.664   3.223   4.746
 1251SOL     OW 4651   2.963   0.502   3.042
 1251SOL    HW1 4652   2.961   0.446   2.959
 1251SOL    HW2 4653   3.058   0.520   3.067
 1252SOL     OW 4654   1.619   5.481   0.466
 1252SOL    HW1 4655   1.615   5.508   0.370
 1252SOL    HW2 4656   1.648   5.558   0.522
 1253SOL     OW 4657   3.575   0.884   1.009
 1253SOL    HW1 4658   3.478   0.899   1.029
 1253SOL    HW2 4659   3.590   0.889   0.910
 1254SOL     OW 4660   6.663   1.381   1.649
 1254SOL    HW1 4661   6.604   1.419   1.577
 1254SOL    HW2 4662   6.617   1.302   1.690
 1255SOL     OW 4663   5.806   1.171   5.156
 1255SOL    HW1 4664   5.804   1.124   5.244
 1255SOL    HW2 4665   5.774   1.108   5.084
 1256SOL     OW 4666   0.668   5.810   4.957
 1256SOL    HW1 4667   0.641   5.802   4.861
 1256SOL    HW2 4668   0.726   5.733   4.982
 1257SOL     OW 4669   0.442   5.024   3.993
 1257SOL    HW1 4670   0.428   4.932   4.029
 1257SOL    HW2 4671   0.371   5.044   3.926
 1258SOL     OW 4672   3.021   5.997   4.465
 1258SOL    HW1 4673   3.041   6.091   4.491
 1258SOL    HW2 4674   3.004   5.993   4.366
 1259SOL     OW 4675   5.427   0.137   4.437
 1259SOL    HW1 4676   5.522   0.131   4.467
 1259SOL    HW2 4677   5.379   0.053   4.465
 1260SOL     OW 4678   2.041   0.878   1.977
 1260SOL    HW1 4679   2.058   0.809   2.048
 1260SOL    HW2 4680   2.124   0.933   1.965
 1261SOL     OW 4681   6.650   4.530   6.495
 1261SOL    HW1 4682   6.619   4.492   6.408
 1261SOL    HW2 4683   6.742   4.568   6.483
 1262SOL     OW 4684   5.277   5.285   0.502
 1262SOL    HW1 4685   5.314   5.351   0.437
 1262SOL    HW2 4686   5.310   5.193   0.480
 1263SOL     OW 4687   0.313   2.465   1.455
 1263SOL    HW1 4688   0.222   2.478   1.494
 1263SOL    HW2 4689   0.370   2.412   1.519
 1264SOL     OW 4690   0.404   3.987   3.723
 1264SOL    HW1 4691   0.449   3.989   3.812
 1264SOL    HW2 4692   0.451   3.921   3.664
 1265SOL     OW 4693   6.772   4.510   5.362
 1265SOL    HW1 4694   6.778   4.454   5.280
 1265SOL    HW2 4695   6.853   4.494   5.419
 1266SOL     OW 4696   3.026   1.526   5.361
 1266SOL    HW1 4697   2.991   1.620   5.358
 1266SOL    HW2 4698   3.067   1.509   5.450
 1267SOL     OW 4699   6.806   5.324   3.137
 1267SOL    HW1 4700   6.867   5.270   3.195
 1267SOL    HW2 4701   6.796   5.280   3.048
 1268SOL     OW 4702   5.340   2.747   6.618
 1268SOL    HW1 4703   5.358   2.757   6.716
 1268SOL    HW2 4704   5.279   2.669   6.603
 1269SOL     OW 4705   6.875   5.467   5.388
 1269SOL    HW1 4706   6.961   5.484   5.435
 1269SOL    HW2 4707   6.885   5.489   5.291
 1270SOL     OW 4708   1.673   3.836   4.583
 1270SOL    HW1 4709   1.706   3.863   4.492
 1270SOL    HW2 4710   1.574   3.817   4.578
 1271SOL     OW 4711   3.506   2.108   2.805
 1271SOL    HW1 4712   3.536   2.140   2.715
 1271SOL    HW2 4713   3.481   2.011   2.799
 1272SOL     OW 4714   0.174   5.116   1.446
 1272SOL    HW1 4715   0.134   5.078   1.529
 1272SOL    HW2 4716   0.245   5.054   1.412
 1273SOL     OW 4717   3.013   5.273   6.826
 1273SOL    HW1 4718   2.981   5.357   6.782
 1273SOL    HW2 4719   2.935   5.213   6.845
 1274SOL     OW 4720   6.697   2.914   2.224
 1274SOL    HW1 4721   6.786   2.913   2.269
 1274SOL    HW2 4722   6.632   2.859   2.277
 1275SOL     OW 4723   4.118   1.448   4.896
 1275SOL    HW1 4724   4.070   1.431   4.810
 1275SOL    HW2 4725   4.092   1.378   4.963
 1276SOL     OW 4726   0.954   0.312   2.698
 1276SOL    HW1 4727   0.941   0.219   2.731
 1276SOL    HW2 4728   0.926   0.377   2.768
 1277SOL     OW 4729   6.995   0.645   4.469
 1277SOL    HW1 4730   0.024   0.559   4.454
 1277SOL    HW2 4731   0.002   0.711   4.398
 1278SOL     OW 4732   2.065   2.060   5.471
 1278SOL    HW1 4733   2.140   2.114   5.434
 1278SOL    HW2 4734   2.068   1.968   5.432
 1279SOL     OW 4735   2.756   6.070   0.509
 1279SOL    HW1 4736   2.707   6.157   0.514
 1279SOL    HW2 4737   2.758   6.038   0.414
 1280SOL     OW 4738   2.350   0.447   3.392
 1280SOL    HW1 4739   2.336   0.486   3.483
 1280SOL    HW2 4740   2.291   0.368   3.381
 1281SOL     OW 4741   1.300   6.405   3.419
 1281SOL    HW1 4742   1.399   6.412   3.410
 1281SOL    HW2 4743   1.276   6.397   3.516
 1282SOL     OW 4744   0.721   1.142   1.115
 1282SOL    HW1 4745   0.768   1.228   1.096
 1282SOL    HW2 4746   0.735   1.118   1.212
 1283SOL     OW 4747   5.906   5.168   5.170
 1283SOL    HW1 4748   5.986   5.155   5.111
 1283SOL    HW2 4749   5.902   5.095   5.237
 1284SOL     OW 4750   3.139   2.837   1.915
 1284SOL    HW1 4751   3.138   2.824   1.816
 1284SOL    HW2 4752   3.139   2.748   1.960
 1285SOL     OW 4753   4.819   2.624   5.847
 1285SOL    HW1 4754   4.800   2.529   5.871
 1285SOL    HW2 4755   4.782   2.685   5.917
 1286SOL     OW 4756   5.578   4.119   1.791
 1286SOL    HW1 4757   5.660   4.121   1.733
 1286SOL    HW2 4758   5.532   4.031   1.781
 1287SOL     OW 4759   6.572   5.698   6.456
 1287SOL    HW1 4760   6.521   5.758   6.517
 1287SOL    HW2 4761   6.661   5.676   6.496
 1288SOL     OW 4762   0.054   3.246   0.630
 1288SOL    HW1 4763   0.023   3.330   0.584
 1288SOL    HW2 4764   0.081   3.268   0.724
 1289SOL     OW 4765   6.616   6.082   2.055
 1289SOL    HW1 4766   6.714   6.091   2.077
 1289SOL    HW2 4767   6.562   6.130   2.124
 1290SOL     OW 4768   0.595   6.776   0.316
 1290SOL    HW1 4769   0.574   6.860   0.367
 1290SOL    HW2 4770   0.692   6.753   0.328
 1291SOL     OW 4771   1.011   6.380   6.619
 1291SOL    HW1 4772   0.940   6.417   6.559
 1291SOL    HW2 4773   0.983   6.290   6.652
 1292SOL     OW 4774   0.482   4.911   1.359
 1292SOL    HW1 4775   0.398   4.886   1.312
 1292SOL    HW2 4776   0.544   4.832   1.360
 1293SOL     OW 4777   0.584   1.571   6.876
 1293SOL    HW1 4778   0.544   1.602   6.962
 1293SOL    HW2 4779   0.661   1.629   6.852
 1294SOL     OW 4780   0.321   2.974   2.239
 1294SOL    HW1 4781   0.271   2.893   2.208
 1294SOL    HW2 4782   0.420   2.957   2.231
 1295SOL     OW 4783   5.352   2.955   1.644
 1295SOL    HW1 4784   5.342   2.900   1.561
 1295SOL    HW2 4785   5.415   2.909   1.707
 1296SOL     OW 4786   3.298   2.201   6.113
 1296SOL    HW1 4787   3.260   2.172   6.201
 1296SOL    HW2 4788   3.392   2.231   6.126
 1297SOL     OW 4789   6.713   1.285   5.372
 1297SOL    HW1 4790   6.789   1.288   5.437
 1297SOL    HW2 4791   6.733   1.346   5.295
 1298SOL     OW 4792   6.121   2.853   2.476
 1298SOL    HW1 4793   6.178   2.817   2.401
 1298SOL    HW2 4794   6.180   2.902   2.541
 1299SOL     OW 4795   1.182   4.241   4.887
 1299SOL    HW1 4796   1.166   4.182   4.966
 1299SOL    HW2 4797   1.161   4.336   4.912
 1300SOL     OW 4798   3.222   3.238   1.812
 1300SOL    HW1 4799   3.200   3.243   1.910
 1300SOL    HW2 4800   3.137   3.231   1.760
 1301SOL     OW 4801   0.434   6.478   4.062
 1301SOL    HW1 4802   0.355   6.518   4.109
 1301SOL    HW2 4803   0.407   6.391   4.020
 1302SOL     OW 4804   2.386   0.075   5.150
 1302SOL    HW1 4805   2.423   7.005   5.175
 1302SOL    HW2 4806   2.349   0.071   5.057
 1303SOL     OW 4807   3.709   1.546   0.781
 1303SOL    HW1 4808   3.663   1.458   0.791
 1303SOL    HW2 4809   3.800   1.542   0.822
 1304SOL     OW 4810   1.779   0.437   6.633
 1304SOL    HW1 4811   1.858   0.491   6.603
 1304SOL    HW2 4812   1.809   0.342   6.649
 1305SOL     OW 4813   4.264   0.137   4.416
 1305SOL    HW1 4814   4.348   0.171   4.457
 1305SOL    HW2 4815   4.286   0.086   4.333
 1306SOL     OW 4816   0.341   4.247   4.345
 1306SOL    HW1 4817   0.391   4.250   4.258
 1306SOL    HW2 4818   0.406   4.237   4.420
 1307SOL     OW 4819   1.032   3.263   4.763
 1307SOL    HW1 4820   0.941   3.279   4.801
 1307SOL    HW2 4821   1.089   3.343   4.779
 1308SOL     OW 4822   4.462   5.883   4.180
 1308SOL    HW1 4823   4.435   5.952   4.113
 1308SOL    HW2 4824   4.425   5.908   4.270
 1309SOL     OW 4825   5.716   2.528   4.644
 1309SOL    HW1 4826   5.800   2.487   4.680
 1309SOL    HW2 4827   5.636   2.482   4.682
 1310SOL     OW 4828   5.578   4.072   4.123
 1310SOL    HW1 4829   5.592   3.987   4.173
 1310SOL    HW2 4830   5.603   4.150   4.181
 1311SOL     OW 4831   6.064   6.670   4.761
 1311SOL    HW1 4832   6.109   6.732   4.697
 1311SOL    HW2 4833   6.060   6.713   4.851
 1312SOL     OW 4834   0.337   0.270   0.096
 1312SOL    HW1 4835   0.358   0.252   7.019
 1312SOL    HW2 4836   0.255   0.327   0.102
 1313SOL     OW 4837   3.420   5.227   5.359
 1313SOL    HW1 4838   3.402   5.129   5.344
 1313SOL    HW2 4839   3.511   5.238   5.398
 1314SOL     OW 4840   1.167   1.747   5.692
 1314SOL    HW1 4841   1.225   1.666   5.705
 1314SOL    HW2 4842   1.225   1.829   5.690
 1315SOL     OW 4843   2.213   1.728   1.572
 1315SOL    HW1 4844   2.289   1.790   1.553
 1315SOL    HW2 4845   2.181   1.742   1.665
 1316SOL     OW 4846   2.461   0.075   3.815
 1316SOL    HW1 4847   2.485   0.042   3.724
 1316SOL    HW2 4848   2.467   7.019   3.880
 1317SOL     OW 4849   0.093   4.628   4.728
 1317SOL    HW1 4850   0.115   4.601   4.822
 1317SOL    HW2 4851   0.008   4.682   4.728
 1318SOL     OW 4852   6.749   0.203   0.037
 1318SOL    HW1 4853   6.651   0.184   0.041
 1318SOL    HW2 4854   6.773   0.232   6.964
 1319SOL     OW 4855   5.844   1.218   0.536
 1319SOL    HW1 4856   5.853   1.255   0.444
 1319SOL    HW2 4857   5.870   1.121   0.536
 1320SOL     OW 4858   6.055   4.631   6.117
 1320SOL    HW1 4859   5.985   4.670   6.056
 1320SOL    HW2 4860   6.046   4.532   6.118
 1321SOL     OW 4861   4.098   2.803   6.719
 1321SOL    HW1 4862   4.146   2.804   6.631
 1321SOL    HW2 4863   4.039   2.722   6.724
 1322SOL     OW 4864   6.331   1.433   3.604
 1322SOL    HW1 4865   6.391   1.422   3.525
 1322SOL    HW2 4866   6.384   1.417   3.688
 1323SOL     OW 4867   0.375   1.411   5.420
 1323SOL    HW1 4868   0.470   1.385   5.402
 1323SOL    HW2 4869   0.363   1.509   5.401
 1324SOL     OW 4870   1.303   3.013   1.420
 1324SOL    HW1 4871   1.228   3.011   1.486
 1324SOL    HW2 4872   1.269   3.045   1.331
 1325SOL     OW 4873   1.791   6.438   3.768
 1325SOL    HW1 4874   1.836   6.357   3.730
 1325SOL    HW2 4875   1.855   6.515   3.768
 1326SOL     OW 4876   5.605   2.662   4.427
 1326SOL    HW1 4877   5.637   2.632   4.516
 1326SOL    HW2 4878   5.525   2.607   4.400
 1327SOL     OW 4879   3.173   4.941   3.399
 1327SOL    HW1 4880   3.136   5.033   3.414
 1327SOL    HW2 4881   3.227   4.940   3.315
 1328SOL     OW 4882   1.709   1.589   6.832
 1328SOL    HW1 4883   1.687   1.518   6.765
 1328SOL    HW2 4884   1.695   1.679   6.792
 1329SOL     OW 4885   0.576   1.230   0.489
 1329SOL    HW1 4886   0.655   1.191   0.441
 1329SOL    HW2 4887   0.495   1.223   0.431
 1330SOL     OW 4888   6.846   0.576   1.128
 1330SOL    HW1 4889   6.902   0.494   1.115
 1330SOL    HW2 4890   6.832   0.591   1.226
 1331SOL     OW 4891   5.741   0.347   2.035
 1331SOL    HW1 4892   5.699   0.363   1.946
 1331SOL    HW2 4893   5.747   0.249   2.053
 1332SOL     OW 4894   4.229   1.380   1.341
 1332SOL    HW1 4895   4.243   1.326   1.424
 1332SOL    HW2 4896   4.298   1.356   1.273
 1333SOL     OW 4897   3.736   3.995   4.938
 1333SOL    HW1 4898   3.797   3.932   4.889
 1333SOL    HW2 4899   3.650   3.947   4.959
 1334SOL     OW 4900   0.929   3.841   5.364
 1334SOL    HW1 4901   0.833   3.841   5.340
 1334SOL    HW2 4902   0.981   3.894   5.297
 1335SOL     OW 4903   1.888   5.905   2.929
 1335SOL    HW1 4904   1.979   5.864   2.927
 1335SOL    HW2 4905   1.842   5.890   2.841
 1336SOL     OW 4906   0.973   1.517   5.958
 1336SOL    HW1 4907   1.066   1.480   5.959
 1336SOL    HW2 4908   0.916   1.461   5.899
 1337SOL     OW 4909   1.895   2.044   6.372
 1337SOL    HW1 4910   1.956   2.048   6.451
 1337SOL    HW2 4911   1.929   1.976   6.307
 1338SOL     OW 4912   4.178   4.880   6.786
 1338SOL    HW1 4913   4.199   4.963   6.735
 1338SOL    HW2 4914   4.104   4.831   6.740
 1339SOL     OW 4915   6.988   3.964   5.844
 1339SOL    HW1 4916   6.981   4.064   5.852
 1339SOL    HW2 4917   6.898   3.923   5.858
 1340SOL     OW 4918   1.512   2.036   6.963
 1340SOL    HW1 4919   1.553   2.127   6.950
 1340SOL    HW2 4920   1.413   2.045   6.967
 1341SOL     OW 4921   3.050   1.502   3.810
 1341SOL    HW1 4922   3.063   1.403   3.802
 1341SOL    HW2 4923   2.991   1.521   3.889
 1342SOL     OW 4924   1.132   6.127   6.880
 1342SOL    HW1 4925   1.066   6.054   6.897
 1342SOL    HW2 4926   1.220   6.087   6.854
 1343SOL     OW 4927   3.772   5.783   2.667
 1343SOL    HW1 4928   3.708   5.858   2.683
 1343SOL    HW2 4929   3.865   5.819   2.660
 1344SOL     OW 4930   6.429   1.222   2.599
 1344SOL    HW1 4931   6.413   1.153   2.670
 1344SOL    HW2 4932   6.390   1.190   2.513
 1345SOL     OW 4933   0.935   0.693   3.013
 1345SOL    HW1 4934   0.911   0.608   3.061
 1345SOL    HW2 4935   0.994   0.749   3.071
 1346SOL     OW 4936   6.680   0.225   3.834
 1346SOL    HW1 4937   6.715   0.131   3.836
 1346SOL    HW2 4938   6.724   0.276   3.761
 1347SOL     OW 4939   6.797   6.424   3.014
 1347SOL    HW1 4940   6.806   6.466   3.105
 1347SOL    HW2 4941   6.816   6.326   3.020
 1348SOL     OW 4942   5.409   4.482   3.813
 1348SOL    HW1 4943   5.454   4.564   3.848
 1348SOL    HW2 4944   5.398   4.415   3.887
 1349SOL     OW 4945   3.595   2.616   6.853
 1349SOL    HW1 4946   3.534   2.552   6.899
 1349SOL    HW2 4947   3.541   2.688   6.809
 1350SOL     OW 4948   3.131   6.623   6.823
 1350SOL    HW1 4949   3.077   6.671   6.892
 1350SOL    HW2 4950   3.116   6.524   6.830
 1351SOL     OW 4951   0.194   1.141   3.496
 1351SOL    HW1 4952   0.209   1.064   3.559
 1351SOL    HW2 4953   0.245   1.125   3.412
 1352SOL     OW 4954   0.016   0.803   2.400
 1352SOL    HW1 4955   0.084   0.876   2.395
 1352SOL    HW2 4956   6.955   0.829   2.346
 1353SOL     OW 4957   0.645   4.129   4.870
 1353SOL    HW1 4958   0.569   4.069   4.895
 1353SOL    HW2 4959   0.615   4.224   4.870
 1354SOL     OW 4960   0.089   0.506   1.528
 1354SOL    HW1 4961   0.114   0.442   1.601
 1354SOL    HW2 4962   0.126   0.473   1.441
 1355SOL     OW 4963   4.524   3.420   0.070
 1355SOL    HW1 4964   4.559   3.472   7.011
 1355SOL    HW2 4965   4.429   3.447   0.087
 1356SOL     OW 4966   3.575   3.460   2.722
 1356SOL    HW1 4967   3.516   3.444   2.643
 1356SOL    HW2 4968   3.622   3.547   2.712
 1357SOL     OW 4969   2.725   2.792   5.959
 1357SOL    HW1 4970   2.720   2.882   5.915
 1357SOL    HW2 4971   2.812   2.749   5.937
 1358SOL     OW 4972   2.433   3.423   6.574
 1358SOL    HW1 4973   2.375   3.401   6.496
 1358SOL    HW2 4974   2.436   3.345   6.636
 1359SOL     OW 4975   6.264   3.408   1.052
 1359SOL    HW1 4976   6.298   3.373   1.139
 1359SOL    HW2 4977   6.168   3.384   1.041
 1360SOL     OW 4978   3.544   3.936   3.006
 1360SOL    HW1 4979   3.467   3.999   3.014
 1360SOL    HW2 4980   3.630   3.988   3.009
 1361SOL     OW 4981   0.714   6.101   6.648
 1361SOL    HW1 4982   0.635   6.070   6.594
 1361SOL    HW2 4983   0.753   6.023   6.696
 1362SOL     OW 4984   2.914   3.424   6.233
 1362SOL    HW1 4985   2.849   3.348   6.235
 1362SOL    HW2 4986   2.944   3.444   6.327
 1363SOL     OW 4987   6.159   5.731   2.635
 1363SOL    HW1 4988   6.135   5.650   2.687
 1363SOL    HW2 4989   6.248   5.765   2.666
 1364SOL     OW 4990   6.705   3.226   0.919
 1364SOL    HW1 4991   6.749   3.300   0.970
 1364SOL    HW2 4992   6.763   3.145   0.921
 1365SOL     OW 4993   0.367   3.549   6.151
 1365SOL    HW1 4994   0.416   3.625   6.109
 1365SOL    HW2 4995   0.431   3.494   6.205
 1366SOL     OW 4996   6.884   2.353   0.454
 1366SOL    HW1 4997   6.791   2.319   0.435
 1366SOL    HW2 4998   6.881   2.452   0.467
 1367SOL     OW 4999   0.071   5.293   3.978
 1367SOL    HW1 5000   0.151   5.337   3.939
 1367SOL    HW2 5001   0.006   5.271   3.905
 1368SOL     OW 5002   0.034   0.591   3.856
 1368SOL    HW1 5003   0.049   0.503   3.811
 1368SOL    HW2 5004   6.962   0.624   3.836
 1369SOL     OW 5005   2.567   6.192   2.648
 1369SOL    HW1 5006   2.620   6.185   2.732
 1369SOL    HW2 5007   2.530   6.284   2.639
 1370SOL     OW 5008   6.677   2.309   3.315
 1370SOL    HW1 5009   6.719   2.372   3.380
 1370SOL    HW2 5010   6.585   2.341   3.292
 1371SOL     OW 5011   5.421   0.901   4.156
 1371SOL    HW1 5012   5.443   0.973   4.221
 1371SOL    HW2 5013   5.463   0.921   4.067
 1372SOL     OW 5014   6.031   2.561   0.199
 1372SOL    HW1 5015   6.126   2.544   0.172
 1372SOL    HW2 5016   5.982   2.474   0.201
 1373SOL     OW 5017   4.701   2.729   2.081
 1373SOL    HW1 5018   4.703   2.824   2.050
 1373SOL    HW2 5019   4.784   2.709   2.133
 1374SOL     OW 5020   5.326   4.209   0.007
 1374SOL    HW1 5021   5.322   4.143   0.082
 1374SOL    HW2 5022   5.244   4.266   0.007
 1375SOL     OW 5023   5.816   5.967   4.730
 1375SOL    HW1 5024   5.733   5.917   4.705
 1375SOL    HW2 5025   5.796   6.065   4.734
 1376SOL     OW 5026   2.528   5.009   6.938
 1376SOL    HW1 5027   2.510   5.107   6.949
 1376SOL    HW2 5028   2.492   4.959   7.018
 1377SOL     OW 5029   1.408   2.541   3.172
 1377SOL    HW1 5030   1.489   2.585   3.209
 1377SOL    HW2 5031   1.333   2.607   3.167
 1378SOL     OW 5032   4.321   1.940   4.623
 1378SOL    HW1 5033   4.348   1.917   4.530
 1378SOL    HW2 5034   4.288   2.035   4.626
 1379SOL     OW 5035   5.652   5.359   1.423
 1379SOL    HW1 5036   5.573   5.415   1.395
 1379SOL    HW2 5037   5.670   5.291   1.353
 1380SOL     OW 5038   6.968   5.549   1.268
 1380SOL    HW1 5039   0.016   5.618   1.246
 1380SOL    HW2 5040   7.010   5.477   1.324
 1381SOL     OW 5041   6.670   1.998   5.567
 1381SOL    HW1 5042   6.689   2.039   5.656
 1381SOL    HW2 5043   6.588   2.039   5.527
 1382SOL     OW 5044   4.055   2.531   1.346
 1382SOL    HW1 5045   4.080   2.528   1.249
 1382SOL    HW2 5046   4.133   2.500   1.401
 1383SOL     OW 5047   1.133   0.846   1.823
 1383SOL    HW1 5048   1.048   0.891   1.797
 1383SOL    HW2 5049   1.132   0.751   1.792
 1384SOL     OW 5050   5.893   0.223   0.572
 1384SOL    HW1 5051   5.874   0.190   0.664
 1384SOL    HW2 5052   5.850   0.161   0.506
 1385SOL     OW 5053   1.932   5.283   3.059
 1385SOL    HW1 5054   1.922   5.187   3.031
 1385SOL    HW2 5055   1.907   5.292   3.155
 1386SOL     OW 5056   2.605   6.148   4.106
 1386SOL    HW1 5057   2.550   6.093   4.170
 1386SOL    HW2 5058   2.545   6.194   4.041
 1387SOL     OW 5059   3.365   5.836   1.664
 1387SOL    HW1 5060   3.336   5.932   1.670
 1387SOL    HW2 5061   3.414   5.812   1.748
 1388SOL     OW 5062   6.268   0.374   1.071
 1388SOL    HW1 5063   6.187   0.402   1.122
 1388SOL    HW2 5064   6.259   0.278   1.044
 1389SOL     OW 5065   6.669   0.973   2.864
 1389SOL    HW1 5066   6.599   0.982   2.793
 1389SOL    HW2 5067   6.660   1.048   2.929
 1390SOL     OW 5068   0.695   3.318   5.932
 1390SOL    HW1 5069   0.675   3.311   5.834
 1390SOL    HW2 5070   0.785   3.358   5.945
 1391SOL     OW 5071   6.755   1.719   3.452
 1391SOL    HW1 5072   6.666   1.754   3.423
 1391SOL    HW2 5073   6.827   1.770   3.406
 1392SOL     OW 5074   5.498   5.000   5.124
 1392SOL    HW1 5075   5.518   4.936   5.049
 1392SOL    HW2 5076   5.399   5.009   5.133
 1393SOL     OW 5077   5.522   6.216   5.615
 1393SOL    HW1 5078   5.559   6.151   5.549
 1393SOL    HW2 5079   5.423   6.220   5.607
 1394SOL     OW 5080   2.923   6.123   5.664
 1394SOL    HW1 5081   2.953   6.050   5.602
 1394SOL    HW2 5082   2.980   6.204   5.650
 1395SOL     OW 5083   3.048   4.539   5.924
 1395SOL    HW1 5084   3.080   4.632   5.945
 1395SOL    HW2 5085   2.984   4.510   5.995
 1396SOL     OW 5086   6.872   0.036   4.323
 1396SOL    HW1 5087   6.791   0.044   4.381
 1396SOL    HW2 5088   6.844   0.014   4.230
 1397SOL     OW 5089   6.213   0.504   4.998
 1397SOL    HW1 5090   6.204   0.409   5.028
 1397SOL    HW2 5091   6.149   0.561   5.049
 1398SOL     OW 5092   1.772   1.337   5.237
 1398SOL    HW1 5093   1.675   1.364   5.241
 1398SOL    HW2 5094   1.824   1.411   5.194
 1399SOL     OW 5095   3.157   6.474   1.498
 1399SOL    HW1 5096   3.135   6.566   1.529
 1399SOL    HW2 5097   3.093   6.409   1.539
 1400SOL     OW 5098   6.945   1.370   2.100
 1400SOL    HW1 5099   6.883   1.421   2.160
 1400SOL    HW2 5100   6.892   1.317   2.034
 1401SOL     OW 5101   0.398   1.707   5.432
 1401SOL    HW1 5102   0.379   1.801   5.461
 1401SOL    HW2 5103   0.485   1.676   5.472
 1402SOL     OW 5104   6.957   3.227   6.729
 1402SOL    HW1 5105   6.894   3.277   6.670
 1402SOL    HW2 5106   7.008   3.159   6.675
 1403SOL     OW 5107   3.334   0.482   2.053
 1403SOL    HW1 5108   3.315   0.488   1.955
 1403SOL    HW2 5109   3.269   0.540   2.103
 1404SOL     OW 5110   5.385   0.496   0.402
 1404SOL    HW1 5111   5.324   0.421   0.376
 1404SOL    HW2 5112   5.477   0.460   0.415
 1405SOL     OW 5113   2.186   3.864   0.895
 1405SOL    HW1 5114   2.201   3.924   0.974
 1405SOL    HW2 5115   2.117   3.796   0.917
 1406SOL     OW 5116   1.410   4.828   1.519
 1406SOL    HW1 5117   1.317   4.862   1.523
 1406SOL    HW2 5118   1.449   4.847   1.429
 1407SOL     OW 5119   6.531   1.138   1.741
 1407SOL    HW1 5120   6.495   1.159   1.832
 1407SOL    HW2 5121   6.461   1.093   1.687
 1408SOL     OW 5122   5.438   0.347   6.375
 1408SOL    HW1 5123   5.444   0.384   6.282
 1408SOL    HW2 5124   5.530   0.336   6.413
 1409SOL     OW 5125   0.192   0.506   4.932
 1409SOL    HW1 5126   0.177   0.574   4.860
 1409SOL    HW2 5127   0.104   0.478   4.971
 1410SOL     OW 5128   1.815   3.347   6.640
 1410SOL    HW1 5129   1.821   3.291   6.722
 1410SOL    HW2 5130   1.719   3.367   6.619
 1411SOL     OW 5131   2.092   6.618   3.278
 1411SOL    HW1 5132   2.010   6.561   3.274
 1411SOL    HW2 5133   2.141   6.613   3.191
 1412SOL     OW 5134   1.278   2.886   0.631
 1412SOL    HW1 5135   1.187   2.926   0.624
 1412SOL    HW2 5136   1.289   2.844   0.721
 1413SOL     OW 5137   1.982   0.571   4.841
 1413SOL    HW1 5138   1.966   0.477   4.872
 1413SOL    HW2 5139   1.987   0.573   4.741
 1414SOL     OW 5140   2.704   1.493   2.035
 1414SOL    HW1 5141   2.713   1.579   2.084
 1414SOL    HW2 5142   2.690   1.512   1.937
 1415SOL     OW 5143   2.283   6.721   4.484
 1415SOL    HW1 5144   2.335   6.683   4.407
 1415SOL    HW2 5145   2.190   6.685   4.482
 1416SOL     OW 5146   4.695   4.396   2.971
 1416SOL    HW1 5147   4.752   4.410   2.890
 1416SOL    HW2 5148   4.600   4.383   2.943
 1417SOL     OW 5149   2.502   2.542   6.570
 1417SOL    HW1 5150   2.488   2.598   6.652
 1417SOL    HW2 5151   2.510   2.446   6.596
 1418SOL     OW 5152   3.072   4.034   3.095
 1418SOL    HW1 5153   3.116   3.996   3.014
 1418SOL    HW2 5154   2.974   4.011   3.094
 1419SOL     OW 5155   2.874   6.657   4.235
 1419SOL    HW1 5156   2.933   6.591   4.189
 1419SOL    HW2 5157   2.929   6.722   4.287
 1420SOL     OW 5158   1.612   6.372   1.935
 1420SOL    HW1 5159   1.548   6.369   2.012
 1420SOL    HW2 5160   1.570   6.329   1.856
 1421SOL     OW 5161   1.624   3.118   3.291
 1421SOL    HW1 5162   1.608   3.096   3.387
 1421SOL    HW2 5163   1.628   3.034   3.238
 1422SOL     OW 5164   2.363   4.505   2.035
 1422SOL    HW1 5165   2.313   4.430   1.993
 1422SOL    HW2 5166   2.438   4.533   1.975
 1423SOL     OW 5167   5.872   6.592   1.910
 1423SOL    HW1 5168   5.902   6.663   1.846
 1423SOL    HW2 5169   5.814   6.526   1.861
 1424SOL     OW 5170   5.563   4.621   4.421
 1424SOL    HW1 5171   5.649   4.663   4.393
 1424SOL    HW2 5172   5.510   4.595   4.340
 1425SOL     OW 5173   1.256   6.029   4.330
 1425SOL    HW1 5174   1.261   5.938   4.289
 1425SOL    HW2 5175   1.312   6.093   4.278
 1426SOL     OW 5176   1.038   2.385   5.879
 1426SOL    HW1 5177   0.974   2.458   5.856
 1426SOL    HW2 5178   1.067   2.338   5.796
 1427SOL     OW 5179   0.045   6.782   3.087
 1427SOL    HW1 5180   0.048   6.860   3.025
 1427SOL    HW2 5181   0.134   6.771   3.131
 1428SOL     OW 5182   5.772   2.570   0.785
 1428SOL    HW1 5183   5.735   2.558   0.692
 1428SOL    HW2 5184   5.799   2.481   0.821
 1429SOL     OW 5185   5.678   2.308   0.360
 1429SOL    HW1 5186   5.579   2.322   0.357
 1429SOL    HW2 5187   5.699   2.222   0.406
 1430SOL     OW 5188   1.516   4.129   4.316
 1430SOL    HW1 5189   1.501   4.145   4.218
 1430SOL    HW2 5190   1.610   4.095   4.330
 1431SOL     OW 5191   2.176   2.241   1.948
 1431SOL    HW1 5192   2.240   2.304   1.992
 1431SOL    HW2 5193   2.107   2.293   1.898
 1432SOL     OW 5194   2.577   1.656   3.622
 1432SOL    HW1 5195   2.622   1.746   3.619
 1432SOL    HW2 5196   2.484   1.667   3.655
 1433SOL     OW 5197   4.542   1.323   4.525
 1433SOL    HW1 5198   4.631   1.276   4.531
 1433SOL    HW2 5199   4.532   1.384   4.603
 1434SOL     OW 5200   0.268   1.080   5.293
 1434SOL    HW1 5201   0.352   1.031   5.314
 1434SOL    HW2 5202   0.207   1.077   5.372
 1435SOL     OW 5203   6.498   1.032   2.282
 1435SOL    HW1 5204   6.492   0.963   2.210
 1435SOL    HW2 5205   6.591   1.070   2.284
 1436SOL     OW 5206   4.728   4.038   6.602
 1436SOL    HW1 5207   4.649   3.979   6.588
 1436SOL    HW2 5208   4.796   4.021   6.531
 1437SOL     OW 5209   2.451   2.150   4.067
 1437SOL    HW1 5210   2.353   2.163   4.081
 1437SOL    HW2 5211   2.492   2.118   4.153
 1438SOL     OW 5212   3.636   6.091   1.343
 1438SOL    HW1 5213   3.594   6.012   1.299
 1438SOL    HW2 5214   3.728   6.105   1.307
 1439SOL     OW 5215   0.072   5.852   1.784
 1439SOL    HW1 5216   7.013   5.809   1.829
 1439SOL    HW2 5217   0.067   5.951   1.794
 1440SOL     OW 5218   3.316   3.840   1.389
 1440SOL    HW1 5219   3.286   3.870   1.479
 1440SOL    HW2 5220   3.237   3.808   1.336
 1441SOL     OW 5221   6.322   1.024   1.633
 1441SOL    HW1 5222   6.259   1.010   1.709
 1441SOL    HW2 5223   6.280   0.992   1.548
 1442SOL     OW 5224   6.234   6.374   6.850
 1442SOL    HW1 5225   6.145   6.413   6.823
 1442SOL    HW2 5226   6.296   6.448   6.877
 1443SOL     OW 5227   0.404   2.776   2.517
 1443SOL    HW1 5228   0.457   2.803   2.597
 1443SOL    HW2 5229   0.465   2.769   2.438
 1444SOL     OW 5230   5.072   0.011   0.915
 1444SOL    HW1 5231   5.043   0.001   1.010
 1444SOL    HW2 5232   5.169   0.034   0.912
 1445SOL     OW 5233   1.044   3.477   2.995
 1445SOL    HW1 5234   1.087   3.390   2.972
 1445SOL    HW2 5235   0.975   3.499   2.926
 1446SOL     OW 5236   6.631   0.569   6.254
 1446SOL    HW1 5237   6.636   0.621   6.340
 1446SOL    HW2 5238   6.596   0.629   6.181
 1447SOL     OW 5239   5.431   4.833   2.797
 1447SOL    HW1 5240   5.520   4.794   2.821
 1447SOL    HW2 5241   5.413   4.913   2.855
 1448SOL     OW 5242   6.914   3.302   4.476
 1448SOL    HW1 5243   6.905   3.203   4.463
 1448SOL    HW2 5244   7.005   3.331   4.447
 1449SOL     OW 5245   1.746   4.609   5.539
 1449SOL    HW1 5246   1.734   4.649   5.448
 1449SOL    HW2 5247   1.820   4.542   5.536
 1450SOL     OW 5248   1.037   2.197   6.111
 1450SOL    HW1 5249   1.075   2.271   6.056
 1450SOL    HW2 5250   0.949   2.168   6.072
 1451SOL     OW 5251   1.460   6.097   1.807
 1451SOL    HW1 5252   1.475   6.188   1.768
 1451SOL    HW2 5253   1.392   6.048   1.752
 1452SOL     OW 5254   4.376   2.733   5.771
 1452SOL    HW1 5255   4.347   2.817   5.817
 1452SOL    HW2 5256   4.303   2.699   5.712
 1453SOL     OW 5257   0.794   4.864   5.580
 1453SOL    HW1 5258   0.806   4.963   5.583
 1453SOL    HW2 5259   0.880   4.819   5.604
 1454SOL     OW 5260   2.522   1.940   3.150
 1454SOL    HW1 5261   2.578   1.959   3.070
 1454SOL    HW2 5262   2.486   1.847   3.145
 1455SOL     OW 5263   1.007   6.380   2.947
 1455SOL    HW1 5264   1.019   6.305   2.882
 1455SOL    HW2 5265   0.915   6.377   2.984
 1456SOL     OW 5266   6.802   6.349   6.430
 1456SOL    HW1 5267   6.771   6.399   6.511
 1456SOL    HW2 5268   6.725   6.296   6.393
 1457SOL     OW 5269   0.102   4.237   0.668
 1457SOL    HW1 5270   0.134   4.269   0.757
 1457SOL    HW2 5271   0.041   4.159   0.681
 1458SOL     OW 5272   5.615   4.921   5.482
 1458SOL    HW1 5273   5.645   4.942   5.575
 1458SOL    HW2 5274   5.516   4.909   5.481
 1459SOL     OW 5275   4.672   6.449   5.970
 1459SOL    HW1 5276   4.753   6.391   5.981
 1459SOL    HW2 5277   4.630   6.430   5.881
 1460SOL     OW 5278   1.583   6.353   5.259
 1460SOL    HW1 5279   1.671   6.380   5.218
 1460SOL    HW2 5280   1.508   6.387   5.203
 1461SOL     OW 5281   0.726   3.408   3.097
 1461SOL    HW1 5282   0.824   3.390   3.104
 1461SOL    HW2 5283   0.681   3.384   3.183
 1462SOL     OW 5284   0.736   0.814   6.993
 1462SOL    HW1 5285   0.711   0.909   6.976
 1462SOL    HW2 5286   0.808   0.811   0.043
 1463SOL     OW 5287   1.535   5.117   6.694
 1463SOL    HW1 5288   1.522   5.039   6.756
 1463SOL    HW2 5289   1.473   5.191   6.719
 1464SOL     OW 5290   6.587   4.458   3.921
 1464SOL    HW1 5291   6.524   4.515   3.973
 1464SOL    HW2 5292   6.663   4.431   3.979
 1465SOL     OW 5293   1.982   1.838   3.433
 1465SOL    HW1 5294   1.979   1.938   3.428
 1465SOL    HW2 5295   1.920   1.806   3.505
 1466SOL     OW 5296   3.633   2.393   1.614
 1466SOL    HW1 5297   3.599   2.324   1.550
 1466SOL    HW2 5298   3.637   2.354   1.706
 1467SOL     OW 5299   1.393   1.221   4.245
 1467SOL    HW1 5300   1.449   1.187   4.321
 1467SOL    HW2 5301   1.433   1.306   4.210
 1468SOL     OW 5302   2.513   5.789   1.618
 1468SOL    HW1 5303   2.542   5.789   1.714
 1468SOL    HW2 5304   2.446   5.862   1.604
 1469SOL     OW 5305   6.805   6.264   3.420
 1469SOL    HW1 5306   6.856   6.264   3.506
 1469SOL    HW2 5307   6.745   6.344   3.416
 1470SOL     OW 5308   6.790   2.773   1.109
 1470SOL    HW1 5309   6.820   2.695   1.162
 1470SOL    HW2 5310   6.776   2.852   1.170
 1471SOL     OW 5311   0.118   0.156   0.418
 1471SOL    HW1 5312   0.084   0.136   0.510
 1471SOL    HW2 5313   0.143   0.252   0.412
 1472SOL     OW 5314   2.503   6.344   6.664
 1472SOL    HW1 5315   2.524   6.247   6.651
 1472SOL    HW2 5316   2.586   6.398   6.656
 1473SOL     OW 5317   3.459   4.967   5.034
 1473SOL    HW1 5318   3.479   4.934   4.942
 1473SOL    HW2 5319   3.360   4.976   5.046
 1474SOL     OW 5320   4.157   5.260   1.659
 1474SOL    HW1 5321   4.222   5.294   1.590
 1474SOL    HW2 5322   4.169   5.310   1.744
 1475SOL     OW 5323   5.286   1.675   0.215
 1475SOL    HW1 5324   5.349   1.606   0.250
 1475SOL    HW2 5325   5.326   1.718   0.134
 1476SOL     OW 5326   3.173   1.394   1.381
 1476SOL    HW1 5327   3.229   1.393   1.298
 1476SOL    HW2 5328   3.168   1.488   1.416
 1477SOL     OW 5329   4.520   6.827   0.469
 1477SOL    HW1 5330   4.450   6.755   0.468
 1477SOL    HW2 5331   4.497   6.897   0.401
 1478SOL     OW 5332   5.460   6.504   5.058
 1478SOL    HW1 5333   5.527   6.498   5.132
 1478SOL    HW2 5334   5.398   6.426   5.062
 1479SOL     OW 5335   3.926   3.962   2.401
 1479SOL    HW1 5336   3.947   4.048   2.447
 1479SOL    HW2 5337   3.829   3.940   2.414
 1480SOL     OW 5338   2.245   0.552   6.296
 1480SOL    HW1 5339   2.150   0.554   6.265
 1480SOL    HW2 5340   2.298   0.493   6.236
 1481SOL     OW 5341   5.541   2.800   5.544
 1481SOL    HW1 5342   5.458   2.753   5.514
 1481SOL    HW2 5343   5.518   2.865   5.617
 1482SOL     OW 5344   4.412   0.473   0.881
 1482SOL    HW1 5345   4.437   0.508   0.791
 1482SOL    HW2 5346   4.488   0.487   0.944
 1483SOL     OW 5347   4.711   1.685   5.626
 1483SOL    HW1 5348   4.619   1.646   5.631
 1483SOL    HW2 5349   4.767   1.631   5.563
 1484SOL     OW 5350   3.055   4.974   4.814
 1484SOL    HW1 5351   2.982   4.908   4.833
 1484SOL    HW2 5352   3.109   4.988   4.897
 1485SOL     OW 5353   4.790   1.035   3.452
 1485SOL    HW1 5354   4.808   0.938   3.469
 1485SOL    HW2 5355   4.692   1.053   3.460
 1486SOL     OW 5356   4.792   6.594   3.714
 1486SOL    HW1 5357   4.881   6.553   3.690
 1486SOL    HW2 5358   4.739   6.529   3.768
 1487SOL     OW 5359   7.010   0.939   0.335
 1487SOL    HW1 5360   6.932   0.978   0.286
 1487SOL    HW2 5361   6.978   0.897   0.420
 1488SOL     OW 5362   6.218   0.508   2.426
 1488SOL    HW1 5363   6.274   0.550   2.354
 1488SOL    HW2 5364   6.123   0.534   2.414
 1489SOL     OW 5365   4.195   4.645   6.931
 1489SOL    HW1 5366   4.278   4.635   6.984
 1489SOL    HW2 5367   4.201   4.726   6.873
 1490SOL     OW 5368   0.069   2.422   1.620
 1490SOL    HW1 5369   7.004   2.469   1.592
 1490SOL    HW2 5370   0.064   2.326   1.593
 1491SOL     OW 5371   6.691   3.453   2.060
 1491SOL    HW1 5372   6.684   3.358   2.089
 1491SOL    HW2 5373   6.729   3.457   1.967
 1492SOL     OW 5374   6.739   0.472   2.496
 1492SOL    HW1 5375   6.825   0.506   2.534
 1492SOL    HW2 5376   6.720   0.519   2.410
 1493SOL     OW 5377   4.252   1.261   5.837
 1493SOL    HW1 5378   4.247   1.319   5.755
 1493SOL    HW2 5379   4.245   1.318   5.918
 1494SOL     OW 5380   5.613   2.292   6.023
 1494SOL    HW1 5381   5.606   2.335   6.113
 1494SOL    HW2 5382   5.525   2.298   5.977
 1495SOL     OW 5383   6.032   3.494   3.687
 1495SOL    HW1 5384   6.002   3.588   3.676
 1495SOL    HW2 5385   6.007   3.461   3.778
 1496SOL     OW 5386   0.005   6.599   0.073
 1496SOL    HW1 5387   6.965   6.675   0.102
 1496SOL    HW2 5388   0.095   6.635   0.048
 1497SOL     OW 5389   5.081   2.404   3.060
 1497SOL    HW1 5390   4.993   2.407   3.013
 1497SOL    HW2 5391   5.106   2.496   3.090
 1498SOL     OW 5392   2.668   4.337   1.345
 1498SOL    HW1 5393   2.719   4.334   1.431
 1498SOL    HW2 5394   2.732   4.355   1.270
 1499SOL     OW 5395   0.190   3.739   5.815
 1499SOL    HW1 5396   0.267   3.803   5.815
 1499SOL    HW2 5397   0.132   3.758   5.736
 1500SOL     OW 5398   0.800   5.734   0.265
 1500SOL    HW1 5399   0.848   5.710   0.349
 1500SOL    HW2 5400   0.857   5.714   0.186
 1501SOL     OW 5401   6.103   1.778   6.439
 1501SOL    HW1 5402   6.189   1.824   6.418
 1501SOL    HW2 5403   6.087   1.781   6.537
 1502SOL     OW 5404   6.660   1.149   5.959
 1502SOL    HW1 5405   6.659   1.231   5.901
 1502SOL    HW2 5406   6.573   1.142   6.008
 1503SOL     OW 5407   0.637   3.627   2.392
 1503SOL    HW1 5408   0.596   3.560   2.330
 1503SOL    HW2 5409   0.651   3.585   2.482
 1504SOL     OW 5410   0.270   0.019   4.016
 1504SOL    HW1 5411   0.364   0.035   3.985
 1504SOL    HW2 5412   0.217   0.102   4.002
 1505SOL     OW 5413   5.844   6.109   5.092
 1505SOL    HW1 5414   5.840   6.164   5.175
 1505SOL    HW2 5415   5.914   6.038   5.103
 1506SOL     OW 5416   1.479   0.390   1.152
 1506SOL    HW1 5417   1.537   0.386   1.070
 1506SOL    HW2 5418   1.384   0.378   1.126
 1507SOL     OW 5419   1.300   1.688   4.674
 1507SOL    HW1 5420   1.328   1.669   4.768
 1507SOL    HW2 5421   1.272   1.783   4.666
 1508SOL     OW 5422   0.575   1.492   0.565
 1508SOL    HW1 5423   0.605   1.401   0.540
 1508SOL    HW2 5424   0.529   1.488   0.654
 1509SOL     OW 5425   5.321   1.308   4.860
 1509SOL    HW1 5426   5.367   1.336   4.943
 1509SOL    HW2 5427   5.326   1.208   4.851
 1510SOL     OW 5428   4.022   6.930   3.859
 1510SOL    HW1 5429   3.940   6.904   3.808
 1510SOL    HW2 5430   4.039   6.862   3.930
 1511SOL     OW 5431   3.035   3.849   4.480
 1511SOL    HW1 5432   2.995   3.850   4.571
 1511SOL    HW2 5433   3.124   3.896   4.482
 1512SOL     OW 5434   6.136   5.871   1.074
 1512SOL    HW1 5435   6.116   5.879   1.172
 1512SOL    HW2 5436   6.130   5.961   1.031
 1513SOL     OW 5437   3.465   6.648   5.967
 1513SOL    HW1 5438   3.391   6.676   5.907
 1513SOL    HW2 5439   3.464   6.548   5.977
 1514SOL     OW 5440   3.440   2.006   5.697
 1514SOL    HW1 5441   3.465   2.024   5.602
 1514SOL    HW2 5442   3.353   1.957   5.700
 1515SOL     OW 5443   6.683   1.922   2.858
 1515SOL    HW1 5444   6.605   1.946   2.801
 1515SOL    HW2 5445   6.767   1.958   2.815
 1516SOL     OW 5446   6.177   5.709   4.857
 1516SOL    HW1 5447   6.084   5.678   4.839
 1516SOL    HW2 5448   6.234   5.631   4.880
 1517SOL     OW 5449   3.380   6.357   3.286
 1517SOL    HW1 5450   3.351   6.397   3.373
 1517SOL    HW2 5451   3.478   6.376   3.272
 1518SOL     OW 5452   6.324   2.506   0.203
 1518SOL    HW1 5453   6.389   2.485   0.275
 1518SOL    HW2 5454   6.373   2.531   0.119
 1519SOL     OW 5455   6.929   5.117   0.591
 1519SOL    HW1 5456   7.019   5.124   0.547
 1519SOL    HW2 5457   6.878   5.202   0.576
 1520SOL     OW 5458   0.824   4.901   1.435
 1520SOL    HW1 5459   0.780   4.975   1.384
 1520SOL    HW2 5460   0.769   4.817   1.424
 1521SOL     OW 5461   2.829   4.749   6.888
 1521SOL    HW1 5462   2.808   4.718   6.795
 1521SOL    HW2 5463   2.747   4.739   6.945
 1522SOL     OW 5464   5.409   5.604   4.822
 1522SOL    HW1 5465   5.365   5.550   4.750
 1522SOL    HW2 5466   5.482   5.550   4.864
 1523SOL     OW 5467   3.739   6.666   6.712
 1523SOL    HW1 5468   3.732   6.583   6.767
 1523SOL    HW2 5469   3.687   6.740   6.754
 1524SOL     OW 5470   2.399   2.604   2.963
 1524SOL    HW1 5471   2.425   2.521   3.012
 1524SOL    HW2 5472   2.358   2.669   3.027
 1525SOL     OW 5473   6.163   3.001   0.698
 1525SOL    HW1 5474   6.206   3.091   0.708
 1525SOL    HW2 5475   6.082   3.008   0.640
 1526SOL     OW 5476   0.750   1.847   0.030
 1526SOL    HW1 5477   0.798   1.760   0.027
 1526SOL    HW2 5478   0.651   1.831   0.038
 1527SOL     OW 5479   3.698   1.442   4.961
 1527SOL    HW1 5480   3.662   1.487   5.043
 1527SOL    HW2 5481   3.768   1.501   4.920
 1528SOL     OW 5482   4.749   3.895   1.058
 1528SOL    HW1 5483   4.685   3.838   1.110
 1528SOL    HW2 5484   4.840   3.886   1.097
 1529SOL     OW 5485   5.305   1.350   6.907
 1529SOL    HW1 5486   5.232   1.409   6.942
 1529SOL    HW2 5487   5.370   1.330   6.980
 1530SOL     OW 5488   3.331   0.438   1.760
 1530SOL    HW1 5489   3.331   0.344   1.726
 1530SOL    HW2 5490   3.425   0.473   1.763
 1531SOL     OW 5491   4.416   0.260   4.101
 1531SOL    HW1 5492   4.421   0.249   4.002
 1531SOL    HW2 5493   4.428   0.357   4.124
 1532SOL     OW 5494   3.522   4.928   6.076
 1532SOL    HW1 5495   3.563   4.939   6.167
 1532SOL    HW2 5496   3.478   4.838   6.070
 1533SOL     OW 5497   5.903   5.977   0.665
 1533SOL    HW1 5498   5.812   5.950   0.633
 1533SOL    HW2 5499   5.937   5.909   0.730
 1534SOL     OW 5500   3.860   5.794   0.258
 1534SOL    HW1 5501   3.858   5.847   0.174
 1534SOL    HW2 5502   3.778   5.814   0.312
 1535SOL     OW 5503   5.767   6.652   4.763
 1535SOL    HW1 5504   5.680   6.602   4.763
 1535SOL    HW2 5505   5.835   6.599   4.712
 1536SOL     OW 5506   4.057   4.771   0.130
 1536SOL    HW1 5507   3.958   4.786   0.141
 1536SOL    HW2 5508   4.073   4.688   0.077
 1537SOL     OW 5509   3.453   5.217   4.071
 1537SOL    HW1 5510   3.367   5.211   4.121
 1537SOL    HW2 5511   3.483   5.124   4.046
 1538SOL     OW 5512   3.538   1.541   7.004
 1538SOL    HW1 5513   3.577   1.457   0.023
 1538SOL    HW2 5514   3.527   1.608   0.057
 1539SOL     OW 5515   4.797   3.272   1.828
 1539SOL    HW1 5516   4.722   3.206   1.826
 1539SOL    HW2 5517   4.863   3.245   1.899
 1540SOL     OW 5518   1.468   6.906   5.179
 1540SOL    HW1 5519   1.411   6.943   5.105
 1540SOL    HW2 5520   1.529   6.978   5.212
 1541SOL     OW 5521   4.013   3.102   4.311
 1541SOL    HW1 5522   4.001   3.003   4.323
 1541SOL    HW2 5523   4.007   3.147   4.400
 1542SOL     OW 5524   6.537   6.480   1.999
 1542SOL    HW1 5525   6.621   6.506   1.951
 1542SOL    HW2 5526   6.475   6.435   1.935
 1543SOL     OW 5527   3.676   5.595   6.257
 1543SOL    HW1 5528   3.691   5.507   6.211
 1543SOL    HW2 5529   3.601   5.643   6.213
 1544SOL     OW 5530   3.550   3.729   4.176
 1544SOL    HW1 5531   3.614   3.773   4.239
 1544SOL    HW2 5532   3.571   3.757   4.083
 1545SOL     OW 5533   6.209   0.582   1.779
 1545SOL    HW1 5534   6.121   0.534   1.770
 1545SOL    HW2 5535   6.260   0.574   1.693
 1546SOL     OW 5536   4.982   6.429   6.150
 1546SOL    HW1 5537   4.924   6.370   6.094
 1546SOL    HW2 5538   5.059   6.376   6.186
 1547SOL     OW 5539   1.589   4.210   0.790
 1547SOL    HW1 5540   1.555   4.270   0.862
 1547SOL    HW2 5541   1.574   4.115   0.817
 1548SOL     OW 5542   6.309   3.594   6.967
 1548SOL    HW1 5543   6.311   3.515   6.906
 1548SOL    HW2 5544   6.391   3.595   0.004
 1549SOL     OW 5545   4.129   1.337   4.367
 1549SOL    HW1 5546   4.228   1.350   4.358
 1549SOL    HW2 5547   4.106   1.322   4.463
 1550SOL     OW 5548   3.386   2.930   2.364
 1550SOL    HW1 5549   3.305   2.922   2.306
 1550SOL    HW2 5550   3.374   2.871   2.444
 1551SOL     OW 5551   1.167   5.011   7.008
 1551SOL    HW1 5552   1.224   4.931   6.992
 1551SOL    HW2 5553   1.106   5.025   6.930
 1552SOL     OW 5554   2.911   4.716   0.942
 1552SOL    HW1 5555   2.851   4.734   1.020
 1552SOL    HW2 5556   2.950   4.624   0.951
 1553SOL     OW 5557   0.089   1.212   6.467
 1553SOL    HW1 5558   0.131   1.205   6.557
 1553SOL    HW2 5559   0.118   1.296   6.422
 1554SOL     OW 5560   3.020   1.916   3.820
 1554SOL    HW1 5561   3.085   1.919   3.895
 1554SOL    HW2 5562   2.927   1.930   3.856
 1555SOL     OW 5563   5.861   2.686   6.370
 1555SOL    HW1 5564   5.885   2.770   6.323
 1555SOL    HW2 5565   5.787   2.640   6.320
 1556SOL     OW 5566   2.067   0.927   6.168
 1556SOL    HW1 5567   2.034   0.966   6.254
 1556SOL    HW2 5568   2.000   0.862   6.132
 1557SOL     OW 5569   1.951   3.724   6.004
 1557SOL    HW1 5570   1.937   3.628   6.031
 1557SOL    HW2 5571   1.864   3.773   6.012
 1558SOL     OW 5572   6.096   0.466   4.469
 1558SOL    HW1 5573   6.165   0.464   4.541
 1558SOL    HW2 5574   6.111   0.390   4.406
 1559SOL     OW 5575   0.902   2.594   6.462
 1559SOL    HW1 5576   0.936   2.579   6.370
 1559SOL    HW2 5577   0.973   2.640   6.517
 1560SOL     OW 5578   0.199   1.172   6.912
 1560SOL    HW1 5579   0.260   1.093   6.902
 1560SOL    HW2 5580   0.253   1.254   6.931
 1561SOL     OW 5581   4.457   5.997   3.384
 1561SOL    HW1 5582   4.539   5.990   3.440
 1561SOL    HW2 5583   4.389   6.054   3.431
 1562SOL     OW 5584   4.115   6.535   2.072
 1562SOL    HW1 5585   4.111   6.482   2.156
 1562SOL    HW2 5586   4.194   6.506   2.018
 1563SOL     OW 5587   3.483   0.963   6.128
 1563SOL    HW1 5588   3.440   0.952   6.218
 1563SOL    HW2 5589   3.576   0.929   6.131
 1564SOL     OW 5590   1.538   0.698   2.715
 1564SOL    HW1 5591   1.629   0.658   2.702
 1564SOL    HW2 5592   1.472   0.625   2.735
 1565SOL     OW 5593   4.958   4.079   2.292
 1565SOL    HW1 5594   5.052   4.103   2.317
 1565SOL    HW2 5595   4.895   4.142   2.338
 1566SOL     OW 5596   5.502   3.544   3.580
 1566SOL    HW1 5597   5.488   3.642   3.573
 1566SOL    HW2 5598   5.438   3.506   3.648
 1567SOL     OW 5599   5.971   6.376   6.769
 1567SOL    HW1 5600   5.950   6.378   6.867
 1567SOL    HW2 5601   5.964   6.282   6.735
 1568SOL     OW 5602   1.438   0.363   0.434
 1568SOL    HW1 5603   1.479   0.333   0.520
 1568SOL    HW2 5604   1.345   0.396   0.450
 1569SOL     OW 5605   4.180   6.208   4.031
 1569SOL    HW1 5606   4.264   6.154   4.029
 1569SOL    HW2 5607   4.202   6.305   4.033
 1570SOL     OW 5608   2.824   1.345   1.683
 1570SOL    HW1 5609   2.748   1.407   1.706
 1570SOL    HW2 5610   2.903   1.368   1.739
 1571SOL     OW 5611   5.827   2.884   1.117
 1571SOL    HW1 5612   5.915   2.859   1.155
 1571SOL    HW2 5613   5.767   2.919   1.189
 1572SOL     OW 5614   0.501   0.541   2.422
 1572SOL    HW1 5615   0.453   0.469   2.373
 1572SOL    HW2 5616   0.442   0.622   2.431
 1573SOL     OW 5617   4.948   6.782   1.852
 1573SOL    HW1 5618   4.937   6.790   1.753
 1573SOL    HW2 5619   5.041   6.807   1.877
 1574SOL     OW 5620   0.353   1.932   1.633
 1574SOL    HW1 5621   0.427   1.889   1.581
 1574SOL    HW2 5622   0.370   2.030   1.639
 1575SOL     OW 5623   2.515   2.035   0.386
 1575SOL    HW1 5624   2.587   1.997   0.328
 1575SOL    HW2 5625   2.545   2.122   0.424
 1576SOL     OW 5626   5.285   6.044   3.818
 1576SOL    HW1 5627   5.327   6.040   3.908
 1576SOL    HW2 5628   5.287   5.953   3.775
 1577SOL     OW 5629   2.267   1.520   5.593
 1577SOL    HW1 5630   2.184   1.518   5.536
 1577SOL    HW2 5631   2.337   1.463   5.551
 1578SOL     OW 5632   5.816   3.722   5.084
 1578SOL    HW1 5633   5.802   3.691   4.990
 1578SOL    HW2 5634   5.753   3.797   5.104
 1579SOL     OW 5635   0.341   1.399   3.258
 1579SOL    HW1 5636   0.354   1.494   3.231
 1579SOL    HW2 5637   0.246   1.372   3.240
 1580SOL     OW 5638   2.785   4.086   5.422
 1580SOL    HW1 5639   2.767   4.019   5.351
 1580SOL    HW2 5640   2.861   4.055   5.479
 1581SOL     OW 5641   6.542   4.135   4.066
 1581SOL    HW1 5642   6.627   4.110   4.113
 1581SOL    HW2 5643   6.555   4.127   3.967
 1582SOL     OW 5644   0.658   4.659   4.684
 1582SOL    HW1 5645   0.666   4.608   4.599
 1582SOL    HW2 5646   0.721   4.737   4.683
 1583SOL     OW 5647   2.114   3.141   3.648
 1583SOL    HW1 5648   2.018   3.124   3.629
 1583SOL    HW2 5649   2.170   3.106   3.573
 1584SOL     OW 5650   2.568   6.519   5.046
 1584SOL    HW1 5651   2.475   6.533   5.013
 1584SOL    HW2 5652   2.574   6.548   5.142
 1585SOL     OW 5653   5.445   2.442   3.259
 1585SOL    HW1 5654   5.374   2.381   3.294
 1585SOL    HW2 5655   5.404   2.505   3.193
 1586SOL     OW 5656   3.522   3.707   1.938
 1586SOL    HW1 5657   3.442   3.728   1.882
 1586SOL    HW2 5658   3.604   3.710   1.881
 1587SOL     OW 5659   3.310   5.933   6.799
 1587SOL    HW1 5660   3.312   5.836   6.775
 1587SOL    HW2 5661   3.387   5.980   6.754
 1588SOL     OW 5662   5.182   1.217   2.809
 1588SOL    HW1 5663   5.244   1.266   2.871
 1588SOL    HW2 5664   5.218   1.220   2.716
 1589SOL     OW 5665   5.392   4.263   3.646
 1589SOL    HW1 5666   5.377   4.339   3.710
 1589SOL    HW2 5667   5.346   4.283   3.559
 1590SOL     OW 5668   1.744   6.587   6.983
 1590SOL    HW1 5669   1.777   6.674   6.947
 1590SOL    HW2 5670   1.647   6.576   6.961
 1591SOL     OW 5671   1.114   5.131   2.388
 1591SOL    HW1 5672   1.212   5.119   2.402
 1591SOL    HW2 5673   1.097   5.211   2.330
 1592SOL     OW 5674   3.180   3.221   2.097
 1592SOL    HW1 5675   3.163   3.314   2.129
 1592SOL    HW2 5676   3.273   3.193   2.122
 1593SOL     OW 5677   0.510   6.431   4.640
 1593SOL    HW1 5678   0.447   6.407   4.567
 1593SOL    HW2 5679   0.464   6.492   4.705
 1594SOL     OW 5680   6.773   5.518   2.819
 1594SOL    HW1 5681   6.674   5.532   2.807
 1594SOL    HW2 5682   6.793   5.420   2.810
 1595SOL     OW 5683   0.416   4.661   6.794
 1595SOL    HW1 5684   0.466   4.576   6.782
 1595SOL    HW2 5685   0.329   4.643   6.840
 1596SOL     OW 5686   2.099   4.727   5.624
 1596SOL    HW1 5687   2.098   4.675   5.539
 1596SOL    HW2 5688   2.023   4.792   5.625
 1597SOL     OW 5689   2.115   6.373   1.948
 1597SOL    HW1 5690   2.034   6.432   1.955
 1597SOL    HW2 5691   2.180   6.398   2.019
 1598SOL     OW 5692   0.632   4.075   0.812
 1598SOL    HW1 5693   0.555   4.051   0.870
 1598SOL    HW2 5694   0.609   4.155   0.757
 1599SOL     OW 5695   3.725   4.338   6.617
 1599SOL    HW1 5696   3.690   4.329   6.711
 1599SOL    HW2 5697   3.733   4.435   6.594
 1600SOL     OW 5698   5.307   1.885   5.178
 1600SOL    HW1 5699   5.324   1.962   5.117
 1600SOL    HW2 5700   5.219   1.898   5.224
 1601SOL     OW 5701   1.742   4.488   4.986
 1601SOL    HW1 5702   1.756   4.550   4.909
 1601SOL    HW2 5703   1.707   4.540   5.064
 1602SOL     OW 5704   1.069   6.021   3.313
 1602SOL    HW1 5705   1.090   6.108   3.358
 1602SOL    HW2 5706   1.149   5.990   3.261
 1603SOL     OW 5707   0.796   6.610   2.077
 1603SOL    HW1 5708   0.842   6.698   2.079
 1603SOL    HW2 5709   0.747   6.595   2.163
 1604SOL     OW 5710   6.425   5.465   6.460
 1604SOL    HW1 5711   6.341   5.503   6.499
 1604SOL    HW2 5712   6.492   5.538   6.450
 1605SOL     OW 5713   6.361   0.459   2.657
 1605SOL    HW1 5714   6.419   0.379   2.651
 1605SOL    HW2 5715   6.318   0.476   2.568
 1606SOL     OW 5716   4.779   6.934   5.365
 1606SOL    HW1 5717   4.779   6.916   5.266
 1606SOL    HW2 5718   4.696   6.896   5.405
 1607SOL     OW 5719   3.914   2.344   0.967
 1607SOL    HW1 5720   3.873   2.324   1.057
 1607SOL    HW2 5721   3.945   2.259   0.925
 1608SOL     OW 5722   2.453   6.743   0.150
 1608SOL    HW1 5723   2.446   6.782   0.058
 1608SOL    HW2 5724   2.425   6.812   0.217
 1609SOL     OW 5725   5.893   2.284   6.082
 1609SOL    HW1 5726   5.798   2.274   6.050
 1609SOL    HW2 5727   5.936   2.361   6.034
 1610SOL     OW 5728   5.819   5.675   4.913
 1610SOL    HW1 5729   5.826   5.732   4.995
 1610SOL    HW2 5730   5.753   5.602   4.929
 1611SOL     OW 5731   3.629   2.895   2.289
 1611SOL    HW1 5732   3.631   2.855   2.197
 1611SOL    HW2 5733   3.534   2.916   2.314
 1612SOL     OW 5734   2.386   1.699   5.238
 1612SOL    HW1 5735   2.476   1.689   5.280
 1612SOL    HW2 5736   2.320   1.731   5.307
 1613SOL     OW 5737   1.683   6.088   0.633
 1613SOL    HW1 5738   1.671   6.009   0.693
 1613SOL    HW2 5739   1.752   6.149   0.672
 1614SOL     OW 5740   6.021   2.710   6.713
 1614SOL    HW1 5741   6.053   2.695   6.806
 1614SOL    HW2 5742   5.966   2.632   6.684
 1615SOL     OW 5743   0.295   4.835   6.621
 1615SOL    HW1 5744   0.340   4.922   6.645
 1615SOL    HW2 5745   0.342   4.760   6.668
 1616SOL     OW 5746   4.419   2.138   6.266
 1616SOL    HW1 5747   4.426   2.156   6.364
 1616SOL    HW2 5748   4.366   2.054   6.251
 1617SOL     OW 5749   5.992   0.766   2.450
 1617SOL    HW1 5750   5.962   0.688   2.506
 1617SOL    HW2 5751   6.070   0.810   2.494
 1618SOL     OW 5752   0.022   3.399   1.695
 1618SOL    HW1 5753   6.952   3.434   1.724
 1618SOL    HW2 5754   0.031   3.304   1.725
 1619SOL     OW 5755   1.022   4.013   3.910
 1619SOL    HW1 5756   1.098   4.049   3.965
 1619SOL    HW2 5757   0.943   3.998   3.969
 1620SOL     OW 5758   1.981   6.219   1.509
 1620SOL    HW1 5759   1.984   6.309   1.552
 1620SOL    HW2 5760   1.917   6.161   1.558
 1621SOL     OW 5761   1.025   0.518   0.519
 1621SOL    HW1 5762   0.947   0.493   0.576
 1621SOL    HW2 5763   1.077   0.436   0.494
 1622SOL     OW 5764   1.525   2.011   4.535
 1622SOL    HW1 5765   1.558   1.920   4.561
 1622SOL    HW2 5766   1.463   2.045   4.606
 1623SOL     OW 5767   2.217   2.719   6.294
 1623SOL    HW1 5768   2.188   2.777   6.217
 1623SOL    HW2 5769   2.138   2.667   6.327
 1624SOL     OW 5770   3.333   0.984   6.641
 1624SOL    HW1 5771   3.352   0.996   6.739
 1624SOL    HW2 5772   3.265   1.051   6.612
 1625SOL     OW 5773   0.755   5.059   2.302
 1625SOL    HW1 5774   0.788   5.130   2.363
 1625SOL    HW2 5775   0.812   5.054   2.221
 1626SOL     OW 5776   2.381   2.814   6.744
 1626SOL    HW1 5777   2.447   2.877   6.785
 1626SOL    HW2 5778   2.372   2.835   6.647
 1627SOL     OW 5779   6.131   2.388   3.739
 1627SOL    HW1 5780   6.197   2.412   3.811
 1627SOL    HW2 5781   6.179   2.341   3.665
 1628SOL     OW 5782   3.132   5.110   0.876
 1628SOL    HW1 5783   3.147   5.196   0.828
 1628SOL    HW2 5784   3.072   5.126   0.954
 1629SOL     OW 5785   3.519   1.966   4.606
 1629SOL    HW1 5786   3.603   1.925   4.641
 1629SOL    HW2 5787   3.541   2.023   4.526
 1630SOL     OW 5788   0.823   5.168   5.587
 1630SOL    HW1 5789   0.790   5.142   5.677
 1630SOL    HW2 5790   0.746   5.168   5.523
 1631SOL     OW 5791   0.289   0.374   5.785
 1631SOL    HW1 5792   0.204   0.331   5.815
 1631SOL    HW2 5793   0.283   0.395   5.687
 1632SOL     OW 5794   0.328   0.930   6.847
 1632SOL    HW1 5795   0.270   0.858   6.811
 1632SOL    HW2 5796   0.411   0.936   6.792
 1633SOL     OW 5797   5.741   1.897   3.000
 1633SOL    HW1 5798   5.839   1.891   2.981
 1633SOL    HW2 5799   5.721   1.850   3.086
 1634SOL     OW 5800   2.987   5.802   6.495
 1634SOL    HW1 5801   2.980   5.849   6.582
 1634SOL    HW2 5802   3.018   5.708   6.510
 1635SOL     OW 5803   0.203   5.418   4.615
 1635SOL    HW1 5804   0.289   5.383   4.578
 1635SOL    HW2 5805   0.142   5.442   4.540
 1636SOL     OW 5806   2.525   5.558   1.479
 1636SOL    HW1 5807   2.432   5.523   1.467
 1636SOL    HW2 5808   2.527   5.624   1.554
 1637SOL     OW 5809   0.024   3.062   2.675
 1637SOL    HW1 5810   0.007   2.971   2.636
 1637SOL    HW2 5811   0.116   3.065   2.714
 1638SOL     OW 5812   0.393   3.461   3.707
 1638SOL    HW1 5813   0.456   3.527   3.749
 1638SOL    HW2 5814   0.331   3.510   3.646
 1639SOL     OW 5815   4.815   5.794   2.884
 1639SOL    HW1 5816   4.894   5.732   2.884
 1639SOL    HW2 5817   4.814   5.847   2.800
 1640SOL     OW 5818   6.013   1.859   0.513
 1640SOL    HW1 5819   6.050   1.891   0.601
 1640SOL    HW2 5820   6.087   1.850   0.447
 1641SOL     OW 5821   5.927   2.956   3.906
 1641SOL    HW1 5822   5.930   2.918   3.999
 1641SOL    HW2 5823   5.994   2.909   3.849
 1642SOL     OW 5824   6.719   2.500   0.030
 1642SOL    HW1 5825   6.801   2.514   0.085
 1642SOL    HW2 5826   6.698   2.402   0.025
 1643SOL     OW 5827   3.338   6.560   5.172
 1643SOL    HW1 5828   3.252   6.508   5.175
 1643SOL    HW2 5829   3.321   6.651   5.135
 1644SOL     OW 5830   3.289   1.615   1.600
 1644SOL    HW1 5831   3.226   1.653   1.668
 1644SOL    HW2 5832   3.292   1.676   1.520
 1645SOL     OW 5833   2.822   5.932   6.057
 1645SOL    HW1 5834   2.755   6.003   6.079
 1645SOL    HW2 5835   2.775   5.844   6.050
 1646SOL     OW 5836   1.674   4.569   0.577
 1646SOL    HW1 5837   1.765   4.529   0.595
 1646SOL    HW2 5838   1.654   4.639   0.645
 1647SOL     OW 5839   5.795   2.898   3.524
 1647SOL    HW1 5840   5.776   2.890   3.622
 1647SOL    HW2 5841   5.885   2.940   3.511
 1648SOL     OW 5842   5.149   0.247   1.749
 1648SOL    HW1 5843   5.156   0.340   1.713
 1648SOL    HW2 5844   5.053   0.219   1.748
 1649SOL     OW 5845   3.220   0.588   3.172
 1649SOL    HW1 5846   3.201   0.664   3.108
 1649SOL    HW2 5847   3.226   0.624   3.265
 1650SOL     OW 5848   2.778   0.720   4.060
 1650SOL    HW1 5849   2.759   0.622   4.063
 1650SOL    HW2 5850   2.873   0.735   4.034
 1651SOL     OW 5851   0.129   0.414   0.116
 1651SOL    HW1 5852   0.036   0.387   0.144
 1651SOL    HW2 5853   0.147   0.507   0.150
 1652SOL     OW 5854   3.490   2.115   0.809
 1652SOL    HW1 5855   3.403   2.068   0.820
 1652SOL    HW2 5856   3.560   2.068   0.864
 1653SOL     OW 5857   0.018   5.485   0.386
 1653SOL    HW1 5858   6.965   5.418   0.403
 1653SOL    HW2 5859   6.997   5.576   0.378
 1654SOL     OW 5860   0.131   3.557   2.746
 1654SOL    HW1 5861   0.164   3.476   2.795
 1654SOL    HW2 5862   0.046   3.535   2.699
 1655SOL     OW 5863   5.513   4.319   5.990
 1655SOL    HW1 5864   5.526   4.407   5.943
 1655SOL    HW2 5865   5.512   4.335   6.089
 1656SOL     OW 5866   1.133   4.593   3.365
 1656SOL    HW1 5867   1.213   4.554   3.411
 1656SOL    HW2 5868   1.164   4.658   3.295
 1657SOL     OW 5869   2.020   0.978   5.707
 1657SOL    HW1 5870   1.975   0.901   5.753
 1657SOL    HW2 5871   2.119   0.970   5.720
 1658SOL     OW 5872   5.915   6.411   2.540
 1658SOL    HW1 5873   5.930   6.488   2.478
 1658SOL    HW2 5874   5.968   6.332   2.507
 1659SOL     OW 5875   3.710   2.487   6.292
 1659SOL    HW1 5876   3.620   2.482   6.248
 1659SOL    HW2 5877   3.716   2.572   6.344
 1660SOL     OW 5878   1.008   5.818   3.811
 1660SOL    HW1 5879   1.028   5.770   3.896
 1660SOL    HW2 5880   0.991   5.751   3.738
 1661SOL     OW 5881   3.306   1.571   2.724
 1661SOL    HW1 5882   3.214   1.608   2.708
 1661SOL    HW2 5883   3.301   1.500   2.795
 1662SOL     OW 5884   6.852   1.989   3.109
 1662SOL    HW1 5885   6.800   1.951   3.032
 1662SOL    HW2 5886   6.851   2.089   3.104
 1663SOL     OW 5887   3.064   6.648   3.081
 1663SOL    HW1 5888   3.076   6.567   3.024
 1663SOL    HW2 5889   3.108   6.726   3.037
 1664SOL     OW 5890   1.744   0.129   4.305
 1664SOL    HW1 5891   1.799   0.166   4.380
 1664SOL    HW2 5892   1.649   0.119   4.336
 1665SOL     OW 5893   0.730   1.708   2.509
 1665SOL    HW1 5894   0.798   1.701   2.582
 1665SOL    HW2 5895   0.644   1.665   2.539
 1666SOL     OW 5896   5.688   2.688   5.761
 1666SOL    HW1 5897   5.628   2.734   5.696
 1666SOL    HW2 5898   5.782   2.720   5.748
 1667SOL     OW 5899   6.160   6.843   6.160
 1667SOL    HW1 5900   6.235   6.782   6.186
 1667SOL    HW2 5901   6.148   6.840   6.061
 1668SOL     OW 5902   4.147   0.350   4.288
 1668SOL    HW1 5903   4.189   0.280   4.346
 1668SOL    HW2 5904   4.185   0.345   4.196
 1669SOL     OW 5905   5.756   0.026   6.446
 1669SOL    HW1 5906   5.827   0.019   6.376
 1669SOL    HW2 5907   5.747   0.121   6.475
 1670SOL     OW 5908   5.797   4.686   5.657
 1670SOL    HW1 5909   5.708   4.728   5.678
 1670SOL    HW2 5910   5.859   4.756   5.623
 1671SOL     OW 5911   4.406   3.738   0.636
 1671SOL    HW1 5912   4.339   3.805   0.667
 1671SOL    HW2 5913   4.432   3.679   0.712
 1672SOL     OW 5914   1.896   4.071   2.553
 1672SOL    HW1 5915   1.923   4.058   2.457
 1672SOL    HW2 5916   1.944   4.150   2.590
 1673SOL     OW 5917   6.907   3.635   4.560
 1673SOL    HW1 5918   6.893   3.731   4.585
 1673SOL    HW2 5919   6.883   3.576   4.637
 1674SOL     OW 5920   1.218   3.973   0.589
 1674SOL    HW1 5921   1.269   4.057   0.605
 1674SOL    HW2 5922   1.121   3.994   0.581
 1675SOL     OW 5923   5.080   1.333   6.673
 1675SOL    HW1 5924   5.080   1.359   6.769
 1675SOL    HW2 5925   5.165   1.286   6.650
 1676SOL     OW 5926   2.479   1.278   1.965
 1676SOL    HW1 5927   2.532   1.350   2.010
 1676SOL    HW2 5928   2.525   1.250   1.881
 1677SOL     OW 5929   5.734   1.561   5.274
 1677SOL    HW1 5930   5.689   1.549   5.362
 1677SOL    HW2 5931   5.666   1.566   5.201
 1678SOL     OW 5932   4.957   6.053   2.192
 1678SOL    HW1 5933   4.908   6.138   2.172
 1678SOL    HW2 5934   5.049   6.074   2.223
 1679SOL     OW 5935   0.979   2.994   5.923
 1679SOL    HW1 5936   0.948   3.069   5.864
 1679SOL    HW2 5937   1.017   3.032   6.007
 1680SOL     OW 5938   0.604   1.373   3.768
 1680SOL    HW1 5939   0.553   1.453   3.737
 1680SOL    HW2 5940   0.638   1.389   3.860
 1681SOL     OW 5941   6.176   5.274   1.083
 1681SOL    HW1 5942   6.257   5.238   1.036
 1681SOL    HW2 5943   6.188   5.268   1.182
 1682SOL     OW 5944   6.996   2.999   4.497
 1682SOL    HW1 5945   0.012   2.911   4.465
 1682SOL    HW2 5946   0.012   3.018   4.588
 1683SOL     OW 5947   4.782   5.035   1.155
 1683SOL    HW1 5948   4.836   5.115   1.131
 1683SOL    HW2 5949   4.838   4.972   1.209
 1684SOL     OW 5950   0.644   6.701   5.042
 1684SOL    HW1 5951   0.663   6.761   5.119
 1684SOL    HW2 5952   0.551   6.665   5.049
 1685SOL     OW 5953   1.603   1.090   0.514
 1685SOL    HW1 5954   1.528   1.153   0.533
 1685SOL    HW2 5955   1.596   1.056   0.420
 1686SOL     OW 5956   1.467   5.526   5.627
 1686SOL    HW1 5957   1.455   5.608   5.682
 1686SOL    HW2 5958   1.527   5.462   5.675
 1687SOL     OW 5959   1.751   4.424   2.410
 1687SOL    HW1 5960   1.683   4.367   2.456
 1687SOL    HW2 5961   1.836   4.425   2.463
 1688SOL     OW 5962   1.786   1.362   3.122
 1688SOL    HW1 5963   1.848   1.439   3.109
 1688SOL    HW2 5964   1.771   1.317   3.034
 1689SOL     OW 5965   3.265   2.061   2.157
 1689SOL    HW1 5966   3.353   2.072   2.111
 1689SOL    HW2 5967   3.193   2.104   2.103
 1690SOL     OW 5968   1.731   1.524   2.082
 1690SOL    HW1 5969   1.803   1.461   2.112
 1690SOL    HW2 5970   1.697   1.496   1.992
 1691SOL     OW 5971   5.128   3.261   3.165
 1691SOL    HW1 5972   5.195   3.325   3.203
 1691SOL    HW2 5973   5.036   3.301   3.173
 1692SOL     OW 5974   0.247   6.944   1.723
 1692SOL    HW1 5975   0.293   6.859   1.695
 1692SOL    HW2 5976   0.315   7.017   1.731
 1693SOL     OW 5977   2.318   2.720   3.420
 1693SOL    HW1 5978   2.298   2.750   3.513
 1693SOL    HW2 5979   2.390   2.650   3.422
 1694SOL     OW 5980   4.538   5.757   4.796
 1694SOL    HW1 5981   4.563   5.664   4.821
 1694SOL    HW2 5982   4.567   5.820   4.869
 1695SOL     OW 5983   2.823   2.546   5.334
 1695SOL    HW1 5984   2.831   2.616   5.404
 1695SOL    HW2 5985   2.824   2.456   5.377
 1696SOL     OW 5986   5.031   5.667   0.644
 1696SOL    HW1 5987   4.937   5.635   0.659
 1696SOL    HW2 5988   5.095   5.593   0.666
 1697SOL     OW 5989   1.141   6.829   1.605
 1697SOL    HW1 5990   1.107   6.806   1.696
 1697SOL    HW2 5991   1.152   6.928   1.598
 1698SOL     OW 5992   4.894   2.407   1.863
 1698SOL    HW1 5993   4.940   2.494   1.844
 1698SOL    HW2 5994   4.961   2.341   1.898
 1699SOL     OW 5995   2.941   2.950   1.066
 1699SOL    HW1 5996   2.896   2.900   1.141
 1699SOL    HW2 5997   2.887   2.939   0.982
 1700SOL     OW 5998   6.711   2.955   2.829
 1700SOL    HW1 5999   6.705   2.963   2.730
 1700SOL    HW2 6000   6.683   2.863   2.857
 1701SOL     OW 6001   6.262   2.761   4.181
 1701SOL    HW1 6002   6.310   2.676   4.206
 1701SOL    HW2 6003   6.279   2.830   4.251
 1702SOL     OW 6004   5.791   3.462   0.949
 1702SOL    HW1 6005   5.785   3.385   0.885
 1702SOL    HW2 6006   5.710   3.463   1.008
 1703SOL     OW 6007   2.160   3.529   1.033
 1703SOL    HW1 6008   2.096   3.601   1.005
 1703SOL    HW2 6009   2.234   3.570   1.086
 1704SOL     OW 6010   0.083   1.049   1.216
 1704SOL    HW1 6011   0.081   0.973   1.281
 1704SOL    HW2 6012   0.115   1.016   1.128
 1705SOL     OW 6013   3.507   2.284   1.407
 1705SOL    HW1 6014   3.409   2.287   1.428
 1705SOL    HW2 6015   3.519   2.260   1.311
 1706SOL     OW 6016   4.427   0.491   0.400
 1706SOL    HW1 6017   4.453   0.421   0.334
 1706SOL    HW2 6018   4.366   0.557   0.358
 1707SOL     OW 6019   5.325   2.119   3.025
 1707SOL    HW1 6020   5.350   2.091   2.932
 1707SOL    HW2 6021   5.312   2.218   3.028
 1708SOL     OW 6022   6.239   6.327   2.616
 1708SOL    HW1 6023   6.208   6.330   2.521
 1708SOL    HW2 6024   6.273   6.417   2.643
 1709SOL     OW 6025   2.574   6.618   2.394
 1709SOL    HW1 6026   2.551   6.573   2.308
 1709SOL    HW2 6027   2.538   6.711   2.393
 1710SOL     OW 6028   0.475   4.991   3.701
 1710SOL    HW1 6029   0.457   4.899   3.734
 1710SOL    HW2 6030   0.558   5.027   3.744
 1711SOL     OW 6031   1.490   4.646   5.673
 1711SOL    HW1 6032   1.420   4.613   5.610
 1711SOL    HW2 6033   1.579   4.605   5.649
 1712SOL     OW 6034   0.111   3.874   0.039
 1712SOL    HW1 6035   0.113   3.931   6.976
 1712SOL    HW2 6036   0.132   3.931   0.119
 1713SOL     OW 6037   1.705   2.722   1.917
 1713SOL    HW1 6038   1.718   2.740   1.820
 1713SOL    HW2 6039   1.623   2.665   1.930
 1714SOL     OW 6040   3.920   1.896   6.618
 1714SOL    HW1 6041   3.987   1.936   6.556
 1714SOL    HW2 6042   3.844   1.857   6.566
 1715SOL     OW 6043   0.834   3.386   2.830
 1715SOL    HW1 6044   0.912   3.327   2.851
 1715SOL    HW2 6045   0.762   3.371   2.898
 1716SOL     OW 6046   6.664   0.002   0.263
 1716SOL    HW1 6047   6.718   0.069   0.313
 1716SOL    HW2 6048   6.571   0.038   0.249
 1717SOL     OW 6049   2.521   6.469   0.077
 1717SOL    HW1 6050   2.511   6.568   0.089
 1717SOL    HW2 6051   2.435   6.431   0.043
 1718SOL     OW 6052   2.210   3.827   0.202
 1718SOL    HW1 6053   2.239   3.895   0.134
 1718SOL    HW2 6054   2.126   3.783   0.171
 1719SOL     OW 6055   2.232   3.085   1.618
 1719SOL    HW1 6056   2.211   3.084   1.520
 1719SOL    HW2 6057   2.176   3.017   1.665
 1720SOL     OW 6058   6.552   1.625   0.906
 1720SOL    HW1 6059   6.623   1.615   0.836
 1720SOL    HW2 6060   6.572   1.565   0.983
 1721SOL     OW 6061   1.697   6.397   3.473
 1721SOL    HW1 6062   1.667   6.486   3.439
 1721SOL    HW2 6063   1.730   6.407   3.568
 1722SOL     OW 6064   5.974   0.358   2.313
 1722SOL    HW1 6065   6.052   0.319   2.264
 1722SOL    HW2 6066   5.932   0.429   2.257
 1723SOL     OW 6067   6.946   2.056   2.720
 1723SOL    HW1 6068   6.938   2.015   2.629
 1723SOL    HW2 6069   7.017   2.007   2.772
 1724SOL     OW 6070   5.209   1.045   6.929
 1724SOL    HW1 6071   5.134   0.981   6.917
 1724SOL    HW2 6072   5.205   1.116   6.858
 1725SOL     OW 6073   3.475   4.216   1.036
 1725SOL    HW1 6074   3.451   4.148   1.105
 1725SOL    HW2 6075   3.411   4.293   1.043
 1726SOL     OW 6076   6.892   4.509   5.030
 1726SOL    HW1 6077   6.805   4.461   5.025
 1726SOL    HW2 6078   6.955   4.474   4.960
 1727SOL     OW 6079   4.093   3.287   4.801
 1727SOL    HW1 6080   4.170   3.238   4.760
 1727SOL    HW2 6081   4.039   3.223   4.856
 1728SOL     OW 6082   4.512   4.498   4.081
 1728SOL    HW1 6083   4.522   4.511   4.180
 1728SOL    HW2 6084   4.415   4.497   4.057
 1729SOL     OW 6085   0.931   4.035   3.069
 1729SOL    HW1 6086   0.981   3.953   3.040
 1729SOL    HW2 6087   0.834   4.024   3.045
 1730SOL     OW 6088   6.483   1.660   4.629
 1730SOL    HW1 6089   6.398   1.658   4.576
 1730SOL    HW2 6090   6.542   1.732   4.594
 1731SOL     OW 6091   2.257   4.853   1.583
 1731SOL    HW1 6092   2.198   4.932   1.603
 1731SOL    HW2 6093   2.270   4.845   1.485
 1732SOL     OW 6094   1.969   4.534   0.188
 1732SOL    HW1 6095   1.962   4.531   0.089
 1732SOL    HW2 6096   1.987   4.443   0.224
 1733SOL     OW 6097   1.009   3.912   1.686
 1733SOL    HW1 6098   1.089   3.855   1.668
 1733SOL    HW2 6099   1.017   3.953   1.777
 1734SOL     OW 6100   4.397   3.312   0.809
 1734SOL    HW1 6101   4.379   3.223   0.851
 1734SOL    HW2 6102   4.434   3.374   0.877
 1735SOL     OW 6103   6.155   5.189   1.341
 1735SOL    HW1 6104   6.090   5.154   1.409
 1735SOL    HW2 6105   6.247   5.185   1.377
 1736SOL     OW 6106   3.309   3.189   0.096
 1736SOL    HW1 6107   3.323   3.091   0.106
 1736SOL    HW2 6108   3.321   3.234   0.184
 1737SOL     OW 6109   1.931   0.578   4.155
 1737SOL    HW1 6110   2.015   0.526   4.172
 1737SOL    HW2 6111   1.938   0.624   4.067
 1738SOL     OW 6112   2.083   2.927   2.313
 1738SOL    HW1 6113   2.140   2.855   2.273
 1738SOL    HW2 6114   2.099   3.013   2.264
 1739SOL     OW 6115   4.433   2.411   4.855
 1739SOL    HW1 6116   4.517   2.444   4.899
 1739SOL    HW2 6117   4.435   2.432   4.758
 1740SOL     OW 6118   0.078   0.613   6.931
 1740SOL    HW1 6119   0.050   0.682   6.998
 1740SOL    HW2 6120   0.101   0.528   6.978
 1741SOL     OW 6121   2.564   0.672   2.630
 1741SOL    HW1 6122   2.591   0.768   2.617
 1741SOL    HW2 6123   2.599   0.639   2.717
 1742SOL     OW 6124   5.562   0.425   4.760
 1742SOL    HW1 6125   5.625   0.501   4.778
 1742SOL    HW2 6126   5.578   0.390   4.668
 1743SOL     OW 6127   2.912   1.249   1.432
 1743SOL    HW1 6128   2.887   1.275   1.526
 1743SOL    HW2 6129   2.977   1.315   1.396
 1744SOL     OW 6130   2.400   0.813   1.966
 1744SOL    HW1 6131   2.486   0.855   1.939
 1744SOL    HW2 6132   2.324   0.876   1.948
 1745SOL     OW 6133   6.985   1.862   3.333
 1745SOL    HW1 6134   0.009   1.912   3.408
 1745SOL    HW2 6135   6.951   1.927   3.266
 1746SOL     OW 6136   3.133   0.134   6.367
 1746SOL    HW1 6137   3.090   0.184   6.442
 1746SOL    HW2 6138   3.099   0.168   6.280
 1747SOL     OW 6139   4.251   0.248   1.471
 1747SOL    HW1 6140   4.176   0.187   1.445
 1747SOL    HW2 6141   4.214   0.324   1.525
 1748SOL     OW 6142   5.845   1.783   3.644
 1748SOL    HW1 6143   5.939   1.759   3.621
 1748SOL    HW2 6144   5.841   1.879   3.673
 1749SOL     OW 6145   4.400   6.499   6.545
 1749SOL    HW1 6146   4.348   6.582   6.525
 1749SOL    HW2 6147   4.496   6.513   6.520
 1750SOL     OW 6148   5.517   1.284   2.713
 1750SOL    HW1 6149   5.587   1.332   2.662
 1750SOL    HW2 6150   5.456   1.236   2.650
 1751SOL     OW 6151   1.843   5.246   4.807
 1751SOL    HW1 6152   1.763   5.193   4.837
 1751SOL    HW2 6153   1.824   5.286   4.718
 1752SOL     OW 6154   6.686   1.944   0.746
 1752SOL    HW1 6155   6.638   2.027   0.718
 1752SOL    HW2 6156   6.661   1.922   0.840
 1753SOL     OW 6157   0.725   0.211   0.349
 1753SOL    HW1 6158   0.672   0.286   0.310
 1753SOL    HW2 6159   0.730   0.136   0.283
 1754SOL     OW 6160   3.160   3.185   1.260
 1754SOL    HW1 6161   3.223   3.229   1.324
 1754SOL    HW2 6162   3.198   3.097   1.231
 1755SOL     OW 6163   5.227   4.770   1.506
 1755SOL    HW1 6164   5.218   4.815   1.595
 1755SOL    HW2 6165   5.233   4.671   1.518
 1756SOL     OW 6166   6.240   4.763   4.321
 1756SOL    HW1 6167   6.158   4.821   4.320
 1756SOL    HW2 6168   6.307   4.801   4.384
 1757SOL     OW 6169   2.760   6.335   4.321
 1757SOL    HW1 6170   2.757   6.256   4.261
 1757SOL    HW2 6171   2.784   6.416   4.268
 1758SOL     OW 6172   3.179   1.470   3.441
 1758SOL    HW1 6173   3.090   1.506   3.471
 1758SOL    HW2 6174   3.187   1.374   3.467
 1759SOL     OW 6175   0.470   4.699   6.115
 1759SOL    HW1 6176   0.518   4.756   6.048
 1759SOL    HW2 6177   0.402   4.642   6.068
 1760SOL     OW 6178   6.059   1.141   1.335
 1760SOL    HW1 6179   6.068   1.231   1.378
 1760SOL    HW2 6180   6.144   1.118   1.287
 1761SOL     OW 6181   5.911   0.943   0.553
 1761SOL    HW1 6182   6.007   0.964   0.571
 1761SOL    HW2 6183   5.893   0.951   0.455
 1762SOL     OW 6184   6.558   2.063   4.996
 1762SOL    HW1 6185   6.547   2.151   4.950
 1762SOL    HW2 6186   6.592   2.078   5.089
 1763SOL     OW 6187   1.985   4.252   4.541
 1763SOL    HW1 6188   2.044   4.333   4.538
 1763SOL    HW2 6189   2.037   4.174   4.577
 1764SOL     OW 6190   1.589   3.317   3.095
 1764SOL    HW1 6191   1.553   3.388   3.156
 1764SOL    HW2 6192   1.600   3.232   3.147
 1765SOL     OW 6193   2.919   1.423   0.343
 1765SOL    HW1 6194   2.949   1.470   0.261
 1765SOL    HW2 6195   2.875   1.336   0.317
 1766SOL     OW 6196   5.345   2.919   4.969
 1766SOL    HW1 6197   5.270   2.981   4.944
 1766SOL    HW2 6198   5.339   2.899   5.067
 1767SOL     OW 6199   5.278   3.713   1.954
 1767SOL    HW1 6200   5.262   3.618   1.980
 1767SOL    HW2 6201   5.310   3.765   2.033
 1768SOL     OW 6202   4.188   0.117   3.825
 1768SOL    HW1 6203   4.138   0.042   3.869
 1768SOL    HW2 6204   4.264   0.080   3.772
 1769SOL     OW 6205   4.003   1.976   4.149
 1769SOL    HW1 6206   3.931   2.034   4.110
 1769SOL    HW2 6207   4.079   1.968   4.084
 1770SOL     OW 6208   1.906   5.839   5.105
 1770SOL    HW1 6209   2.006   5.846   5.117
 1770SOL    HW2 6210   1.866   5.930   5.111
 1771SOL     OW 6211   3.151   6.106   6.961
 1771SOL    HW1 6212   3.206   6.022   6.957
 1771SOL    HW2 6213   3.055   6.084   6.942
 1772SOL     OW 6214   3.783   6.843   3.759
 1772SOL    HW1 6215   3.780   6.745   3.779
 1772SOL    HW2 6216   3.714   6.890   3.813
 1773SOL     OW 6217   2.410   5.044   5.952
 1773SOL    HW1 6218   2.375   5.050   6.045
 1773SOL    HW2 6219   2.425   5.136   5.916
 1774SOL     OW 6220   3.760   5.596   1.612
 1774SOL    HW1 6221   3.796   5.626   1.700
 1774SOL    HW2 6222   3.708   5.670   1.570
 1775SOL     OW 6223   0.685   4.299   2.408
 1775SOL    HW1 6224   0.774   4.266   2.442
 1775SOL    HW2 6225   0.695   4.329   2.314
 1776SOL     OW 6226   3.927   6.137   4.354
 1776SOL    HW1 6227   4.025   6.118   4.353
 1776SOL    HW2 6228   3.908   6.207   4.422
 1777SOL     OW 6229   3.696   5.922   6.953
 1777SOL    HW1 6230   3.790   5.937   6.985
 1777SOL    HW2 6231   3.682   5.974   6.869
 1778SOL     OW 6232   4.808   3.365   5.527
 1778SOL    HW1 6233   4.800   3.265   5.523
 1778SOL    HW2 6234   4.852   3.398   5.444
 1779SOL     OW 6235   4.059   0.328   4.826
 1779SOL    HW1 6236   4.042   0.284   4.738
 1779SOL    HW2 6237   4.138   0.286   4.871
 1780SOL     OW 6238   3.760   2.953   6.629
 1780SOL    HW1 6239   3.827   3.005   6.577
 1780SOL    HW2 6240   3.804   2.871   6.666
 1781SOL     OW 6241   3.714   6.147   2.676
 1781SOL    HW1 6242   3.786   6.093   2.633
 1781SOL    HW2 6243   3.635   6.089   2.696
 1782SOL     OW 6244   3.122   1.662   3.248
 1782SOL    HW1 6245   3.136   1.758   3.271
 1782SOL    HW2 6246   3.178   1.605   3.308
 1783SOL     OW 6247   2.776   5.446   6.115
 1783SOL    HW1 6248   2.779   5.347   6.100
 1783SOL    HW2 6249   2.704   5.469   6.181
 1784SOL     OW 6250   4.354   0.822   5.676
 1784SOL    HW1 6251   4.348   0.891   5.749
 1784SOL    HW2 6252   4.307   0.739   5.705
 1785SOL     OW 6253   6.389   3.795   2.487
 1785SOL    HW1 6254   6.386   3.843   2.575
 1785SOL    HW2 6255   6.298   3.794   2.446
 1786SOL     OW 6256   2.125   2.712   6.553
 1786SOL    HW1 6257   2.177   2.795   6.535
 1786SOL    HW2 6258   2.096   2.710   6.649
 1787SOL     OW 6259   2.707   1.230   5.340
 1787SOL    HW1 6260   2.722   1.178   5.256
 1787SOL    HW2 6261   2.704   1.328   5.319
 1788SOL     OW 6262   2.192   4.653   6.269
 1788SOL    HW1 6263   2.260   4.584   6.244
 1788SOL    HW2 6264   2.101   4.621   6.243
 1789SOL     OW 6265   5.935   2.308   0.995
 1789SOL    HW1 6266   6.015   2.249   0.987
 1789SOL    HW2 6267   5.964   2.403   0.997
 1790SOL     OW 6268   3.754   6.254   3.521
 1790SOL    HW1 6269   3.702   6.251   3.606
 1790SOL    HW2 6270   3.851   6.266   3.541
 1791SOL     OW 6271   6.931   0.843   2.760
 1791SOL    HW1 6272   6.859   0.893   2.807
 1791SOL    HW2 6273   6.892   0.769   2.706
 1792SOL     OW 6274   0.086   3.500   4.909
 1792SOL    HW1 6275   0.013   3.547   4.860
 1792SOL    HW2 6276   0.162   3.481   4.847
 1793SOL     OW 6277   5.948   0.296   4.024
 1793SOL    HW1 6278   5.940   0.348   3.939
 1793SOL    HW2 6279   5.881   0.221   4.023
 1794SOL     OW 6280   5.171   5.836   5.662
 1794SOL    HW1 6281   5.156   5.777   5.583
 1794SOL    HW2 6282   5.234   5.909   5.637
 1795SOL     OW 6283   0.932   2.487   1.023
 1795SOL    HW1 6284   0.994   2.543   1.079
 1795SOL    HW2 6285   0.986   2.429   0.961
 1796SOL     OW 6286   2.887   1.411   6.025
 1796SOL    HW1 6287   2.791   1.438   6.029
 1796SOL    HW2 6288   2.942   1.490   5.997
 1797SOL     OW 6289   1.550   0.227   6.926
 1797SOL    HW1 6290   1.576   0.130   6.929
 1797SOL    HW2 6291   1.546   0.262   7.020
 1798SOL     OW 6292   4.459   2.400   4.100
 1798SOL    HW1 6293   4.541   2.361   4.142
 1798SOL    HW2 6294   4.450   2.496   4.127
 1799SOL     OW 6295   7.012   2.695   4.189
 1799SOL    HW1 6296   0.053   2.724   4.264
 1799SOL    HW2 6297   0.040   2.707   4.102
 1800SOL     OW 6298   4.478   4.181   1.357
 1800SOL    HW1 6299   4.481   4.170   1.457
 1800SOL    HW2 6300   4.571   4.184   1.322
 1801SOL     OW 6301   0.353   0.353   2.292
 1801SOL    HW1 6302   0.286   0.378   2.222
 1801SOL    HW2 6303   0.400   0.269   2.264
 1802SOL     OW 6304   5.244   5.935   4.157
 1802SOL    HW1 6305   5.326   5.958   4.105
 1802SOL    HW2 6306   5.210   5.846   4.127
 1803SOL     OW 6307   0.294   5.510   0.127
 1803SOL    HW1 6308   0.283   5.548   0.035
 1803SOL    HW2 6309   0.329   5.581   0.188
 1804SOL     OW 6310   2.491   4.088   5.495
 1804SOL    HW1 6311   2.573   4.031   5.493
 1804SOL    HW2 6312   2.438   4.073   5.412
 1805SOL     OW 6313   5.101   3.436   6.044
 1805SOL    HW1 6314   5.113   3.372   6.119
 1805SOL    HW2 6315   5.003   3.450   6.027
 1806SOL     OW 6316   0.277   6.783   6.399
 1806SOL    HW1 6317   0.240   6.711   6.341
 1806SOL    HW2 6318   0.285   6.868   6.346
 1807SOL     OW 6319   5.307   2.555   4.821
 1807SOL    HW1 6320   5.382   2.620   4.834
 1807SOL    HW2 6321   5.257   2.545   4.907
 1808SOL     OW 6322   0.087   4.349   5.642
 1808SOL    HW1 6323   0.164   4.377   5.700
 1808SOL    HW2 6324   0.122   4.327   5.551
 1809SOL     OW 6325   2.475   2.377   5.167
 1809SOL    HW1 6326   2.482   2.469   5.204
 1809SOL    HW2 6327   2.561   2.328   5.182
 1810SOL     OW 6328   2.690   0.160   3.941
 1810SOL    HW1 6329   2.713   0.083   4.000
 1810SOL    HW2 6330   2.594   0.156   3.916
 1811SOL     OW 6331   5.650   5.868   3.480
 1811SOL    HW1 6332   5.593   5.848   3.559
 1811SOL    HW2 6333   5.611   5.944   3.428
 1812SOL     OW 6334   4.095   5.846   5.162
 1812SOL    HW1 6335   4.040   5.930   5.163
 1812SOL    HW2 6336   4.083   5.799   5.074
 1813SOL     OW 6337   5.977   4.285   0.839
 1813SOL    HW1 6338   6.012   4.259   0.929
 1813SOL    HW2 6339   6.002   4.215   0.772
 1814SOL     OW 6340   4.880   0.153   1.759
 1814SOL    HW1 6341   4.860   0.153   1.857
 1814SOL    HW2 6342   4.878   0.060   1.724
 1815SOL     OW 6343   0.506   1.885   2.167
 1815SOL    HW1 6344   0.517   1.976   2.129
 1815SOL    HW2 6345   0.473   1.823   2.096
 1816SOL     OW 6346   2.700   2.656   0.950
 1816SOL    HW1 6347   2.644   2.582   0.987
 1816SOL    HW2 6348   2.719   2.639   0.854
 1817SOL     OW 6349   1.577   6.434   2.457
 1817SOL    HW1 6350   1.542   6.345   2.428
 1817SOL    HW2 6351   1.676   6.437   2.443
 1818SOL     OW 6352   1.381   0.133   3.291
 1818SOL    HW1 6353   1.436   0.147   3.374
 1818SOL    HW2 6354   1.378   0.219   3.240
 1819SOL     OW 6355   1.173   4.474   2.041
 1819SOL    HW1 6356   1.212   4.411   1.974
 1819SOL    HW2 6357   1.077   4.450   2.057
 1820SOL     OW 6358   4.389   1.334   2.435
 1820SOL    HW1 6359   4.431   1.362   2.521
 1820SOL    HW2 6360   4.342   1.413   2.394
 1821SOL     OW 6361   2.357   1.330   2.661
 1821SOL    HW1 6362   2.311   1.250   2.701
 1821SOL    HW2 6363   2.353   1.406   2.725
 1822SOL     OW 6364   3.403   2.550   1.712
 1822SOL    HW1 6365   3.315   2.516   1.744
 1822SOL    HW2 6366   3.471   2.476   1.717
 1823SOL     OW 6367   3.968   6.349   3.173
 1823SOL    HW1 6368   4.035   6.419   3.198
 1823SOL    HW2 6369   3.982   6.321   3.078
 1824SOL     OW 6370   4.129   2.492   1.076
 1824SOL    HW1 6371   4.068   2.434   1.022
 1824SOL    HW2 6372   4.223   2.458   1.067
 1825SOL     OW 6373   0.976   0.365   1.788
 1825SOL    HW1 6374   0.940   0.437   1.847
 1825SOL    HW2 6375   1.023   0.297   1.844
 1826SOL     OW 6376   2.825   1.720   1.684
 1826SOL    HW1 6377   2.816   1.812   1.724
 1826SOL    HW2 6378   2.877   1.662   1.746
 1827SOL     OW 6379   0.036   4.845   1.979
 1827SOL    HW1 6380   0.010   4.935   1.944
 1827SOL    HW2 6381   0.134   4.841   1.995
 1828SOL     OW 6382   0.785   2.970   0.050
 1828SOL    HW1 6383   0.802   2.983   0.147
 1828SOL    HW2 6384   0.694   3.003   0.027
 1829SOL     OW 6385   5.095   6.366   3.274
 1829SOL    HW1 6386   5.164   6.438   3.275
 1829SOL    HW2 6387   5.103   6.313   3.190
 1830SOL     OW 6388   4.918   6.832   3.949
 1830SOL    HW1 6389   4.929   6.777   4.032
 1830SOL    HW2 6390   4.882   6.775   3.876
 1831SOL     OW 6391   6.044   6.835   2.568
 1831SOL    HW1 6392   6.086   6.806   2.482
 1831SOL    HW2 6393   5.982   6.912   2.551
 1832SOL     OW 6394   4.678   2.500   1.084
 1832SOL    HW1 6395   4.729   2.530   1.003
 1832SOL    HW2 6396   4.713   2.411   1.114
 1833SOL     OW 6397   5.387   6.770   4.751
 1833SOL    HW1 6398   5.460   6.832   4.778
 1833SOL    HW2 6399   5.423   6.677   4.741
 1834SOL     OW 6400   3.531   3.657   0.693
 1834SOL    HW1 6401   3.563   3.690   0.604
 1834SOL    HW2 6402   3.442   3.613   0.682
 1835SOL     OW 6403   1.627   4.188   1.368
 1835SOL    HW1 6404   1.706   4.143   1.409
 1835SOL    HW2 6405   1.555   4.200   1.436
 1836SOL     OW 6406   0.040   1.728   0.853
 1836SOL    HW1 6407   7.001   1.736   0.773
 1836SOL    HW2 6408   0.018   1.800   0.918
 1837SOL     OW 6409   0.816   2.314   4.480
 1837SOL    HW1 6410   0.867   2.263   4.550
 1837SOL    HW2 6411   0.754   2.251   4.432
 1838SOL     OW 6412   0.190   2.520   3.809
 1838SOL    HW1 6413   0.119   2.590   3.813
 1838SOL    HW2 6414   0.230   2.519   3.717
 1839SOL     OW 6415   5.526   3.130   5.024
 1839SOL    HW1 6416   5.489   3.082   4.945
 1839SOL    HW2 6417   5.505   3.227   5.017
 1840SOL     OW 6418   2.342   5.864   1.061
 1840SOL    HW1 6419   2.383   5.819   1.140
 1840SOL    HW2 6420   2.325   5.960   1.083
 1841SOL     OW 6421   2.074   3.782   4.454
 1841SOL    HW1 6422   2.073   3.683   4.446
 1841SOL    HW2 6423   1.985   3.819   4.426
 1842SOL     OW 6424   0.382   5.088   1.097
 1842SOL    HW1 6425   0.478   5.100   1.121
 1842SOL    HW2 6426   0.344   5.010   1.147
 1843SOL     OW 6427   1.648   2.357   5.386
 1843SOL    HW1 6428   1.730   2.333   5.438
 1843SOL    HW2 6429   1.636   2.456   5.389
 1844SOL     OW 6430   4.064   2.181   4.990
 1844SOL    HW1 6431   4.021   2.093   4.970
 1844SOL    HW2 6432   4.044   2.207   5.085
 1845SOL     OW 6433   2.974   0.254   6.597
 1845SOL    HW1 6434   2.899   0.237   6.661
 1845SOL    HW2 6435   3.046   0.306   6.643
 1846SOL     OW 6436   4.122   2.000   6.449
 1846SOL    HW1 6437   4.148   1.982   6.354
 1846SOL    HW2 6438   4.187   1.954   6.510
 1847SOL     OW 6439   0.724   0.536   6.901
 1847SOL    HW1 6440   0.741   0.630   6.932
 1847SOL    HW2 6441   0.752   0.472   6.973
 1848SOL     OW 6442   1.936   6.167   2.855
 1848SOL    HW1 6443   2.030   6.181   2.885
 1848SOL    HW2 6444   1.904   6.077   2.887
 1849SOL     OW 6445   4.338   0.726   0.266
 1849SOL    HW1 6446   4.340   0.661   0.189
 1849SOL    HW2 6447   4.418   0.786   0.261
 1850SOL     OW 6448   5.957   1.612   3.044
 1850SOL    HW1 6449   5.938   1.547   2.970
 1850SOL    HW2 6450   5.874   1.629   3.096
 1851SOL     OW 6451   0.307   1.525   1.478
 1851SOL    HW1 6452   0.383   1.480   1.432
 1851SOL    HW2 6453   0.327   1.533   1.576
 1852SOL     OW 6454   4.475   4.068   0.491
 1852SOL    HW1 6455   4.525   4.023   0.566
 1852SOL    HW2 6456   4.429   4.149   0.526
 1853SOL     OW 6457   0.891   3.893   1.457
 1853SOL    HW1 6458   0.938   3.911   1.543
 1853SOL    HW2 6459   0.954   3.908   1.381
 1854SOL     OW 6460   2.832   5.712   3.995
 1854SOL    HW1 6461   2.734   5.711   3.979
 1854SOL    HW2 6462   2.862   5.624   4.031
 1855SOL     OW 6463   5.185   5.403   0.742
 1855SOL    HW1 6464   5.226   5.375   0.655
 1855SOL    HW2 6465   5.116   5.336   0.769
 1856SOL     OW 6466   6.219   2.728   5.752
 1856SOL    HW1 6467   6.201   2.802   5.817
 1856SOL    HW2 6468   6.133   2.680   5.732
 1857SOL     OW 6469   4.740   0.879   4.748
 1857SOL    HW1 6470   4.657   0.836   4.786
 1857SOL    HW2 6471   4.788   0.813   4.691
 1858SOL     OW 6472   5.379   3.327   3.716
 1858SOL    HW1 6473   5.479   3.324   3.722
 1858SOL    HW2 6474   5.342   3.240   3.749
 1859SOL     OW 6475   4.194   2.226   3.604
 1859SOL    HW1 6476   4.220   2.136   3.640
 1859SOL    HW2 6477   4.248   2.297   3.649
 1860SOL     OW 6478   6.503   1.357   3.801
 1860SOL    HW1 6479   6.515   1.317   3.892
 1860SOL    HW2 6480   6.580   1.331   3.743
 1861SOL     OW 6481   4.924   6.255   1.909
 1861SOL    HW1 6482   4.889   6.296   1.993
 1861SOL    HW2 6483   5.001   6.195   1.930
 1862SOL     OW 6484   2.237   0.242   0.067
 1862SOL    HW1 6485   2.317   0.300   0.054
 1862SOL    HW2 6486   2.263   0.146   0.054
 1863SOL     OW 6487   2.799   2.202   0.915
 1863SOL    HW1 6488   2.762   2.122   0.867
 1863SOL    HW2 6489   2.756   2.210   1.004
 1864SOL     OW 6490   0.752   6.945   5.282
 1864SOL    HW1 6491   0.790   6.978   5.195
 1864SOL    HW2 6492   0.737   0.002   5.344
 1865SOL     OW 6493   3.814   1.455   5.663
 1865SOL    HW1 6494   3.767   1.390   5.723
 1865SOL    HW2 6495   3.894   1.492   5.711
 1866SOL     OW 6496   4.468   4.535   2.062
 1866SOL    HW1 6497   4.548   4.594   2.078
 1866SOL    HW2 6498   4.493   4.440   2.081
 1867SOL     OW 6499   0.082   4.076   0.288
 1867SOL    HW1 6500   0.013   4.125   0.234
 1867SOL    HW2 6501   0.037   4.029   0.364
 1868SOL     OW 6502   5.575   4.461   6.626
 1868SOL    HW1 6503   5.614   4.387   6.679
 1868SOL    HW2 6504   5.477   4.467   6.645
 1869SOL     OW 6505   6.639   2.336   5.032
 1869SOL    HW1 6506   6.629   2.338   5.131
 1869SOL    HW2 6507   6.733   2.359   5.008
 1870SOL     OW 6508   2.264   4.446   5.628
 1870SOL    HW1 6509   2.284   4.537   5.664
 1870SOL    HW2 6510   2.347   4.406   5.589
 1871SOL     OW 6511   1.831   6.963   1.030
 1871SOL    HW1 6512   1.873   6.907   0.959
 1871SOL    HW2 6513   1.799   0.029   0.990
 1872SOL     OW 6514   3.237   4.484   0.155
 1872SOL    HW1 6515   3.290   4.433   0.088
 1872SOL    HW2 6516   3.296   4.549   0.202
 1873SOL     OW 6517   3.752   0.872   5.486
 1873SOL    HW1 6518   3.708   0.952   5.447
 1873SOL    HW2 6519   3.832   0.847   5.431
 1874SOL     OW 6520   2.591   1.502   1.765
 1874SOL    HW1 6521   2.632   1.593   1.766
 1874SOL    HW2 6522   2.502   1.505   1.721
 1875SOL     OW 6523   0.659   7.005   6.460
 1875SOL    HW1 6524   0.730   0.012   6.396
 1875SOL    HW2 6525   0.690   0.004   6.554
 1876SOL     OW 6526   3.057   0.013   4.819
 1876SOL    HW1 6527   2.986   7.001   4.755
 1876SOL    HW2 6528   3.107   0.089   4.778
 1877SOL     OW 6529   0.585   0.627   3.985
 1877SOL    HW1 6530   0.504   0.580   4.019
 1877SOL    HW2 6531   0.566   0.663   3.894
 1878SOL     OW 6532   0.034   1.741   3.852
 1878SOL    HW1 6533   0.126   1.772   3.878
 1878SOL    HW2 6534   0.040   1.687   3.768
 1879SOL     OW 6535   1.198   3.650   4.339
 1879SOL    HW1 6536   1.170   3.695   4.254
 1879SOL    HW2 6537   1.175   3.553   4.334
 1880SOL     OW 6538   7.015   1.356   4.731
 1880SOL    HW1 6539   0.063   1.344   4.804
 1880SOL    HW2 6540   7.009   1.452   4.706
 1881SOL     OW 6541   6.005   1.949   1.380
 1881SOL    HW1 6542   6.097   1.912   1.396
 1881SOL    HW2 6543   6.000   2.042   1.416
 1882SOL     OW 6544   1.319   4.107   6.468
 1882SOL    HW1 6545   1.400   4.142   6.420
 1882SOL    HW2 6546   1.343   4.089   6.564
 1883SOL     OW 6547   6.342   2.370   1.986
 1883SOL    HW1 6548   6.342   2.273   2.013
 1883SOL    HW2 6549   6.433   2.408   2.001
 1884SOL     OW 6550   1.061   1.440   0.710
 1884SOL    HW1 6551   1.054   1.361   0.771
 1884SOL    HW2 6552   1.032   1.414   0.618
 1885SOL     OW 6553   1.792   1.754   5.500
 1885SOL    HW1 6554   1.738   1.837   5.509
 1885SOL    HW2 6555   1.844   1.739   5.584
 1886SOL     OW 6556   2.149   0.345   2.285
 1886SOL    HW1 6557   2.211   0.273   2.252
 1886SOL    HW2 6558   2.111   0.395   2.208
 1887SOL     OW 6559   0.924   5.207   6.002
 1887SOL    HW1 6560   0.978   5.228   5.921
 1887SOL    HW2 6561   0.986   5.186   6.078
 1888SOL     OW 6562   3.185   1.838   0.047
 1888SOL    HW1 6563   3.204   1.775   0.123
 1888SOL    HW2 6564   3.170   1.930   0.084
 1889SOL     OW 6565   0.819   4.048   4.087
 1889SOL    HW1 6566   0.736   4.089   4.049
 1889SOL    HW2 6567   0.801   4.017   4.181
 1890SOL     OW 6568   0.881   5.399   4.438
 1890SOL    HW1 6569   0.812   5.407   4.366
 1890SOL    HW2 6570   0.840   5.423   4.526
 1891SOL     OW 6571   4.183   2.997   1.699
 1891SOL    HW1 6572   4.175   3.073   1.763
 1891SOL    HW2 6573   4.105   2.935   1.712
 1892SOL     OW 6574   0.238   0.834   2.037
 1892SOL    HW1 6575   0.200   0.912   1.987
 1892SOL    HW2 6576   0.288   0.775   1.973
 1893SOL     OW 6577   3.874   3.005   2.160
 1893SOL    HW1 6578   3.868   2.966   2.068
 1893SOL    HW2 6579   3.818   2.951   2.223
 1894SOL     OW 6580   3.330   3.970   4.192
 1894SOL    HW1 6581   3.411   3.913   4.204
 1894SOL    HW2 6582   3.355   4.052   4.140
 1895SOL     OW 6583   4.244   0.227   0.982
 1895SOL    HW1 6584   4.187   0.307   1.002
 1895SOL    HW2 6585   4.283   0.236   0.891
 1896SOL     OW 6586   6.104   1.513   0.775
 1896SOL    HW1 6587   6.101   1.562   0.862
 1896SOL    HW2 6588   6.197   1.517   0.738
 1897SOL     OW 6589   1.413   5.260   2.135
 1897SOL    HW1 6590   1.478   5.285   2.207
 1897SOL    HW2 6591   1.458   5.264   2.046
 1898SOL     OW 6592   2.228   4.498   2.668
 1898SOL    HW1 6593   2.322   4.481   2.638
 1898SOL    HW2 6594   2.229   4.553   2.751
 1899SOL     OW 6595   0.638   0.707   0.671
 1899SOL    HW1 6596   0.697   0.729   0.593
 1899SOL    HW2 6597   0.544   0.696   0.639
 1900SOL     OW 6598   3.011   0.249   0.065
 1900SOL    HW1 6599   2.968   0.305   7.014
 1900SOL    HW2 6600   3.097   0.211   0.029
 1901SOL     OW 6601   2.606   2.848   1.147
 1901SOL    HW1 6602   2.636   2.797   1.066
 1901SOL    HW2 6603   2.668   2.830   1.223
 1902SOL     OW 6604   2.744   0.298   4.852
 1902SOL    HW1 6605   2.811   0.322   4.922
 1902SOL    HW2 6606   2.662   0.355   4.864
 1903SOL     OW 6607   0.867   2.998   3.501
 1903SOL    HW1 6608   0.804   2.922   3.485
 1903SOL    HW2 6609   0.938   2.998   3.431
 1904SOL     OW 6610   5.370   4.954   2.560
 1904SOL    HW1 6611   5.392   4.899   2.641
 1904SOL    HW2 6612   5.444   5.018   2.541
 1905SOL     OW 6613   0.746   0.202   4.005
 1905SOL    HW1 6614   0.802   0.177   3.926
 1905SOL    HW2 6615   0.757   0.300   4.025
 1906SOL     OW 6616   2.803   0.384   6.290
 1906SOL    HW1 6617   2.809   0.304   6.350
 1906SOL    HW2 6618   2.882   0.444   6.307
 1907SOL     OW 6619   4.567   2.670   0.796
 1907SOL    HW1 6620   4.596   2.696   0.888
 1907SOL    HW2 6621   4.600   2.578   0.775
 1908SOL     OW 6622   4.224   6.688   6.500
 1908SOL    HW1 6623   4.148   6.686   6.564
 1908SOL    HW2 6624   4.194   6.729   6.414
 1909SOL     OW 6625   0.168   3.119   3.954
 1909SOL    HW1 6626   0.183   3.127   4.053
 1909SOL    HW2 6627   0.251   3.144   3.905
 1910SOL     OW 6628   6.197   6.046   5.776
 1910SOL    HW1 6629   6.289   6.072   5.746
 1910SOL    HW2 6630   6.186   5.947   5.767
 1911SOL     OW 6631   6.991   4.496   4.418
 1911SOL    HW1 6632   6.976   4.531   4.325
 1911SOL    HW2 6633   0.067   4.510   4.444
 1912SOL     OW 6634   2.885   5.222   2.209
 1912SOL    HW1 6635   2.791   5.189   2.209
 1912SOL    HW2 6636   2.933   5.188   2.290
 1913SOL     OW 6637   2.195   6.138   4.640
 1913SOL    HW1 6638   2.199   6.093   4.729
 1913SOL    HW2 6639   2.100   6.143   4.610
 1914SOL     OW 6640   3.170   4.026   6.087
 1914SOL    HW1 6641   3.122   4.102   6.042
 1914SOL    HW2 6642   3.106   3.975   6.144
 1915SOL     OW 6643   4.298   3.027   6.282
 1915SOL    HW1 6644   4.226   3.032   6.213
 1915SOL    HW2 6645   4.311   3.116   6.324
 1916SOL     OW 6646   3.819   0.413   1.129
 1916SOL    HW1 6647   3.767   0.484   1.081
 1916SOL    HW2 6648   3.910   0.404   1.089
 1917SOL     OW 6649   2.723   4.522   0.205
 1917SOL    HW1 6650   2.812   4.492   0.172
 1917SOL    HW2 6651   2.658   4.446   0.202
 1918SOL     OW 6652   0.950   0.818   4.847
 1918SOL    HW1 6653   0.971   0.746   4.781
 1918SOL    HW2 6654   0.978   0.907   4.810
 1919SOL     OW 6655   1.685   1.864   1.040
 1919SOL    HW1 6656   1.745   1.784   1.047
 1919SOL    HW2 6657   1.613   1.858   1.108
 1920SOL     OW 6658   6.030   2.360   2.281
 1920SOL    HW1 6659   5.995   2.407   2.200
 1920SOL    HW2 6660   6.024   2.421   2.360
 1921SOL     OW 6661   1.408   2.459   0.480
 1921SOL    HW1 6662   1.314   2.452   0.447
 1921SOL    HW2 6663   1.471   2.457   0.402
 1922SOL     OW 6664   3.441   3.514   2.108
 1922SOL    HW1 6665   3.492   3.583   2.057
 1922SOL    HW2 6666   3.467   3.423   2.076
 1923SOL     OW 6667   5.364   0.097   6.489
 1923SOL    HW1 6668   5.278   0.103   6.539
 1923SOL    HW2 6669   5.391   0.189   6.459
 1924SOL     OW 6670   4.550   0.231   1.354
 1924SOL    HW1 6671   4.519   0.188   1.269
 1924SOL    HW2 6672   4.538   0.167   1.430
 1925SOL     OW 6673   0.993   4.182   1.510
 1925SOL    HW1 6674   1.017   4.085   1.503
 1925SOL    HW2 6675   1.067   4.231   1.556
 1926SOL     OW 6676   3.841   7.004   1.690
 1926SOL    HW1 6677   3.768   6.960   1.637
 1926SOL    HW2 6678   3.903   6.934   1.725
 1927SOL     OW 6679   2.081   4.421   1.079
 1927SOL    HW1 6680   2.058   4.342   1.022
 1927SOL    HW2 6681   2.026   4.418   1.163
 1928SOL     OW 6682   4.753   4.375   4.307
 1928SOL    HW1 6683   4.691   4.369   4.385
 1928SOL    HW2 6684   4.710   4.333   4.227
 1929SOL     OW 6685   3.122   0.778   2.718
 1929SOL    HW1 6686   3.204   0.829   2.692
 1929SOL    HW2 6687   3.103   0.708   2.649
 1930SOL     OW 6688   4.658   3.031   6.266
 1930SOL    HW1 6689   4.575   3.085   6.252
 1930SOL    HW2 6690   4.733   3.071   6.213
 1931SOL     OW 6691   0.742   1.603   6.103
 1931SOL    HW1 6692   0.722   1.699   6.081
 1931SOL    HW2 6693   0.817   1.571   6.045
 1932SOL     OW 6694   4.817   2.263   3.445
 1932SOL    HW1 6695   4.849   2.331   3.379
 1932SOL    HW2 6696   4.881   2.258   3.522
 1933SOL     OW 6697   0.414   1.993   7.009
 1933SOL    HW1 6698   0.398   2.089   6.987
 1933SOL    HW2 6699   0.449   1.985   0.083
 1934SOL     OW 6700   0.297   0.393   5.508
 1934SOL    HW1 6701   0.354   0.331   5.455
 1934SOL    HW2 6702   0.284   0.478   5.457
 1935SOL     OW 6703   4.927   4.522   3.281
 1935SOL    HW1 6704   5.000   4.587   3.256
 1935SOL    HW2 6705   4.838   4.567   3.272
 1936SOL     OW 6706   5.325   3.084   4.426
 1936SOL    HW1 6707   5.275   3.163   4.391
 1936SOL    HW2 6708   5.349   3.100   4.522
 1937SOL     OW 6709   5.046   5.627   6.739
 1937SOL    HW1 6710   4.995   5.541   6.753
 1937SOL    HW2 6711   5.139   5.606   6.712
 1938SOL     OW 6712   0.823   2.360   6.577
 1938SOL    HW1 6713   0.842   2.448   6.533
 1938SOL    HW2 6714   0.866   2.286   6.525
 1939SOL     OW 6715   0.852   5.603   5.043
 1939SOL    HW1 6716   0.820   5.540   5.115
 1939SOL    HW2 6717   0.950   5.621   5.056
 1940SOL     OW 6718   5.959   4.641   1.712
 1940SOL    HW1 6719   6.025   4.694   1.659
 1940SOL    HW2 6720   5.966   4.667   1.809
 1941SOL     OW 6721   0.729   2.739   3.791
 1941SOL    HW1 6722   0.637   2.700   3.794
 1941SOL    HW2 6723   0.727   2.827   3.743
 1942SOL     OW 6724   5.347   3.296   2.810
 1942SOL    HW1 6725   5.261   3.275   2.856
 1942SOL    HW2 6726   5.414   3.224   2.831
 1943SOL     OW 6727   1.390   1.097   2.123
 1943SOL    HW1 6728   1.370   1.105   2.220
 1943SOL    HW2 6729   1.374   1.186   2.079
 1944SOL     OW 6730   0.118   3.158   0.883
 1944SOL    HW1 6731   0.177   3.100   0.827
 1944SOL    HW2 6732   0.036   3.107   0.909
 1945SOL     OW 6733   3.879   6.653   0.664
 1945SOL    HW1 6734   3.947   6.609   0.723
 1945SOL    HW2 6735   3.916   6.739   0.629
 1946SOL     OW 6736   6.983   6.048   1.257
 1946SOL    HW1 6737   0.035   6.004   1.312
 1946SOL    HW2 6738   6.894   6.009   1.280
 1947SOL     OW 6739   5.796   4.040   3.571
 1947SOL    HW1 6740   5.703   4.069   3.595
 1947SOL    HW2 6741   5.796   3.942   3.550
 1948SOL     OW 6742   5.764   3.614   2.900
 1948SOL    HW1 6743   5.749   3.539   2.964
 1948SOL    HW2 6744   5.738   3.700   2.943
 1949SOL     OW 6745   4.202   4.437   0.636
 1949SOL    HW1 6746   4.223   4.467   0.729
 1949SOL    HW2 6747   4.129   4.494   0.598
 1950SOL     OW 6748   3.694   4.104   3.940
 1950SOL    HW1 6749   3.655   4.135   3.853
 1950SOL    HW2 6750   3.635   4.132   4.015
 1951SOL     OW 6751   6.636   4.638   5.771
 1951SOL    HW1 6752   6.727   4.613   5.803
 1951SOL    HW2 6753   6.616   4.591   5.686
 1952SOL     OW 6754   5.706   3.771   0.540
 1952SOL    HW1 6755   5.620   3.730   0.572
 1952SOL    HW2 6756   5.761   3.702   0.493
 1953SOL     OW 6757   0.480   1.441   6.545
 1953SOL    HW1 6758   0.565   1.387   6.551
 1953SOL    HW2 6759   0.487   1.521   6.604
 1954SOL     OW 6760   4.348   6.999   1.743
 1954SOL    HW1 6761   4.363   6.901   1.735
 1954SOL    HW2 6762   4.431   0.028   1.716
 1955SOL     OW 6763   0.905   1.513   2.123
 1955SOL    HW1 6764   0.905   1.598   2.069
 1955SOL    HW2 6765   0.914   1.435   2.061
 1956SOL     OW 6766   6.196   1.001   1.910
 1956SOL    HW1 6767   6.111   0.959   1.878
 1956SOL    HW2 6768   6.214   0.973   2.004
 1957SOL     OW 6769   5.337   2.408   3.938
 1957SOL    HW1 6770   5.385   2.483   3.893
 1957SOL    HW2 6771   5.393   2.373   4.013
 1958SOL     OW 6772   4.432   1.645   0.715
 1958SOL    HW1 6773   4.428   1.736   0.756
 1958SOL    HW2 6774   4.421   1.652   0.616
 1959SOL     OW 6775   6.729   6.955   3.825
 1959SOL    HW1 6776   6.735   6.892   3.748
 1959SOL    HW2 6777   6.805   6.938   3.889
 1960SOL     OW 6778   5.973   3.273   3.021
 1960SOL    HW1 6779   5.912   3.242   2.948
 1960SOL    HW2 6780   6.012   3.361   2.997
 1961SOL     OW 6781   6.333   4.262   5.160
 1961SOL    HW1 6782   6.383   4.226   5.239
 1961SOL    HW2 6783   6.330   4.192   5.088
 1962SOL     OW 6784   1.197   6.802   3.113
 1962SOL    HW1 6785   1.267   6.853   3.064
 1962SOL    HW2 6786   1.237   6.718   3.149
 1963SOL     OW 6787   1.119   1.846   1.541
 1963SOL    HW1 6788   1.066   1.895   1.472
 1963SOL    HW2 6789   1.195   1.904   1.571
 1964SOL     OW 6790   5.633   4.519   1.546
 1964SOL    HW1 6791   5.549   4.465   1.547
 1964SOL    HW2 6792   5.691   4.492   1.623
 1965SOL     OW 6793   0.477   4.527   4.393
 1965SOL    HW1 6794   0.564   4.496   4.431
 1965SOL    HW2 6795   0.449   4.466   4.319
 1966SOL     OW 6796   1.507   4.627   1.038
 1966SOL    HW1 6797   1.450   4.697   0.994
 1966SOL    HW2 6798   1.586   4.671   1.081
 1967SOL     OW 6799   6.238   2.643   3.435
 1967SOL    HW1 6800   6.271   2.733   3.405
 1967SOL    HW2 6801   6.275   2.623   3.526
 1968SOL     OW 6802   2.091   1.493   5.794
 1968SOL    HW1 6803   2.159   1.502   5.722
 1968SOL    HW2 6804   2.032   1.414   5.775
 1969SOL     OW 6805   3.131   0.031   1.128
 1969SOL    HW1 6806   3.128   0.012   1.226
 1969SOL    HW2 6807   3.226   0.045   1.099
 1970SOL     OW 6808   6.720   5.537   4.688
 1970SOL    HW1 6809   6.736   5.561   4.593
 1970SOL    HW2 6810   6.773   5.597   4.747
 1971SOL     OW 6811   1.400   6.921   5.547
 1971SOL    HW1 6812   1.490   6.959   5.525
 1971SOL    HW2 6813   1.335   6.944   5.475
 1972SOL     OW 6814   6.107   2.288   1.414
 1972SOL    HW1 6815   6.023   2.290   1.359
 1972SOL    HW2 6816   6.147   2.379   1.417
 1973SOL     OW 6817   2.450   4.203   0.750
 1973SOL    HW1 6818   2.413   4.162   0.666
 1973SOL    HW2 6819   2.417   4.151   0.829
 1974SOL     OW 6820   3.852   6.709   4.895
 1974SOL    HW1 6821   3.829   6.643   4.966
 1974SOL    HW2 6822   3.867   6.662   4.808
 1975SOL     OW 6823   1.747   3.532   2.961
 1975SOL    HW1 6824   1.713   3.440   2.978
 1975SOL    HW2 6825   1.832   3.528   2.909
 1976SOL     OW 6826   6.772   0.217   6.095
 1976SOL    HW1 6827   6.790   0.315   6.101
 1976SOL    HW2 6828   6.775   0.176   6.186
 1977SOL     OW 6829   2.221   3.981   6.951
 1977SOL    HW1 6830   2.287   4.055   6.942
 1977SOL    HW2 6831   2.197   3.946   6.861
 1978SOL     OW 6832   2.438   6.857   2.539
 1978SOL    HW1 6833   2.434   6.956   2.553
 1978SOL    HW2 6834   2.473   6.813   2.622
 1979SOL     OW 6835   5.764   5.474   6.462
 1979SOL    HW1 6836   5.813   5.522   6.389
 1979SOL    HW2 6837   5.691   5.419   6.422
 1980SOL     OW 6838   2.953   1.531   1.850
 1980SOL    HW1 6839   2.942   1.517   1.948
 1980SOL    HW2 6840   3.051   1.532   1.827
 1981SOL     OW 6841   4.596   2.497   3.240
 1981SOL    HW1 6842   4.637   2.574   3.288
 1981SOL    HW2 6843   4.631   2.411   3.277
 1982SOL     OW 6844   6.669   3.086   3.650
 1982SOL    HW1 6845   6.654   3.076   3.749
 1982SOL    HW2 6846   6.625   3.169   3.617
 1983SOL     OW 6847   0.117   0.324   0.902
 1983SOL    HW1 6848   0.183   0.250   0.892
 1983SOL    HW2 6849   0.089   0.332   0.998
 1984SOL     OW 6850   5.941   2.845   5.166
 1984SOL    HW1 6851   5.897   2.850   5.076
 1984SOL    HW2 6852   5.875   2.816   5.235
 1985SOL     OW 6853   6.422   4.773   1.895
 1985SOL    HW1 6854   6.516   4.777   1.863
 1985SOL    HW2 6855   6.420   4.742   1.990
 1986SOL     OW 6856   3.200   1.521   0.110
 1986SOL    HW1 6857   3.258   1.564   0.179
 1986SOL    HW2 6858   3.247   1.522   0.022
 1987SOL     OW 6859   1.470   0.678   3.829
 1987SOL    HW1 6860   1.450   0.744   3.757
 1987SOL    HW2 6861   1.387   0.626   3.851
 1988SOL     OW 6862   6.927   2.359   0.816
 1988SOL    HW1 6863   6.993   2.364   0.742
 1988SOL    HW2 6864   6.957   2.292   0.884
 1989SOL     OW 6865   2.946   4.936   5.667
 1989SOL    HW1 6866   2.919   4.893   5.581
 1989SOL    HW2 6867   3.046   4.931   5.676
 1990SOL     OW 6868   3.704   0.875   6.935
 1990SOL    HW1 6869   3.647   0.893   7.015
 1990SOL    HW2 6870   3.655   0.816   6.871
 1991SOL     OW 6871   3.203   5.638   0.533
 1991SOL    HW1 6872   3.116   5.655   0.486
 1991SOL    HW2 6873   3.279   5.649   0.469
 1992SOL     OW 6874   0.411   6.392   0.044
 1992SOL    HW1 6875   0.329   6.347   0.080
 1992SOL    HW2 6876   0.411   6.489   0.071
 1993SOL     OW 6877   1.831   3.190   4.529
 1993SOL    HW1 6878   1.828   3.120   4.457
 1993SOL    HW2 6879   1.926   3.206   4.556
 1994SOL     OW 6880   3.370   3.351   0.326
 1994SOL    HW1 6881   3.436   3.418   0.290
 1994SOL    HW2 6882   3.290   3.399   0.360
 1995SOL     OW 6883   5.628   2.153   4.650
 1995SOL    HW1 6884   5.634   2.168   4.552
 1995SOL    HW2 6885   5.533   2.137   4.677
 1996SOL     OW 6886   3.937   1.563   0.901
 1996SOL    HW1 6887   3.948   1.629   0.976
 1996SOL    HW2 6888   3.992   1.482   0.919
 1997SOL     OW 6889   3.312   1.597   3.782
 1997SOL    HW1 6890   3.341   1.623   3.874
 1997SOL    HW2 6891   3.216   1.569   3.784
 1998SOL     OW 6892   1.053   3.041   1.580
 1998SOL    HW1 6893   1.051   2.991   1.667
 1998SOL    HW2 6894   0.959   3.062   1.552
 1999SOL     OW 6895   0.903   0.298   5.479
 1999SOL    HW1 6896   0.918   0.281   5.382
 1999SOL    HW2 6897   0.960   0.374   5.509
 2000SOL     OW 6898   3.759   3.860   6.963
 2000SOL    HW1 6899   3.796   3.799   6.892
 2000SOL    HW2 6900   3.660   3.848   6.970
 2001SOL     OW 6901   1.833   1.306   6.532
 2001SOL    HW1 6902   1.890   1.388   6.533
 2001SOL    HW2 6903   1.887   1.228   6.564
 2002SOL     OW 6904   6.744   5.763   0.997
 2002SOL    HW1 6905   6.752   5.859   0.971
 2002SOL    HW2 6906   6.801   5.707   0.937
 2003SOL     OW 6907   6.158   5.089   2.235
 2003SOL    HW1 6908   6.183   5.014   2.173
 2003SOL    HW2 6909   6.207   5.172   2.207
 2004SOL     OW 6910   3.626   0.942   3.707
 2004SOL    HW1 6911   3.569   0.928   3.787
 2004SOL    HW2 6912   3.628   0.859   3.652
 2005SOL     OW 6913   0.915   6.142   0.447
 2005SOL    HW1 6914   0.906   6.125   0.349
 2005SOL    HW2 6915   0.961   6.229   0.462
 2006SOL     OW 6916   5.149   6.859   3.311
 2006SOL    HW1 6917   5.111   6.801   3.384
 2006SOL    HW2 6918   5.103   6.838   3.225
 2007SOL     OW 6919   5.666   4.761   0.281
 2007SOL    HW1 6920   5.652   4.821   0.359
 2007SOL    HW2 6921   5.661   4.665   0.310
 2008SOL     OW 6922   2.190   4.068   3.684
 2008SOL    HW1 6923   2.125   4.144   3.682
 2008SOL    HW2 6924   2.246   4.075   3.767
 2009SOL     OW 6925   6.474   6.106   1.830
 2009SOL    HW1 6926   6.527   6.078   1.911
 2009SOL    HW2 6927   6.504   6.052   1.751
 2010SOL     OW 6928   1.524   2.246   1.786
 2010SOL    HW1 6929   1.449   2.311   1.788
 2010SOL    HW2 6930   1.576   2.258   1.701
 2011SOL     OW 6931   6.808   6.103   5.519
 2011SOL    HW1 6932   6.830   6.112   5.422
 2011SOL    HW2 6933   6.888   6.071   5.569
 2012SOL     OW 6934   1.614   3.231   2.654
 2012SOL    HW1 6935   1.516   3.238   2.671
 2012SOL    HW2 6936   1.663   3.225   2.742
 2013SOL     OW 6937   0.911   3.237   3.323
 2013SOL    HW1 6938   0.922   3.239   3.423
 2013SOL    HW2 6939   0.927   3.144   3.291
 2014SOL     OW 6940   2.959   0.442   3.731
 2014SOL    HW1 6941   3.036   0.412   3.676
 2014SOL    HW2 6942   2.993   0.481   3.817
 2015SOL     OW 6943   3.986   0.742   1.988
 2015SOL    HW1 6944   3.933   0.688   2.053
 2015SOL    HW2 6945   4.083   0.737   2.011
 2016SOL     OW 6946   1.831   7.016   6.057
 2016SOL    HW1 6947   1.817   0.005   5.958
 2016SOL    HW2 6948   1.887   0.073   6.089
 2017SOL     OW 6949   4.232   6.868   2.576
 2017SOL    HW1 6950   4.299   6.806   2.617
 2017SOL    HW2 6951   4.278   6.925   2.508
 2018SOL     OW 6952   0.462   1.870   3.145
 2018SOL    HW1 6953   0.401   1.798   3.114
 2018SOL    HW2 6954   0.420   1.918   3.223
 2019SOL     OW 6955   6.316   4.728   6.080
 2019SOL    HW1 6956   6.229   4.685   6.104
 2019SOL    HW2 6957   6.310   4.765   5.987
 2020SOL     OW 6958   1.691   6.443   6.067
 2020SOL    HW1 6959   1.663   6.529   6.025
 2020SOL    HW2 6960   1.609   6.387   6.086
 2021SOL     OW 6961   6.203   6.308   3.059
 2021SOL    HW1 6962   6.265   6.259   2.997
 2021SOL    HW2 6963   6.117   6.325   3.012
 2022SOL     OW 6964   2.360   4.443   5.256
 2022SOL    HW1 6965   2.422   4.404   5.325
 2022SOL    HW2 6966   2.300   4.372   5.220
 2023SOL     OW 6967   6.921   7.007   7.013
 2023SOL    HW1 6968   6.868   0.063   0.031
 2023SOL    HW2 6969   6.877   6.920   0.017
 2024SOL     OW 6970   0.747   5.458   4.684
 2024SOL    HW1 6971   0.794   5.542   4.710
 2024SOL    HW2 6972   0.674   5.439   4.750
 2025SOL     OW 6973   2.524   0.405   4.955
 2025SOL    HW1 6974   2.431   0.381   4.929
 2025SOL    HW2 6975   2.540   0.377   5.050
 2026SOL     OW 6976   5.903   1.077   6.207
 2026SOL    HW1 6977   5.996   1.110   6.219
 2026SOL    HW2 6978   5.866   1.112   6.121
 2027SOL     OW 6979   0.750   6.109   2.465
 2027SOL    HW1 6980   0.789   6.068   2.547
 2027SOL    HW2 6981   0.650   6.106   2.470
 2028SOL     OW 6982   4.022   5.858   2.721
 2028SOL    HW1 6983   3.978   5.869   2.810
 2028SOL    HW2 6984   4.112   5.901   2.723
 2029SOL     OW 6985   6.865   2.692   6.122
 2029SOL    HW1 6986   6.915   2.684   6.208
 2029SOL    HW2 6987   6.853   2.788   6.098
 2030SOL     OW 6988   2.675   6.141   3.176
 2030SOL    HW1 6989   2.731   6.058   3.179
 2030SOL    HW2 6990   2.670   6.181   3.268
 2031SOL     OW 6991   6.448   5.514   2.849
 2031SOL    HW1 6992   6.441   5.532   2.948
 2031SOL    HW2 6993   6.399   5.585   2.799
 2032SOL     OW 6994   3.174   1.582   6.252
 2032SOL    HW1 6995   3.193   1.529   6.334
 2032SOL    HW2 6996   3.259   1.616   6.213
 2033SOL     OW 6997   1.975   1.498   1.124
 2033SOL    HW1 6998   2.017   1.520   1.213
 2033SOL    HW2 6999   1.928   1.579   1.089
 2034SOL     OW 7000   0.585   4.845   5.909
 2034SOL    HW1 7001   0.558   4.938   5.883
 2034SOL    HW2 7002   0.684   4.837   5.903
 2035SOL     OW 7003   5.684   0.360   2.400
 2035SOL    HW1 7004   5.634   0.300   2.338
 2035SOL    HW2 7005   5.773   0.381   2.362
 2036SOL     OW 7006   0.822   3.711   2.187
 2036SOL    HW1 7007   0.823   3.733   2.285
 2036SOL    HW2 7008   0.728   3.700   2.156
 2037SOL     OW 7009   0.293   3.069   6.417
 2037SOL    HW1 7010   0.387   3.098   6.434
 2037SOL    HW2 7011   0.272   2.989   6.473
 2038SOL     OW 7012   2.375   1.768   0.117
 2038SOL    HW1 7013   2.446   1.733   0.056
 2038SOL    HW2 7014   2.333   1.692   0.167
 2039SOL     OW 7015   6.467   5.934   2.374
 2039SOL    HW1 7016   6.522   5.949   2.457
 2039SOL    HW2 7017   6.528   5.912   2.298
 2040SOL     OW 7018   2.557   2.970   0.103
 2040SOL    HW1 7019   2.458   2.960   0.099
 2040SOL    HW2 7020   2.581   3.067   0.097
 2041SOL     OW 7021   1.868   0.129   6.588
 2041SOL    HW1 7022   1.783   0.151   6.540
 2041SOL    HW2 7023   1.863   0.163   6.682
 2042SOL     OW 7024   5.035   1.017   5.532
 2042SOL    HW1 7025   4.942   1.056   5.532
 2042SOL    HW2 7026   5.041   0.947   5.604
 2043SOL     OW 7027   6.792   3.701   1.341
 2043SOL    HW1 7028   6.792   3.798   1.314
 2043SOL    HW2 7029   6.845   3.648   1.274
 2044SOL     OW 7030   5.091   0.763   0.754
 2044SOL    HW1 7031   4.991   0.758   0.752
 2044SOL    HW2 7032   5.129   0.711   0.677
 2045SOL     OW 7033   1.665   6.222   6.409
 2045SOL    HW1 7034   1.569   6.247   6.421
 2045SOL    HW2 7035   1.712   6.225   6.497
 2046SOL     OW 7036   1.093   2.227   5.145
 2046SOL    HW1 7037   1.066   2.273   5.060
 2046SOL    HW2 7038   1.110   2.296   5.216
 2047SOL     OW 7039   6.783   1.674   6.938
 2047SOL    HW1 7040   6.754   1.769   6.948
 2047SOL    HW2 7041   6.703   1.614   6.930
 2048SOL     OW 7042   1.138   1.309   4.351
 2048SOL    HW1 7043   1.115   1.369   4.275
 2048SOL    HW2 7044   1.215   1.251   4.326
 2049SOL     OW 7045   4.812   1.589   4.799
 2049SOL    HW1 7046   4.851   1.578   4.707
 2049SOL    HW2 7047   4.753   1.670   4.800
 2050SOL     OW 7048   0.357   1.199   3.816
 2050SOL    HW1 7049   0.293   1.228   3.887
 2050SOL    HW2 7050   0.433   1.264   3.811
 2051SOL     OW 7051   3.222   6.323   1.079
 2051SOL    HW1 7052   3.191   6.384   1.006
 2051SOL    HW2 7053   3.239   6.232   1.042
 2052SOL     OW 7054   1.368   4.060   6.719
 2052SOL    HW1 7055   1.453   4.045   6.768
 2052SOL    HW2 7056   1.318   4.135   6.762
 2053SOL     OW 7057   0.653   5.141   4.136
 2053SOL    HW1 7058   0.582   5.103   4.077
 2053SOL    HW2 7059   0.694   5.067   4.190
 2054SOL     OW 7060   3.447   3.387   3.597
 2054SOL    HW1 7061   3.370   3.396   3.533
 2054SOL    HW2 7062   3.460   3.290   3.619
 2055SOL     OW 7063   2.245   2.134   5.681
 2055SOL    HW1 7064   2.217   2.115   5.775
 2055SOL    HW2 7065   2.226   2.053   5.625
 2056SOL     OW 7066   3.940   4.746   1.157
 2056SOL    HW1 7067   3.998   4.801   1.097
 2056SOL    HW2 7068   3.846   4.747   1.124
 2057SOL     OW 7069   5.909   2.711   4.457
 2057SOL    HW1 7070   5.831   2.671   4.504
 2057SOL    HW2 7071   5.909   2.811   4.470
 2058SOL     OW 7072   0.615   6.024   3.850
 2058SOL    HW1 7073   0.552   5.950   3.873
 2058SOL    HW2 7074   0.566   6.111   3.847
 2059SOL     OW 7075   1.805   0.039   5.795
 2059SOL    HW1 7076   1.887   0.048   5.739
 2059SOL    HW2 7077   1.736   0.103   5.763
 2060SOL     OW 7078   1.052   3.388   7.004
 2060SOL    HW1 7079   1.095   3.469   6.965
 2060SOL    HW2 7080   1.014   3.332   6.931
 2061SOL     OW 7081   2.086   2.255   2.571
 2061SOL    HW1 7082   2.113   2.162   2.550
 2061SOL    HW2 7083   2.154   2.298   2.630
 2062SOL     OW 7084   6.560   5.090   5.229
 2062SOL    HW1 7085   6.464   5.069   5.246
 2062SOL    HW2 7086   6.591   5.042   5.147
 2063SOL     OW 7087   1.552   1.109   5.114
 2063SOL    HW1 7088   1.598   1.152   5.036
 2063SOL    HW2 7089   1.469   1.161   5.136
 2064SOL     OW 7090   0.409   3.184   3.797
 2064SOL    HW1 7091   0.412   3.283   3.782
 2064SOL    HW2 7092   0.449   3.137   3.719
 2065SOL     OW 7093   4.544   2.539   5.828
 2065SOL    HW1 7094   4.638   2.573   5.816
 2065SOL    HW2 7095   4.480   2.610   5.799
 2066SOL     OW 7096   6.135   3.036   5.237
 2066SOL    HW1 7097   6.109   3.059   5.331
 2066SOL    HW2 7098   6.055   3.006   5.186
 2067SOL     OW 7099   6.692   4.892   0.957
 2067SOL    HW1 7100   6.719   4.920   0.864
 2067SOL    HW2 7101   6.717   4.965   1.021
 2068SOL     OW 7102   4.177   0.535   4.042
 2068SOL    HW1 7103   4.265   0.530   4.089
 2068SOL    HW2 7104   4.179   0.609   3.975
 2069SOL     OW 7105   0.175   2.401   4.053
 2069SOL    HW1 7106   0.254   2.422   4.111
 2069SOL    HW2 7107   0.188   2.444   3.964
 2070SOL     OW 7108   0.696   4.315   2.116
 2070SOL    HW1 7109   0.742   4.354   2.036
 2070SOL    HW2 7110   0.621   4.257   2.085
 2071SOL     OW 7111   6.499   1.703   6.482
 2071SOL    HW1 7112   6.442   1.630   6.443
 2071SOL    HW2 7113   6.583   1.711   6.428
 2072SOL     OW 7114   3.721   4.727   5.554
 2072SOL    HW1 7115   3.762   4.655   5.497
 2072SOL    HW2 7116   3.743   4.709   5.650
 2073SOL     OW 7117   3.416   6.182   0.416
 2073SOL    HW1 7118   3.321   6.211   0.405
 2073SOL    HW2 7119   3.452   6.153   0.328
 2074SOL     OW 7120   1.122   3.745   5.534
 2074SOL    HW1 7121   1.189   3.814   5.562
 2074SOL    HW2 7122   1.064   3.784   5.462
 2075SOL     OW 7123   6.790   1.864   1.633
 2075SOL    HW1 7124   6.719   1.812   1.587
 2075SOL    HW2 7125   6.765   1.961   1.632
 2076SOL     OW 7126   5.336   6.325   4.612
 2076SOL    HW1 7127   5.377   6.259   4.675
 2076SOL    HW2 7128   5.272   6.277   4.551
 2077SOL     OW 7129   0.013   3.839   1.087
 2077SOL    HW1 7130   6.964   3.884   1.145
 2077SOL    HW2 7131   0.091   3.901   1.074
 2078SOL     OW 7132   1.746   3.480   5.957
 2078SOL    HW1 7133   1.719   3.572   5.928
 2078SOL    HW2 7134   1.740   3.473   6.056
 2079SOL     OW 7135   5.434   2.040   1.987
 2079SOL    HW1 7136   5.343   2.008   2.014
 2079SOL    HW2 7137   5.495   2.035   2.066
 2080SOL     OW 7138   2.497   3.070   5.607
 2080SOL    HW1 7139   2.502   3.001   5.535
 2080SOL    HW2 7140   2.402   3.077   5.639
 2081SOL     OW 7141   6.705   0.178   3.377
 2081SOL    HW1 7142   6.633   0.248   3.374
 2081SOL    HW2 7143   6.760   0.191   3.459
 2082SOL     OW 7144   0.160   6.331   2.394
 2082SOL    HW1 7145   0.085   6.359   2.334
 2082SOL    HW2 7146   0.165   6.231   2.396
 2083SOL     OW 7147   6.877   6.084   4.344
 2083SOL    HW1 7148   6.933   6.016   4.297
 2083SOL    HW2 7149   6.781   6.057   4.340
 2084SOL     OW 7150   0.310   2.717   1.947
 2084SOL    HW1 7151   0.403   2.749   1.928
 2084SOL    HW2 7152   0.261   2.702   1.861
 2085SOL     OW 7153   5.549   5.420   0.721
 2085SOL    HW1 7154   5.644   5.403   0.696
 2085SOL    HW2 7155   5.510   5.336   0.761
 2086SOL     OW 7156   4.399   0.020   6.796
 2086SOL    HW1 7157   4.317   0.051   6.748
 2086SOL    HW2 7158   4.477   0.078   6.771
 2087SOL     OW 7159   4.124   2.269   6.500
 2087SOL    HW1 7160   4.118   2.169   6.498
 2087SOL    HW2 7161   4.141   2.303   6.408
 2088SOL     OW 7162   0.066   6.035   5.067
 2088SOL    HW1 7163   7.006   5.992   5.112
 2088SOL    HW2 7164   0.150   5.994   5.103
 2089SOL     OW 7165   3.427   3.578   6.680
 2089SOL    HW1 7166   3.404   3.561   6.776
 2089SOL    HW2 7167   3.344   3.598   6.629
 2090SOL     OW 7168   4.385   3.451   5.294
 2090SOL    HW1 7169   4.330   3.444   5.211
 2090SOL    HW2 7170   4.466   3.506   5.277
 2091SOL     OW 7171   5.966   5.650   1.772
 2091SOL    HW1 7172   5.881   5.700   1.758
 2091SOL    HW2 7173   6.043   5.715   1.768
 2092SOL     OW 7174   4.509   3.834   1.351
 2092SOL    HW1 7175   4.587   3.880   1.308
 2092SOL    HW2 7176   4.539   3.789   1.434
 2093SOL     OW 7177   3.751   2.117   2.953
 2093SOL    HW1 7178   3.834   2.126   2.897
 2093SOL    HW2 7179   3.672   2.151   2.901
 2094SOL     OW 7180   5.530   2.425   6.370
 2094SOL    HW1 7181   5.511   2.506   6.425
 2094SOL    HW2 7182   5.446   2.372   6.359
 2095SOL     OW 7183   5.062   6.222   3.789
 2095SOL    HW1 7184   5.101   6.210   3.698
 2095SOL    HW2 7185   5.124   6.182   3.857
 2096SOL     OW 7186   4.545   6.530   2.697
 2096SOL    HW1 7187   4.535   6.431   2.704
 2096SOL    HW2 7188   4.456   6.574   2.712
 2097SOL     OW 7189   1.214   5.364   6.472
 2097SOL    HW1 7190   1.220   5.270   6.437
 2097SOL    HW2 7191   1.121   5.398   6.459
 2098SOL     OW 7192   2.926   6.323   3.138
 2098SOL    HW1 7193   2.960   6.374   3.059
 2098SOL    HW2 7194   2.953   6.227   3.131
 2099SOL     OW 7195   5.495   1.247   0.108
 2099SOL    HW1 7196   5.473   1.178   0.178
 2099SOL    HW2 7197   5.584   1.228   0.069
 2100SOL     OW 7198   5.427   0.759   1.325
 2100SOL    HW1 7199   5.494   0.765   1.250
 2100SOL    HW2 7200   5.334   0.765   1.287
 2101SOL     OW 7201   0.192   6.624   1.840
 2101SOL    HW1 7202   0.112   6.564   1.842
 2101SOL    HW2 7203   0.163   6.718   1.855
 2102SOL     OW 7204   3.279   3.580   0.608
 2102SOL    HW1 7205   3.219   3.659   0.621
 2102SOL    HW2 7206   3.230   3.496   0.631
 2103SOL     OW 7207   2.874   6.009   0.751
 2103SOL    HW1 7208   2.962   6.057   0.752
 2103SOL    HW2 7209   2.825   6.031   0.667
 2104SOL     OW 7210   1.304   5.132   3.138
 2104SOL    HW1 7211   1.385   5.146   3.081
 2104SOL    HW2 7212   1.284   5.034   3.144
 2105SOL     OW 7213   5.569   3.855   6.432
 2105SOL    HW1 7214   5.607   3.946   6.450
 2105SOL    HW2 7215   5.629   3.806   6.369
 2106SOL     OW 7216   5.028   3.681   1.886
 2106SOL    HW1 7217   4.981   3.628   1.956
 2106SOL    HW2 7218   5.124   3.693   1.912
 2107SOL     OW 7219   5.732   3.786   5.404
 2107SOL    HW1 7220   5.681   3.828   5.329
 2107SOL    HW2 7221   5.702   3.691   5.416
 2108SOL     OW 7222   5.714   7.014   5.826
 2108SOL    HW1 7223   5.634   0.042   5.861
 2108SOL    HW2 7224   5.700   6.992   5.729
 2109SOL     OW 7225   2.407   5.736   3.243
 2109SOL    HW1 7226   2.379   5.773   3.154
 2109SOL    HW2 7227   2.439   5.642   3.231
 2110SOL     OW 7228   4.292   0.384   6.529
 2110SOL    HW1 7229   4.240   0.467   6.554
 2110SOL    HW2 7230   4.266   0.310   6.591
 2111SOL     OW 7231   1.350   2.373   5.998
 2111SOL    HW1 7232   1.334   2.460   6.044
 2111SOL    HW2 7233   1.277   2.357   5.932
 2112SOL     OW 7234   0.160   1.409   0.669
 2112SOL    HW1 7235   0.095   1.395   0.744
 2112SOL    HW2 7236   0.146   1.339   0.599
 2113SOL     OW 7237   1.302   0.161   4.752
 2113SOL    HW1 7238   1.289   0.252   4.791
 2113SOL    HW2 7239   1.226   0.139   4.691
 2114SOL     OW 7240   2.132   2.445   6.522
 2114SOL    HW1 7241   2.037   2.432   6.549
 2114SOL    HW2 7242   2.150   2.543   6.510
 2115SOL     OW 7243   6.407   5.872   3.226
 2115SOL    HW1 7244   6.372   5.965   3.233
 2115SOL    HW2 7245   6.362   5.814   3.294
 2116SOL     OW 7246   0.535   2.740   6.857
 2116SOL    HW1 7247   0.626   2.712   6.887
 2116SOL    HW2 7248   0.538   2.832   6.820
 2117SOL     OW 7249   6.221   1.223   2.057
 2117SOL    HW1 7250   6.129   1.258   2.074
 2117SOL    HW2 7251   6.216   1.140   2.002
 2118SOL     OW 7252   6.188   2.780   2.010
 2118SOL    HW1 7253   6.245   2.859   2.033
 2118SOL    HW2 7254   6.183   2.718   2.089
 2119SOL     OW 7255   3.118   0.709   0.039
 2119SOL    HW1 7256   3.135   0.799   0.080
 2119SOL    HW2 7257   3.151   0.638   0.101
 2120SOL     OW 7258   5.761   1.687   0.519
 2120SOL    HW1 7259   5.858   1.698   0.498
 2120SOL    HW2 7260   5.724   1.773   0.553
 2121SOL     OW 7261   1.291   0.586   6.645
 2121SOL    HW1 7262   1.328   0.525   6.715
 2121SOL    HW2 7263   1.220   0.644   6.685
 2122SOL     OW 7264   6.175   1.006   4.756
 2122SOL    HW1 7265   6.261   0.983   4.802
 2122SOL    HW2 7266   6.147   0.931   4.697
 2123SOL     OW 7267   1.613   5.784   3.612
 2123SOL    HW1 7268   1.545   5.716   3.639
 2123SOL    HW2 7269   1.566   5.869   3.586
 2124SOL     OW 7270   3.690   3.321   5.771
 2124SOL    HW1 7271   3.592   3.319   5.792
 2124SOL    HW2 7272   3.711   3.399   5.713
 2125SOL     OW 7273   1.318   5.823   3.851
 2125SOL    HW1 7274   1.399   5.780   3.811
 2125SOL    HW2 7275   1.238   5.805   3.794
 2126SOL     OW 7276   3.625   4.572   6.921
 2126SOL    HW1 7277   3.642   4.489   6.868
 2126SOL    HW2 7278   3.561   4.631   6.872
 2127SOL     OW 7279   0.642   2.354   4.915
 2127SOL    HW1 7280   0.663   2.429   4.852
 2127SOL    HW2 7281   0.722   2.295   4.925
 2128SOL     OW 7282   5.353   2.704   1.383
 2128SOL    HW1 7283   5.257   2.733   1.382
 2128SOL    HW2 7284   5.388   2.705   1.289
 2129SOL     OW 7285   4.969   4.589   3.665
 2129SOL    HW1 7286   4.980   4.599   3.764
 2129SOL    HW2 7287   4.871   4.586   3.643
 2130SOL     OW 7288   2.697   1.227   2.940
 2130SOL    HW1 7289   2.732   1.210   2.848
 2130SOL    HW2 7290   2.690   1.140   2.989
 2131SOL     OW 7291   5.810   1.848   5.800
 2131SOL    HW1 7292   5.830   1.921   5.864
 2131SOL    HW2 7293   5.713   1.823   5.807
 2132SOL     OW 7294   2.853   2.494   6.924
 2132SOL    HW1 7295   2.938   2.540   6.946
 2132SOL    HW2 7296   2.779   2.561   6.919
 2133SOL     OW 7297   2.722   2.143   1.920
 2133SOL    HW1 7298   2.752   2.230   1.960
 2133SOL    HW2 7299   2.656   2.161   1.848
 2134SOL     OW 7300   0.899   6.359   4.671
 2134SOL    HW1 7301   0.953   6.394   4.595
 2134SOL    HW2 7302   0.877   6.433   4.734
 2135SOL     OW 7303   0.855   1.337   3.206
 2135SOL    HW1 7304   0.882   1.428   3.177
 2135SOL    HW2 7305   0.756   1.328   3.200
 2136SOL     OW 7306   0.364   4.389   3.620
 2136SOL    HW1 7307   0.344   4.463   3.683
 2136SOL    HW2 7308   0.462   4.367   3.624
 2137SOL     OW 7309   1.513   0.315   5.366
 2137SOL    HW1 7310   1.563   0.388   5.412
 2137SOL    HW2 7311   1.418   0.314   5.400
 2138SOL     OW 7312   0.597   2.526   0.611
 2138SOL    HW1 7313   0.630   2.442   0.654
 2138SOL    HW2 7314   0.649   2.544   0.527
 2139SOL     OW 7315   3.012   0.475   5.794
 2139SOL    HW1 7316   3.062   0.551   5.836
 2139SOL    HW2 7317   2.967   0.507   5.711
 2140SOL     OW 7318   2.467   5.471   3.182
 2140SOL    HW1 7319   2.412   5.444   3.103
 2140SOL    HW2 7320   2.450   5.408   3.258
 2141SOL     OW 7321   5.319   2.099   1.130
 2141SOL    HW1 7322   5.335   2.025   1.064
 2141SOL    HW2 7323   5.405   2.123   1.175
 2142SOL     OW 7324   2.044   2.223   3.229
 2142SOL    HW1 7325   2.127   2.167   3.228
 2142SOL    HW2 7326   2.062   2.311   3.184
 2143SOL     OW 7327   3.105   0.114   1.553
 2143SOL    HW1 7328   3.106   0.039   1.487
 2143SOL    HW2 7329   3.018   0.114   1.602
 2144SOL     OW 7330   0.840   1.055   3.271
 2144SOL    HW1 7331   0.837   1.154   3.289
 2144SOL    HW2 7332   0.748   1.024   3.245
 2145SOL     OW 7333   3.705   5.171   3.128
 2145SOL    HW1 7334   3.664   5.087   3.092
 2145SOL    HW2 7335   3.788   5.192   3.076
 2146SOL     OW 7336   3.852   3.080   3.048
 2146SOL    HW1 7337   3.941   3.040   3.070
 2146SOL    HW2 7338   3.816   3.126   3.129
 2147SOL     OW 7339   1.527   1.077   5.705
 2147SOL    HW1 7340   1.568   1.139   5.639
 2147SOL    HW2 7341   1.429   1.068   5.686
 2148SOL     OW 7342   4.905   3.382   2.844
 2148SOL    HW1 7343   4.911   3.418   2.751
 2148SOL    HW2 7344   4.981   3.319   2.860
 2149SOL     OW 7345   4.195   1.126   2.887
 2149SOL    HW1 7346   4.165   1.080   2.804
 2149SOL    HW2 7347   4.114   1.151   2.942
 2150SOL     OW 7348   3.008   2.253   3.443
 2150SOL    HW1 7349   2.984   2.254   3.540
 2150SOL    HW2 7350   3.037   2.161   3.417
 2151SOL     OW 7351   3.654   2.921   5.695
 2151SOL    HW1 7352   3.638   3.020   5.693
 2151SOL    HW2 7353   3.714   2.896   5.619
 2152SOL     OW 7354   6.161   5.843   1.807
 2152SOL    HW1 7355   6.226   5.839   1.883
 2152SOL    HW2 7356   6.098   5.919   1.821
 2153SOL     OW 7357   4.567   2.616   3.618
 2153SOL    HW1 7358   4.589   2.647   3.525
 2153SOL    HW2 7359   4.646   2.629   3.678
 2154SOL     OW 7360   3.484   6.155   5.031
 2154SOL    HW1 7361   3.563   6.111   4.989
 2154SOL    HW2 7362   3.512   6.240   5.075
 2155SOL     OW 7363   0.012   3.610   6.986
 2155SOL    HW1 7364   0.044   3.692   0.014
 2155SOL    HW2 7365   6.947   3.577   0.009
 2156SOL     OW 7366   2.010   0.506   2.021
 2156SOL    HW1 7367   2.053   0.475   1.937
 2156SOL    HW2 7368   2.072   0.568   2.069
 2157SOL     OW 7369   0.447   1.802   5.089
 2157SOL    HW1 7370   0.465   1.742   5.012
 2157SOL    HW2 7371   0.422   1.748   5.170
 2158SOL     OW 7372   3.160   6.764   1.608
 2158SOL    HW1 7373   3.149   6.812   1.521
 2158SOL    HW2 7374   3.197   6.827   1.677
 2159SOL     OW 7375   1.379   6.460   5.118
 2159SOL    HW1 7376   1.331   6.438   5.033
 2159SOL    HW2 7377   1.317   6.506   5.181
 2160SOL     OW 7378   3.093   3.732   1.236
 2160SOL    HW1 7379   3.121   3.694   1.148
 2160SOL    HW2 7380   3.023   3.673   1.277
 2161SOL     OW 7381   5.635   2.390   3.433
 2161SOL    HW1 7382   5.569   2.421   3.364
 2161SOL    HW2 7383   5.587   2.342   3.506
 2162SOL     OW 7384   0.842   0.289   6.675
 2162SOL    HW1 7385   0.751   0.294   6.716
 2162SOL    HW2 7386   0.904   0.242   6.738
 2163SOL     OW 7387   1.754   1.634   0.723
 2163SOL    HW1 7388   1.838   1.609   0.675
 2163SOL    HW2 7389   1.689   1.559   0.716
 2164SOL     OW 7390   1.223   1.176   6.938
 2164SOL    HW1 7391   1.200   1.079   6.934
 2164SOL    HW2 7392   1.321   1.187   6.954
 2165SOL     OW 7393   2.574   6.860   3.013
 2165SOL    HW1 7394   2.648   6.793   3.024
 2165SOL    HW2 7395   2.609   6.951   3.035
 2166SOL     OW 7396   0.322   2.709   6.311
 2166SOL    HW1 7397   0.241   2.655   6.287
 2166SOL    HW2 7398   0.353   2.683   6.403
 2167SOL     OW 7399   3.598   0.661   2.959
 2167SOL    HW1 7400   3.576   0.565   2.973
 2167SOL    HW2 7401   3.563   0.690   2.870
 2168SOL     OW 7402   5.794   4.720   4.835
 2168SOL    HW1 7403   5.779   4.675   4.747
 2168SOL    HW2 7404   5.889   4.752   4.841
 2169SOL     OW 7405   5.503   1.914   5.828
 2169SOL    HW1 7406   5.412   1.949   5.807
 2169SOL    HW2 7407   5.497   1.818   5.855
 2170SOL     OW 7408   3.858   4.943   4.819
 2170SOL    HW1 7409   3.954   4.969   4.831
 2170SOL    HW2 7410   3.850   4.881   4.741
 2171SOL     OW 7411   0.135   2.654   6.982
 2171SOL    HW1 7412   0.098   2.649   0.055
 2171SOL    HW2 7413   0.077   2.714   6.926
 2172SOL     OW 7414   3.359   0.431   0.867
 2172SOL    HW1 7415   3.409   0.402   0.785
 2172SOL    HW2 7416   3.387   0.374   0.944
 2173SOL     OW 7417   5.385   1.248   5.389
 2173SOL    HW1 7418   5.299   1.203   5.415
 2173SOL    HW2 7419   5.429   1.196   5.317
 2174SOL     OW 7420   0.104   5.501   4.852
 2174SOL    HW1 7421   0.172   5.486   4.780
 2174SOL    HW2 7422   0.053   5.417   4.869
 2175SOL     OW 7423   1.789   6.825   4.519
 2175SOL    HW1 7424   1.793   6.902   4.584
 2175SOL    HW2 7425   1.704   6.775   4.532
 2176SOL     OW 7426   1.614   2.899   3.101
 2176SOL    HW1 7427   1.548   2.861   3.037
 2176SOL    HW2 7428   1.640   2.829   3.168
 2177SOL     OW 7429   0.528   2.658   1.364
 2177SOL    HW1 7430   0.541   2.653   1.265
 2177SOL    HW2 7431   0.456   2.593   1.390
 2178SOL     OW 7432   0.402   4.423   0.184
 2178SOL    HW1 7433   0.369   4.499   0.240
 2178SOL    HW2 7434   0.465   4.367   0.238
 2179SOL     OW 7435   1.748   5.468   4.376
 2179SOL    HW1 7436   1.674   5.413   4.415
 2179SOL    HW2 7437   1.836   5.425   4.397
 2180SOL     OW 7438   3.398   2.882   2.624
 2180SOL    HW1 7439   3.490   2.844   2.610
 2180SOL    HW2 7440   3.383   2.896   2.722
 2181SOL     OW 7441   5.165   5.277   5.799
 2181SOL    HW1 7442   5.139   5.341   5.871
 2181SOL    HW2 7443   5.136   5.313   5.711
 2182SOL     OW 7444   6.503   3.209   6.081
 2182SOL    HW1 7445   6.477   3.165   6.167
 2182SOL    HW2 7446   6.573   3.155   6.035
 2183SOL     OW 7447   3.491   3.213   1.055
 2183SOL    HW1 7448   3.413   3.176   1.005
 2183SOL    HW2 7449   3.537   3.140   1.104
 2184SOL     OW 7450   3.731   2.710   6.432
 2184SOL    HW1 7451   3.826   2.681   6.424
 2184SOL    HW2 7452   3.728   2.805   6.464
 2185SOL     OW 7453   1.581   1.438   1.876
 2185SOL    HW1 7454   1.495   1.445   1.826
 2185SOL    HW2 7455   1.612   1.343   1.874
 2186SOL     OW 7456   0.537   6.185   3.308
 2186SOL    HW1 7457   0.534   6.262   3.371
 2186SOL    HW2 7458   0.477   6.203   3.230
 2187SOL     OW 7459   0.255   1.383   6.670
 2187SOL    HW1 7460   0.170   1.403   6.621
 2187SOL    HW2 7461   0.333   1.399   6.610
 2188SOL     OW 7462   5.608   0.272   3.086
 2188SOL    HW1 7463   5.554   0.318   3.158
 2188SOL    HW2 7464   5.611   0.331   3.005
 2189SOL     OW 7465   2.103   0.001   6.534
 2189SOL    HW1 7466   2.040   6.944   6.522
 2189SOL    HW2 7467   2.051   0.084   6.554
 2190SOL     OW 7468   5.144   2.164   2.002
 2190SOL    HW1 7469   5.079   2.112   2.058
 2190SOL    HW2 7470   5.157   2.254   2.043
 2191SOL     OW 7471   3.264   2.669   6.310
 2191SOL    HW1 7472   3.328   2.742   6.287
 2191SOL    HW2 7473   3.262   2.602   6.235
 2192SOL     OW 7474   4.980   5.735   4.927
 2192SOL    HW1 7475   4.975   5.703   4.832
 2192SOL    HW2 7476   4.992   5.834   4.928
 2193SOL     OW 7477   1.488   4.977   6.269
 2193SOL    HW1 7478   1.533   4.989   6.181
 2193SOL    HW2 7479   1.552   4.996   6.343
 2194SOL     OW 7480   2.464   0.326   1.620
 2194SOL    HW1 7481   2.401   0.309   1.544
 2194SOL    HW2 7482   2.456   0.252   1.687
 2195SOL     OW 7483   1.725   4.793   2.734
 2195SOL    HW1 7484   1.759   4.887   2.732
 2195SOL    HW2 7485   1.740   4.750   2.645
 2196SOL     OW 7486   3.624   1.953   6.227
 2196SOL    HW1 7487   3.649   2.033   6.173
 2196SOL    HW2 7488   3.537   1.916   6.193
 2197SOL     OW 7489   4.563   5.235   1.203
 2197SOL    HW1 7490   4.636   5.166   1.200
 2197SOL    HW2 7491   4.572   5.296   1.125
 2198SOL     OW 7492   6.449   3.642   0.407
 2198SOL    HW1 7493   6.369   3.656   0.465
 2198SOL    HW2 7494   6.522   3.599   0.461
 2199SOL     OW 7495   4.803   0.297   1.544
 2199SOL    HW1 7496   4.716   0.251   1.526
 2199SOL    HW2 7497   4.853   0.247   1.615
 2200SOL     OW 7498   3.006   0.666   4.734
 2200SOL    HW1 7499   2.906   0.653   4.729
 2200SOL    HW2 7500   3.029   0.758   4.705
 2201SOL     OW 7501   5.587   3.110   2.031
 2201SOL    HW1 7502   5.613   3.078   2.122
 2201SOL    HW2 7503   5.668   3.117   1.973
 2202SOL     OW 7504   4.662   6.176   4.116
 2202SOL    HW1 7505   4.693   6.085   4.143
 2202SOL    HW2 7506   4.721   6.212   4.044
 2203SOL     OW 7507   3.484   2.115   3.576
 2203SOL    HW1 7508   3.478   2.015   3.579
 2203SOL    HW2 7509   3.567   2.145   3.623
 2204SOL     OW 7510   3.220   2.630   0.500
 2204SOL    HW1 7511   3.221   2.544   0.448
 2204SOL    HW2 7512   3.126   2.660   0.512
 2205SOL     OW 7513   3.155   6.702   0.517
 2205SOL    HW1 7514   3.153   6.665   0.424
 2205SOL    HW2 7515   3.237   6.670   0.564
 2206SOL     OW 7516   2.146   2.973   6.826
 2206SOL    HW1 7517   2.226   2.919   6.800
 2206SOL    HW2 7518   2.115   3.028   6.748
 2207SOL     OW 7519   0.909   4.290   5.787
 2207SOL    HW1 7520   0.821   4.253   5.815
 2207SOL    HW2 7521   0.895   4.378   5.741
 2208SOL     OW 7522   0.273   4.082   1.747
 2208SOL    HW1 7523   0.321   4.143   1.683
 2208SOL    HW2 7524   0.317   3.993   1.746
 2209SOL     OW 7525   0.839   6.042   0.192
 2209SOL    HW1 7526   0.802   5.958   0.231
 2209SOL    HW2 7527   0.844   6.033   0.092
 2210SOL     OW 7528   0.378   5.639   4.296
 2210SOL    HW1 7529   0.316   5.718   4.292
 2210SOL    HW2 7530   0.331   5.559   4.258
 2211SOL     OW 7531   6.491   1.343   5.561
 2211SOL    HW1 7532   6.565   1.364   5.497
 2211SOL    HW2 7533   6.417   1.409   5.548
 2212SOL     OW 7534   1.423   0.040   6.233
 2212SOL    HW1 7535   1.344   0.095   6.260
 2212SOL    HW2 7536   1.504   0.098   6.227
 2213SOL     OW 7537   3.776   1.322   3.789
 2213SOL    HW1 7538   3.720   1.403   3.804
 2213SOL    HW2 7539   3.797   1.313   3.692
 2214SOL     OW 7540   4.371   7.010   4.191
 2214SOL    HW1 7541   4.376   0.084   4.156
 2214SOL    HW2 7542   4.405   6.947   4.120
 2215SOL     OW 7543   6.187   2.470   5.474
 2215SOL    HW1 7544   6.109   2.469   5.536
 2215SOL    HW2 7545   6.210   2.564   5.451
 2216SOL     OW 7546   1.970   6.786   1.412
 2216SOL    HW1 7547   2.004   6.877   1.387
 2216SOL    HW2 7548   2.015   6.756   1.497
 2217SOL     OW 7549   4.212   0.648   1.272
 2217SOL    HW1 7550   4.191   0.718   1.204
 2217SOL    HW2 7551   4.133   0.635   1.332
 2218SOL     OW 7552   0.863   5.644   0.948
 2218SOL    HW1 7553   0.783   5.680   0.996
 2218SOL    HW2 7554   0.834   5.598   0.864
 2219SOL     OW 7555   1.535   3.740   3.296
 2219SOL    HW1 7556   1.480   3.732   3.213
 2219SOL    HW2 7557   1.585   3.827   3.295
 2220SOL     OW 7558   0.486   0.621   6.787
 2220SOL    HW1 7559   0.572   0.572   6.798
 2220SOL    HW2 7560   0.452   0.650   6.876
 2221SOL     OW 7561   6.776   2.394   1.156
 2221SOL    HW1 7562   6.785   2.388   1.057
 2221SOL    HW2 7563   6.684   2.363   1.183
 2222SOL     OW 7564   5.261   6.715   2.576
 2222SOL    HW1 7565   5.356   6.729   2.547
 2222SOL    HW2 7566   5.260   6.650   2.652
 2223SOL     OW 7567   5.406   5.621   2.401
 2223SOL    HW1 7568   5.352   5.577   2.330
 2223SOL    HW2 7569   5.361   5.706   2.429
 2224SOL     OW 7570   1.327   4.771   0.910
 2224SOL    HW1 7571   1.249   4.752   0.850
 2224SOL    HW2 7572   1.366   4.860   0.886
 2225SOL     OW 7573   6.231   4.935   2.019
 2225SOL    HW1 7574   6.233   5.026   1.977
 2225SOL    HW2 7575   6.273   4.869   1.956
 2226SOL     OW 7576   4.330   4.075   1.114
 2226SOL    HW1 7577   4.335   4.116   1.205
 2226SOL    HW2 7578   4.420   4.078   1.071
 2227SOL     OW 7579   0.253   4.273   4.721
 2227SOL    HW1 7580   0.322   4.345   4.717
 2227SOL    HW2 7581   0.275   4.201   4.655
 2228SOL     OW 7582   3.213   4.937   5.643
 2228SOL    HW1 7583   3.310   4.919   5.628
 2228SOL    HW2 7584   3.202   5.017   5.703
 2229SOL     OW 7585   4.898   0.461   3.542
 2229SOL    HW1 7586   4.892   0.368   3.506
 2229SOL    HW2 7587   4.978   0.469   3.602
 2230SOL     OW 7588   1.129   6.052   0.258
 2230SOL    HW1 7589   1.043   6.002   0.271
 2230SOL    HW2 7590   1.140   6.074   0.161
 2231SOL     OW 7591   2.849   0.015   1.644
 2231SOL    HW1 7592   2.763   0.055   1.674
 2231SOL    HW2 7593   2.851   6.938   1.670
 2232SOL     OW 7594   6.290   2.865   3.058
 2232SOL    HW1 7595   6.300   2.771   3.090
 2232SOL    HW2 7596   6.380   2.908   3.051
 2233SOL     OW 7597   3.999   0.745   6.696
 2233SOL    HW1 7598   3.985   0.794   6.782
 2233SOL    HW2 7599   4.017   0.649   6.715
 2234SOL     OW 7600   3.465   1.435   0.561
 2234SOL    HW1 7601   3.518   1.369   0.614
 2234SOL    HW2 7602   3.413   1.493   0.623
 2235SOL     OW 7603   1.777   6.772   1.209
 2235SOL    HW1 7604   1.839   6.778   1.287
 2235SOL    HW2 7605   1.799   6.843   1.143
 2236SOL     OW 7606   6.796   4.171   0.937
 2236SOL    HW1 7607   6.722   4.219   0.889
 2236SOL    HW2 7608   6.854   4.125   0.870
 2237SOL     OW 7609   6.388   2.531   4.255
 2237SOL    HW1 7610   6.387   2.431   4.248
 2237SOL    HW2 7611   6.401   2.558   4.350
 2238SOL     OW 7612   1.193   6.358   2.003
 2238SOL    HW1 7613   1.283   6.368   2.044
 2238SOL    HW2 7614   1.202   6.352   1.903
 2239SOL     OW 7615   4.180   5.373   3.138
 2239SOL    HW1 7616   4.174   5.304   3.211
 2239SOL    HW2 7617   4.276   5.398   3.124
 2240SOL     OW 7618   5.638   3.996   2.281
 2240SOL    HW1 7619   5.549   3.959   2.311
 2240SOL    HW2 7620   5.695   4.013   2.361
 2241SOL     OW 7621   0.753   0.581   2.345
 2241SOL    HW1 7622   0.776   0.676   2.322
 2241SOL    HW2 7623   0.667   0.579   2.395
 2242SOL     OW 7624   5.406   2.097   2.480
 2242SOL    HW1 7625   5.315   2.116   2.442
 2242SOL    HW2 7626   5.408   2.124   2.576
 2243SOL     OW 7627   2.427   6.221   5.535
 2243SOL    HW1 7628   2.525   6.240   5.539
 2243SOL    HW2 7629   2.381   6.293   5.483
 2244SOL     OW 7630   2.888   0.317   5.326
 2244SOL    HW1 7631   2.914   0.314   5.423
 2244SOL    HW2 7632   2.819   0.247   5.308
 2245SOL     OW 7633   1.607   1.441   1.354
 2245SOL    HW1 7634   1.519   1.449   1.401
 2245SOL    HW2 7635   1.676   1.407   1.418
 2246SOL     OW 7636   1.543   3.637   5.305
 2246SOL    HW1 7637   1.449   3.665   5.287
 2246SOL    HW2 7638   1.602   3.666   5.230
 2247SOL     OW 7639   1.866   1.912   5.938
 2247SOL    HW1 7640   1.857   1.844   5.865
 2247SOL    HW2 7641   1.777   1.954   5.956
 2248SOL     OW 7642   5.095   3.177   5.152
 2248SOL    HW1 7643   5.003   3.176   5.191
 2248SOL    HW2 7644   5.145   3.257   5.185
 2249SOL     OW 7645   4.824   5.204   4.335
 2249SOL    HW1 7646   4.891   5.157   4.278
 2249SOL    HW2 7647   4.838   5.303   4.328
 2250SOL     OW 7648   6.326   4.436   6.634
 2250SOL    HW1 7649   6.416   4.421   6.676
 2250SOL    HW2 7650   6.296   4.530   6.652
 2251SOL     OW 7651   6.254   0.873   6.630
 2251SOL    HW1 7652   6.158   0.852   6.608
 2251SOL    HW2 7653   6.257   0.958   6.682
 2252SOL     OW 7654   4.209   1.785   5.669
 2252SOL    HW1 7655   4.172   1.877   5.685
 2252SOL    HW2 7656   4.299   1.778   5.714
 2253SOL     OW 7657   2.102   3.271   6.720
 2253SOL    HW1 7658   2.127   3.348   6.778
 2253SOL    HW2 7659   2.018   3.293   6.670
 2254SOL     OW 7660   1.935   3.552   6.542
 2254SOL    HW1 7661   1.910   3.469   6.592
 2254SOL    HW2 7662   1.858   3.583   6.487
 2255SOL     OW 7663   5.787   2.743   1.479
 2255SOL    HW1 7664   5.865   2.691   1.514
 2255SOL    HW2 7665   5.703   2.692   1.496
 2256SOL     OW 7666   4.174   4.849   1.557
 2256SOL    HW1 7667   4.123   4.903   1.625
 2256SOL    HW2 7668   4.144   4.754   1.563
 2257SOL     OW 7669   2.413   4.325   4.210
 2257SOL    HW1 7670   2.341   4.308   4.143
 2257SOL    HW2 7671   2.494   4.360   4.163
 2258SOL     OW 7672   1.595   5.438   3.892
 2258SOL    HW1 7673   1.676   5.383   3.872
 2258SOL    HW2 7674   1.621   5.534   3.905
 2259SOL     OW 7675   6.017   3.073   6.523
 2259SOL    HW1 7676   6.114   3.060   6.541
 2259SOL    HW2 7677   6.003   3.156   6.470
 2260SOL     OW 7678   5.724   5.180   0.765
 2260SOL    HW1 7679   5.764   5.221   0.847
 2260SOL    HW2 7680   5.698   5.086   0.785
 2261SOL     OW 7681   4.689   6.008   6.671
 2261SOL    HW1 7682   4.710   6.039   6.763
 2261SOL    HW2 7683   4.735   6.066   6.604
 2262SOL     OW 7684   4.314   1.753   3.034
 2262SOL    HW1 7685   4.327   1.662   3.075
 2262SOL    HW2 7686   4.340   1.823   3.100
 2263SOL     OW 7687   0.235   5.367   6.331
 2263SOL    HW1 7688   0.309   5.305   6.355
 2263SOL    HW2 7689   0.216   5.428   6.408
 2264SOL     OW 7690   3.518   4.182   4.150
 2264SOL    HW1 7691   3.494   4.273   4.115
 2264SOL    HW2 7692   3.564   4.192   4.238
 2265SOL     OW 7693   0.116   0.711   1.706
 2265SOL    HW1 7694   0.086   0.658   1.627
 2265SOL    HW2 7695   0.215   0.701   1.716
 2266SOL     OW 7696   6.128   6.553   1.046
 2266SOL    HW1 7697   6.164   6.641   1.013
 2266SOL    HW2 7698   6.192   6.480   1.023
 2267SOL     OW 7699   5.992   2.550   5.728
 2267SOL    HW1 7700   5.920   2.541   5.660
 2267SOL    HW2 7701   6.023   2.459   5.756
 2268SOL     OW 7702   6.197   5.636   0.277
 2268SOL    HW1 7703   6.199   5.710   0.209
 2268SOL    HW2 7704   6.240   5.666   0.362
 2269SOL     OW 7705   0.159   5.484   5.188
 2269SOL    HW1 7706   0.226   5.519   5.122
 2269SOL    HW2 7707   0.182   5.390   5.212
 2270SOL     OW 7708   4.161   3.638   1.795
 2270SOL    HW1 7709   4.099   3.640   1.874
 2270SOL    HW2 7710   4.221   3.559   1.802
 2271SOL     OW 7711   6.342   4.380   2.888
 2271SOL    HW1 7712   6.388   4.455   2.840
 2271SOL    HW2 7713   6.314   4.311   2.822
 2272SOL     OW 7714   5.659   2.037   6.480
 2272SOL    HW1 7715   5.749   2.032   6.438
 2272SOL    HW2 7716   5.658   2.108   6.551
 2273SOL     OW 7717   1.583   1.640   3.186
 2273SOL    HW1 7718   1.677   1.670   3.199
 2273SOL    HW2 7719   1.582   1.558   3.129
 2274SOL     OW 7720   2.052   3.581   3.860
 2274SOL    HW1 7721   2.037   3.655   3.794
 2274SOL    HW2 7722   1.966   3.558   3.905
 2275SOL     OW 7723   4.959   5.880   3.643
 2275SOL    HW1 7724   4.987   5.851   3.552
 2275SOL    HW2 7725   4.909   5.806   3.688
 2276SOL     OW 7726   4.909   4.841   1.316
 2276SOL    HW1 7727   4.905   4.749   1.353
 2276SOL    HW2 7728   4.966   4.898   1.375
 2277SOL     OW 7729   2.974   3.978   0.269
 2277SOL    HW1 7730   2.917   4.060   0.265
 2277SOL    HW2 7731   2.966   3.937   0.360
 2278SOL     OW 7732   5.750   6.254   1.168
 2278SOL    HW1 7733   5.674   6.217   1.115
 2278SOL    HW2 7734   5.757   6.353   1.152
 2279SOL     OW 7735   5.629   4.327   4.519
 2279SOL    HW1 7736   5.548   4.385   4.510
 2279SOL    HW2 7737   5.623   4.275   4.605
 2280SOL     OW 7738   5.913   6.647   5.952
 2280SOL    HW1 7739   5.935   6.574   6.016
 2280SOL    HW2 7740   5.906   6.734   6.001
 2281SOL     OW 7741   3.831   3.237   0.798
 2281SOL    HW1 7742   3.795   3.177   0.726
 2281SOL    HW2 7743   3.755   3.282   0.844
 2282SOL     OW 7744   3.880   5.339   2.936
 2282SOL    HW1 7745   3.850   5.372   2.847
 2282SOL    HW2 7746   3.894   5.417   2.997
 2283SOL     OW 7747   6.909   3.681   3.153
 2283SOL    HW1 7748   6.917   3.698   3.055
 2283SOL    HW2 7749   6.962   3.599   3.177
 2284SOL     OW 7750   2.276   2.767   2.190
 2284SOL    HW1 7751   2.345   2.718   2.243
 2284SOL    HW2 7752   2.283   2.741   2.094
 2285SOL     OW 7753   2.296   4.636   0.271
 2285SOL    HW1 7754   2.262   4.542   0.261
 2285SOL    HW2 7755   2.338   4.646   0.361
 2286SOL     OW 7756   5.964   6.519   4.545
 2286SOL    HW1 7757   6.025   6.562   4.612
 2286SOL    HW2 7758   5.962   6.574   4.461
 2287SOL     OW 7759   1.933   3.061   1.697
 2287SOL    HW1 7760   1.934   3.133   1.629
 2287SOL    HW2 7761   1.973   2.977   1.659
 2288SOL     OW 7762   0.094   6.369   3.978
 2288SOL    HW1 7763   0.103   6.432   4.056
 2288SOL    HW2 7764   0.017   6.307   3.994
 2289SOL     OW 7765   4.694   2.899   1.264
 2289SOL    HW1 7766   4.752   2.925   1.341
 2289SOL    HW2 7767   4.629   2.829   1.294
 2290SOL     OW 7768   3.295   3.295   3.176
 2290SOL    HW1 7769   3.271   3.247   3.260
 2290SOL    HW2 7770   3.356   3.237   3.121
 2291SOL     OW 7771   2.105   2.919   0.259
 2291SOL    HW1 7772   2.043   2.886   0.188
 2291SOL    HW2 7773   2.118   2.849   0.328
 2292SOL     OW 7774   4.507   2.246   2.799
 2292SOL    HW1 7775   4.449   2.271   2.721
 2292SOL    HW2 7776   4.469   2.164   2.843
 2293SOL     OW 7777   6.302   1.260   0.001
 2293SOL    HW1 7778   6.287   1.359   7.018
 2293SOL    HW2 7779   6.284   1.221   6.930
 2294SOL     OW 7780   0.385   1.904   5.729
 2294SOL    HW1 7781   0.443   1.823   5.719
 2294SOL    HW2 7782   0.289   1.877   5.719
 2295SOL     OW 7783   6.163   6.329   1.310
 2295SOL    HW1 7784   6.096   6.290   1.248
 2295SOL    HW2 7785   6.232   6.379   1.257
 2296SOL     OW 7786   2.689   5.524   4.287
 2296SOL    HW1 7787   2.695   5.621   4.261
 2296SOL    HW2 7788   2.736   5.510   4.374
 2297SOL     OW 7789   4.336   4.280   5.365
 2297SOL    HW1 7790   4.325   4.359   5.304
 2297SOL    HW2 7791   4.246   4.241   5.386
 2298SOL     OW 7792   4.069   3.337   4.217
 2298SOL    HW1 7793   4.098   3.338   4.122
 2298SOL    HW2 7794   4.065   3.242   4.250
 2299SOL     OW 7795   5.204   3.421   4.908
 2299SOL    HW1 7796   5.200   3.506   4.854
 2299SOL    HW2 7797   5.115   3.376   4.904
 2300SOL     OW 7798   4.419   6.289   2.320
 2300SOL    HW1 7799   4.350   6.243   2.264
 2300SOL    HW2 7800   4.386   6.379   2.346
 2301SOL     OW 7801   3.911   3.090   4.030
 2301SOL    HW1 7802   3.962   3.156   3.975
 2301SOL    HW2 7803   3.946   3.089   4.123
 2302SOL     OW 7804   3.928   2.273   0.210
 2302SOL    HW1 7805   3.902   2.316   0.297
 2302SOL    HW2 7806   4.011   2.316   0.176
 2303SOL     OW 7807   3.994   2.593   0.059
 2303SOL    HW1 7808   3.981   2.494   0.059
 2303SOL    HW2 7809   3.904   2.638   0.066
 2304SOL     OW 7810   5.426   5.921   1.942
 2304SOL    HW1 7811   5.441   5.992   2.009
 2304SOL    HW2 7812   5.501   5.855   1.944
 2305SOL     OW 7813   2.055   0.963   5.449
 2305SOL    HW1 7814   2.043   0.955   5.548
 2305SOL    HW2 7815   1.966   0.977   5.406
 2306SOL     OW 7816   1.821   5.178   4.201
 2306SOL    HW1 7817   1.830   5.227   4.114
 2306SOL    HW2 7818   1.734   5.127   4.202
 2307SOL     OW 7819   0.142   3.234   6.031
 2307SOL    HW1 7820   0.167   3.313   5.975
 2307SOL    HW2 7821   0.223   3.197   6.076
 2308SOL     OW 7822   2.264   4.625   1.714
 2308SOL    HW1 7823   2.362   4.614   1.701
 2308SOL    HW2 7824   2.228   4.692   1.648
 2309SOL     OW 7825   1.828   6.564   5.361
 2309SOL    HW1 7826   1.745   6.531   5.407
 2309SOL    HW2 7827   1.836   6.519   5.272
 2310SOL     OW 7828   4.587   6.424   1.466
 2310SOL    HW1 7829   4.542   6.335   1.458
 2310SOL    HW2 7830   4.588   6.469   1.376
 2311SOL     OW 7831   2.803   5.951   1.585
 2311SOL    HW1 7832   2.875   5.901   1.536
 2311SOL    HW2 7833   2.750   5.887   1.641
 2312SOL     OW 7834   3.179   4.856   2.825
 2312SOL    HW1 7835   3.263   4.884   2.872
 2312SOL    HW2 7836   3.105   4.848   2.892
 2313SOL     OW 7837   4.448   5.802   1.818
 2313SOL    HW1 7838   4.441   5.759   1.728
 2313SOL    HW2 7839   4.543   5.798   1.849
 2314SOL     OW 7840   2.144   5.405   4.267
 2314SOL    HW1 7841   2.193   5.490   4.283
 2314SOL    HW2 7842   2.078   5.390   4.341
 2315SOL     OW 7843   4.526   2.845   6.720
 2315SOL    HW1 7844   4.483   2.924   6.676
 2315SOL    HW2 7845   4.625   2.851   6.709
 2316SOL     OW 7846   5.680   3.211   2.751
 2316SOL    HW1 7847   5.626   3.204   2.835
 2316SOL    HW2 7848   5.619   3.205   2.672
 2317SOL     OW 7849   0.905   5.037   4.001
 2317SOL    HW1 7850   0.967   5.062   4.075
 2317SOL    HW2 7851   0.954   4.984   3.933
 2318SOL     OW 7852   6.728   1.435   3.397
 2318SOL    HW1 7853   6.811   1.389   3.429
 2318SOL    HW2 7854   6.734   1.532   3.419
 2319SOL     OW 7855   0.893   4.330   4.100
 2319SOL    HW1 7856   0.955   4.364   4.171
 2319SOL    HW2 7857   0.882   4.231   4.110
 2320SOL     OW 7858   6.223   4.151   4.771
 2320SOL    HW1 7859   6.253   4.111   4.685
 2320SOL    HW2 7860   6.137   4.200   4.757
 2321SOL     OW 7861   2.716   6.286   5.557
 2321SOL    HW1 7862   2.774   6.335   5.492
 2321SOL    HW2 7863   2.763   6.204   5.590
 2322SOL     OW 7864   2.663   6.983   6.030
 2322SOL    HW1 7865   2.757   6.997   5.998
 2322SOL    HW2 7866   2.652   6.889   6.061
 2323SOL     OW 7867   5.228   5.221   2.103
 2323SOL    HW1 7868   5.274   5.152   2.046
 2323SOL    HW2 7869   5.144   5.182   2.141
 2324SOL     OW 7870   6.491   5.308   3.315
 2324SOL    HW1 7871   6.537   5.393   3.338
 2324SOL    HW2 7872   6.521   5.235   3.377
 2325SOL     OW 7873   6.632   3.487   0.534
 2325SOL    HW1 7874   6.716   3.540   0.523
 2325SOL    HW2 7875   6.655   3.393   0.557
 2326SOL     OW 7876   1.626   5.167   0.019
 2326SOL    HW1 7877   1.682   5.237   6.993
 2326SOL    HW2 7878   1.674   5.135   0.100
 2327SOL     OW 7879   5.023   2.690   5.155
 2327SOL    HW1 7880   5.005   2.679   5.058
 2327SOL    HW2 7881   4.967   2.626   5.208
 2328SOL     OW 7882   5.116   6.213   3.498
 2328SOL    HW1 7883   5.181   6.147   3.459
 2328SOL    HW2 7884   5.089   6.279   3.428
 2329SOL     OW 7885   0.044   5.972   3.771
 2329SOL    HW1 7886   0.013   5.989   3.865
 2329SOL    HW2 7887   6.985   5.964   3.711
 2330SOL     OW 7888   0.334   4.114   2.647
 2330SOL    HW1 7889   0.237   4.089   2.650
 2330SOL    HW2 7890   0.382   4.068   2.721
 2331SOL     OW 7891   0.968   4.628   5.352
 2331SOL    HW1 7892   1.041   4.584   5.404
 2331SOL    HW2 7893   1.008   4.691   5.285
 2332SOL     OW 7894   5.456   2.582   5.215
 2332SOL    HW1 7895   5.487   2.577   5.310
 2332SOL    HW2 7896   5.525   2.629   5.160
 2333SOL     OW 7897   1.136   5.384   4.371
 2333SOL    HW1 7898   1.044   5.389   4.411
 2333SOL    HW2 7899   1.152   5.464   4.314
 2334SOL     OW 7900   2.936   0.019   0.543
 2334SOL    HW1 7901   2.949   6.942   0.567
 2334SOL    HW2 7902   2.845   0.031   0.503
 2335SOL     OW 7903   5.178   6.692   3.895
 2335SOL    HW1 7904   5.102   6.753   3.916
 2335SOL    HW2 7905   5.247   6.698   3.968
 2336SOL     OW 7906   4.581   1.440   6.156
 2336SOL    HW1 7907   4.656   1.452   6.220
 2336SOL    HW2 7908   4.550   1.345   6.158
 2337SOL     OW 7909   5.532   0.557   2.542
 2337SOL    HW1 7910   5.480   0.499   2.604
 2337SOL    HW2 7911   5.587   0.501   2.481
 2338SOL     OW 7912   1.039   6.865   6.327
 2338SOL    HW1 7913   1.106   6.902   6.392
 2338SOL    HW2 7914   1.029   6.766   6.342
 2339SOL     OW 7915   3.710   4.517   0.182
 2339SOL    HW1 7916   3.790   4.458   0.167
 2339SOL    HW2 7917   3.682   4.558   0.096
 2340SOL     OW 7918   3.194   5.024   5.037
 2340SOL    HW1 7919   3.182   5.105   5.096
 2340SOL    HW2 7920   3.150   4.945   5.080
 2341SOL     OW 7921   5.923   5.538   6.669
 2341SOL    HW1 7922   5.900   5.479   6.747
 2341SOL    HW2 7923   5.853   5.529   6.599
 2342SOL     OW 7924   6.704   0.474   5.464
 2342SOL    HW1 7925   6.694   0.418   5.382
 2342SOL    HW2 7926   6.798   0.506   5.473
 2343SOL     OW 7927   1.452   6.808   0.688
 2343SOL    HW1 7928   1.496   6.801   0.599
 2343SOL    HW2 7929   1.356   6.781   0.681
 2344SOL     OW 7930   1.847   2.351   2.394
 2344SOL    HW1 7931   1.929   2.306   2.429
 2344SOL    HW2 7932   1.870   2.405   2.313
 2345SOL     OW 7933   2.127   1.698   4.131
 2345SOL    HW1 7934   2.056   1.629   4.118
 2345SOL    HW2 7935   2.162   1.692   4.225
 2346SOL     OW 7936   4.686   3.396   5.779
 2346SOL    HW1 7937   4.715   3.422   5.687
 2346SOL    HW2 7938   4.603   3.340   5.773
 2347SOL     OW 7939   1.354   3.314   1.344
 2347SOL    HW1 7940   1.378   3.243   1.278
 2347SOL    HW2 7941   1.255   3.327   1.344
 2348SOL     OW 7942   2.613   6.680   1.949
 2348SOL    HW1 7943   2.589   6.611   2.017
 2348SOL    HW2 7944   2.707   6.711   1.965
 2349SOL     OW 7945   5.329   5.540   5.847
 2349SOL    HW1 7946   5.321   5.517   5.750
 2349SOL    HW2 7947   5.302   5.461   5.902
 2350SOL     OW 7948   2.533   6.533   5.323
 2350SOL    HW1 7949   2.587   6.563   5.402
 2350SOL    HW2 7950   2.448   6.491   5.356
 2351SOL     OW 7951   2.361   5.394   4.671
 2351SOL    HW1 7952   2.279   5.367   4.721
 2351SOL    HW2 7953   2.337   5.423   4.579
 2352SOL     OW 7954   0.515   3.447   2.227
 2352SOL    HW1 7955   0.521   3.453   2.127
 2352SOL    HW2 7956   0.592   3.394   2.262
 2353SOL     OW 7957   2.801   3.967   6.464
 2353SOL    HW1 7958   2.837   3.996   6.553
 2353SOL    HW2 7959   2.759   4.045   6.418
 2354SOL     OW 7960   4.092   2.541   0.486
 2354SOL    HW1 7961   3.995   2.529   0.466
 2354SOL    HW2 7962   4.114   2.501   0.574
 2355SOL     OW 7963   0.620   6.898   0.921
 2355SOL    HW1 7964   0.590   6.813   0.964
 2355SOL    HW2 7965   0.540   6.951   0.893
 2356SOL     OW 7966   2.851   5.066   3.366
 2356SOL    HW1 7967   2.807   5.077   3.277
 2356SOL    HW2 7968   2.920   5.138   3.378
 2357SOL     OW 7969   6.473   4.563   1.490
 2357SOL    HW1 7970   6.450   4.605   1.402
 2357SOL    HW2 7971   6.572   4.571   1.506
 2358SOL     OW 7972   4.212   1.476   5.663
 2358SOL    HW1 7973   4.119   1.498   5.694
 2358SOL    HW2 7974   4.215   1.476   5.563
 2359SOL     OW 7975   1.356   1.530   5.690
 2359SOL    HW1 7976   1.386   1.477   5.610
 2359SOL    HW2 7977   1.433   1.542   5.753
 2360SOL     OW 7978   4.536   4.544   0.379
 2360SOL    HW1 7979   4.577   4.614   0.436
 2360SOL    HW2 7980   4.606   4.477   0.353
 2361SOL     OW 7981   3.959   6.019   1.685
 2361SOL    HW1 7982   3.868   6.057   1.670
 2361SOL    HW2 7983   4.014   6.030   1.602
 2362SOL     OW 7984   3.988   6.159   3.829
 2362SOL    HW1 7985   3.953   6.070   3.800
 2362SOL    HW2 7986   4.066   6.145   3.891
 2363SOL     OW 7987   2.826   3.857   0.838
 2363SOL    HW1 7988   2.911   3.908   0.820
 2363SOL    HW2 7989   2.754   3.893   0.779
 2364SOL     OW 7990   4.325   1.600   2.378
 2364SOL    HW1 7991   4.265   1.632   2.305
 2364SOL    HW2 7992   4.405   1.660   2.385
 2365SOL     OW 7993   4.826   3.181   3.634
 2365SOL    HW1 7994   4.906   3.188   3.575
 2365SOL    HW2 7995   4.746   3.155   3.580
 2366SOL     OW 7996   2.675   4.670   5.247
 2366SOL    HW1 7997   2.605   4.635   5.184
 2366SOL    HW2 7998   2.766   4.642   5.216
 2367SOL     OW 7999   6.844   4.577   5.921
 2367SOL    HW1 8000   6.818   4.582   6.018
 2367SOL    HW2 8001   6.928   4.629   5.907
 2368SOL     OW 8002   5.312   6.426   4.112
 2368SOL    HW1 8003   5.213   6.409   4.118
 2368SOL    HW2 8004   5.353   6.416   4.202
 2369SOL     OW 8005   3.084   1.836   4.660
 2369SOL    HW1 8006   3.073   1.870   4.753
 2369SOL    HW2 8007   3.123   1.743   4.663
 2370SOL     OW 8008   5.408   2.705   1.082
 2370SOL    HW1 8009   5.393   2.622   1.028
 2370SOL    HW2 8010   5.506   2.725   1.087
 2371SOL     OW 8011   0.966   6.964   3.192
 2371SOL    HW1 8012   1.046   6.917   3.154
 2371SOL    HW2 8013   0.891   6.899   3.202
 2372SOL     OW 8014   6.150   1.176   6.246
 2372SOL    HW1 8015   6.228   1.120   6.274
 2372SOL    HW2 8016   6.168   1.215   6.155
 2373SOL     OW 8017   5.973   5.830   6.146
 2373SOL    HW1 8018   5.924   5.917   6.144
 2373SOL    HW2 8019   6.024   5.818   6.061
 2374SOL     OW 8020   6.056   6.352   2.007
 2374SOL    HW1 8021   6.000   6.325   2.085
 2374SOL    HW2 8022   6.020   6.436   1.968
 2375SOL     OW 8023   0.958   0.220   4.442
 2375SOL    HW1 8024   0.889   0.149   4.431
 2375SOL    HW2 8025   1.039   0.181   4.486
 2376SOL     OW 8026   5.810   1.218   3.040
 2376SOL    HW1 8027   5.833   1.142   3.102
 2376SOL    HW2 8028   5.892   1.243   2.988
 2377SOL     OW 8029   4.770   4.972   5.451
 2377SOL    HW1 8030   4.685   4.920   5.443
 2377SOL    HW2 8031   4.780   5.031   5.371
 2378SOL     OW 8032   6.861   1.033   0.587
 2378SOL    HW1 8033   6.869   1.131   0.569
 2378SOL    HW2 8034   6.766   1.004   0.574
 2379SOL     OW 8035   0.085   5.306   1.066
 2379SOL    HW1 8036   0.123   5.354   0.988
 2379SOL    HW2 8037   0.082   5.207   1.048
 2380SOL     OW 8038   4.932   4.617   5.194
 2380SOL    HW1 8039   4.921   4.518   5.200
 2380SOL    HW2 8040   5.030   4.640   5.191
 2381SOL     OW 8041   2.547   4.764   4.900
 2381SOL    HW1 8042   2.542   4.733   4.805
 2381SOL    HW2 8043   2.508   4.693   4.960
 2382SOL     OW 8044   0.961   6.090   2.288
 2382SOL    HW1 8045   0.954   6.174   2.234
 2382SOL    HW2 8046   0.889   6.088   2.357
 2383SOL     OW 8047   5.591   5.398   5.178
 2383SOL    HW1 8048   5.608   5.305   5.210
 2383SOL    HW2 8049   5.604   5.462   5.254
 2384SOL     OW 8050   0.763   1.779   2.227
 2384SOL    HW1 8051   0.682   1.829   2.196
 2384SOL    HW2 8052   0.761   1.771   2.327
 2385SOL     OW 8053   0.820   2.118   1.206
 2385SOL    HW1 8054   0.900   2.095   1.151
 2385SOL    HW2 8055   0.793   2.212   1.187
 2386SOL     OW 8056   4.862   5.938   4.486
 2386SOL    HW1 8057   4.858   6.037   4.502
 2386SOL    HW2 8058   4.774   5.897   4.510
 2387SOL     OW 8059   1.235   1.883   4.263
 2387SOL    HW1 8060   1.181   1.968   4.257
 2387SOL    HW2 8061   1.297   1.878   4.185
 2388SOL     OW 8062   6.946   1.897   5.567
 2388SOL    HW1 8063   6.984   1.808   5.590
 2388SOL    HW2 8064   6.846   1.895   5.579
 2389SOL     OW 8065   5.441   4.565   4.174
 2389SOL    HW1 8066   5.482   4.622   4.103
 2389SOL    HW2 8067   5.404   4.482   4.132
 2390SOL     OW 8068   4.162   4.178   5.764
 2390SOL    HW1 8069   4.084   4.236   5.739
 2390SOL    HW2 8070   4.143   4.136   5.853
 2391SOL     OW 8071   3.638   4.190   6.168
 2391SOL    HW1 8072   3.638   4.264   6.101
 2391SOL    HW2 8073   3.682   4.222   6.252
 2392SOL     OW 8074   4.092   5.096   5.792
 2392SOL    HW1 8075   4.012   5.044   5.761
 2392SOL    HW2 8076   4.061   5.183   5.830
 2393SOL     OW 8077   3.091   5.443   1.828
 2393SOL    HW1 8078   3.066   5.539   1.816
 2393SOL    HW2 8079   3.188   5.436   1.850
 2394SOL     OW 8080   1.093   2.838   3.405
 2394SOL    HW1 8081   1.113   2.815   3.500
 2394SOL    HW2 8082   1.125   2.763   3.346
 2395SOL     OW 8083   0.067   1.867   4.371
 2395SOL    HW1 8084   0.164   1.864   4.398
 2395SOL    HW2 8085   0.043   1.783   4.322
 2396SOL     OW 8086   6.513   1.129   5.159
 2396SOL    HW1 8087   6.532   1.081   5.073
 2396SOL    HW2 8088   6.508   1.062   5.234
 2397SOL     OW 8089   0.400   4.652   5.374
 2397SOL    HW1 8090   0.441   4.685   5.460
 2397SOL    HW2 8091   0.354   4.727   5.328
 2398SOL     OW 8092   3.094   5.942   3.420
 2398SOL    HW1 8093   3.037   5.984   3.490
 2398SOL    HW2 8094   3.109   6.007   3.345
 2399SOL     OW 8095   2.713   2.410   4.084
 2399SOL    HW1 8096   2.759   2.461   4.157
 2399SOL    HW2 8097   2.614   2.410   4.100
 2400SOL     OW 8098   0.407   4.338   0.641
 2400SOL    HW1 8099   0.338   4.277   0.681
 2400SOL    HW2 8100   0.422   4.415   0.702
 2401SOL     OW 8101   3.392   6.789   5.709
 2401SOL    HW1 8102   3.295   6.768   5.699
 2401SOL    HW2 8103   3.446   6.728   5.652
 2402SOL     OW 8104   1.164   4.636   2.591
 2402SOL    HW1 8105   1.236   4.592   2.538
 2402SOL    HW2 8106   1.075   4.600   2.563
 2403SOL     OW 8107   3.802   4.033   2.909
 2403SOL    HW1 8108   3.867   3.997   2.842
 2403SOL    HW2 8109   3.844   4.032   3.000
 2404SOL     OW 8110   6.002   1.776   0.858
 2404SOL    HW1 8111   6.000   1.707   0.786
 2404SOL    HW2 8112   6.046   1.737   0.939
 2405SOL     OW 8113   2.281   3.207   0.827
 2405SOL    HW1 8114   2.332   3.217   0.742
 2405SOL    HW2 8115   2.193   3.164   0.808
 2406SOL     OW 8116   2.129   6.344   4.475
 2406SOL    HW1 8117   2.160   6.439   4.476
 2406SOL    HW2 8118   2.202   6.286   4.510
 2407SOL     OW 8119   3.606   1.534   3.727
 2407SOL    HW1 8120   3.510   1.528   3.757
 2407SOL    HW2 8121   3.609   1.578   3.637
 2408SOL     OW 8122   3.125   5.651   5.021
 2408SOL    HW1 8123   3.186   5.730   5.016
 2408SOL    HW2 8124   3.151   5.595   5.100
 2409SOL     OW 8125   1.673   2.791   1.617
 2409SOL    HW1 8126   1.649   2.696   1.598
 2409SOL    HW2 8127   1.712   2.833   1.535
 2410SOL     OW 8128   0.701   3.362   5.233
 2410SOL    HW1 8129   0.649   3.367   5.318
 2410SOL    HW2 8130   0.777   3.427   5.237
 2411SOL     OW 8131   2.817   4.209   0.220
 2411SOL    HW1 8132   2.883   4.284   0.215
 2411SOL    HW2 8133   2.727   4.242   0.191
 2412SOL     OW 8134   3.780   1.633   6.769
 2412SOL    HW1 8135   3.718   1.557   6.748
 2412SOL    HW2 8136   3.727   1.717   6.780
 2413SOL     OW 8137   6.490   2.638   0.013
 2413SOL    HW1 8138   6.518   2.724   0.056
 2413SOL    HW2 8139   6.570   2.583   7.012
 2414SOL     OW 8140   6.254   2.587   4.596
 2414SOL    HW1 8141   6.182   2.577   4.527
 2414SOL    HW2 8142   6.249   2.511   4.660
 2415SOL     OW 8143   2.611   5.742   0.932
 2415SOL    HW1 8144   2.618   5.644   0.950
 2415SOL    HW2 8145   2.561   5.787   1.006
 2416SOL     OW 8146   6.858   3.736   2.466
 2416SOL    HW1 8147   6.859   3.687   2.379
 2416SOL    HW2 8148   6.949   3.734   2.507
 2417SOL     OW 8149   3.301   3.393   1.115
 2417SOL    HW1 8150   3.253   3.341   1.185
 2417SOL    HW2 8151   3.394   3.359   1.105
 2418SOL     OW 8152   4.523   3.857   5.652
 2418SOL    HW1 8153   4.463   3.937   5.650
 2418SOL    HW2 8154   4.467   3.774   5.652
 2419SOL     OW 8155   1.529   6.512   4.388
 2419SOL    HW1 8156   1.437   6.473   4.379
 2419SOL    HW2 8157   1.568   6.526   4.297
 2420SOL     OW 8158   1.587   4.259   2.540
 2420SOL    HW1 8159   1.491   4.287   2.544
 2420SOL    HW2 8160   1.602   4.181   2.601
 2421SOL     OW 8161   2.626   6.647   4.091
 2421SOL    HW1 8162   2.699   6.681   4.149
 2421SOL    HW2 8163   2.648   6.554   4.060
 2422SOL     OW 8164   4.548   6.281   0.267
 2422SOL    HW1 8165   4.609   6.360   0.271
 2422SOL    HW2 8166   4.579   6.219   0.195
 2423SOL     OW 8167   2.471   5.199   2.265
 2423SOL    HW1 8168   2.513   5.283   2.299
 2423SOL    HW2 8169   2.534   5.122   2.279
 2424SOL     OW 8170   5.676   1.253   5.731
 2424SOL    HW1 8171   5.585   1.269   5.692
 2424SOL    HW2 8172   5.727   1.339   5.731
 2425SOL     OW 8173   5.257   5.463   5.230
 2425SOL    HW1 8174   5.298   5.549   5.199
 2425SOL    HW2 8175   5.307   5.429   5.309
 2426SOL     OW 8176   2.049   5.057   5.996
 2426SOL    HW1 8177   1.980   5.013   6.054
 2426SOL    HW2 8178   2.124   5.090   6.053
 2427SOL     OW 8179   5.054   0.580   0.097
 2427SOL    HW1 8180   4.994   0.653   0.130
 2427SOL    HW2 8181   5.129   0.619   0.044
 2428SOL     OW 8182   0.279   0.792   3.396
 2428SOL    HW1 8183   0.308   0.699   3.375
 2428SOL    HW2 8184   0.347   0.857   3.361
 2429SOL     OW 8185   5.176   5.659   1.517
 2429SOL    HW1 8186   5.252   5.607   1.556
 2429SOL    HW2 8187   5.206   5.753   1.498
 2430SOL     OW 8188   6.346   2.162   6.529
 2430SOL    HW1 8189   6.431   2.215   6.527
 2430SOL    HW2 8190   6.307   2.166   6.621
 2431SOL     OW 8191   0.007   2.245   1.308
 2431SOL    HW1 8192   0.056   2.191   1.377
 2431SOL    HW2 8193   0.063   2.324   1.282
 2432SOL     OW 8194   3.423   5.144   2.403
 2432SOL    HW1 8195   3.373   5.105   2.480
 2432SOL    HW2 8196   3.424   5.244   2.410
 2433SOL     OW 8197   6.573   4.353   6.804
 2433SOL    HW1 8198   6.563   4.255   6.786
 2433SOL    HW2 8199   6.656   4.386   6.761
 2434SOL     OW 8200   4.568   1.524   2.872
 2434SOL    HW1 8201   4.650   1.579   2.858
 2434SOL    HW2 8202   4.592   1.441   2.922
 2435SOL     OW 8203   5.620   6.525   6.758
 2435SOL    HW1 8204   5.640   6.507   6.661
 2435SOL    HW2 8205   5.695   6.577   6.798
 2436SOL     OW 8206   2.338   1.694   1.983
 2436SOL    HW1 8207   2.410   1.721   1.919
 2436SOL    HW2 8208   2.374   1.626   2.047
 2437SOL     OW 8209   0.122   4.712   2.768
 2437SOL    HW1 8210   0.186   4.657   2.714
 2437SOL    HW2 8211   0.173   4.767   2.834
 2438SOL     OW 8212   3.312   1.562   5.074
 2438SOL    HW1 8213   3.239   1.631   5.070
 2438SOL    HW2 8214   3.361   1.561   4.987
 2439SOL     OW 8215   0.652   5.896   0.963
 2439SOL    HW1 8216   0.620   5.983   1.000
 2439SOL    HW2 8217   0.589   5.823   0.989
 2440SOL     OW 8218   5.163   1.017   5.280
 2440SOL    HW1 8219   5.124   1.068   5.204
 2440SOL    HW2 8220   5.092   0.996   5.347
 2441SOL     OW 8221   5.819   0.207   0.157
 2441SOL    HW1 8222   5.879   0.287   0.159
 2441SOL    HW2 8223   5.813   0.172   0.064
 2442SOL     OW 8224   4.974   3.212   2.048
 2442SOL    HW1 8225   4.952   3.144   2.118
 2442SOL    HW2 8226   5.069   3.199   2.018
 2443SOL     OW 8227   1.955   2.134   0.798
 2443SOL    HW1 8228   1.862   2.154   0.767
 2443SOL    HW2 8229   1.976   2.038   0.782
 2444SOL     OW 8230   3.605   5.827   1.528
 2444SOL    HW1 8231   3.547   5.804   1.606
 2444SOL    HW2 8232   3.548   5.839   1.447
 2445SOL     OW 8233   6.759   2.766   0.807
 2445SOL    HW1 8234   6.744   2.848   0.751
 2445SOL    HW2 8235   6.758   2.792   0.904
 2446SOL     OW 8236   1.733   4.289   1.136
 2446SOL    HW1 8237   1.657   4.325   1.082
 2446SOL    HW2 8238   1.700   4.264   1.227
 2447SOL     OW 8239   3.584   0.121   0.703
 2447SOL    HW1 8240   3.498   0.150   0.662
 2447SOL    HW2 8241   3.589   0.021   0.704
 2448SOL     OW 8242   5.888   1.554   3.427
 2448SOL    HW1 8243   5.959   1.538   3.496
 2448SOL    HW2 8244   5.845   1.467   3.403
 2449SOL     OW 8245   1.573   4.467   1.634
 2449SOL    HW1 8246   1.508   4.420   1.573
 2449SOL    HW2 8247   1.592   4.558   1.598
 2450SOL     OW 8248   1.710   6.010   6.235
 2450SOL    HW1 8249   1.732   6.013   6.138
 2450SOL    HW2 8250   1.726   6.100   6.276
 2451SOL     OW 8251   0.719   0.279   4.886
 2451SOL    HW1 8252   0.756   0.366   4.852
 2451SOL    HW2 8253   0.680   0.293   4.977
 2452SOL     OW 8254   2.761   1.961   3.926
 2452SOL    HW1 8255   2.688   1.996   3.867
 2452SOL    HW2 8256   2.749   1.997   4.018
 2453SOL     OW 8257   0.818   1.594   6.463
 2453SOL    HW1 8258   0.906   1.639   6.449
 2453SOL    HW2 8259   0.745   1.649   6.424
 2454SOL     OW 8260   3.649   5.562   0.960
 2454SOL    HW1 8261   3.572   5.511   0.921
 2454SOL    HW2 8262   3.702   5.604   0.886
 2455SOL     OW 8263   4.028   1.275   0.286
 2455SOL    HW1 8264   4.072   1.219   0.216
 2455SOL    HW2 8265   4.041   1.372   0.264
 2456SOL     OW 8266   0.723   4.609   6.650
 2456SOL    HW1 8267   0.820   4.601   6.674
 2456SOL    HW2 8268   0.696   4.532   6.592
 2457SOL     OW 8269   5.517   2.128   5.325
 2457SOL    HW1 8270   5.527   2.129   5.424
 2457SOL    HW2 8271   5.470   2.045   5.296
 2458SOL     OW 8272   1.450   6.872   2.269
 2458SOL    HW1 8273   1.443   6.917   2.180
 2458SOL    HW2 8274   1.475   6.938   2.339
 2459SOL     OW 8275   2.641   6.148   1.326
 2459SOL    HW1 8276   2.666   6.057   1.357
 2459SOL    HW2 8277   2.701   6.216   1.370
 2460SOL     OW 8278   1.708   0.936   5.870
 2460SOL    HW1 8279   1.740   1.005   5.934
 2460SOL    HW2 8280   1.625   0.968   5.825
 2461SOL     OW 8281   3.890   0.969   4.439
 2461SOL    HW1 8282   3.961   0.932   4.379
 2461SOL    HW2 8283   3.801   0.961   4.393
 2462SOL     OW 8284   0.325   5.267   0.882
 2462SOL    HW1 8285   0.395   5.326   0.841
 2462SOL    HW2 8286   0.339   5.263   0.981
 2463SOL     OW 8287   7.018   1.046   6.273
 2463SOL    HW1 8288   7.004   1.094   6.360
 2463SOL    HW2 8289   0.028   0.952   6.290
 2464SOL     OW 8290   0.655   2.080   3.044
 2464SOL    HW1 8291   0.702   2.151   3.097
 2464SOL    HW2 8292   0.590   2.032   3.103
 2465SOL     OW 8293   1.025   4.763   5.680
 2465SOL    HW1 8294   1.067   4.673   5.679
 2465SOL    HW2 8295   1.083   4.827   5.732
 2466SOL     OW 8296   1.139   2.243   2.021
 2466SOL    HW1 8297   1.235   2.259   2.043
 2466SOL    HW2 8298   1.116   2.288   1.935
 2467SOL     OW 8299   5.023   1.245   5.815
 2467SOL    HW1 8300   5.117   1.276   5.825
 2467SOL    HW2 8301   4.961   1.315   5.851
 2468SOL     OW 8302   3.565   6.996   5.502
 2468SOL    HW1 8303   3.652   6.981   5.456
 2468SOL    HW2 8304   3.530   6.910   5.538
 2469SOL     OW 8305   3.474   2.748   5.330
 2469SOL    HW1 8306   3.506   2.654   5.332
 2469SOL    HW2 8307   3.545   2.807   5.291
 2470SOL     OW 8308   3.489   5.072   0.511
 2470SOL    HW1 8309   3.439   5.132   0.449
 2470SOL    HW2 8310   3.467   4.976   0.491
 2471SOL     OW 8311   4.219   6.179   1.305
 2471SOL    HW1 8312   4.290   6.160   1.237
 2471SOL    HW2 8313   4.232   6.271   1.342
 2472SOL     OW 8314   4.768   1.977   4.090
 2472SOL    HW1 8315   4.739   2.038   4.164
 2472SOL    HW2 8316   4.688   1.941   4.043
 2473SOL     OW 8317   0.541   4.526   5.068
 2473SOL    HW1 8318   0.475   4.461   5.106
 2473SOL    HW2 8319   0.597   4.563   5.142
 2474SOL     OW 8320   1.163   5.807   1.391
 2474SOL    HW1 8321   1.195   5.890   1.436
 2474SOL    HW2 8322   1.063   5.808   1.388
 2475SOL     OW 8323   5.047   0.402   0.700
 2475SOL    HW1 8324   5.070   0.476   0.637
 2475SOL    HW2 8325   5.131   0.362   0.737
 2476SOL     OW 8326   6.182   0.401   0.650
 2476SOL    HW1 8327   6.209   0.445   0.736
 2476SOL    HW2 8328   6.113   0.330   0.670
 2477SOL     OW 8329   3.726   0.726   3.521
 2477SOL    HW1 8330   3.774   0.771   3.446
 2477SOL    HW2 8331   3.731   0.627   3.510
 2478SOL     OW 8332   4.270   1.497   3.171
 2478SOL    HW1 8333   4.311   1.546   3.248
 2478SOL    HW2 8334   4.316   1.409   3.160
 2479SOL     OW 8335   0.683   2.927   0.880
 2479SOL    HW1 8336   0.696   2.835   0.915
 2479SOL    HW2 8337   0.764   2.982   0.899
 2480SOL     OW 8338   3.323   2.395   1.065
 2480SOL    HW1 8339   3.263   2.401   1.144
 2480SOL    HW2 8340   3.292   2.460   0.995
 2481SOL     OW 8341   3.531   0.975   1.505
 2481SOL    HW1 8342   3.484   1.063   1.519
 2481SOL    HW2 8343   3.626   0.982   1.536
 2482SOL     OW 8344   5.485   3.802   7.007
 2482SOL    HW1 8345   5.535   3.715   7.008
 2482SOL    HW2 8346   5.546   3.876   0.016
 2483SOL     OW 8347   0.731   2.556   0.379
 2483SOL    HW1 8348   0.700   2.648   0.356
 2483SOL    HW2 8349   0.753   2.506   0.295
 2484SOL     OW 8350   4.959   1.571   2.422
 2484SOL    HW1 8351   4.865   1.600   2.438
 2484SOL    HW2 8352   4.972   1.554   2.324
 2485SOL     OW 8353   5.073   2.152   6.228
 2485SOL    HW1 8354   5.010   2.143   6.151
 2485SOL    HW2 8355   5.022   2.149   6.313
 2486SOL     OW 8356   0.470   4.391   5.994
 2486SOL    HW1 8357   0.486   4.295   5.972
 2486SOL    HW2 8358   0.411   4.397   6.074
 2487SOL     OW 8359   4.899   6.239   0.797
 2487SOL    HW1 8360   4.895   6.151   0.751
 2487SOL    HW2 8361   4.946   6.229   0.885
 2488SOL     OW 8362   6.929   4.295   2.048
 2488SOL    HW1 8363   6.923   4.395   2.046
 2488SOL    HW2 8364   6.982   4.264   1.969
 2489SOL     OW 8365   0.213   6.218   4.239
 2489SOL    HW1 8366   0.293   6.208   4.180
 2489SOL    HW2 8367   0.142   6.153   4.211
 2490SOL     OW 8368   1.469   6.199   2.346
 2490SOL    HW1 8369   1.387   6.164   2.392
 2490SOL    HW2 8370   1.528   6.123   2.321
 2491SOL     OW 8371   4.076   4.597   1.586
 2491SOL    HW1 8372   3.995   4.572   1.532
 2491SOL    HW2 8373   4.127   4.515   1.610
 2492SOL     OW 8374   4.928   3.396   0.583
 2492SOL    HW1 8375   4.950   3.301   0.604
 2492SOL    HW2 8376   4.889   3.402   0.491
 2493SOL     OW 8377   6.955   6.522   1.531
 2493SOL    HW1 8378   6.868   6.570   1.521
 2493SOL    HW2 8379   6.954   6.440   1.474
 2494SOL     OW 8380   5.979   2.608   1.618
 2494SOL    HW1 8381   5.968   2.508   1.623
 2494SOL    HW2 8382   5.948   2.649   1.704
 2495SOL     OW 8383   5.077   5.721   3.432
 2495SOL    HW1 8384   5.145   5.653   3.460
 2495SOL    HW2 8385   5.035   5.692   3.345
 2496SOL     OW 8386   0.101   3.661   6.728
 2496SOL    HW1 8387   0.053   3.651   6.815
 2496SOL    HW2 8388   0.088   3.578   6.674
 2497SOL     OW 8389   0.292   0.638   0.898
 2497SOL    HW1 8390   0.234   0.609   0.821
 2497SOL    HW2 8391   0.376   0.677   0.863
 2498SOL     OW 8392   3.196   2.913   5.868
 2498SOL    HW1 8393   3.278   2.966   5.884
 2498SOL    HW2 8394   3.141   2.957   5.797
 2499SOL     OW 8395   6.018   3.323   1.023
 2499SOL    HW1 8396   5.997   3.236   0.978
 2499SOL    HW2 8397   5.941   3.386   1.011
 2500SOL     OW 8398   3.562   3.810   6.066
 2500SOL    HW1 8399   3.487   3.746   6.085
 2500SOL    HW2 8400   3.639   3.760   6.027
 2501SOL     OW 8401   5.885   5.945   6.908
 2501SOL    HW1 8402   5.862   5.906   6.998
 2501SOL    HW2 8403   5.948   5.884   6.860
 2502SOL     OW 8404   2.318   6.237   5.142
 2502SOL    HW1 8405   2.387   6.226   5.071
 2502SOL    HW2 8406   2.227   6.240   5.100
 2503SOL     OW 8407   3.039   6.367   5.749
 2503SOL    HW1 8408   3.081   6.334   5.834
 2503SOL    HW2 8409   2.994   6.455   5.767
 2504SOL     OW 8410   3.041   5.119   2.443
 2504SOL    HW1 8411   3.034   5.055   2.520
 2504SOL    HW2 8412   3.068   5.209   2.477
 2505SOL     OW 8413   0.348   5.841   3.303
 2505SOL    HW1 8414   0.365   5.907   3.376
 2505SOL    HW2 8415   0.364   5.749   3.338
 2506SOL     OW 8416   6.047   3.619   6.004
 2506SOL    HW1 8417   6.030   3.629   5.905
 2506SOL    HW2 8418   5.960   3.625   6.053
 2507SOL     OW 8419   6.803   3.269   6.966
 2507SOL    HW1 8420   6.715   3.226   6.987
 2507SOL    HW2 8421   6.832   3.242   6.874
 2508SOL     OW 8422   2.807   2.282   4.855
 2508SOL    HW1 8423   2.894   2.241   4.827
 2508SOL    HW2 8424   2.815   2.316   4.949
 2509SOL     OW 8425   6.759   4.104   7.009
 2509SOL    HW1 8426   6.703   4.022   7.015
 2509SOL    HW2 8427   6.822   4.096   6.932
 2510SOL     OW 8428   3.705   4.090   1.317
 2510SOL    HW1 8429   3.709   4.002   1.364
 2510SOL    HW2 8430   3.610   4.115   1.299
 2511SOL     OW 8431   2.334   1.339   5.267
 2511SOL    HW1 8432   2.338   1.379   5.175
 2511SOL    HW2 8433   2.295   1.247   5.262
 2512SOL     OW 8434   3.794   4.584   5.306
 2512SOL    HW1 8435   3.889   4.614   5.292
 2512SOL    HW2 8436   3.784   4.489   5.276
 2513SOL     OW 8437   2.160   6.118   5.858
 2513SOL    HW1 8438   2.155   6.058   5.938
 2513SOL    HW2 8439   2.243   6.175   5.864
 2514SOL     OW 8440   0.595   3.515   4.297
 2514SOL    HW1 8441   0.631   3.459   4.222
 2514SOL    HW2 8442   0.665   3.578   4.329
 2515SOL     OW 8443   2.251   0.330   1.471
 2515SOL    HW1 8444   2.165   0.290   1.502
 2515SOL    HW2 8445   2.235   0.390   1.392
 2516SOL     OW 8446   4.767   1.341   2.970
 2516SOL    HW1 8447   4.824   1.345   2.888
 2516SOL    HW2 8448   4.780   1.254   3.016
 2517SOL     OW 8449   2.237   0.431   5.834
 2517SOL    HW1 8450   2.271   0.524   5.850
 2517SOL    HW2 8451   2.307   0.365   5.863
 2518SOL     OW 8452   1.978   5.810   0.984
 2518SOL    HW1 8453   2.054   5.809   0.918
 2518SOL    HW2 8454   1.932   5.721   0.983
 2519SOL     OW 8455   3.495   1.120   1.212
 2519SOL    HW1 8456   3.442   1.036   1.208
 2519SOL    HW2 8457   3.494   1.156   1.305
 2520SOL     OW 8458   3.550   2.079   6.824
 2520SOL    HW1 8459   3.565   1.981   6.806
 2520SOL    HW2 8460   3.454   2.094   6.848
 2521SOL     OW 8461   3.847   1.921   5.548
 2521SOL    HW1 8462   3.764   1.965   5.583
 2521SOL    HW2 8463   3.919   1.989   5.536
 2522SOL     OW 8464   0.913   1.844   5.337
 2522SOL    HW1 8465   0.909   1.792   5.423
 2522SOL    HW2 8466   0.974   1.922   5.348
 2523SOL     OW 8467   1.578   3.959   0.898
 2523SOL    HW1 8468   1.575   3.941   0.996
 2523SOL    HW2 8469   1.673   3.955   0.866
 2524SOL     OW 8470   0.248   6.752   4.887
 2524SOL    HW1 8471   0.177   6.778   4.952
 2524SOL    HW2 8472   0.318   6.697   4.934
 2525SOL     OW 8473   1.355   3.337   4.833
 2525SOL    HW1 8474   1.292   3.263   4.809
 2525SOL    HW2 8475   1.405   3.312   4.916
 2526SOL     OW 8476   1.728   4.708   6.947
 2526SOL    HW1 8477   1.790   4.690   6.870
 2526SOL    HW2 8478   1.702   4.805   6.945
 2527SOL     OW 8479   5.554   5.710   5.588
 2527SOL    HW1 8480   5.644   5.689   5.625
 2527SOL    HW2 8481   5.520   5.794   5.630
 2528SOL     OW 8482   5.373   4.098   5.334
 2528SOL    HW1 8483   5.445   4.156   5.294
 2528SOL    HW2 8484   5.391   4.085   5.431
 2529SOL     OW 8485   0.649   0.396   6.513
 2529SOL    HW1 8486   0.729   0.361   6.562
 2529SOL    HW2 8487   0.677   0.432   6.424
 2530SOL     OW 8488   2.381   5.806   5.645
 2530SOL    HW1 8489   2.394   5.877   5.575
 2530SOL    HW2 8490   2.331   5.729   5.605
 2531SOL     OW 8491   5.591   5.658   6.004
 2531SOL    HW1 8492   5.494   5.634   5.999
 2531SOL    HW2 8493   5.646   5.574   6.009
 2532SOL     OW 8494   0.213   6.356   0.848
 2532SOL    HW1 8495   0.184   6.367   0.753
 2532SOL    HW2 8496   0.309   6.384   0.857
 2533SOL     OW 8497   4.521   1.394   3.793
 2533SOL    HW1 8498   4.446   1.328   3.796
 2533SOL    HW2 8499   4.544   1.424   3.885
 2534SOL     OW 8500   4.569   1.317   1.574
 2534SOL    HW1 8501   4.601   1.359   1.659
 2534SOL    HW2 8502   4.629   1.345   1.499
 2535SOL     OW 8503   3.086   2.649   6.993
 2535SOL    HW1 8504   3.093   2.670   0.071
 2535SOL    HW2 8505   3.167   2.684   6.946
 2536SOL     OW 8506   1.442   0.979   6.145
 2536SOL    HW1 8507   1.505   0.989   6.221
 2536SOL    HW2 8508   1.444   0.884   6.112
 2537SOL     OW 8509   3.340   6.731   6.189
 2537SOL    HW1 8510   3.403   6.691   6.122
 2537SOL    HW2 8511   3.384   6.811   6.232
 2538SOL     OW 8512   0.357   4.249   3.894
 2538SOL    HW1 8513   0.292   4.173   3.904
 2538SOL    HW2 8514   0.318   4.319   3.834
 2539SOL     OW 8515   5.494   0.628   3.874
 2539SOL    HW1 8516   5.416   0.628   3.812
 2539SOL    HW2 8517   5.540   0.716   3.870
 2540SOL     OW 8518   4.429   2.017   2.893
 2540SOL    HW1 8519   4.371   1.967   2.829
 2540SOL    HW2 8520   4.458   1.956   2.967
 2541SOL     OW 8521   2.477   6.783   5.614
 2541SOL    HW1 8522   2.402   6.782   5.548
 2541SOL    HW2 8523   2.537   6.705   5.598
 2542SOL     OW 8524   3.240   3.977   6.798
 2542SOL    HW1 8525   3.189   3.897   6.765
 2542SOL    HW2 8526   3.182   4.058   6.791
 2543SOL     OW 8527   1.246   1.504   3.905
 2543SOL    HW1 8528   1.306   1.522   3.827
 2543SOL    HW2 8529   1.193   1.420   3.887
 2544SOL     OW 8530   0.370   6.136   0.721
 2544SOL    HW1 8531   0.442   6.194   0.682
 2544SOL    HW2 8532   0.327   6.183   0.797
 2545SOL     OW 8533   1.551   0.080   2.477
 2545SOL    HW1 8534   1.609   0.092   2.557
 2545SOL    HW2 8535   1.560   0.159   2.417
 2546SOL     OW 8536   6.555   1.878   1.042
 2546SOL    HW1 8537   6.598   1.892   1.131
 2546SOL    HW2 8538   6.555   1.781   1.020
 2547SOL     OW 8539   0.300   3.363   6.788
 2547SOL    HW1 8540   0.323   3.458   6.810
 2547SOL    HW2 8541   0.294   3.353   6.689
 2548SOL     OW 8542   0.284   0.005   4.449
 2548SOL    HW1 8543   0.331   0.046   4.527
 2548SOL    HW2 8544   0.349   6.972   4.394
 2549SOL     OW 8545   0.946   0.744   1.527
 2549SOL    HW1 8546   1.029   0.701   1.561
 2549SOL    HW2 8547   0.963   0.785   1.437
 2550SOL     OW 8548   6.473   6.336   0.523
 2550SOL    HW1 8549   6.457   6.416   0.466
 2550SOL    HW2 8550   6.531   6.271   0.475
 2551SOL     OW 8551   3.241   4.882   0.496
 2551SOL    HW1 8552   3.240   4.839   0.586
 2551SOL    HW2 8553   3.199   4.973   0.502
 2552SOL     OW 8554   2.442   5.644   5.152
 2552SOL    HW1 8555   2.450   5.604   5.243
 2552SOL    HW2 8556   2.493   5.589   5.086
 2553SOL     OW 8557   3.990   3.490   5.868
 2553SOL    HW1 8558   3.903   3.449   5.839
 2553SOL    HW2 8559   3.985   3.590   5.858
 2554SOL     OW 8560   2.730   0.947   0.190
 2554SOL    HW1 8561   2.688   0.977   0.276
 2554SOL    HW2 8562   2.674   0.876   0.149
 2555SOL     OW 8563   5.488   2.212   4.415
 2555SOL    HW1 8564   5.445   2.289   4.462
 2555SOL    HW2 8565   5.438   2.128   4.435
 2556SOL     OW 8566   4.143   5.760   0.274
 2556SOL    HW1 8567   4.202   5.835   0.244
 2556SOL    HW2 8568   4.047   5.790   0.274
 2557SOL     OW 8569   1.923   3.735   0.155
 2557SOL    HW1 8570   1.887   3.786   0.076
 2557SOL    HW2 8571   1.849   3.715   0.219
 2558SOL     OW 8572   5.321   0.919   5.517
 2558SOL    HW1 8573   5.289   0.827   5.493
 2558SOL    HW2 8574   5.242   0.978   5.536
 2559SOL     OW 8575   1.293   4.484   5.825
 2559SOL    HW1 8576   1.253   4.564   5.868
 2559SOL    HW2 8577   1.296   4.408   5.890
 2560SOL     OW 8578   6.767   2.591   5.655
 2560SOL    HW1 8579   6.762   2.550   5.747
 2560SOL    HW2 8580   6.842   2.550   5.604
 2561SOL     OW 8581   2.826   5.085   5.369
 2561SOL    HW1 8582   2.812   5.067   5.271
 2561SOL    HW2 8583   2.922   5.069   5.392
 2562SOL     OW 8584   2.282   4.594   1.185
 2562SOL    HW1 8585   2.208   4.550   1.133
 2562SOL    HW2 8586   2.292   4.548   1.273
 2563SOL     OW 8587   3.082   1.158   0.562
 2563SOL    HW1 8588   3.058   1.249   0.596
 2563SOL    HW2 8589   3.115   1.102   0.638
 2564SOL     OW 8590   1.155   5.197   0.626
 2564SOL    HW1 8591   1.254   5.210   0.624
 2564SOL    HW2 8592   1.128   5.160   0.715
 2565SOL     OW 8593   0.987   0.752   0.356
 2565SOL    HW1 8594   0.984   0.659   0.393
 2565SOL    HW2 8595   1.080   0.771   0.323
 2566SOL     OW 8596   2.403   6.762   1.564
 2566SOL    HW1 8597   2.359   6.675   1.544
 2566SOL    HW2 8598   2.391   6.825   1.488
 2567SOL     OW 8599   1.606   0.124   1.199
 2567SOL    HW1 8600   1.552   0.206   1.217
 2567SOL    HW2 8601   1.557   0.043   1.231
 2568SOL     OW 8602   4.236   2.418   6.725
 2568SOL    HW1 8603   4.234   2.380   6.633
 2568SOL    HW2 8604   4.305   2.489   6.730
 2569SOL     OW 8605   3.560   1.267   3.337
 2569SOL    HW1 8606   3.555   1.203   3.259
 2569SOL    HW2 8607   3.517   1.353   3.312
 2570SOL     OW 8608   5.843   1.045   5.653
 2570SOL    HW1 8609   5.928   1.034   5.704
 2570SOL    HW2 8610   5.794   1.126   5.687
 2571SOL     OW 8611   1.359   4.998   3.935
 2571SOL    HW1 8612   1.367   5.090   3.896
 2571SOL    HW2 8613   1.314   4.938   3.870
 2572SOL     OW 8614   3.021   4.875   2.597
 2572SOL    HW1 8615   3.069   4.839   2.677
 2572SOL    HW2 8616   2.927   4.841   2.596
 2573SOL     OW 8617   0.809   1.804   0.844
 2573SOL    HW1 8618   0.724   1.855   0.856
 2573SOL    HW2 8619   0.813   1.766   0.752
 2574SOL     OW 8620   5.241   3.460   0.671
 2574SOL    HW1 8621   5.219   3.379   0.725
 2574SOL    HW2 8622   5.172   3.531   0.689
 2575SOL     OW 8623   5.986   5.826   6.467
 2575SOL    HW1 8624   5.895   5.864   6.475
 2575SOL    HW2 8625   5.986   5.754   6.397
 2576SOL     OW 8626   4.490   6.441   4.949
 2576SOL    HW1 8627   4.399   6.437   4.989
 2576SOL    HW2 8628   4.483   6.444   4.849
 2577SOL     OW 8629   2.964   4.824   2.287
 2577SOL    HW1 8630   2.955   4.826   2.387
 2577SOL    HW2 8631   3.060   4.833   2.262
 2578SOL     OW 8632   4.045   1.346   3.916
 2578SOL    HW1 8633   3.951   1.336   3.881
 2578SOL    HW2 8634   4.082   1.434   3.885
 2579SOL     OW 8635   0.204   6.334   3.731
 2579SOL    HW1 8636   0.262   6.252   3.732
 2579SOL    HW2 8637   0.146   6.335   3.812
 2580SOL     OW 8638   2.056   4.781   0.221
 2580SOL    HW1 8639   2.153   4.762   0.233
 2580SOL    HW2 8640   2.005   4.695   0.227
 2581SOL     OW 8641   2.211   5.982   6.991
 2581SOL    HW1 8642   2.141   5.921   6.954
 2581SOL    HW2 8643   2.285   5.928   0.012
 2582SOL     OW 8644   0.040   4.150   1.281
 2582SOL    HW1 8645   6.992   4.224   1.278
 2582SOL    HW2 8646   0.078   4.143   1.373
 2583SOL     OW 8647   0.538   0.389   0.251
 2583SOL    HW1 8648   0.524   0.488   0.244
 2583SOL    HW2 8649   0.474   0.341   0.191
 2584SOL     OW 8650   4.816   5.150   5.644
 2584SOL    HW1 8651   4.852   5.099   5.722
 2584SOL    HW2 8652   4.797   5.087   5.569
 2585SOL     OW 8653   3.197   4.944   6.763
 2585SOL    HW1 8654   3.271   4.983   6.708
 2585SOL    HW2 8655   3.157   5.016   6.820
 2586SOL     OW 8656   2.896   0.821   5.789
 2586SOL    HW1 8657   2.949   0.904   5.769
 2586SOL    HW2 8658   2.957   0.750   5.823
 2587SOL     OW 8659   0.520   1.261   3.118
 2587SOL    HW1 8660   0.455   1.317   3.169
 2587SOL    HW2 8661   0.566   1.317   3.049
 2588SOL     OW 8662   4.098   2.467   5.438
 2588SOL    HW1 8663   3.999   2.460   5.438
 2588SOL    HW2 8664   4.129   2.508   5.352
 2589SOL     OW 8665   1.054   6.607   6.796
 2589SOL    HW1 8666   1.087   6.530   6.741
 2589SOL    HW2 8667   1.010   6.572   6.879
 2590SOL     OW 8668   2.671   4.952   0.484
 2590SOL    HW1 8669   2.573   4.934   0.480
 2590SOL    HW2 8670   2.713   4.929   0.396
 2591SOL     OW 8671   5.953   5.485   3.614
 2591SOL    HW1 8672   5.948   5.551   3.539
 2591SOL    HW2 8673   6.044   5.487   3.654
 2592SOL     OW 8674   2.564   4.107   6.711
 2592SOL    HW1 8675   2.574   4.130   6.614
 2592SOL    HW2 8676   2.541   4.010   6.720
 2593SOL     OW 8677   3.199   6.033   1.081
 2593SOL    HW1 8678   3.203   5.973   1.001
 2593SOL    HW2 8679   3.192   5.977   1.164
 2594SOL     OW 8680   2.649   4.219   6.177
 2594SOL    HW1 8681   2.747   4.202   6.169
 2594SOL    HW2 8682   2.606   4.212   6.087
 2595SOL     OW 8683   0.921   1.281   4.500
 2595SOL    HW1 8684   0.888   1.187   4.487
 2595SOL    HW2 8685   1.013   1.290   4.463
 2596SOL     OW 8686   1.758   2.893   1.387
 2596SOL    HW1 8687   1.746   2.991   1.372
 2596SOL    HW2 8688   1.843   2.863   1.343
 2597SOL     OW 8689   0.199   5.012   6.227
 2597SOL    HW1 8690   0.136   4.968   6.291
 2597SOL    HW2 8691   0.274   5.054   6.279
 2598SOL     OW 8692   5.766   1.380   1.924
 2598SOL    HW1 8693   5.778   1.479   1.918
 2598SOL    HW2 8694   5.795   1.338   1.839
 2599SOL     OW 8695   2.303   6.496   1.515
 2599SOL    HW1 8696   2.216   6.483   1.563
 2599SOL    HW2 8697   2.374   6.441   1.559
 2600SOL     OW 8698   6.196   3.503   4.563
 2600SOL    HW1 8699   6.210   3.424   4.624
 2600SOL    HW2 8700   6.185   3.586   4.618
 2601SOL     OW 8701   1.571   1.996   2.176
 2601SOL    HW1 8702   1.554   2.093   2.195
 2601SOL    HW2 8703   1.553   1.978   2.079
 2602SOL     OW 8704   2.276   4.683   3.930
 2602SOL    HW1 8705   2.277   4.760   3.866
 2602SOL    HW2 8706   2.341   4.614   3.899
 2603SOL     OW 8707   2.677   0.905   2.273
 2603SOL    HW1 8708   2.699   0.808   2.265
 2603SOL    HW2 8709   2.600   0.927   2.213
 2604SOL     OW 8710   5.005   1.702   1.720
 2604SOL    HW1 8711   4.977   1.606   1.714
 2604SOL    HW2 8712   4.936   1.754   1.770
 2605SOL     OW 8713   1.226   4.152   2.162
 2605SOL    HW1 8714   1.301   4.166   2.098
 2605SOL    HW2 8715   1.233   4.218   2.237
 2606SOL     OW 8716   5.606   4.654   1.305
 2606SOL    HW1 8717   5.667   4.606   1.368
 2606SOL    HW2 8718   5.655   4.673   1.220
 2607SOL     OW 8719   1.618   2.542   1.391
 2607SOL    HW1 8720   1.549   2.585   1.449
 2607SOL    HW2 8721   1.576   2.517   1.303
 2608SOL     OW 8722   1.929   6.365   6.769
 2608SOL    HW1 8723   1.896   6.372   6.863
 2608SOL    HW2 8724   1.958   6.271   6.750
 2609SOL     OW 8725   0.862   0.981   0.921
 2609SOL    HW1 8726   0.817   0.976   0.832
 2609SOL    HW2 8727   0.829   1.061   0.971
 2610SOL     OW 8728   1.141   5.031   4.382
 2610SOL    HW1 8729   1.216   5.091   4.409
 2610SOL    HW2 8730   1.068   5.085   4.341
 2611SOL     OW 8731   4.880   6.355   0.097
 2611SOL    HW1 8732   4.818   6.391   0.166
 2611SOL    HW2 8733   4.965   6.324   0.140
 2612SOL     OW 8734   5.076   7.016   4.601
 2612SOL    HW1 8735   5.056   0.025   4.695
 2612SOL    HW2 8736   5.079   0.077   4.542
 2613SOL     OW 8737   1.089   5.809   6.485
 2613SOL    HW1 8738   1.144   5.735   6.525
 2613SOL    HW2 8739   1.028   5.771   6.415
 2614SOL     OW 8740   5.923   1.369   6.054
 2614SOL    HW1 8741   5.959   1.341   5.965
 2614SOL    HW2 8742   5.827   1.342   6.061
 2615SOL     OW 8743   0.824   3.434   1.164
 2615SOL    HW1 8744   0.778   3.504   1.110
 2615SOL    HW2 8745   0.762   3.357   1.178
 2616SOL     OW 8746   1.471   0.898   5.400
 2616SOL    HW1 8747   1.402   0.874   5.332
 2616SOL    HW2 8748   1.432   0.961   5.467
 2617SOL     OW 8749   5.374   0.195   0.571
 2617SOL    HW1 8750   5.297   0.197   0.507
 2617SOL    HW2 8751   5.348   0.241   0.656
 2618SOL     OW 8752   1.660   5.657   5.814
 2618SOL    HW1 8753   1.627   5.713   5.890
 2618SOL    HW2 8754   1.709   5.716   5.750
 2619SOL     OW 8755   4.168   1.861   1.821
 2619SOL    HW1 8756   4.116   1.780   1.796
 2619SOL    HW2 8757   4.151   1.934   1.755
 2620SOL     OW 8758   6.559   5.915   1.580
 2620SOL    HW1 8759   6.528   5.990   1.522
 2620SOL    HW2 8760   6.582   5.836   1.523
 2621SOL     OW 8761   0.344   5.804   3.023
 2621SOL    HW1 8762   0.343   5.815   3.122
 2621SOL    HW2 8763   0.360   5.892   2.979
 2622SOL     OW 8764   2.881   3.128   5.881
 2622SOL    HW1 8765   2.853   3.224   5.873
 2622SOL    HW2 8766   2.933   3.116   5.966
 2623SOL     OW 8767   0.508   6.873   4.329
 2623SOL    HW1 8768   0.606   6.852   4.339
 2623SOL    HW2 8769   0.460   6.791   4.298
 2624SOL     OW 8770   6.429   1.908   4.316
 2624SOL    HW1 8771   6.524   1.898   4.346
 2624SOL    HW2 8772   6.410   1.842   4.244
 2625SOL     OW 8773   1.811   5.712   5.337
 2625SOL    HW1 8774   1.895   5.709   5.392
 2625SOL    HW2 8775   1.833   5.743   5.244
 2626SOL     OW 8776   6.368   6.803   5.636
 2626SOL    HW1 8777   6.446   6.800   5.574
 2626SOL    HW2 8778   6.367   6.722   5.694
 2627SOL     OW 8779   1.060   0.128   5.881
 2627SOL    HW1 8780   1.064   0.205   5.945
 2627SOL    HW2 8781   1.151   0.112   5.843
 2628SOL     OW 8782   1.667   3.726   3.660
 2628SOL    HW1 8783   1.642   3.741   3.755
 2628SOL    HW2 8784   1.607   3.658   3.619
 2629SOL     OW 8785   3.468   4.034   3.398
 2629SOL    HW1 8786   3.377   4.046   3.358
 2629SOL    HW2 8787   3.536   4.076   3.338
 2630SOL     OW 8788   4.085   1.541   2.977
 2630SOL    HW1 8789   4.162   1.511   3.032
 2630SOL    HW2 8790   4.010   1.569   3.037
 2631SOL     OW 8791   5.555   0.365   6.759
 2631SOL    HW1 8792   5.606   0.335   6.839
 2631SOL    HW2 8793   5.463   0.393   6.786
 2632SOL     OW 8794   5.804   4.871   1.920
 2632SOL    HW1 8795   5.822   4.782   1.962
 2632SOL    HW2 8796   5.750   4.926   1.983
 2633SOL     OW 8797   6.920   2.583   5.199
 2633SOL    HW1 8798   6.956   2.650   5.263
 2633SOL    HW2 8799   6.928   2.491   5.239
 2634SOL     OW 8800   6.245   6.969   4.801
 2634SOL    HW1 8801   6.335   6.926   4.795
 2634SOL    HW2 8802   6.188   6.918   4.865
 2635SOL     OW 8803   5.105   5.636   3.823
 2635SOL    HW1 8804   5.006   5.654   3.820
 2635SOL    HW2 8805   5.133   5.587   3.740
 2636SOL     OW 8806   3.787   0.588   6.027
 2636SOL    HW1 8807   3.825   0.599   5.935
 2636SOL    HW2 8808   3.856   0.546   6.086
 2637SOL     OW 8809   0.909   1.658   2.710
 2637SOL    HW1 8810   0.976   1.682   2.640
 2637SOL    HW2 8811   0.956   1.619   2.790
 2638SOL     OW 8812   0.909   0.484   4.359
 2638SOL    HW1 8813   0.930   0.387   4.364
 2638SOL    HW2 8814   0.992   0.535   4.337
 2639SOL     OW 8815   4.546   4.747   4.633
 2639SOL    HW1 8816   4.634   4.753   4.586
 2639SOL    HW2 8817   4.479   4.805   4.586
 2640SOL     OW 8818   0.830   6.796   4.453
 2640SOL    HW1 8819   0.763   6.722   4.444
 2640SOL    HW2 8820   0.845   6.816   4.550
 2641SOL     OW 8821   5.168   2.576   0.105
 2641SOL    HW1 8822   5.168   2.648   0.174
 2641SOL    HW2 8823   5.181   2.616   0.014
 2642SOL     OW 8824   0.171   1.247   4.033
 2642SOL    HW1 8825   0.074   1.256   4.013
 2642SOL    HW2 8826   0.191   1.152   4.058
 2643SOL     OW 8827   1.213   4.006   3.422
 2643SOL    HW1 8828   1.157   4.085   3.447
 2643SOL    HW2 8829   1.309   4.026   3.443
 2644SOL     OW 8830   5.023   5.332   4.635
 2644SOL    HW1 8831   4.945   5.292   4.587
 2644SOL    HW2 8832   5.100   5.268   4.633
 2645SOL     OW 8833   4.414   5.305   3.724
 2645SOL    HW1 8834   4.356   5.337   3.649
 2645SOL    HW2 8835   4.474   5.232   3.690
 2646SOL     OW 8836   0.530   3.744   6.033
 2646SOL    HW1 8837   0.558   3.725   5.939
 2646SOL    HW2 8838   0.606   3.788   6.081
 2647SOL     OW 8839   5.196   6.872   1.897
 2647SOL    HW1 8840   5.257   6.900   1.822
 2647SOL    HW2 8841   5.247   6.870   1.982
 2648SOL     OW 8842   0.525   0.214   4.285
 2648SOL    HW1 8843   0.443   0.206   4.229
 2648SOL    HW2 8844   0.574   0.127   4.285
 2649SOL     OW 8845   5.046   2.613   1.857
 2649SOL    HW1 8846   5.024   2.706   1.884
 2649SOL    HW2 8847   5.142   2.594   1.879
 2650SOL     OW 8848   3.323   5.889   5.062
 2650SOL    HW1 8849   3.269   5.900   4.978
 2650SOL    HW2 8850   3.393   5.960   5.065
 2651SOL     OW 8851   4.470   1.857   5.516
 2651SOL    HW1 8852   4.451   1.779   5.576
 2651SOL    HW2 8853   4.484   1.825   5.422
 2652SOL     OW 8854   5.029   3.453   5.683
 2652SOL    HW1 8855   4.984   3.542   5.686
 2652SOL    HW2 8856   4.968   3.383   5.719
 2653SOL     OW 8857   3.493   6.422   6.634
 2653SOL    HW1 8858   3.510   6.496   6.699
 2653SOL    HW2 8859   3.537   6.443   6.547
 2654SOL     OW 8860   5.228   0.355   0.204
 2654SOL    HW1 8861   5.268   0.424   0.145
 2654SOL    HW2 8862   5.155   0.306   0.155
 2655SOL     OW 8863   5.120   6.262   3.013
 2655SOL    HW1 8864   5.033   6.306   2.988
 2655SOL    HW2 8865   5.182   6.263   2.935
 2656SOL     OW 8866   3.623   5.438   4.034
 2656SOL    HW1 8867   3.572   5.355   4.058
 2656SOL    HW2 8868   3.681   5.419   3.955
 2657SOL     OW 8869   2.565   3.399   0.458
 2657SOL    HW1 8870   2.504   3.431   0.386
 2657SOL    HW2 8871   2.575   3.470   0.528
 2658SOL     OW 8872   4.322   4.579   6.006
 2658SOL    HW1 8873   4.367   4.547   5.922
 2658SOL    HW2 8874   4.388   4.630   6.061
 2659SOL     OW 8875   5.790   2.247   4.850
 2659SOL    HW1 8876   5.802   2.162   4.901
 2659SOL    HW2 8877   5.719   2.233   4.780
 2660SOL     OW 8878   1.371   1.741   1.182
 2660SOL    HW1 8879   1.439   1.699   1.122
 2660SOL    HW2 8880   1.279   1.713   1.154
 2661SOL     OW 8881   1.678   0.557   1.295
 2661SOL    HW1 8882   1.628   0.638   1.265
 2661SOL    HW2 8883   1.649   0.478   1.240
 2662SOL     OW 8884   3.174   0.773   2.980
 2662SOL    HW1 8885   3.161   0.869   3.004
 2662SOL    HW2 8886   3.134   0.754   2.891
 2663SOL     OW 8887   3.559   6.879   6.304
 2663SOL    HW1 8888   3.573   6.957   6.365
 2663SOL    HW2 8889   3.616   6.889   6.223
 2664SOL     OW 8890   3.818   2.893   5.478
 2664SOL    HW1 8891   3.847   2.812   5.428
 2664SOL    HW2 8892   3.817   2.972   5.417
 2665SOL     OW 8893   2.235   3.984   5.353
 2665SOL    HW1 8894   2.156   4.037   5.322
 2665SOL    HW2 8895   2.301   3.976   5.278
 2666SOL     OW 8896   2.302   4.160   2.150
 2666SOL    HW1 8897   2.250   4.215   2.086
 2666SOL    HW2 8898   2.360   4.095   2.100
 2667SOL     OW 8899   5.595   4.172   3.857
 2667SOL    HW1 8900   5.572   4.125   3.771
 2667SOL    HW2 8901   5.586   4.108   3.933
 2668SOL     OW 8902   5.932   1.501   4.288
 2668SOL    HW1 8903   5.842   1.466   4.261
 2668SOL    HW2 8904   5.961   1.572   4.223
 2669SOL     OW 8905   2.415   0.051   0.594
 2669SOL    HW1 8906   2.402   0.051   0.694
 2669SOL    HW2 8907   2.379   0.137   0.557
 2670SOL     OW 8908   6.902   1.442   5.787
 2670SOL    HW1 8909   6.939   1.390   5.865
 2670SOL    HW2 8910   6.898   1.539   5.811
 2671SOL     OW 8911   4.433   5.756   5.918
 2671SOL    HW1 8912   4.481   5.832   5.874
 2671SOL    HW2 8913   4.486   5.725   5.998
 2672SOL     OW 8914   3.984   0.964   1.823
 2672SOL    HW1 8915   3.995   0.874   1.866
 2672SOL    HW2 8916   3.935   0.954   1.737
 2673SOL     OW 8917   4.731   0.006   2.630
 2673SOL    HW1 8918   4.638   0.024   2.598
 2673SOL    HW2 8919   4.796   0.031   2.558
 2674SOL     OW 8920   1.177   5.702   2.948
 2674SOL    HW1 8921   1.167   5.630   3.016
 2674SOL    HW2 8922   1.171   5.792   2.992
 2675SOL     OW 8923   6.486   6.708   3.747
 2675SOL    HW1 8924   6.548   6.714   3.669
 2675SOL    HW2 8925   6.492   6.793   3.800
 2676SOL     OW 8926   3.342   3.769   3.136
 2676SOL    HW1 8927   3.415   3.831   3.166
 2676SOL    HW2 8928   3.272   3.822   3.088
 2677SOL     OW 8929   2.036   5.043   1.581
 2677SOL    HW1 8930   2.037   4.991   1.667
 2677SOL    HW2 8931   1.965   5.112   1.586
 2678SOL     OW 8932   5.661   2.479   2.820
 2678SOL    HW1 8933   5.603   2.552   2.858
 2678SOL    HW2 8934   5.640   2.393   2.865
 2679SOL     OW 8935   2.158   5.144   3.208
 2679SOL    HW1 8936   2.150   5.234   3.250
 2679SOL    HW2 8937   2.249   5.108   3.224
 2680SOL     OW 8938   1.586   2.273   6.822
 2680SOL    HW1 8939   1.642   2.329   6.883
 2680SOL    HW2 8940   1.599   2.303   6.727
 2681SOL     OW 8941   1.459   3.147   5.299
 2681SOL    HW1 8942   1.402   3.065   5.299
 2681SOL    HW2 8943   1.549   3.126   5.337
 2682SOL     OW 8944   4.766   4.285   1.847
 2682SOL    HW1 8945   4.811   4.318   1.930
 2682SOL    HW2 8946   4.668   4.275   1.864
 2683SOL     OW 8947   2.176   4.015   2.953
 2683SOL    HW1 8948   2.122   4.062   2.884
 2683SOL    HW2 8949   2.171   3.916   2.939
 2684SOL     OW 8950   5.488   6.351   1.930
 2684SOL    HW1 8951   5.459   6.309   1.844
 2684SOL    HW2 8952   5.555   6.293   1.974
 2685SOL     OW 8953   0.269   5.849   5.135
 2685SOL    HW1 8954   0.347   5.901   5.171
 2685SOL    HW2 8955   0.198   5.844   5.205
 2686SOL     OW 8956   1.082   1.429   4.781
 2686SOL    HW1 8957   1.071   1.523   4.812
 2686SOL    HW2 8958   1.136   1.428   4.696
 2687SOL     OW 8959   4.160   1.279   2.072
 2687SOL    HW1 8960   4.083   1.299   2.133
 2687SOL    HW2 8961   4.127   1.271   1.978
 2688SOL     OW 8962   3.450   2.887   6.325
 2688SOL    HW1 8963   3.484   2.946   6.398
 2688SOL    HW2 8964   3.495   2.909   6.239
 2689SOL     OW 8965   0.855   4.300   3.056
 2689SOL    HW1 8966   0.872   4.335   3.148
 2689SOL    HW2 8967   0.901   4.212   3.045
 2690SOL     OW 8968   3.534   1.494   5.972
 2690SOL    HW1 8969   3.590   1.497   6.055
 2690SOL    HW2 8970   3.553   1.410   5.922
 2691SOL     OW 8971   0.247   4.515   4.101
 2691SOL    HW1 8972   0.151   4.493   4.113
 2691SOL    HW2 8973   0.303   4.446   4.147
 2692SOL     OW 8974   2.958   5.755   2.529
 2692SOL    HW1 8975   2.900   5.835   2.540
 2692SOL    HW2 8976   3.054   5.780   2.546
 2693SOL     OW 8977   1.387   5.827   4.113
 2693SOL    HW1 8978   1.477   5.847   4.075
 2693SOL    HW2 8979   1.321   5.815   4.039
 2694SOL     OW 8980   3.143   6.551   4.143
 2694SOL    HW1 8981   3.115   6.556   4.048
 2694SOL    HW2 8982   3.207   6.625   4.163
 2695SOL     OW 8983   6.949   6.274   3.189
 2695SOL    HW1 8984   6.898   6.267   3.274
 2695SOL    HW2 8985   0.001   6.205   3.187
 2696SOL     OW 8986   5.107   4.283   5.877
 2696SOL    HW1 8987   5.156   4.232   5.947
 2696SOL    HW2 8988   5.027   4.231   5.847
 2697SOL     OW 8989   4.059   2.289   0.678
 2697SOL    HW1 8990   4.081   2.251   0.768
 2697SOL    HW2 8991   3.966   2.261   0.651
 2698SOL     OW 8992   1.681   4.476   6.326
 2698SOL    HW1 8993   1.621   4.426   6.388
 2698SOL    HW2 8994   1.662   4.449   6.232
 2699SOL     OW 8995   3.572   5.803   2.193
 2699SOL    HW1 8996   3.557   5.879   2.256
 2699SOL    HW2 8997   3.501   5.803   2.123
 2700SOL     OW 8998   2.675   1.910   1.197
 2700SOL    HW1 8999   2.751   1.856   1.160
 2700SOL    HW2 9000   2.638   1.863   1.277
 2701SOL     OW 9001   5.463   2.789   4.751
 2701SOL    HW1 9002   5.425   2.841   4.827
 2701SOL    HW2 9003   5.406   2.801   4.670
 2702SOL     OW 9004   2.727   2.092   4.638
 2702SOL    HW1 9005   2.709   2.160   4.709
 2702SOL    HW2 9006   2.691   2.003   4.668
 2703SOL     OW 9007   1.152   6.754   2.402
 2703SOL    HW1 9008   1.246   6.747   2.370
 2703SOL    HW2 9009   1.150   6.806   2.487
 2704SOL     OW 9010   6.312   6.139   3.236
 2704SOL    HW1 9011   6.230   6.180   3.198
 2704SOL    HW2 9012   6.393   6.185   3.199
 2705SOL     OW 9013   0.510   0.651   4.796
 2705SOL    HW1 9014   0.564   0.696   4.725
 2705SOL    HW2 9015   0.494   0.715   4.872
 2706SOL     OW 9016   6.529   4.456   4.537
 2706SOL    HW1 9017   6.501   4.552   4.527
 2706SOL    HW2 9018   6.524   4.411   4.448
 2707SOL     OW 9019   4.120   0.514   3.109
 2707SOL    HW1 9020   4.090   0.551   3.021
 2707SOL    HW2 9021   4.218   0.496   3.106
 2708SOL     OW 9022   5.407   2.821   6.859
 2708SOL    HW1 9023   5.493   2.872   6.851
 2708SOL    HW2 9024   5.365   2.840   6.948
 2709SOL     OW 9025   5.457   0.186   4.933
 2709SOL    HW1 9026   5.469   0.205   4.835
 2709SOL    HW2 9027   5.469   0.271   4.985
 2710SOL     OW 9028   1.446   3.280   4.287
 2710SOL    HW1 9029   1.478   3.354   4.346
 2710SOL    HW2 9030   1.451   3.193   4.337
 2711SOL     OW 9031   3.358   2.057   3.898
 2711SOL    HW1 9032   3.364   2.157   3.894
 2711SOL    HW2 9033   3.381   2.018   3.809
 2712SOL     OW 9034   3.828   5.490   2.653
 2712SOL    HW1 9035   3.795   5.578   2.688
 2712SOL    HW2 9036   3.921   5.502   2.617
 2713SOL     OW 9037   4.131   4.579   6.505
 2713SOL    HW1 9038   4.121   4.480   6.517
 2713SOL    HW2 9039   4.189   4.597   6.426
 2714SOL     OW 9040   3.177   4.264   6.823
 2714SOL    HW1 9041   3.247   4.267   6.895
 2714SOL    HW2 9042   3.117   4.344   6.831
 2715SOL     OW 9043   5.058   1.396   0.997
 2715SOL    HW1 9044   5.066   1.307   0.952
 2715SOL    HW2 9045   5.109   1.394   1.083
 2716SOL     OW 9046   4.043   1.810   3.057
 2716SOL    HW1 9047   4.013   1.829   3.151
 2716SOL    HW2 9048   4.143   1.814   3.053
 2717SOL     OW 9049   0.947   1.409   2.603
 2717SOL    HW1 9050   1.019   1.380   2.665
 2717SOL    HW2 9051   0.910   1.497   2.632
 2718SOL     OW 9052   0.350   0.169   6.057
 2718SOL    HW1 9053   0.397   0.201   5.975
 2718SOL    HW2 9054   0.417   0.140   6.126
 2719SOL     OW 9055   1.761   3.888   2.006
 2719SOL    HW1 9056   1.715   3.803   1.981
 2719SOL    HW2 9057   1.747   3.905   2.104
 2720SOL     OW 9058   1.059   6.895   5.298
 2720SOL    HW1 9059   1.033   6.871   5.392
 2720SOL    HW2 9060   0.977   6.910   5.243
 2721SOL     OW 9061   2.833   5.314   1.855
 2721SOL    HW1 9062   2.916   5.370   1.853
 2721SOL    HW2 9063   2.834   5.249   1.779
 2722SOL     OW 9064   4.264   5.339   6.842
 2722SOL    HW1 9065   4.257   5.436   6.868
 2722SOL    HW2 9066   4.207   5.284   6.903
 2723SOL     OW 9067   3.361   6.586   0.648
 2723SOL    HW1 9068   3.460   6.572   0.647
 2723SOL    HW2 9069   3.318   6.516   0.705
 2724SOL     OW 9070   0.719   5.874   0.647
 2724SOL    HW1 9071   0.809   5.918   0.650
 2724SOL    HW2 9072   0.675   5.883   0.736
 2725SOL     OW 9073   5.330   3.177   4.686
 2725SOL    HW1 9074   5.271   3.187   4.766
 2725SOL    HW2 9075   5.421   3.214   4.707
 2726SOL     OW 9076   0.577   1.592   1.284
 2726SOL    HW1 9077   0.608   1.678   1.244
 2726SOL    HW2 9078   0.655   1.542   1.321
 2727SOL     OW 9079   2.169   4.079   4.669
 2727SOL    HW1 9080   2.203   4.099   4.578
 2727SOL    HW2 9081   2.149   3.981   4.676
 2728SOL     OW 9082   5.261   5.047   6.525
 2728SOL    HW1 9083   5.228   5.083   6.437
 2728SOL    HW2 9084   5.346   4.997   6.510
 2729SOL     OW 9085   5.256   6.054   6.056
 2729SOL    HW1 9086   5.298   6.099   5.977
 2729SOL    HW2 9087   5.284   5.958   6.058
 2730SOL     OW 9088   0.696   5.946   2.114
 2730SOL    HW1 9089   0.792   5.951   2.084
 2730SOL    HW2 9090   0.646   5.883   2.054
 2731SOL     OW 9091   3.116   3.167   3.789
 2731SOL    HW1 9092   3.150   3.077   3.816
 2731SOL    HW2 9093   3.186   3.236   3.808
 2732SOL     OW 9094   5.273   1.276   1.677
 2732SOL    HW1 9095   5.239   1.217   1.604
 2732SOL    HW2 9096   5.317   1.357   1.638
 2733SOL     OW 9097   0.459   0.601   5.846
 2733SOL    HW1 9098   0.410   0.514   5.840
 2733SOL    HW2 9099   0.476   0.637   5.754
 2734SOL     OW 9100   3.252   6.095   1.669
 2734SOL    HW1 9101   3.185   6.158   1.708
 2734SOL    HW2 9102   3.311   6.145   1.605
 2735SOL     OW 9103   1.234   2.266   1.198
 2735SOL    HW1 9104   1.203   2.223   1.283
 2735SOL    HW2 9105   1.293   2.343   1.220
 2736SOL     OW 9106   4.665   5.752   3.563
 2736SOL    HW1 9107   4.586   5.691   3.567
 2736SOL    HW2 9108   4.700   5.754   3.469
 2737SOL     OW 9109   3.026   1.972   6.209
 2737SOL    HW1 9110   3.063   1.996   6.120
 2737SOL    HW2 9111   3.011   1.873   6.213
 2738SOL     OW 9112   5.847   0.270   1.159
 2738SOL    HW1 9113   5.803   0.253   1.247
 2738SOL    HW2 9114   5.916   0.342   1.170
 2739SOL     OW 9115   0.616   5.657   2.127
 2739SOL    HW1 9116   0.658   5.723   2.189
 2739SOL    HW2 9117   0.676   5.643   2.049
 2740SOL     OW 9118   6.854   6.476   2.536
 2740SOL    HW1 9119   6.789   6.450   2.464
 2740SOL    HW2 9120   6.915   6.399   2.554
 2741SOL     OW 9121   1.230   2.226   4.444
 2741SOL    HW1 9122   1.313   2.177   4.419
 2741SOL    HW2 9123   1.152   2.184   4.398
 2742SOL     OW 9124   3.318   4.590   1.719
 2742SOL    HW1 9125   3.406   4.606   1.763
 2742SOL    HW2 9126   3.244   4.599   1.787
 2743SOL     OW 9127   6.404   4.646   2.110
 2743SOL    HW1 9128   6.425   4.665   2.206
 2743SOL    HW2 9129   6.429   4.551   2.089
 2744SOL     OW 9130   3.229   3.650   2.796
 2744SOL    HW1 9131   3.328   3.640   2.804
 2744SOL    HW2 9132   3.185   3.565   2.825
 2745SOL     OW 9133   6.736   1.028   5.499
 2745SOL    HW1 9134   6.688   1.112   5.475
 2745SOL    HW2 9135   6.682   0.949   5.467
 2746SOL     OW 9136   1.102   1.170   3.585
 2746SOL    HW1 9137   1.054   1.087   3.558
 2746SOL    HW2 9138   1.036   1.240   3.611
 2747SOL     OW 9139   3.556   5.804   0.997
 2747SOL    HW1 9140   3.603   5.718   1.013
 2747SOL    HW2 9141   3.623   5.874   0.972
 2748SOL     OW 9142   4.591   6.834   1.289
 2748SOL    HW1 9143   4.502   6.873   1.315
 2748SOL    HW2 9144   4.660   6.905   1.292
 2749SOL     OW 9145   2.106   2.883   1.011
 2749SOL    HW1 9146   2.075   2.959   0.953
 2749SOL    HW2 9147   2.203   2.895   1.033
 2750SOL     OW 9148   2.274   5.183   2.621
 2750SOL    HW1 9149   2.295   5.110   2.556
 2750SOL    HW2 9150   2.356   5.237   2.638
 2751SOL     OW 9151   1.313   2.738   1.458
 2751SOL    HW1 9152   1.349   2.698   1.542
 2751SOL    HW2 9153   1.338   2.834   1.453
 2752SOL     OW 9154   4.099   4.791   5.484
 2752SOL    HW1 9155   4.077   4.755   5.575
 2752SOL    HW2 9156   4.101   4.716   5.418
 2753SOL     OW 9157   6.238   6.405   5.132
 2753SOL    HW1 9158   6.153   6.400   5.184
 2753SOL    HW2 9159   6.245   6.325   5.072
 2754SOL     OW 9160   0.355   6.359   6.320
 2754SOL    HW1 9161   0.407   6.372   6.236
 2754SOL    HW2 9162   0.410   6.385   6.398
 2755SOL     OW 9163   2.581   6.414   3.138
 2755SOL    HW1 9164   2.602   6.458   3.051
 2755SOL    HW2 9165   2.654   6.350   3.161
 2756SOL     OW 9166   5.318   6.492   0.469
 2756SOL    HW1 9167   5.273   6.438   0.398
 2756SOL    HW2 9168   5.399   6.537   0.431
 2757SOL     OW 9169   0.681   5.102   1.803
 2757SOL    HW1 9170   0.694   5.200   1.821
 2757SOL    HW2 9171   0.619   5.090   1.726
 2758SOL     OW 9172   5.192   0.343   6.014
 2758SOL    HW1 9173   5.176   0.266   6.076
 2758SOL    HW2 9174   5.117   0.409   6.023
 2759SOL     OW 9175   5.542   6.526   3.900
 2759SOL    HW1 9176   5.573   6.549   3.808
 2759SOL    HW2 9177   5.442   6.519   3.902
 2760SOL     OW 9178   2.182   5.181   2.245
 2760SOL    HW1 9179   2.277   5.173   2.275
 2760SOL    HW2 9180   2.133   5.244   2.305
 2761SOL     OW 9181   1.084   5.741   3.258
 2761SOL    HW1 9182   1.001   5.791   3.279
 2761SOL    HW2 9183   1.163   5.789   3.298
 2762SOL     OW 9184   1.432   6.652   5.506
 2762SOL    HW1 9185   1.383   6.640   5.419
 2762SOL    HW2 9186   1.449   6.749   5.522
 2763SOL     OW 9187   5.664   2.303   3.934
 2763SOL    HW1 9188   5.666   2.398   3.903
 2763SOL    HW2 9189   5.754   2.262   3.921
 2764SOL     OW 9190   5.639   0.165   0.995
 2764SOL    HW1 9191   5.707   0.217   1.046
 2764SOL    HW2 9192   5.667   0.157   0.899
 2765SOL     OW 9193   5.478   1.383   1.936
 2765SOL    HW1 9194   5.413   1.309   1.920
 2765SOL    HW2 9195   5.571   1.346   1.935
 2766SOL     OW 9196   5.474   1.577   1.199
 2766SOL    HW1 9197   5.531   1.658   1.184
 2766SOL    HW2 9198   5.481   1.517   1.120
 2767SOL     OW 9199   5.995   3.975   6.123
 2767SOL    HW1 9200   6.047   3.967   6.038
 2767SOL    HW2 9201   5.931   3.899   6.131
 2768SOL     OW 9202   4.823   1.248   6.984
 2768SOL    HW1 9203   4.887   1.325   6.973
 2768SOL    HW2 9204   4.848   1.175   6.921
 2769SOL     OW 9205   6.872   4.066   2.518
 2769SOL    HW1 9206   6.831   3.978   2.492
 2769SOL    HW2 9207   6.964   4.051   2.553
 2770SOL     OW 9208   1.527   5.237   1.900
 2770SOL    HW1 9209   1.436   5.244   1.860
 2770SOL    HW2 9210   1.594   5.278   1.838
 2771SOL     OW 9211   4.933   1.829   1.278
 2771SOL    HW1 9212   4.948   1.758   1.347
 2771SOL    HW2 9213   5.008   1.894   1.280
 2772SOL     OW 9214   4.347   2.543   0.316
 2772SOL    HW1 9215   4.428   2.541   0.375
 2772SOL    HW2 9216   4.267   2.567   0.371
 2773SOL     OW 9217   4.409   3.812   6.054
 2773SOL    HW1 9218   4.450   3.728   6.021
 2773SOL    HW2 9219   4.350   3.792   6.132
 2774SOL     OW 9220   5.879   2.783   2.309
 2774SOL    HW1 9221   5.929   2.709   2.264
 2774SOL    HW2 9222   5.919   2.799   2.400
 2775SOL     OW 9223   0.242   5.691   1.212
 2775SOL    HW1 9224   0.289   5.602   1.216
 2775SOL    HW2 9225   0.309   5.764   1.221
 2776SOL     OW 9226   3.975   6.131   5.230
 2776SOL    HW1 9227   3.969   6.227   5.202
 2776SOL    HW2 9228   3.893   6.107   5.282
 2777SOL     OW 9229   3.192   1.102   2.506
 2777SOL    HW1 9230   3.199   1.113   2.406
 2777SOL    HW2 9231   3.263   1.039   2.537
 2778SOL     OW 9232   2.361   1.992   5.442
 2778SOL    HW1 9233   2.335   2.057   5.370
 2778SOL    HW2 9234   2.302   1.911   5.435
 2779SOL     OW 9235   5.167   6.967   0.336
 2779SOL    HW1 9236   5.136   0.030   0.382
 2779SOL    HW2 9237   5.118   6.888   0.372
 2780SOL     OW 9238   4.756   5.307   6.078
 2780SOL    HW1 9239   4.766   5.370   6.155
 2780SOL    HW2 9240   4.772   5.356   5.992
 2781SOL     OW 9241   5.828   4.411   1.737
 2781SOL    HW1 9242   5.829   4.391   1.835
 2781SOL    HW2 9243   5.879   4.495   1.719
 2782SOL     OW 9244   3.103   2.866   6.225
 2782SOL    HW1 9245   3.063   2.825   6.143
 2782SOL    HW2 9246   3.154   2.797   6.276
 2783SOL     OW 9247   6.682   3.962   5.171
 2783SOL    HW1 9248   6.641   4.015   5.245
 2783SOL    HW2 9249   6.756   3.906   5.207
 2784SOL     OW 9250   1.967   2.723   1.350
 2784SOL    HW1 9251   2.000   2.678   1.267
 2784SOL    HW2 9252   1.918   2.657   1.406
 2785SOL     OW 9253   6.536   1.251   6.662
 2785SOL    HW1 9254   6.629   1.243   6.697
 2785SOL    HW2 9255   6.537   1.245   6.562
 2786SOL     OW 9256   4.081   6.139   0.820
 2786SOL    HW1 9257   4.157   6.179   0.768
 2786SOL    HW2 9258   4.055   6.051   0.780
 2787SOL     OW 9259   1.929   3.800   6.343
 2787SOL    HW1 9260   1.993   3.845   6.282
 2787SOL    HW2 9261   1.978   3.731   6.397
 2788SOL     OW 9262   2.639   4.124   0.485
 2788SOL    HW1 9263   2.736   4.143   0.494
 2788SOL    HW2 9264   2.624   4.064   0.406
 2789SOL     OW 9265   1.684   1.810   3.505
 2789SOL    HW1 9266   1.646   1.902   3.514
 2789SOL    HW2 9267   1.657   1.770   3.417
 2790SOL     OW 9268   3.393   5.258   3.330
 2790SOL    HW1 9269   3.435   5.323   3.266
 2790SOL    HW2 9270   3.451   5.250   3.411
 2791SOL     OW 9271   1.644   4.348   5.409
 2791SOL    HW1 9272   1.672   4.436   5.447
 2791SOL    HW2 9273   1.711   4.317   5.342
 2792SOL     OW 9274   1.156   0.950   5.028
 2792SOL    HW1 9275   1.135   1.043   5.057
 2792SOL    HW2 9276   1.074   0.892   5.037
 2793SOL     OW 9277   5.288   1.244   2.547
 2793SOL    HW1 9278   5.230   1.192   2.484
 2793SOL    HW2 9279   5.265   1.341   2.541
 2794SOL     OW 9280   0.278   2.335   0.074
 2794SOL    HW1 9281   0.357   2.339   0.013
 2794SOL    HW2 9282   0.309   2.348   0.169
 2795SOL     OW 9283   3.012   4.007   1.190
 2795SOL    HW1 9284   3.061   3.921   1.174
 2795SOL    HW2 9285   2.944   3.993   1.262
 2796SOL     OW 9286   6.176   3.762   2.316
 2796SOL    HW1 9287   6.167   3.667   2.344
 2796SOL    HW2 9288   6.087   3.798   2.289
 2797SOL     OW 9289   5.193   5.108   4.624
 2797SOL    HW1 9290   5.262   5.087   4.694
 2797SOL    HW2 9291   5.118   5.043   4.630
 2798SOL     OW 9292   0.766   4.040   3.458
 2798SOL    HW1 9293   0.721   3.987   3.386
 2798SOL    HW2 9294   0.700   4.061   3.530
 2799SOL     OW 9295   0.167   5.592   6.531
 2799SOL    HW1 9296   0.169   5.684   6.491
 2799SOL    HW2 9297   0.100   5.590   6.606
 2800SOL     OW 9298   4.344   5.196   0.110
 2800SOL    HW1 9299   4.289   5.224   0.188
 2800SOL    HW2 9300   4.320   5.102   0.083
 2801SOL     OW 9301   4.882   5.346   2.249
 2801SOL    HW1 9302   4.917   5.415   2.186
 2801SOL    HW2 9303   4.941   5.265   2.247
 2802SOL     OW 9304   3.998   1.811   6.012
 2802SOL    HW1 9305   3.969   1.794   6.106
 2802SOL    HW2 9306   3.924   1.786   5.949
 2803SOL     OW 9307   2.323   6.197   6.154
 2803SOL    HW1 9308   2.339   6.222   6.059
 2803SOL    HW2 9309   2.322   6.280   6.211
 2804SOL     OW 9310   6.735   4.566   3.429
 2804SOL    HW1 9311   6.800   4.640   3.415
 2804SOL    HW2 9312   6.784   4.482   3.454
 2805SOL     OW 9313   5.037   3.337   1.150
 2805SOL    HW1 9314   4.961   3.274   1.163
 2805SOL    HW2 9315   5.120   3.299   1.192
 2806SOL     OW 9316   5.975   5.155   2.590
 2806SOL    HW1 9317   5.969   5.059   2.617
 2806SOL    HW2 9318   5.887   5.200   2.608
 2807SOL     OW 9319   4.361   4.607   3.600
 2807SOL    HW1 9320   4.419   4.544   3.652
 2807SOL    HW2 9321   4.298   4.654   3.662
 2808SOL     OW 9322   5.013   1.453   3.282
 2808SOL    HW1 9323   5.046   1.527   3.340
 2808SOL    HW2 9324   5.072   1.444   3.202
 2809SOL     OW 9325   5.871   2.277   1.280
 2809SOL    HW1 9326   5.797   2.335   1.317
 2809SOL    HW2 9327   5.877   2.290   1.181
 2810SOL     OW 9328   3.103   6.507   5.503
 2810SOL    HW1 9329   3.076   6.446   5.577
 2810SOL    HW2 9330   3.087   6.462   5.415
 2811SOL     OW 9331   0.580   0.865   2.743
 2811SOL    HW1 9332   0.628   0.853   2.656
 2811SOL    HW2 9333   0.640   0.913   2.807
 2812SOL     OW 9334   4.938   3.412   2.563
 2812SOL    HW1 9335   4.962   3.496   2.514
 2812SOL    HW2 9336   5.020   3.358   2.580
 2813SOL     OW 9337   5.640   6.745   5.430
 2813SOL    HW1 9338   5.604   6.672   5.487
 2813SOL    HW2 9339   5.565   6.787   5.379
 2814SOL     OW 9340   3.963   4.376   5.733
 2814SOL    HW1 9341   4.010   4.461   5.758
 2814SOL    HW2 9342   3.909   4.392   5.651
 2815SOL     OW 9343   6.487   1.155   4.400
 2815SOL    HW1 9344   6.522   1.064   4.421
 2815SOL    HW2 9345   6.388   1.156   4.411
 2816SOL     OW 9346   5.947   6.806   3.852
 2816SOL    HW1 9347   5.969   6.836   3.945
 2816SOL    HW2 9348   5.861   6.848   3.823
 2817SOL     OW 9349   1.820   1.349   1.488
 2817SOL    HW1 9350   1.898   1.410   1.469
 2817SOL    HW2 9351   1.842   1.257   1.455
 2818SOL     OW 9352   6.718   4.983   6.181
 2818SOL    HW1 9353   6.653   4.943   6.246
 2818SOL    HW2 9354   6.696   4.951   6.089
 2819SOL     OW 9355   0.172   1.997   0.546
 2819SOL    HW1 9356   0.097   2.034   0.601
 2819SOL    HW2 9357   0.200   1.908   0.583
 2820SOL     OW 9358   0.251   2.521   2.450
 2820SOL    HW1 9359   0.314   2.583   2.495
 2820SOL    HW2 9360   0.270   2.427   2.478
 2821SOL     OW 9361   2.474   4.224   5.985
 2821SOL    HW1 9362   2.437   4.295   5.925
 2821SOL    HW2 9363   2.429   4.137   5.965
 2822SOL     OW 9364   4.655   2.490   6.891
 2822SOL    HW1 9365   4.654   2.408   6.949
 2822SOL    HW2 9366   4.566   2.535   6.895
 2823SOL     OW 9367   2.843   6.559   2.423
 2823SOL    HW1 9368   2.744   6.560   2.434
 2823SOL    HW2 9369   2.876   6.652   2.408
 2824SOL     OW 9370   2.367   1.529   5.018
 2824SOL    HW1 9371   2.406   1.595   5.082
 2824SOL    HW2 9372   2.413   1.536   4.930
 2825SOL     OW 9373   0.179   6.761   0.920
 2825SOL    HW1 9374   0.224   6.707   0.849
 2825SOL    HW2 9375   0.231   6.755   1.005
 2826SOL     OW 9376   5.604   1.836   5.284
 2826SOL    HW1 9377   5.561   1.748   5.305
 2826SOL    HW2 9378   5.627   1.883   5.369
 2827SOL     OW 9379   6.619   1.494   4.931
 2827SOL    HW1 9380   6.669   1.440   4.864
 2827SOL    HW2 9381   6.521   1.476   4.921
 2828SOL     OW 9382   3.723   0.832   6.122
 2828SOL    HW1 9383   3.728   0.734   6.104
 2828SOL    HW2 9384   3.754   0.883   6.041
 2829SOL     OW 9385   3.957   5.327   6.427
 2829SOL    HW1 9386   3.919   5.406   6.477
 2829SOL    HW2 9387   3.972   5.353   6.332
 2830SOL     OW 9388   6.021   3.772   6.296
 2830SOL    HW1 9389   6.066   3.846   6.246
 2830SOL    HW2 9390   6.027   3.790   6.394
 2831SOL     OW 9391   5.916   6.032   4.474
 2831SOL    HW1 9392   5.894   6.015   4.570
 2831SOL    HW2 9393   6.006   6.076   4.469
 2832SOL     OW 9394   0.007   1.582   1.518
 2832SOL    HW1 9395   6.996   1.513   1.583
 2832SOL    HW2 9396   0.083   1.545   1.464
 2833SOL     OW 9397   6.055   1.868   2.211
 2833SOL    HW1 9398   6.017   1.835   2.297
 2833SOL    HW2 9399   6.083   1.963   2.221
 2834SOL     OW 9400   3.216   1.432   6.491
 2834SOL    HW1 9401   3.118   1.413   6.491
 2834SOL    HW2 9402   3.240   1.484   6.573
 2835SOL     OW 9403   0.128   6.897   1.964
 2835SOL    HW1 9404   0.152   6.922   1.870
 2835SOL    HW2 9405   0.032   6.919   1.981
 2836SOL     OW 9406   6.882   6.988   1.575
 2836SOL    HW1 9407   6.960   6.965   1.517
 2836SOL    HW2 9408   6.910   0.036   1.643
 2837SOL     OW 9409   5.281   3.071   3.092
 2837SOL    HW1 9410   5.366   3.108   3.130
 2837SOL    HW2 9411   5.204   3.124   3.125
 2838SOL     OW 9412   2.586   4.621   1.882
 2838SOL    HW1 9413   2.560   4.662   1.795
 2838SOL    HW2 9414   2.683   4.636   1.898
 2839SOL     OW 9415   5.497   1.429   2.237
 2839SOL    HW1 9416   5.490   1.373   2.154
 2839SOL    HW2 9417   5.517   1.523   2.212
 2840SOL     OW 9418   0.454   1.236   5.086
 2840SOL    HW1 9419   0.397   1.222   5.168
 2840SOL    HW2 9420   0.528   1.169   5.085
 2841SOL     OW 9421   0.769   6.341   0.241
 2841SOL    HW1 9422   0.695   6.301   0.296
 2841SOL    HW2 9423   0.851   6.349   0.296
 2842SOL     OW 9424   6.997   3.226   3.424
 2842SOL    HW1 9425   7.014   3.132   3.393
 2842SOL    HW2 9426   6.994   3.228   3.524
 2843SOL     OW 9427   3.366   1.762   4.013
 2843SOL    HW1 9428   3.348   1.860   4.017
 2843SOL    HW2 9429   3.327   1.718   4.094
 2844SOL     OW 9430   0.691   4.205   0.061
 2844SOL    HW1 9431   0.790   4.190   0.057
 2844SOL    HW2 9432   0.672   4.294   0.103
 2845SOL     OW 9433   0.824   3.862   0.369
 2845SOL    HW1 9434   0.872   3.824   0.448
 2845SOL    HW2 9435   0.790   3.953   0.391
 2846SOL     OW 9436   5.012   1.704   6.874
 2846SOL    HW1 9437   4.920   1.729   6.903
 2846SOL    HW2 9438   5.020   1.715   6.775
 2847SOL     OW 9439   5.836   3.745   3.906
 2847SOL    HW1 9440   5.744   3.763   3.939
 2847SOL    HW2 9441   5.871   3.662   3.948
 2848SOL     OW 9442   0.490   4.436   5.544
 2848SOL    HW1 9443   0.478   4.492   5.463
 2848SOL    HW2 9444   0.464   4.488   5.626
 2849SOL     OW 9445   3.519   1.077   0.578
 2849SOL    HW1 9446   3.485   1.055   0.487
 2849SOL    HW2 9447   3.607   1.124   0.571
 2850SOL     OW 9448   3.246   0.610   1.288
 2850SOL    HW1 9449   3.223   0.519   1.324
 2850SOL    HW2 9450   3.276   0.669   1.363
 2851SOL     OW 9451   1.361   4.881   5.145
 2851SOL    HW1 9452   1.332   4.852   5.237
 2851SOL    HW2 9453   1.383   4.979   5.146
 2852SOL     OW 9454   6.056   3.848   6.568
 2852SOL    HW1 9455   5.986   3.915   6.591
 2852SOL    HW2 9456   6.144   3.894   6.554
 2853SOL     OW 9457   2.965   2.416   0.572
 2853SOL    HW1 9458   2.935   2.512   0.565
 2853SOL    HW2 9459   3.044   2.410   0.632
 2854SOL     OW 9460   2.676   0.882   4.259
 2854SOL    HW1 9461   2.576   0.873   4.258
 2854SOL    HW2 9462   2.716   0.825   4.188
 2855SOL     OW 9463   1.992   0.530   6.172
 2855SOL    HW1 9464   1.922   0.595   6.202
 2855SOL    HW2 9465   1.978   0.508   6.075
 2856SOL     OW 9466   2.433   2.793   5.790
 2856SOL    HW1 9467   2.491   2.866   5.823
 2856SOL    HW2 9468   2.456   2.707   5.836
 2857SOL     OW 9469   2.879   1.945   1.829
 2857SOL    HW1 9470   2.810   2.003   1.872
 2857SOL    HW2 9471   2.929   1.999   1.761
 2858SOL     OW 9472   6.450   2.550   2.257
 2858SOL    HW1 9473   6.411   2.463   2.288
 2858SOL    HW2 9474   6.550   2.545   2.264
 2859SOL     OW 9475   4.922   1.151   0.726
 2859SOL    HW1 9476   4.986   1.157   0.803
 2859SOL    HW2 9477   4.955   1.084   0.660
 2860SOL     OW 9478   4.331   1.560   1.739
 2860SOL    HW1 9479   4.368   1.650   1.715
 2860SOL    HW2 9480   4.364   1.534   1.829
 2861SOL     OW 9481   4.890   5.624   5.538
 2861SOL    HW1 9482   4.839   5.557   5.591
 2861SOL    HW2 9483   4.826   5.690   5.498
 2862SOL     OW 9484   5.596   2.041   4.027
 2862SOL    HW1 9485   5.677   1.994   3.992
 2862SOL    HW2 9486   5.602   2.138   4.007
 2863SOL     OW 9487   6.158   1.905   0.294
 2863SOL    HW1 9488   6.140   1.989   0.346
 2863SOL    HW2 9489   6.237   1.919   0.235
 2864SOL     OW 9490   3.688   0.640   0.943
 2864SOL    HW1 9491   3.640   0.723   0.971
 2864SOL    HW2 9492   3.772   0.664   0.894
 2865SOL     OW 9493   4.635   4.410   5.228
 2865SOL    HW1 9494   4.725   4.371   5.242
 2865SOL    HW2 9495   4.579   4.398   5.310
 2866SOL     OW 9496   6.897   6.218   6.765
 2866SOL    HW1 9497   6.954   6.269   6.830
 2866SOL    HW2 9498   6.843   6.282   6.711
 2867SOL     OW 9499   6.023   4.102   2.411
 2867SOL    HW1 9500   5.960   4.050   2.468
 2867SOL    HW2 9501   6.006   4.082   2.315
 2868SOL     OW 9502   0.601   3.716   5.540
 2868SOL    HW1 9503   0.663   3.648   5.500
 2868SOL    HW2 9504   0.512   3.710   5.495
 2869SOL     OW 9505   6.531   0.581   2.331
 2869SOL    HW1 9506   6.503   0.639   2.255
 2869SOL    HW2 9507   6.512   0.628   2.417
 2870SOL     OW 9508   6.339   1.840   3.830
 2870SOL    HW1 9509   6.413   1.773   3.841
 2870SOL    HW2 9510   6.373   1.919   3.778
 2871SOL     OW 9511   2.105   1.871   6.479
 2871SOL    HW1 9512   2.198   1.894   6.507
 2871SOL    HW2 9513   2.107   1.824   6.391
 2872SOL     OW 9514   2.782   1.677   3.938
 2872SOL    HW1 9515   2.846   1.664   4.014
 2872SOL    HW2 9516   2.760   1.775   3.929
 2873SOL     OW 9517   0.347   5.980   2.674
 2873SOL    HW1 9518   0.379   6.030   2.755
 2873SOL    HW2 9519   0.254   5.946   2.691
 2874SOL     OW 9520   5.346   4.112   2.104
 2874SOL    HW1 9521   5.438   4.152   2.098
 2874SOL    HW2 9522   5.286   4.157   2.038
 2875SOL     OW 9523   3.989   6.555   5.967
 2875SOL    HW1 9524   3.895   6.590   5.974
 2875SOL    HW2 9525   4.002   6.482   6.035
 2876SOL     OW 9526   0.832   0.885   1.760
 2876SOL    HW1 9527   0.792   0.974   1.782
 2876SOL    HW2 9528   0.890   0.894   1.679
 2877SOL     OW 9529   3.274   2.825   5.505
 2877SOL    HW1 9530   3.330   2.778   5.437
 2877SOL    HW2 9531   3.299   2.794   5.597
 2878SOL     OW 9532   2.249   5.094   5.036
 2878SOL    HW1 9533   2.189   5.141   4.970
 2878SOL    HW2 9534   2.341   5.087   4.998
 2879SOL     OW 9535   5.210   5.183   0.158
 2879SOL    HW1 9536   5.266   5.113   0.115
 2879SOL    HW2 9537   5.269   5.256   0.193
 2880SOL     OW 9538   6.807   6.204   0.585
 2880SOL    HW1 9539   6.758   6.221   0.500
 2880SOL    HW2 9540   6.829   6.291   0.629
 2881SOL     OW 9541   6.722   6.124   1.374
 2881SOL    HW1 9542   6.683   6.137   1.282
 2881SOL    HW2 9543   6.738   6.027   1.389
 2882SOL     OW 9544   0.807   3.724   2.714
 2882SOL    HW1 9545   0.734   3.665   2.680
 2882SOL    HW2 9546   0.896   3.683   2.695
 2883SOL     OW 9547   3.449   6.548   3.731
 2883SOL    HW1 9548   3.391   6.623   3.701
 2883SOL    HW2 9549   3.444   6.473   3.665
 2884SOL     OW 9550   0.828   6.906   3.556
 2884SOL    HW1 9551   0.894   6.850   3.506
 2884SOL    HW2 9552   0.738   6.861   3.554
 2885SOL     OW 9553   0.076   2.381   2.988
 2885SOL    HW1 9554   0.006   2.312   3.007
 2885SOL    HW2 9555   0.162   2.354   3.033
 2886SOL     OW 9556   2.319   2.642   6.952
 2886SOL    HW1 9557   2.326   2.699   6.871
 2886SOL    HW2 9558   2.232   2.593   6.951
 2887SOL     OW 9559   2.473   6.807   5.201
 2887SOL    HW1 9560   2.425   6.765   5.124
 2887SOL    HW2 9561   2.517   6.735   5.255
 2888SOL     OW 9562   6.917   4.713   6.433
 2888SOL    HW1 9563   6.991   4.679   6.491
 2888SOL    HW2 9564   6.934   4.809   6.410
 2889SOL     OW 9565   1.763   0.767   1.515
 2889SOL    HW1 9566   1.821   0.774   1.596
 2889SOL    HW2 9567   1.758   0.671   1.486
 2890SOL     OW 9568   3.559   0.525   1.414
 2890SOL    HW1 9569   3.527   0.472   1.336
 2890SOL    HW2 9570   3.606   0.608   1.381
 2891SOL     OW 9571   2.063   4.617   3.666
 2891SOL    HW1 9572   2.014   4.635   3.581
 2891SOL    HW2 9573   2.047   4.691   3.730
 2892SOL     OW 9574   4.131   3.854   6.731
 2892SOL    HW1 9575   4.199   3.899   6.672
 2892SOL    HW2 9576   4.086   3.923   6.787
 2893SOL     OW 9577   1.913   6.625   5.885
 2893SOL    HW1 9578   1.916   6.646   5.982
 2893SOL    HW2 9579   1.871   6.535   5.872
 2894SOL     OW 9580   2.646   2.683   6.940
 2894SOL    HW1 9581   2.680   2.761   6.888
 2894SOL    HW2 9582   2.610   2.715   0.008
 2895SOL     OW 9583   3.800   3.381   6.596
 2895SOL    HW1 9584   3.868   3.309   6.592
 2895SOL    HW2 9585   3.733   3.361   6.667
 2896SOL     OW 9586   2.860   5.314   0.315
 2896SOL    HW1 9587   2.765   5.287   0.304
 2896SOL    HW2 9588   2.891   5.291   0.408
 2897SOL     OW 9589   2.186   6.953   3.961
 2897SOL    HW1 9590   2.282   6.952   3.989
 2897SOL    HW2 9591   2.148   6.861   3.973
 2898SOL     OW 9592   4.424   5.222   2.499
 2898SOL    HW1 9593   4.438   5.152   2.429
 2898SOL    HW2 9594   4.443   5.183   2.589
 2899SOL     OW 9595   6.882   0.581   6.672
 2899SOL    HW1 9596   6.923   0.669   6.648
 2899SOL    HW2 9597   6.885   0.521   6.592
 2900SOL     OW 9598   1.443   4.814   5.881
 2900SOL    HW1 9599   1.478   4.739   5.825
 2900SOL    HW2 9600   1.359   4.785   5.928
 2901SOL     OW 9601   2.409   0.653   2.394
 2901SOL    HW1 9602   2.475   0.652   2.468
 2901SOL    HW2 9603   2.320   0.683   2.429
 2902SOL     OW 9604   5.217   6.138   0.688
 2902SOL    HW1 9605   5.226   6.113   0.591
 2902SOL    HW2 9606   5.229   6.237   0.698
 2903SOL     OW 9607   3.645   0.821   2.238
 2903SOL    HW1 9608   3.568   0.859   2.185
 2903SOL    HW2 9609   3.644   0.721   2.231
 2904SOL     OW 9610   2.408   3.336   5.316
 2904SOL    HW1 9611   2.446   3.244   5.304
 2904SOL    HW2 9612   2.332   3.349   5.252
 2905SOL     OW 9613   1.450   1.179   2.571
 2905SOL    HW1 9614   1.532   1.132   2.540
 2905SOL    HW2 9615   1.375   1.161   2.507
 2906SOL     OW 9616   5.413   5.245   1.754
 2906SOL    HW1 9617   5.421   5.165   1.694
 2906SOL    HW2 9618   5.392   5.214   1.847
 2907SOL     OW 9619   6.761   1.640   5.170
 2907SOL    HW1 9620   6.710   1.622   5.086
 2907SOL    HW2 9621   6.741   1.732   5.202
 2908SOL     OW 9622   3.766   6.602   4.202
 2908SOL    HW1 9623   3.725   6.547   4.129
 2908SOL    HW2 9624   3.716   6.688   4.211
 2909SOL     OW 9625   0.640   5.140   4.575
 2909SOL    HW1 9626   0.697   5.059   4.587
 2909SOL    HW2 9627   0.696   5.216   4.542
 2910SOL     OW 9628   3.104   6.421   5.201
 2910SOL    HW1 9629   3.020   6.401   5.251
 2910SOL    HW2 9630   3.139   6.337   5.159
 2911SOL     OW 9631   2.444   5.098   3.229
 2911SOL    HW1 9632   2.482   5.006   3.238
 2911SOL    HW2 9633   2.428   5.118   3.132
 2912SOL     OW 9634   2.927   5.978   0.199
 2912SOL    HW1 9635   2.917   5.997   0.101
 2912SOL    HW2 9636   3.008   5.921   0.214
 2913SOL     OW 9637   1.487   3.856   2.182
 2913SOL    HW1 9638   1.477   3.901   2.093
 2913SOL    HW2 9639   1.464   3.920   2.255
 2914SOL     OW 9640   5.657   4.548   5.447
 2914SOL    HW1 9641   5.623   4.618   5.385
 2914SOL    HW2 9642   5.741   4.581   5.491
 2915SOL     OW 9643   4.590   1.437   4.052
 2915SOL    HW1 9644   4.557   1.347   4.081
 2915SOL    HW2 9645   4.632   1.483   4.129
 2916SOL     OW 9646   6.269   4.375   5.530
 2916SOL    HW1 9647   6.265   4.391   5.628
 2916SOL    HW2 9648   6.183   4.402   5.488
 2917SOL     OW 9649   4.311   0.130   0.693
 2917SOL    HW1 9650   4.275   0.203   0.634
 2917SOL    HW2 9651   4.262   0.045   0.675
 2918SOL     OW 9652   0.346   3.648   3.307
 2918SOL    HW1 9653   0.303   3.703   3.379
 2918SOL    HW2 9654   0.437   3.619   3.337
 2919SOL     OW 9655   6.087   7.001   0.240
 2919SOL    HW1 9656   6.067   6.965   0.149
 2919SOL    HW2 9657   6.074   0.081   0.241
 2920SOL     OW 9658   3.525   2.107   2.522
 2920SOL    HW1 9659   3.494   2.032   2.464
 2920SOL    HW2 9660   3.599   2.157   2.476
 2921SOL     OW 9661   0.167   1.308   2.151
 2921SOL    HW1 9662   0.072   1.284   2.132
 2921SOL    HW2 9663   0.170   1.380   2.221
 2922SOL     OW 9664   5.299   6.446   5.734
 2922SOL    HW1 9665   5.315   6.524   5.795
 2922SOL    HW2 9666   5.238   6.381   5.778
 2923SOL     OW 9667   6.696   5.276   2.491
 2923SOL    HW1 9668   6.790   5.242   2.493
 2923SOL    HW2 9669   6.652   5.258   2.579
 2924SOL     OW 9670   0.985   1.778   5.898
 2924SOL    HW1 9671   0.980   1.686   5.938
 2924SOL    HW2 9672   1.054   1.778   5.825
 2925SOL     OW 9673   5.854   2.190   2.595
 2925SOL    HW1 9674   5.803   2.132   2.659
 2925SOL    HW2 9675   5.820   2.174   2.502
 2926SOL     OW 9676   0.006   1.782   4.971
 2926SOL    HW1 9677   6.934   1.786   4.931
 2926SOL    HW2 9678   0.006   1.826   5.061
 2927SOL     OW 9679   1.248   2.851   2.276
 2927SOL    HW1 9680   1.177   2.919   2.296
 2927SOL    HW2 9681   1.258   2.841   2.177
 2928SOL     OW 9682   6.751   1.016   6.463
 2928SOL    HW1 9683   6.750   1.032   6.364
 2928SOL    HW2 9684   6.780   1.099   6.510
 2929SOL     OW 9685   0.343   0.838   6.186
 2929SOL    HW1 9686   0.397   0.766   6.230
 2929SOL    HW2 9687   0.247   0.828   6.211
 2930SOL     OW 9688   4.996   0.138   4.827
 2930SOL    HW1 9689   5.072   0.197   4.799
 2930SOL    HW2 9690   4.981   0.147   4.925
 2931SOL     OW 9691   4.889   5.844   6.471
 2931SOL    HW1 9692   4.858   5.830   6.377
 2931SOL    HW2 9693   4.811   5.862   6.530
 2932SOL     OW 9694   1.675   4.775   1.613
 2932SOL    HW1 9695   1.701   4.744   1.704
 2932SOL    HW2 9696   1.581   4.810   1.615
 2933SOL     OW 9697   5.478   2.338   4.155
 2933SOL    HW1 9698   5.480   2.428   4.198
 2933SOL    HW2 9699   5.464   2.268   4.225
 2934SOL     OW 9700   3.929   6.962   0.587
 2934SOL    HW1 9701   3.838   6.922   0.600
 2934SOL    HW2 9702   3.920   0.040   0.567
 2935SOL     OW 9703   6.405   3.300   1.253
 2935SOL    HW1 9704   6.495   3.257   1.249
 2935SOL    HW2 9705   6.389   3.337   1.344
 2936SOL     OW 9706   4.979   5.749   1.017
 2936SOL    HW1 9707   5.039   5.811   0.967
 2936SOL    HW2 9708   4.907   5.716   0.957
 2937SOL     OW 9709   3.279   5.490   1.140
 2937SOL    HW1 9710   3.253   5.403   1.182
 2937SOL    HW2 9711   3.339   5.472   1.062
 2938SOL     OW 9712   5.211   4.969   5.137
 2938SOL    HW1 9713   5.219   4.870   5.143
 2938SOL    HW2 9714   5.143   4.993   5.068
 2939SOL     OW 9715   5.884   7.013   4.792
 2939SOL    HW1 9716   5.924   0.081   4.767
 2939SOL    HW2 9717   5.885   6.952   4.713
 2940SOL     OW 9718   5.486   6.864   5.240
 2940SOL    HW1 9719   5.572   6.915   5.231
 2940SOL    HW2 9720   5.439   6.861   5.152
 2941SOL     OW 9721   1.405   2.246   5.325
 2941SOL    HW1 9722   1.492   2.290   5.350
 2941SOL    HW2 9723   1.367   2.199   5.404
 2942SOL     OW 9724   3.329   0.319   2.291
 2942SOL    HW1 9725   3.323   0.370   2.206
 2942SOL    HW2 9726   3.261   0.245   2.291
 2943SOL     OW 9727   5.709   2.924   2.653
 2943SOL    HW1 9728   5.683   3.018   2.676
 2943SOL    HW2 9729   5.627   2.870   2.636
 2944SOL     OW 9730   3.178   5.129   5.839
 2944SOL    HW1 9731   3.271   5.124   5.875
 2944SOL    HW2 9732   3.114   5.150   5.914
 2945SOL     OW 9733   3.762   3.278   3.252
 2945SOL    HW1 9734   3.765   3.333   3.168
 2945SOL    HW2 9735   3.741   3.337   3.330
 2946SOL     OW 9736   6.490   6.474   5.460
 2946SOL    HW1 9737   6.534   6.563   5.475
 2946SOL    HW2 9738   6.395   6.480   5.489
 2947SOL     OW 9739   6.715   3.909   5.887
 2947SOL    HW1 9740   6.728   3.835   5.952
 2947SOL    HW2 9741   6.631   3.959   5.910
 2948SOL     OW 9742   6.620   3.334   5.705
 2948SOL    HW1 9743   6.560   3.371   5.635
 2948SOL    HW2 9744   6.566   3.296   5.780
 2949SOL     OW 9745   1.496   6.435   0.953
 2949SOL    HW1 9746   1.490   6.336   0.945
 2949SOL    HW2 9747   1.566   6.470   0.890
 2950SOL     OW 9748   5.458   3.424   4.275
 2950SOL    HW1 9749   5.525   3.399   4.205
 2950SOL    HW2 9750   5.429   3.519   4.261
 2951SOL     OW 9751   6.978   2.204   0.245
 2951SOL    HW1 9752   7.004   2.270   0.175
 2951SOL    HW2 9753   6.952   2.253   0.328
 2952SOL     OW 9754   0.791   4.781   2.915
 2952SOL    HW1 9755   0.867   4.802   2.853
 2952SOL    HW2 9756   0.824   4.724   2.990
 2953SOL     OW 9757   4.880   2.600   2.250
 2953SOL    HW1 9758   4.962   2.642   2.290
 2953SOL    HW2 9759   4.861   2.513   2.295
 2954SOL     OW 9760   0.637   6.230   1.972
 2954SOL    HW1 9761   0.552   6.223   1.920
 2954SOL    HW2 9762   0.617   6.262   2.064
 2955SOL     OW 9763   0.470   3.227   0.555
 2955SOL    HW1 9764   0.459   3.230   0.456
 2955SOL    HW2 9765   0.501   3.136   0.583
 2956SOL     OW 9766   0.302   6.218   3.122
 2956SOL    HW1 9767   0.260   6.178   3.203
 2956SOL    HW2 9768   0.230   6.250   3.059
 2957SOL     OW 9769   0.477   3.763   0.780
 2957SOL    HW1 9770   0.572   3.775   0.752
 2957SOL    HW2 9771   0.445   3.672   0.753
 2958SOL     OW 9772   2.235   4.350   5.874
 2958SOL    HW1 9773   2.243   4.379   5.779
 2958SOL    HW2 9774   2.145   4.375   5.910
 2959SOL     OW 9775   5.554   4.590   5.938
 2959SOL    HW1 9776   5.614   4.665   5.911
 2959SOL    HW2 9777   5.466   4.627   5.967
 2960SOL     OW 9778   2.985   1.443   0.608
 2960SOL    HW1 9779   2.909   1.446   0.672
 2960SOL    HW2 9780   2.950   1.448   0.514
 2961SOL     OW 9781   5.493   3.421   4.952
 2961SOL    HW1 9782   5.396   3.435   4.934
 2961SOL    HW2 9783   5.510   3.426   5.050
 2962SOL     OW 9784   4.828   1.405   3.694
 2962SOL    HW1 9785   4.861   1.311   3.688
 2962SOL    HW2 9786   4.734   1.405   3.729
 2963SOL     OW 9787   2.191   1.837   5.714
 2963SOL    HW1 9788   2.212   1.867   5.807
 2963SOL    HW2 9789   2.092   1.825   5.705
 2964SOL     OW 9790   1.894   0.252   2.113
 2964SOL    HW1 9791   1.925   0.346   2.096
 2964SOL    HW2 9792   1.865   0.243   2.208
 2965SOL     OW 9793   0.376   0.779   5.151
 2965SOL    HW1 9794   0.280   0.805   5.149
 2965SOL    HW2 9795   0.425   0.827   5.079
 2966SOL     OW 9796   5.245   4.396   3.419
 2966SOL    HW1 9797   5.255   4.489   3.454
 2966SOL    HW2 9798   5.204   4.398   3.328
 2967SOL     OW 9799   6.019   2.510   3.339
 2967SOL    HW1 9800   6.105   2.545   3.377
 2967SOL    HW2 9801   5.942   2.548   3.391
 2968SOL     OW 9802   0.674   3.848   5.246
 2968SOL    HW1 9803   0.695   3.936   5.204
 2968SOL    HW2 9804   0.574   3.838   5.253
 2969SOL     OW 9805   5.570   1.765   4.814
 2969SOL    HW1 9806   5.597   1.826   4.889
 2969SOL    HW2 9807   5.615   1.677   4.824
 2970SOL     OW 9808   1.267   4.550   6.761
 2970SOL    HW1 9809   1.249   4.499   6.677
 2970SOL    HW2 9810   1.359   4.589   6.757
 2971SOL     OW 9811   5.689   3.279   3.734
 2971SOL    HW1 9812   5.691   3.283   3.635
 2971SOL    HW2 9813   5.783   3.279   3.769
 2972SOL     OW 9814   6.523   3.685   6.514
 2972SOL    HW1 9815   6.568   3.733   6.438
 2972SOL    HW2 9816   6.485   3.752   6.577
 2973SOL     OW 9817   5.492   0.223   4.151
 2973SOL    HW1 9818   5.407   0.246   4.103
 2973SOL    HW2 9819   5.470   0.182   4.239
 2974SOL     OW 9820   5.550   4.083   3.107
 2974SOL    HW1 9821   5.551   4.157   3.039
 2974SOL    HW2 9822   5.571   4.120   3.197
 2975SOL     OW 9823   0.651   1.604   5.492
 2975SOL    HW1 9824   0.742   1.645   5.494
 2975SOL    HW2 9825   0.646   1.540   5.415
 2976SOL     OW 9826   3.846   1.150   2.731
 2976SOL    HW1 9827   3.898   1.231   2.758
 2976SOL    HW2 9828   3.875   1.072   2.785
 2977SOL     OW 9829   2.728   0.001   4.264
 2977SOL    HW1 9830   2.722   0.099   4.280
 2977SOL    HW2 9831   2.662   6.973   4.323
 2978SOL     OW 9832   4.798   5.134   0.286
 2978SOL    HW1 9833   4.796   5.036   0.266
 2978SOL    HW2 9834   4.870   5.178   0.232
 2979SOL     OW 9835   3.359   0.467   3.616
 2979SOL    HW1 9836   3.283   0.407   3.590
 2979SOL    HW2 9837   3.399   0.436   3.702
 2980SOL     OW 9838   0.650   6.563   4.391
 2980SOL    HW1 9839   0.641   6.542   4.489
 2980SOL    HW2 9840   0.565   6.539   4.344
 2981SOL     OW 9841   1.430   1.216   5.944
 2981SOL    HW1 9842   1.453   1.187   5.852
 2981SOL    HW2 9843   1.394   1.139   5.996
 2982SOL     OW 9844   3.970   5.950   2.977
 2982SOL    HW1 9845   4.021   6.036   2.972
 2982SOL    HW2 9846   4.017   5.887   3.038
 2983SOL     OW 9847   0.529   0.785   4.279
 2983SOL    HW1 9848   0.588   0.706   4.261
 2983SOL    HW2 9849   0.435   0.763   4.251
 2984SOL     OW 9850   6.164   5.464   1.431
 2984SOL    HW1 9851   6.244   5.508   1.473
 2984SOL    HW2 9852   6.185   5.368   1.412
 2985SOL     OW 9853   0.779   1.760   4.461
 2985SOL    HW1 9854   0.743   1.732   4.550
 2985SOL    HW2 9855   0.872   1.726   4.450
 2986SOL     OW 9856   2.242   4.001   5.632
 2986SOL    HW1 9857   2.198   3.970   5.547
 2986SOL    HW2 9858   2.323   4.056   5.609
 2987SOL     OW 9859   4.975   0.997   4.581
 2987SOL    HW1 9860   4.918   0.918   4.560
 2987SOL    HW2 9861   4.929   1.080   4.551
 2988SOL     OW 9862   1.395   0.645   2.135
 2988SOL    HW1 9863   1.439   0.592   2.062
 2988SOL    HW2 9864   1.360   0.583   2.204
 2989SOL     OW 9865   6.443   4.878   1.040
 2989SOL    HW1 9866   6.542   4.879   1.023
 2989SOL    HW2 9867   6.404   4.967   1.017
 2990SOL     OW 9868   3.585   0.349   2.965
 2990SOL    HW1 9869   3.679   0.318   2.983
 2990SOL    HW2 9870   3.562   0.331   2.869
 2991SOL     OW 9871   6.941   3.938   0.448
 2991SOL    HW1 9872   6.850   3.950   0.408
 2991SOL    HW2 9873   6.934   3.941   0.548
 2992SOL     OW 9874   3.477   5.503   6.590
 2992SOL    HW1 9875   3.547   5.445   6.631
 2992SOL    HW2 9876   3.419   5.448   6.530
 2993SOL     OW 9877   1.933   4.445   1.781
 2993SOL    HW1 9878   1.859   4.435   1.847
 2993SOL    HW2 9879   1.972   4.536   1.788
 2994SOL     OW 9880   4.943   0.281   6.740
 2994SOL    HW1 9881   4.994   0.251   6.660
 2994SOL    HW2 9882   4.845   0.261   6.727
 2995SOL     OW 9883   1.420   1.730   0.024
 2995SOL    HW1 9884   1.363   1.735   0.106
 2995SOL    HW2 9885   1.430   1.821   7.004
 2996SOL     OW 9886   2.884   5.391   5.257
 2996SOL    HW1 9887   2.939   5.473   5.274
 2996SOL    HW2 9888   2.869   5.381   5.159
 2997SOL     OW 9889   5.329   6.078   1.740
 2997SOL    HW1 9890   5.338   6.024   1.657
 2997SOL    HW2 9891   5.375   6.031   1.815
 2998SOL     OW 9892   5.109   5.874   4.425
 2998SOL    HW1 9893   5.129   5.907   4.333
 2998SOL    HW2 9894   5.019   5.908   4.454
 2999SOL     OW 9895   3.288   5.750   3.730
 2999SOL    HW1 9896   3.334   5.676   3.779
 2999SOL    HW2 9897   3.192   5.755   3.758
 3000SOL     OW 9898   1.834   3.699   5.368
 3000SOL    HW1 9899   1.800   3.606   5.386
 3000SOL    HW2 9900   1.932   3.703   5.385
 3001SOL     OW 9901   4.691   0.400   6.085
 3001SOL    HW1 9902   4.721   0.494   6.076
 3001SOL    HW2 9903   4.591   0.396   6.079
 3002SOL     OW 9904   4.183   0.376   5.459
 3002SOL    HW1 9905   4.208   0.309   5.529
 3002SOL    HW2 9906   4.092   0.354   5.424
 3003SOL     OW 9907   2.387   6.281   5.911
 3003SOL    HW1 9908   2.351   6.363   5.867
 3003SOL    HW2 9909   2.487   6.282   5.909
 3004SOL     OW 9910   6.259   3.899   3.826
 3004SOL    HW1 9911   6.221   3.991   3.826
 3004SOL    HW2 9912   6.256   3.861   3.733
 3005SOL     OW 9913   3.474   3.073   1.519
 3005SOL    HW1 9914   3.514   2.987   1.490
 3005SOL    HW2 9915   3.404   3.056   1.589
 3006SOL     OW 9916   5.858   1.201   0.903
 3006SOL    HW1 9917   5.847   1.272   0.834
 3006SOL    HW2 9918   5.932   1.226   0.965
 3007SOL     OW 9919   5.454   5.229   2.441
 3007SOL    HW1 9920   5.405   5.260   2.359
 3007SOL    HW2 9921   5.552   5.223   2.420
 3008SOL     OW 9922   3.698   0.014   5.855
 3008SOL    HW1 9923   3.737   0.086   5.798
 3008SOL    HW2 9924   3.598   0.014   5.844
 3009SOL     OW 9925   0.627   0.374   2.612
 3009SOL    HW1 9926   0.567   0.433   2.557
 3009SOL    HW2 9927   0.684   0.431   2.671
 3010SOL     OW 9928   4.337   5.867   3.044
 3010SOL    HW1 9929   4.322   5.966   3.043
 3010SOL    HW2 9930   4.427   5.848   3.081
 3011SOL     OW 9931   5.983   0.840   6.592
 3011SOL    HW1 9932   5.938   0.926   6.615
 3011SOL    HW2 9933   5.999   0.837   6.493
 3012SOL     OW 9934   0.189   3.393   3.885
 3012SOL    HW1 9935   0.110   3.351   3.840
 3012SOL    HW2 9936   0.256   3.420   3.816
 3013SOL     OW 9937   5.992   6.158   2.397
 3013SOL    HW1 9938   6.063   6.095   2.364
 3013SOL    HW2 9939   5.945   6.116   2.474
 3014SOL     OW 9940   5.559   1.666   4.038
 3014SOL    HW1 9941   5.473   1.669   3.988
 3014SOL    HW2 9942   5.634   1.650   3.974
 3015SOL     OW 9943   2.488   2.023   1.059
 3015SOL    HW1 9944   2.578   1.984   1.080
 3015SOL    HW2 9945   2.424   2.000   1.132
 3016SOL     OW 9946   3.379   5.729   4.327
 3016SOL    HW1 9947   3.299   5.669   4.324
 3016SOL    HW2 9948   3.399   5.755   4.421
 3017SOL     OW 9949   0.661   5.452   1.231
 3017SOL    HW1 9950   0.707   5.364   1.242
 3017SOL    HW2 9951   0.727   5.526   1.245
 3018SOL     OW 9952   4.065   0.474   6.733
 3018SOL    HW1 9953   4.031   0.420   6.810
 3018SOL    HW2 9954   4.003   0.466   6.656
 3019SOL     OW 9955   3.582   6.402   1.001
 3019SOL    HW1 9956   3.672   6.373   1.033
 3019SOL    HW2 9957   3.583   6.500   0.984
 3020SOL     OW 9958   3.251   3.839   2.245
 3020SOL    HW1 9959   3.166   3.847   2.192
 3020SOL    HW2 9960   3.292   3.929   2.256
 3021SOL     OW 9961   1.610   1.842   6.805
 3021SOL    HW1 9962   1.700   1.866   6.769
 3021SOL    HW2 9963   1.567   1.923   6.845
 3022SOL     OW 9964   3.522   5.966   2.697
 3022SOL    HW1 9965   3.545   5.953   2.794
 3022SOL    HW2 9966   3.424   5.954   2.684
 3023SOL     OW 9967   3.447   5.865   3.512
 3023SOL    HW1 9968   3.471   5.949   3.462
 3023SOL    HW2 9969   3.394   5.888   3.593
 3024SOL     OW 9970   3.129   0.742   6.506
 3024SOL    HW1 9971   3.096   0.829   6.471
 3024SOL    HW2 9972   3.132   0.746   6.606
 3025SOL     OW 9973   2.802   3.043   0.842
 3025SOL    HW1 9974   2.809   3.129   0.792
 3025SOL    HW2 9975   2.715   2.998   0.820
 3026SOL     OW 9976   1.719   3.703   1.248
 3026SOL    HW1 9977   1.677   3.699   1.157
 3026SOL    HW2 9978   1.650   3.684   1.317
 3027SOL     OW 9979   4.037   0.799   2.503
 3027SOL    HW1 9980   3.978   0.824   2.426
 3027SOL    HW2 9981   4.087   0.879   2.534
 3028SOL     OW 9982   1.309   4.792   0.002
 3028SOL    HW1 9983   1.240   4.720   0.009
 3028SOL    HW2 9984   1.375   4.781   0.076
 3029SOL     OW 9985   6.051   4.666   5.409
 3029SOL    HW1 9986   6.053   4.733   5.482
 3029SOL    HW2 9987   6.010   4.581   5.442
 3030SOL     OW 9988   1.250   1.085   5.661
 3030SOL    HW1 9989   1.243   1.177   5.699
 3030SOL    HW2 9990   1.178   1.027   5.701
 3031SOL     OW 9991   0.696   3.478   0.541
 3031SOL    HW1 9992   0.614   3.437   0.581
 3031SOL    HW2 9993   0.669   3.541   0.468
 3032SOL     OW 9994   4.943   0.040   6.885
 3032SOL    HW1 9995   4.951   0.116   6.821
 3032SOL    HW2 9996   5.019   6.995   6.870
 3033SOL     OW 9997   0.758   3.319   0.311
 3033SOL    HW1 9998   0.674   3.267   0.302
 3033SOL    HW2 9999   0.757   3.370   0.397
 3034SOL     OW10000   2.316   6.492   3.681
 3034SOL    HW110001   2.261   6.500   3.763
 3034SOL    HW210002   2.285   6.412   3.628
 3035SOL     OW10003   6.522   1.491   0.417
 3035SOL    HW110004   6.582   1.571   0.414
 3035SOL    HW210005   6.501   1.462   0.323
 3036SOL     OW10006   1.493   3.778   7.014
 3036SOL    HW110007   1.485   3.684   0.028
 3036SOL    HW210008   1.409   3.828   0.014
 3037SOL     OW10009   5.882   5.742   4.509
 3037SOL    HW110010   5.948   5.816   4.519
 3037SOL    HW210011   5.794   5.779   4.478
 3038SOL     OW10012   5.619   6.773   6.202
 3038SOL    HW110013   5.567   6.843   6.249
 3038SOL    HW210014   5.700   6.814   6.159
 3039SOL     OW10015   6.474   4.524   2.693
 3039SOL    HW110016   6.553   4.521   2.754
 3039SOL    HW210017   6.504   4.552   2.601
 3040SOL     OW10018   3.730   3.931   6.228
 3040SOL    HW110019   3.674   3.881   6.161
 3040SOL    HW210020   3.727   4.028   6.207
 3041SOL     OW10021   1.889   3.139   5.678
 3041SOL    HW110022   1.880   3.044   5.647
 3041SOL    HW210023   1.805   3.189   5.658
 3042SOL     OW10024   5.171   0.547   2.103
 3042SOL    HW110025   5.115   0.589   2.031
 3042SOL    HW210026   5.207   0.619   2.163
 3043SOL     OW10027   0.515   5.499   0.453
 3043SOL    HW110028   0.457   5.576   0.423
 3043SOL    HW210029   0.473   5.413   0.424
 3044SOL     OW10030   3.371   4.419   5.384
 3044SOL    HW110031   3.317   4.449   5.462
 3044SOL    HW210032   3.440   4.353   5.414
 3045SOL     OW10033   5.351   0.991   2.622
 3045SOL    HW110034   5.339   1.085   2.589
 3045SOL    HW210035   5.271   0.964   2.676
 3046SOL     OW10036   1.230   3.470   5.544
 3046SOL    HW110037   1.317   3.454   5.498
 3046SOL    HW210038   1.216   3.568   5.557
 3047SOL     OW10039   5.758   4.804   1.533
 3047SOL    HW110040   5.844   4.770   1.570
 3047SOL    HW210041   5.691   4.729   1.529
 3048SOL     OW10042   4.316   3.561   1.381
 3048SOL    HW110043   4.304   3.524   1.473
 3048SOL    HW210044   4.413   3.564   1.359
 3049SOL     OW10045   1.027   0.136   1.537
 3049SOL    HW110046   1.079   0.145   1.622
 3049SOL    HW210047   1.056   0.207   1.473
 3050SOL     OW10048   3.184   6.489   3.886
 3050SOL    HW110049   3.283   6.479   3.884
 3050SOL    HW210050   3.144   6.441   3.807
 3051SOL     OW10051   2.658   4.684   6.662
 3051SOL    HW110052   2.646   4.603   6.603
 3051SOL    HW210053   2.573   4.736   6.665
 3052SOL     OW10054   3.853   0.717   3.042
 3052SOL    HW110055   3.759   0.682   3.040
 3052SOL    HW210056   3.912   0.658   2.987
 3053SOL     OW10057   5.930   0.661   7.017
 3053SOL    HW110058   6.025   0.674   6.989
 3053SOL    HW210059   5.925   0.590   0.068
 3054SOL     OW10060   6.895   3.156   0.190
 3054SOL    HW110061   6.882   3.224   0.118
 3054SOL    HW210062   6.831   3.173   0.265
 3055SOL     OW10063   5.149   0.134   3.741
 3055SOL    HW110064   5.135   0.108   3.645
 3055SOL    HW210065   5.066   0.112   3.793
 3056SOL     OW10066   6.469   0.171   7.012
 3056SOL    HW110067   6.463   0.265   6.979
 3056SOL    HW210068   6.418   0.110   6.950
 3057SOL     OW10069   5.029   5.138   2.285
 3057SOL    HW110070   5.054   5.127   2.381
 3057SOL    HW210071   4.989   5.053   2.251
 3058SOL     OW10072   6.439   5.868   1.295
 3058SOL    HW110073   6.465   5.890   1.201
 3058SOL    HW210074   6.396   5.778   1.297
 3059SOL     OW10075   0.834   3.112   5.237
 3059SOL    HW110076   0.892   3.091   5.158
 3059SOL    HW210077   0.790   3.200   5.224
 3060SOL     OW10078   0.554   0.019   0.439
 3060SOL    HW110079   0.623   0.089   0.423
 3060SOL    HW210080   0.479   0.030   0.373
 3061SOL     OW10081   0.033   0.748   4.988
 3061SOL    HW110082   6.974   0.691   4.961
 3061SOL    HW210083   0.092   0.763   4.909
 3062SOL     OW10084   2.431   6.827   1.832
 3062SOL    HW110085   2.491   6.764   1.882
 3062SOL    HW210086   2.409   6.788   1.742
 3063SOL     OW10087   1.957   4.834   2.213
 3063SOL    HW110088   1.928   4.742   2.187
 3063SOL    HW210089   2.057   4.841   2.203
 3064SOL     OW10090   5.936   3.491   3.970
 3064SOL    HW110091   5.942   3.391   3.970
 3064SOL    HW210092   5.985   3.528   4.049
 3065SOL     OW10093   1.842   0.782   6.582
 3065SOL    HW110094   1.754   0.826   6.602
 3065SOL    HW210095   1.891   0.766   6.668
 3066SOL     OW10096   6.327   4.417   0.462
 3066SOL    HW110097   6.254   4.473   0.423
 3066SOL    HW210098   6.321   4.325   0.423
 3067SOL     OW10099   3.577   0.880   4.919
 3067SOL    HW110100   3.575   0.979   4.908
 3067SOL    HW210101   3.642   0.855   4.991
 3068SOL     OW10102   5.876   6.258   0.697
 3068SOL    HW110103   5.779   6.251   0.674
 3068SOL    HW210104   5.915   6.167   0.710
 3069SOL     OW10105   0.422   5.510   1.860
 3069SOL    HW110106   0.369   5.429   1.834
 3069SOL    HW210107   0.369   5.592   1.837
 3070SOL     OW10108   2.300   1.533   2.835
 3070SOL    HW110109   2.342   1.569   2.919
 3070SOL    HW210110   2.201   1.536   2.844
 3071SOL     OW10111   5.812   0.162   3.672
 3071SOL    HW110112   5.784   0.180   3.577
 3071SOL    HW210113   5.912   0.160   3.676
 3072SOL     OW10114   0.664   6.637   1.783
 3072SOL    HW110115   0.633   6.731   1.795
 3072SOL    HW210116   0.708   6.605   1.867
 3073SOL     OW10117   0.613   3.480   5.016
 3073SOL    HW110118   0.630   3.442   5.108
 3073SOL    HW210119   0.696   3.469   4.961
 3074SOL     OW10120   4.557   2.793   0.204
 3074SOL    HW110121   4.480   2.818   0.262
 3074SOL    HW210122   4.572   2.865   0.135
 3075SOL     OW10123   1.580   6.921   1.748
 3075SOL    HW110124   1.679   6.927   1.738
 3075SOL    HW210125   1.538   7.005   1.714
 3076SOL     OW10126   6.407   0.622   4.847
 3076SOL    HW110127   6.344   0.594   4.919
 3076SOL    HW210128   6.415   0.722   4.846
 3077SOL     OW10129   5.750   5.036   4.096
 3077SOL    HW110130   5.687   5.029   4.018
 3077SOL    HW210131   5.698   5.045   4.180
 3078SOL     OW10132   2.103   3.758   2.090
 3078SOL    HW110133   2.076   3.742   2.185
 3078SOL    HW210134   2.155   3.678   2.057
 3079SOL     OW10135   1.242   2.765   5.110
 3079SOL    HW110136   1.250   2.819   5.193
 3079SOL    HW210137   1.332   2.754   5.069
 3080SOL     OW10138   6.172   4.782   1.587
 3080SOL    HW110139   6.137   4.805   1.496
 3080SOL    HW210140   6.236   4.853   1.616
 3081SOL     OW10141   0.298   4.379   6.204
 3081SOL    HW110142   0.228   4.307   6.200
 3081SOL    HW210143   0.278   4.441   6.279
 3082SOL     OW10144   3.676   0.067   3.283
 3082SOL    HW110145   3.655   0.164   3.277
 3082SOL    HW210146   3.668   0.037   3.379
 3083SOL     OW10147   3.480   0.304   2.677
 3083SOL    HW110148   3.480   0.207   2.651
 3083SOL    HW210149   3.567   0.346   2.650
 3084SOL     OW10150   4.432   4.838   3.909
 3084SOL    HW110151   4.398   4.767   3.846
 3084SOL    HW210152   4.525   4.815   3.937
 3085SOL     OW10153   6.728   4.945   3.187
 3085SOL    HW110154   6.799   4.928   3.255
 3085SOL    HW210155   6.645   4.895   3.211
 3086SOL     OW10156   4.246   0.748   1.746
 3086SOL    HW110157   4.282   0.840   1.758
 3086SOL    HW210158   4.283   0.688   1.817
 3087SOL     OW10159   6.470   4.238   3.522
 3087SOL    HW110160   6.387   4.193   3.488
 3087SOL    HW210161   6.482   4.218   3.619
 3088SOL     OW10162   2.574   5.195   5.341
 3088SOL    HW110163   2.509   5.125   5.371
 3088SOL    HW210164   2.667   5.159   5.352
 3089SOL     OW10165   1.547   2.639   0.045
 3089SOL    HW110166   1.619   2.569   0.052
 3089SOL    HW210167   1.502   2.632   6.976
 3090SOL     OW10168   1.756   1.669   1.325
 3090SOL    HW110169   1.699   1.752   1.320
 3090SOL    HW210170   1.698   1.588   1.314
 3091SOL     OW10171   3.245   0.040   0.346
 3091SOL    HW110172   3.273   0.001   0.434
 3091SOL    HW210173   3.200   0.128   0.361
 3092SOL     OW10174   5.474   6.754   0.126
 3092SOL    HW110175   5.443   6.672   0.078
 3092SOL    HW210176   5.550   6.795   0.076
 3093SOL     OW10177   5.872   5.080   5.708
 3093SOL    HW110178   5.932   5.148   5.666
 3093SOL    HW210179   5.781   5.118   5.720
 3094SOL     OW10180   2.906   5.748   4.904
 3094SOL    HW110181   2.981   5.707   4.956
 3094SOL    HW210182   2.838   5.785   4.968
 3095SOL     OW10183   2.423   4.506   4.418
 3095SOL    HW110184   2.335   4.549   4.396
 3095SOL    HW210185   2.446   4.440   4.348
 3096SOL     OW10186   6.690   0.086   4.521
 3096SOL    HW110187   6.713   0.171   4.570
 3096SOL    HW210188   6.741   0.010   4.562
 3097SOL     OW10189   0.490   2.590   0.849
 3097SOL    HW110190   0.466   2.687   0.855
 3097SOL    HW210191   0.516   2.568   0.755
 3098SOL     OW10192   2.357   3.652   1.167
 3098SOL    HW110193   2.409   3.725   1.124
 3098SOL    HW210194   2.360   3.662   1.267
 3099SOL     OW10195   6.883   5.716   4.510
 3099SOL    HW110196   6.952   5.783   4.481
 3099SOL    HW210197   6.897   5.694   4.606
 3100SOL     OW10198   6.516   6.870   4.823
 3100SOL    HW110199   6.521   6.773   4.799
 3100SOL    HW210200   6.608   6.909   4.821
 3101SOL     OW10201   5.118   5.866   5.214
 3101SOL    HW110202   5.188   5.845   5.146
 3101SOL    HW210203   5.057   5.936   5.179
 3102SOL     OW10204   0.732   4.525   1.148
 3102SOL    HW110205   0.734   4.449   1.213
 3102SOL    HW210206   0.825   4.544   1.116
 3103SOL     OW10207   3.535   2.285   0.472
 3103SOL    HW110208   3.438   2.295   0.494
 3103SOL    HW210209   3.550   2.308   0.376
 3104SOL     OW10210   5.465   6.046   4.052
 3104SOL    HW110211   5.521   5.964   4.066
 3104SOL    HW210212   5.500   6.120   4.111
 3105SOL     OW10213   5.499   5.786   3.213
 3105SOL    HW110214   5.573   5.839   3.254
 3105SOL    HW210215   5.416   5.841   3.210
 3106SOL     OW10216   6.576   2.352   2.578
 3106SOL    HW110217   6.572   2.296   2.495
 3106SOL    HW210218   6.486   2.355   2.621
 3107SOL     OW10219   3.202   0.568   3.999
 3107SOL    HW110220   3.302   0.570   4.000
 3107SOL    HW210221   3.168   0.533   4.086
 3108SOL     OW10222   1.856   0.863   4.569
 3108SOL    HW110223   1.803   0.888   4.650
 3108SOL    HW210224   1.795   0.842   4.493
 3109SOL     OW10225   5.116   6.175   2.563
 3109SOL    HW110226   5.038   6.218   2.608
 3109SOL    HW210227   5.114   6.196   2.465
 3110SOL     OW10228   6.956   2.991   3.659
 3110SOL    HW110229   6.898   2.942   3.594
 3110SOL    HW210230   6.904   3.008   3.743
 3111SOL     OW10231   6.005   5.460   4.005
 3111SOL    HW110232   6.000   5.556   3.977
 3111SOL    HW210233   6.061   5.409   3.940
 3112SOL     OW10234   4.312   2.641   6.140
 3112SOL    HW110235   4.378   2.714   6.127
 3112SOL    HW210236   4.241   2.647   6.070
 3113SOL     OW10237   2.586   6.811   3.791
 3113SOL    HW110238   2.567   6.761   3.706
 3113SOL    HW210239   2.639   6.752   3.852
 3114SOL     OW10240   5.302   3.734   6.496
 3114SOL    HW110241   5.322   3.686   6.582
 3114SOL    HW210242   5.388   3.751   6.447
 3115SOL     OW10243   3.728   4.030   0.666
 3115SOL    HW110244   3.801   3.994   0.608
 3115SOL    HW210245   3.706   4.123   0.637
 3116SOL     OW10246   6.552   2.417   6.009
 3116SOL    HW110247   6.462   2.400   5.970
 3116SOL    HW210248   6.567   2.356   6.087
 3117SOL     OW10249   4.501   3.320   5.503
 3117SOL    HW110250   4.458   3.363   5.423
 3117SOL    HW210251   4.600   3.325   5.494
 3118SOL     OW10252   6.294   4.708   6.706
 3118SOL    HW110253   6.246   4.715   6.794
 3118SOL    HW210254   6.231   4.731   6.632
 3119SOL     OW10255   2.205   4.697   5.257
 3119SOL    HW110256   2.264   4.617   5.250
 3119SOL    HW210257   2.123   4.675   5.310
 3120SOL     OW10258   1.933   5.557   4.711
 3120SOL    HW110259   1.835   5.561   4.693
 3120SOL    HW210260   1.951   5.570   4.808
 3121SOL     OW10261   0.518   1.672   1.952
 3121SOL    HW110262   0.434   1.705   1.908
 3121SOL    HW210263   0.582   1.640   1.882
 3122SOL     OW10264   3.304   5.365   6.404
 3122SOL    HW110265   3.219   5.319   6.430
 3122SOL    HW210266   3.332   5.335   6.313
 3123SOL     OW10267   3.137   6.258   3.673
 3123SOL    HW110268   3.149   6.182   3.736
 3123SOL    HW210269   3.039   6.269   3.653
 3124SOL     OW10270   4.595   0.470   5.394
 3124SOL    HW110271   4.688   0.447   5.422
 3124SOL    HW210272   4.566   0.554   5.441
 3125SOL     OW10273   6.466   2.140   5.419
 3125SOL    HW110274   6.446   2.067   5.354
 3125SOL    HW210275   6.392   2.148   5.485
 3126SOL     OW10276   5.302   4.596   6.030
 3126SOL    HW110277   5.263   4.583   6.122
 3126SOL    HW210278   5.264   4.528   5.968
 3127SOL     OW10279   1.356   1.600   3.412
 3127SOL    HW110280   1.409   1.588   3.496
 3127SOL    HW210281   1.369   1.521   3.353
 3128SOL     OW10282   1.823   0.813   0.311
 3128SOL    HW110283   1.855   0.821   0.405
 3128SOL    HW210284   1.884   0.865   0.251
 3129SOL     OW10285   0.594   3.998   5.579
 3129SOL    HW110286   0.601   3.899   5.590
 3129SOL    HW210287   0.686   4.037   5.577
 3130SOL     OW10288   2.459   4.439   2.531
 3130SOL    HW110289   2.551   4.403   2.547
 3130SOL    HW210290   2.453   4.475   2.438
 3131SOL     OW10291   1.100   3.210   2.928
 3131SOL    HW110292   1.046   3.126   2.934
 3131SOL    HW210293   1.173   3.207   2.996
 3132SOL     OW10294   5.528   5.984   5.430
 3132SOL    HW110295   5.428   5.979   5.426
 3132SOL    HW210296   5.566   5.976   5.337
 3133SOL     OW10297   2.120   1.928   3.995
 3133SOL    HW110298   2.136   2.004   4.058
 3133SOL    HW210299   2.100   1.845   4.046
 3134SOL     OW10300   4.699   3.379   1.510
 3134SOL    HW110301   4.648   3.310   1.563
 3134SOL    HW210302   4.792   3.384   1.545
 3135SOL     OW10303   4.348   1.810   4.376
 3135SOL    HW110304   4.432   1.756   4.372
 3135SOL    HW210305   4.369   1.906   4.355
 3136SOL     OW10306   5.582   6.159   6.402
 3136SOL    HW110307   5.651   6.160   6.475
 3136SOL    HW210308   5.507   6.220   6.426
 3137SOL     OW10309   5.035   1.775   4.012
 3137SOL    HW110310   4.970   1.768   3.936
 3137SOL    HW210311   5.001   1.839   4.080
 3138SOL     OW10312   5.982   1.624   4.727
 3138SOL    HW110313   6.028   1.712   4.721
 3138SOL    HW210314   5.883   1.636   4.718
 3139SOL     OW10315   5.033   6.636   5.706
 3139SOL    HW110316   5.057   6.543   5.676
 3139SOL    HW210317   5.077   6.702   5.645
 3140SOL     OW10318   6.668   6.767   6.486
 3140SOL    HW110319   6.714   6.727   6.407
 3140SOL    HW210320   6.736   6.803   6.550
 3141SOL     OW10321   0.566   6.193   6.950
 3141SOL    HW110322   0.532   6.253   0.002
 3141SOL    HW210323   0.665   6.205   6.941
 3142SOL     OW10324   4.903   6.067   6.946
 3142SOL    HW110325   4.943   5.999   6.885
 3142SOL    HW210326   4.815   6.035   6.979
 3143SOL     OW10327   0.223   1.847   6.855
 3143SOL    HW110328   0.277   1.916   6.903
 3143SOL    HW210329   0.243   1.757   6.892
 3144SOL     OW10330   1.817   3.869   0.559
 3144SOL    HW110331   1.900   3.816   0.541
 3144SOL    HW210332   1.752   3.812   0.609
 3145SOL     OW10333   2.828   5.744   2.816
 3145SOL    HW110334   2.779   5.668   2.857
 3145SOL    HW210335   2.870   5.715   2.730
 3146SOL     OW10336   1.682   0.015   3.278
 3146SOL    HW110337   1.637   0.093   3.320
 3146SOL    HW210338   1.633   6.950   3.302
 3147SOL     OW10339   4.464   4.744   1.038
 3147SOL    HW110340   4.448   4.831   1.083
 3147SOL    HW210341   4.547   4.749   0.983
 3148SOL     OW10342   3.962   5.366   4.050
 3148SOL    HW110343   3.895   5.391   4.121
 3148SOL    HW210344   4.053   5.395   4.079
 3149SOL     OW10345   3.027   0.174   5.581
 3149SOL    HW110346   2.973   0.090   5.588
 3149SOL    HW210347   3.054   0.204   5.672
 3150SOL     OW10348   5.160   0.133   5.298
 3150SOL    HW110349   5.128   0.039   5.290
 3150SOL    HW210350   5.216   0.142   5.380
 3151SOL     OW10351   4.915   1.181   6.538
 3151SOL    HW110352   4.898   1.226   6.451
 3151SOL    HW210353   4.983   1.232   6.590
 3152SOL     OW10354   0.517   5.088   1.562
 3152SOL    HW110355   0.495   5.020   1.493
 3152SOL    HW210356   0.568   5.163   1.519
 3153SOL     OW10357   6.185   3.849   1.683
 3153SOL    HW110358   6.169   3.755   1.652
 3153SOL    HW210359   6.141   3.913   1.619
 3154SOL     OW10360   6.540   2.322   6.268
 3154SOL    HW110361   6.443   2.305   6.285
 3154SOL    HW210362   6.580   2.372   6.346
 3155SOL     OW10363   6.450   5.174   1.067
 3155SOL    HW110364   6.519   5.226   1.015
 3155SOL    HW210365   6.479   5.167   1.162
 3156SOL     OW10366   3.909   3.992   3.202
 3156SOL    HW110367   3.891   3.925   3.273
 3156SOL    HW210368   4.006   3.990   3.178
 3157SOL     OW10369   2.032   3.518   4.811
 3157SOL    HW110370   2.022   3.499   4.909
 3157SOL    HW210371   1.944   3.546   4.773
 3158SOL     OW10372   4.829   6.318   1.545
 3158SOL    HW110373   4.806   6.263   1.625
 3158SOL    HW210374   4.745   6.356   1.506
 3159SOL     OW10375   5.116   5.405   6.033
 3159SOL    HW110376   5.067   5.481   5.990
 3159SOL    HW210377   5.069   5.378   6.117
 3160SOL     OW10378   5.091   3.716   6.076
 3160SOL    HW110379   5.175   3.770   6.068
 3160SOL    HW210380   5.113   3.619   6.079
 3161SOL     OW10381   1.659   1.061   2.845
 3161SOL    HW110382   1.685   1.156   2.858
 3161SOL    HW210383   1.641   1.044   2.748
 3162SOL     OW10384   0.283   5.633   6.886
 3162SOL    HW110385   0.329   5.593   6.806
 3162SOL    HW210386   0.258   5.728   6.865
 3163SOL     OW10387   3.807   3.148   6.973
 3163SOL    HW110388   3.874   3.103   6.913
 3163SOL    HW210389   3.739   3.196   6.917
 3164SOL     OW10390   5.193   4.313   0.863
 3164SOL    HW110391   5.152   4.222   0.861
 3164SOL    HW210392   5.283   4.308   0.905
 3165SOL     OW10393   0.768   6.985   2.058
 3165SOL    HW110394   0.729   7.008   2.147
 3165SOL    HW210395   0.842   6.918   2.070
 3166SOL     OW10396   4.454   2.874   6.135
 3166SOL    HW110397   4.551   2.891   6.155
 3166SOL    HW210398   4.398   2.940   6.184
 3167SOL     OW10399   0.333   4.630   1.701
 3167SOL    HW110400   0.353   4.604   1.795
 3167SOL    HW210401   0.358   4.726   1.687
 3168SOL     OW10402   5.273   2.857   0.536
 3168SOL    HW110403   5.323   2.802   0.604
 3168SOL    HW210404   5.251   2.946   0.575
 3169SOL     OW10405   0.791   2.359   5.594
 3169SOL    HW110406   0.870   2.322   5.544
 3169SOL    HW210407   0.734   2.413   5.532
 3170SOL     OW10408   4.285   0.696   6.138
 3170SOL    HW110409   4.209   0.721   6.197
 3170SOL    HW210410   4.371   0.722   6.182
 3171SOL     OW10411   6.442   0.140   1.730
 3171SOL    HW110412   6.464   0.230   1.767
 3171SOL    HW210413   6.461   0.139   1.632
 3172SOL     OW10414   6.031   6.849   4.952
 3172SOL    HW110415   5.970   6.901   4.893
 3172SOL    HW210416   5.982   6.822   5.035
 3173SOL     OW10417   2.398   0.288   1.967
 3173SOL    HW110418   2.481   0.344   1.970
 3173SOL    HW210419   2.386   0.242   2.055
 3174SOL     OW10420   2.928   2.458   5.743
 3174SOL    HW110421   3.010   2.407   5.719
 3174SOL    HW210422   2.894   2.427   5.832
 3175SOL     OW10423   0.979   6.408   0.420
 3175SOL    HW110424   1.071   6.446   0.419
 3175SOL    HW210425   0.931   6.439   0.503
 3176SOL     OW10426   1.557   4.113   6.316
 3176SOL    HW110427   1.509   4.043   6.262
 3176SOL    HW210428   1.635   4.071   6.363
 3177SOL     OW10429   5.634   5.256   5.681
 3177SOL    HW110430   5.538   5.250   5.652
 3177SOL    HW210431   5.649   5.342   5.730
 3178SOL     OW10432   0.379   4.631   2.216
 3178SOL    HW110433   0.450   4.697   2.242
 3178SOL    HW210434   0.380   4.555   2.281
 3179SOL     OW10435   1.652   2.335   2.044
 3179SOL    HW110436   1.731   2.392   2.069
 3179SOL    HW210437   1.675   2.280   1.964
 3180SOL     OW10438   5.661   7.001   5.570
 3180SOL    HW110439   5.669   6.908   5.534
 3180SOL    HW210440   5.594   0.032   5.516
 3181SOL     OW10441   0.864   1.290   3.700
 3181SOL    HW110442   0.794   1.241   3.752
 3181SOL    HW210443   0.834   1.384   3.682
 3182SOL     OW10444   0.951   6.026   5.608
 3182SOL    HW110445   0.879   6.090   5.582
 3182SOL    HW210446   0.910   5.948   5.655
 3183SOL     OW10447   4.451   4.822   1.837
 3183SOL    HW110448   4.405   4.905   1.868
 3183SOL    HW210449   4.387   4.745   1.840
 3184SOL     OW10450   2.472   1.965   2.804
 3184SOL    HW110451   2.557   1.996   2.848
 3184SOL    HW210452   2.481   1.869   2.778
 3185SOL     OW10453   0.224   6.895   5.328
 3185SOL    HW110454   0.226   6.985   5.371
 3185SOL    HW210455   0.270   6.899   5.239
 3186SOL     OW10456   3.481   1.082   3.068
 3186SOL    HW110457   3.492   1.107   2.972
 3186SOL    HW210458   3.569   1.089   3.115
 3187SOL     OW10459   3.337   4.945   0.071
 3187SOL    HW110460   3.397   5.021   0.046
 3187SOL    HW210461   3.241   4.971   0.056
 3188SOL     OW10462   3.443   5.614   2.884
 3188SOL    HW110463   3.543   5.610   2.896
 3188SOL    HW210464   3.413   5.709   2.884
 3189SOL     OW10465   1.256   0.456   3.470
 3189SOL    HW110466   1.211   0.390   3.530
 3189SOL    HW210467   1.193   0.486   3.399
 3190SOL     OW10468   1.654   5.993   1.962
 3190SOL    HW110469   1.587   6.047   1.913
 3190SOL    HW210470   1.725   6.053   1.999
 3191SOL     OW10471   4.258   0.344   0.541
 3191SOL    HW110472   4.324   0.407   0.500
 3191SOL    HW210473   4.184   0.396   0.582
 3192SOL     OW10474   0.633   2.734   1.978
 3192SOL    HW110475   0.673   2.808   2.032
 3192SOL    HW210476   0.604   2.660   2.039
 3193SOL     OW10477   4.454   1.815   5.802
 3193SOL    HW110478   4.518   1.890   5.782
 3193SOL    HW210479   4.506   1.731   5.817
 3194SOL     OW10480   1.277   3.270   6.032
 3194SOL    HW110481   1.296   3.179   6.069
 3194SOL    HW210482   1.363   3.314   6.006
 3195SOL     OW10483   1.085   3.046   3.859
 3195SOL    HW110484   1.122   2.959   3.825
 3195SOL    HW210485   0.989   3.054   3.832
 3196SOL     OW10486   6.999   0.374   4.684
 3196SOL    HW110487   0.052   0.322   4.729
 3196SOL    HW210488   0.001   0.385   4.587
 3197SOL     OW10489   1.036   4.965   3.744
 3197SOL    HW110490   0.999   4.982   3.652
 3197SOL    HW210491   1.084   4.877   3.745
 3198SOL     OW10492   0.369   2.095   6.349
 3198SOL    HW110493   0.334   2.159   6.418
 3198SOL    HW210494   0.329   2.117   6.261
 3199SOL     OW10495   4.510   1.997   2.180
 3199SOL    HW110496   4.551   1.916   2.222
 3199SOL    HW210497   4.442   1.969   2.112
 3200SOL     OW10498   6.633   2.233   0.423
 3200SOL    HW110499   6.586   2.146   0.416
 3200SOL    HW210500   6.571   2.307   0.396
 3201SOL     OW10501   5.152   3.743   3.682
 3201SOL    HW110502   5.117   3.778   3.595
 3201SOL    HW210503   5.236   3.793   3.705
 3202SOL     OW10504   1.796   4.585   2.170
 3202SOL    HW110505   1.723   4.654   2.164
 3202SOL    HW210506   1.783   4.529   2.252
 3203SOL     OW10507   0.166   0.846   1.020
 3203SOL    HW110508   0.073   0.845   0.984
 3203SOL    HW210509   0.215   0.765   0.988
 3204SOL     OW10510   6.935   5.442   2.000
 3204SOL    HW110511   6.984   5.449   2.086
 3204SOL    HW210512   6.846   5.399   2.016
 3205SOL     OW10513   0.210   3.620   5.145
 3205SOL    HW110514   0.199   3.547   5.077
 3205SOL    HW210515   0.211   3.708   5.099
 3206SOL     OW10516   1.155   6.680   5.780
 3206SOL    HW110517   1.208   6.747   5.832
 3206SOL    HW210518   1.209   6.596   5.770
 3207SOL     OW10519   0.683   1.105   5.038
 3207SOL    HW110520   0.748   1.129   5.109
 3207SOL    HW210521   0.731   1.095   4.951
 3208SOL     OW10522   4.804   5.518   5.006
 3208SOL    HW110523   4.872   5.591   4.998
 3208SOL    HW210524   4.766   5.518   5.099
 3209SOL     OW10525   2.459   0.590   3.998
 3209SOL    HW110526   2.364   0.607   3.973
 3209SOL    HW210527   2.487   0.654   4.069
 3210SOL     OW10528   6.556   4.185   2.582
 3210SOL    HW110529   6.464   4.205   2.616
 3210SOL    HW210530   6.622   4.249   2.623
 3211SOL     OW10531   1.855   4.846   1.369
 3211SOL    HW110532   1.888   4.914   1.434
 3211SOL    HW210533   1.777   4.797   1.409
 3212SOL     OW10534   5.159   2.449   6.848
 3212SOL    HW110535   5.070   2.415   6.817
 3212SOL    HW210536   5.179   2.411   6.938
 3213SOL     OW10537   5.783   5.661   2.625
 3213SOL    HW110538   5.699   5.610   2.604
 3213SOL    HW210539   5.855   5.597   2.652
 3214SOL     OW10540   4.158   5.743   6.575
 3214SOL    HW110541   4.131   5.651   6.548
 3214SOL    HW210542   4.121   5.764   6.665
 3215SOL     OW10543   6.218   2.439   6.438
 3215SOL    HW110544   6.231   2.404   6.531
 3215SOL    HW210545   6.198   2.537   6.442
 3216SOL     OW10546   5.530   6.958   2.694
 3216SOL    HW110547   5.557   0.033   2.676
 3216SOL    HW210548   5.571   6.927   2.779
 3217SOL     OW10549   0.105   4.518   2.404
 3217SOL    HW110550   0.121   4.451   2.331
 3217SOL    HW210551   0.041   4.588   2.372
 3218SOL     OW10552   3.899   0.655   3.796
 3218SOL    HW110553   3.926   0.621   3.706
 3218SOL    HW210554   3.830   0.726   3.787
 3219SOL     OW10555   0.430   0.566   3.285
 3219SOL    HW110556   0.428   0.470   3.314
 3219SOL    HW210557   0.525   0.593   3.268
 3220SOL     OW10558   6.993   4.251   5.183
 3220SOL    HW110559   7.011   4.256   5.085
 3220SOL    HW210560   0.046   4.299   5.233
 3221SOL     OW10561   2.847   6.988   3.672
 3221SOL    HW110562   2.917   6.917   3.666
 3221SOL    HW210563   2.772   6.956   3.728
 3222SOL     OW10564   5.930   2.412   3.109
 3222SOL    HW110565   5.916   2.485   3.042
 3222SOL    HW210566   5.966   2.451   3.194
 3223SOL     OW10567   2.031   5.327   6.309
 3223SOL    HW110568   1.944   5.334   6.260
 3223SOL    HW210569   2.014   5.327   6.407
 3224SOL     OW10570   4.546   4.935   0.625
 3224SOL    HW110571   4.475   4.865   0.624
 3224SOL    HW210572   4.625   4.903   0.573
 3225SOL     OW10573   2.813   3.273   0.719
 3225SOL    HW110574   2.811   3.333   0.638
 3225SOL    HW210575   2.844   3.325   0.798
 3226SOL     OW10576   1.083   0.583   4.046
 3226SOL    HW110577   1.163   0.544   3.999
 3226SOL    HW210578   1.101   0.587   4.145
 3227SOL     OW10579   3.259   0.853   5.555
 3227SOL    HW110580   3.181   0.913   5.538
 3227SOL    HW210581   3.305   0.832   5.469
 3228SOL     OW10582   5.513   3.841   4.508
 3228SOL    HW110583   5.509   3.771   4.579
 3228SOL    HW210584   5.435   3.903   4.518
 3229SOL     OW10585   4.302   1.489   5.384
 3229SOL    HW110586   4.295   1.421   5.311
 3229SOL    HW210587   4.231   1.558   5.372
 3230SOL     OW10588   0.838   0.465   3.994
 3230SOL    HW110589   0.919   0.523   4.008
 3230SOL    HW210590   0.755   0.518   4.012
 3231SOL     OW10591   5.873   6.512   0.887
 3231SOL    HW110592   5.912   6.468   0.806
 3231SOL    HW210593   5.937   6.504   0.963
 3232SOL     OW10594   2.724   4.728   4.548
 3232SOL    HW110595   2.785   4.709   4.625
 3232SOL    HW210596   2.630   4.705   4.574
 3233SOL     OW10597   0.465   4.330   1.186
 3233SOL    HW110598   0.524   4.372   1.117
 3233SOL    HW210599   0.519   4.271   1.246
 3234SOL     OW10600   0.203   1.705   6.476
 3234SOL    HW110601   0.286   1.684   6.529
 3234SOL    HW210602   0.161   1.789   6.512
 3235SOL     OW10603   5.264   6.957   2.843
 3235SOL    HW110604   5.335   6.949   2.773
 3235SOL    HW210605   5.188   7.013   2.807
 3236SOL     OW10606   0.624   3.170   2.539
 3236SOL    HW110607   0.682   3.228   2.482
 3236SOL    HW210608   0.549   3.225   2.576
 3237SOL     OW10609   3.105   0.030   4.541
 3237SOL    HW110610   3.069   0.114   4.499
 3237SOL    HW210611   3.087   6.972   4.480
 3238SOL     OW10612   0.128   6.251   6.198
 3238SOL    HW110613   0.047   6.217   6.244
 3238SOL    HW210614   0.187   6.298   6.263
 3239SOL     OW10615   6.629   0.171   4.858
 3239SOL    HW110616   6.664   0.079   4.841
 3239SOL    HW210617   6.671   0.235   4.793
 3240SOL     OW10618   1.533   0.395   4.939
 3240SOL    HW110619   1.584   0.311   4.918
 3240SOL    HW210620   1.595   0.473   4.940
 3241SOL     OW10621   4.683   0.968   3.896
 3241SOL    HW110622   4.781   0.968   3.913
 3241SOL    HW210623   4.662   0.907   3.819
 3242SOL     OW10624   4.072   6.662   6.960
 3242SOL    HW110625   4.127   6.694   0.017
 3242SOL    HW210626   4.020   6.581   6.988
 3243SOL     OW10627   4.473   5.291   0.907
 3243SOL    HW110628   4.544   5.222   0.893
 3243SOL    HW210629   4.384   5.254   0.880
 3244SOL     OW10630   2.954   6.318   6.489
 3244SOL    HW110631   3.034   6.377   6.481
 3244SOL    HW210632   2.953   6.252   6.414
 3245SOL     OW10633   3.363   2.373   6.534
 3245SOL    HW110634   3.410   2.285   6.523
 3245SOL    HW210635   3.431   2.445   6.550
 3246SOL     OW10636   5.626   6.221   2.773
 3246SOL    HW110637   5.633   6.233   2.674
 3246SOL    HW210638   5.703   6.266   2.818
 3247SOL     OW10639   0.696   2.419   4.048
 3247SOL    HW110640   0.762   2.353   4.013
 3247SOL    HW210641   0.715   2.509   4.009
 3248SOL     OW10642   6.052   3.224   1.532
 3248SOL    HW110643   6.080   3.186   1.444
 3248SOL    HW210644   6.066   3.323   1.532
 3249SOL     OW10645   2.445   4.541   5.024
 3249SOL    HW110646   2.402   4.501   4.942
 3249SOL    HW210647   2.420   4.486   5.104
 3250SOL     OW10648   4.798   6.564   2.583
 3250SOL    HW110649   4.708   6.538   2.619
 3250SOL    HW210650   4.790   6.649   2.532
 3251SOL     OW10651   3.695   2.018   3.236
 3251SOL    HW110652   3.726   2.052   3.147
 3251SOL    HW210653   3.599   1.993   3.230
 3252SOL     OW10654   2.916   1.031   2.478
 3252SOL    HW110655   3.009   1.067   2.486
 3252SOL    HW210656   2.909   0.975   2.396
 3253SOL     OW10657   5.159   2.853   0.857
 3253SOL    HW110658   5.206   2.892   0.777
 3253SOL    HW210659   5.212   2.775   0.891
 3254SOL     OW10660   4.786   4.092   3.140
 3254SOL    HW110661   4.855   4.113   3.210
 3254SOL    HW210662   4.705   4.149   3.155
 3255SOL     OW10663   4.801   5.504   0.390
 3255SOL    HW110664   4.737   5.471   0.321
 3255SOL    HW210665   4.888   5.527   0.346
 3256SOL     OW10666   5.242   6.591   5.466
 3256SOL    HW110667   5.218   6.685   5.489
 3256SOL    HW210668   5.283   6.547   5.546
 3257SOL     OW10669   1.807   2.506   1.113
 3257SOL    HW110670   1.777   2.514   1.208
 3257SOL    HW210671   1.892   2.558   1.102
 3258SOL     OW10672   5.377   6.638   1.933
 3258SOL    HW110673   5.279   6.633   1.950
 3258SOL    HW210674   5.418   6.548   1.950
 3259SOL     OW10675   3.951   6.692   3.986
 3259SOL    HW110676   3.943   6.639   3.902
 3259SOL    HW210677   3.954   6.629   4.064
 3260SOL     OW10678   2.048   2.115   6.829
 3260SOL    HW110679   2.085   2.064   6.907
 3260SOL    HW210680   2.122   2.163   6.783
 3261SOL     OW10681   4.500   0.182   1.059
 3261SOL    HW110682   4.534   0.110   0.998
 3261SOL    HW210683   4.411   0.215   1.025
 3262SOL     OW10684   3.953   1.952   3.266
 3262SOL    HW110685   3.858   1.974   3.291
 3262SOL    HW210686   3.987   2.020   3.202
 3263SOL     OW10687   3.888   6.759   1.428
 3263SOL    HW110688   3.944   6.798   1.501
 3263SOL    HW210689   3.792   6.760   1.455
 3264SOL     OW10690   6.151   4.784   6.963
 3264SOL    HW110691   6.237   4.788   7.013
 3264SOL    HW210692   6.074   4.788   0.008
 3265SOL     OW10693   4.991   0.526   6.052
 3265SOL    HW110694   5.018   0.599   6.114
 3265SOL    HW210695   4.948   0.565   5.971
 3266SOL     OW10696   1.026   1.247   6.105
 3266SOL    HW110697   1.095   1.205   6.163
 3266SOL    HW210698   0.954   1.286   6.163
 3267SOL     OW10699   3.281   1.951   0.513
 3267SOL    HW110700   3.265   2.048   0.531
 3267SOL    HW210701   3.262   1.898   0.596
 3268SOL     OW10702   1.290   4.486   6.193
 3268SOL    HW110703   1.334   4.571   6.221
 3268SOL    HW210704   1.349   4.409   6.215
 3269SOL     OW10705   4.167   4.270   1.384
 3269SOL    HW110706   4.165   4.359   1.340
 3269SOL    HW210707   4.262   4.239   1.394
 3270SOL     OW10708   0.406   6.109   4.553
 3270SOL    HW110709   0.474   6.076   4.487
 3270SOL    HW210710   0.355   6.031   4.589
 3271SOL     OW10711   5.843   1.740   1.472
 3271SOL    HW110712   5.913   1.800   1.433
 3271SOL    HW210713   5.765   1.735   1.410
 3272SOL     OW10714   4.554   0.156   0.594
 3272SOL    HW110715   4.601   0.244   0.592
 3272SOL    HW210716   4.459   0.169   0.625
 3273SOL     OW10717   0.297   6.544   2.096
 3273SOL    HW110718   0.360   6.472   2.126
 3273SOL    HW210719   0.293   6.544   1.996
 3274SOL     OW10720   3.256   1.833   5.665
 3274SOL    HW110721   3.297   1.778   5.592
 3274SOL    HW210722   3.199   1.775   5.722
 3275SOL     OW10723   2.675   0.322   6.701
 3275SOL    HW110724   2.652   0.414   6.669
 3275SOL    HW210725   2.600   0.259   6.678
 3276SOL     OW10726   3.509   6.508   0.284
 3276SOL    HW110727   3.608   6.520   0.293
 3276SOL    HW210728   3.479   6.431   0.341
 3277SOL     OW10729   0.447   6.135   5.043
 3277SOL    HW110730   0.514   6.115   4.972
 3277SOL    HW210731   0.493   6.140   5.132
 3278SOL     OW10732   1.165   0.710   6.165
 3278SOL    HW110733   1.196   0.787   6.222
 3278SOL    HW210734   1.148   0.631   6.224
 3279SOL     OW10735   1.149   0.001   0.854
 3279SOL    HW110736   1.130   6.950   0.922
 3279SOL    HW210737   1.072   0.065   0.850
 3280SOL     OW10738   2.271   4.766   5.975
 3280SOL    HW110739   2.287   4.855   6.018
 3280SOL    HW210740   2.236   4.701   6.042
 3281SOL     OW10741   2.232   5.532   0.992
 3281SOL    HW110742   2.173   5.452   1.000
 3281SOL    HW210743   2.243   5.556   0.896
 3282SOL     OW10744   2.583   5.286   3.397
 3282SOL    HW110745   2.666   5.336   3.373
 3282SOL    HW210746   2.547   5.241   3.315
 3283SOL     OW10747   2.249   1.077   3.940
 3283SOL    HW110748   2.250   1.169   3.902
 3283SOL    HW210749   2.281   1.011   3.872
 3284SOL     OW10750   0.135   4.773   6.904
 3284SOL    HW110751   0.060   4.735   6.957
 3284SOL    HW210752   0.104   4.855   6.855
 3285SOL     OW10753   0.888   1.610   4.009
 3285SOL    HW110754   0.828   1.689   3.998
 3285SOL    HW210755   0.838   1.526   3.986
 3286SOL     OW10756   3.499   3.454   4.625
 3286SOL    HW110757   3.587   3.491   4.594
 3286SOL    HW210758   3.465   3.509   4.702
 3287SOL     OW10759   1.605   5.322   0.829
 3287SOL    HW110760   1.558   5.310   0.742
 3287SOL    HW210761   1.584   5.413   0.865
 3288SOL     OW10762   0.292   6.078   6.023
 3288SOL    HW110763   0.385   6.084   6.060
 3288SOL    HW210764   0.229   6.127   6.084
 3289SOL     OW10765   1.449   6.191   4.897
 3289SOL    HW110766   1.353   6.218   4.908
 3289SOL    HW210767   1.454   6.103   4.850
 3290SOL     OW10768   6.652   5.018   1.522
 3290SOL    HW110769   6.689   4.973   1.440
 3290SOL    HW210770   6.724   5.072   1.565
 3291SOL     OW10771   2.136   6.667   0.520
 3291SOL    HW110772   2.186   6.751   0.500
 3291SOL    HW210773   2.038   6.686   0.522
 3292SOL     OW10774   0.440   6.289   5.696
 3292SOL    HW110775   0.519   6.342   5.726
 3292SOL    HW210776   0.366   6.350   5.669
 3293SOL     OW10777   0.197   1.037   2.399
 3293SOL    HW110778   0.154   1.125   2.420
 3293SOL    HW210779   0.290   1.053   2.366
 3294SOL     OW10780   0.176   0.651   0.220
 3294SOL    HW110781   0.265   0.693   0.206
 3294SOL    HW210782   0.107   0.722   0.235
 3295SOL     OW10783   2.011   2.665   6.796
 3295SOL    HW110784   1.993   2.708   6.884
 3295SOL    HW210785   1.925   2.648   6.748
 3296SOL     OW10786   1.960   0.163   2.658
 3296SOL    HW110787   1.989   0.257   2.678
 3296SOL    HW210788   2.037   0.101   2.671
 3297SOL     OW10789   3.423   2.394   6.266
 3297SOL    HW110790   3.379   2.382   6.355
 3297SOL    HW210791   3.354   2.394   6.194
 3298SOL     OW10792   6.363   3.259   3.150
 3298SOL    HW110793   6.375   3.196   3.074
 3298SOL    HW210794   6.380   3.211   3.236
 3299SOL     OW10795   1.904   6.892   5.065
 3299SOL    HW110796   1.855   6.858   5.146
 3299SOL    HW210797   1.850   6.965   5.022
 3300SOL     OW10798   6.307   6.485   4.272
 3300SOL    HW110799   6.320   6.396   4.316
 3300SOL    HW210800   6.290   6.554   4.342
 3301SOL     OW10801   0.757   3.681   3.170
 3301SOL    HW110802   0.721   3.589   3.153
 3301SOL    HW210803   0.769   3.693   3.269
 3302SOL     OW10804   0.995   4.725   4.124
 3302SOL    HW110805   1.072   4.786   4.140
 3302SOL    HW210806   0.994   4.696   4.028
 3303SOL     OW10807   3.674   3.695   3.119
 3303SOL    HW110808   3.651   3.780   3.071
 3303SOL    HW210809   3.604   3.627   3.102
 3304SOL     OW10810   0.062   6.393   4.655
 3304SOL    HW110811   0.138   6.374   4.593
 3304SOL    HW210812   7.002   6.423   4.602
 3305SOL     OW10813   2.234   1.231   2.449
 3305SOL    HW110814   2.281   1.294   2.510
 3305SOL    HW210815   2.291   1.150   2.433
 3306SOL     OW10816   1.726   4.241   3.171
 3306SOL    HW110817   1.676   4.239   3.085
 3306SOL    HW210818   1.701   4.161   3.226
 3307SOL     OW10819   6.935   5.771   6.411
 3307SOL    HW110820   7.017   5.816   6.446
 3307SOL    HW210821   6.868   5.840   6.382
 3308SOL     OW10822   4.783   5.983   0.713
 3308SOL    HW110823   4.776   5.894   0.758
 3308SOL    HW210824   4.692   6.010   0.681
 3309SOL     OW10825   6.906   4.624   2.927
 3309SOL    HW110826   6.876   4.704   2.979
 3309SOL    HW210827   6.984   4.648   2.870
 3310SOL     OW10828   0.909   5.385   1.969
 3310SOL    HW110829   0.968   5.381   2.050
 3310SOL    HW210830   0.932   5.467   1.916
 3311SOL     OW10831   4.394   6.648   0.775
 3311SOL    HW110832   4.376   6.644   0.873
 3311SOL    HW210833   4.423   6.740   0.750
 3312SOL     OW10834   3.476   3.811   6.986
 3312SOL    HW110835   3.444   3.723   6.951
 3312SOL    HW210836   3.427   3.885   6.939
 3313SOL     OW10837   6.696   5.358   3.713
 3313SOL    HW110838   6.687   5.339   3.616
 3313SOL    HW210839   6.687   5.274   3.765
 3314SOL     OW10840   1.463   3.401   5.419
 3314SOL    HW110841   1.493   3.484   5.372
 3314SOL    HW210842   1.478   3.321   5.359
 3315SOL     OW10843   0.049   2.098   3.791
 3315SOL    HW110844   0.127   2.042   3.764
 3315SOL    HW210845   0.011   2.062   3.877
 3316SOL     OW10846   4.744   1.788   6.934
 3316SOL    HW110847   4.655   1.776   6.892
 3316SOL    HW210848   4.755   1.883   6.963
 3317SOL     OW10849   4.404   2.810   1.032
 3317SOL    HW110850   4.370   2.720   1.004
 3317SOL    HW210851   4.403   2.817   1.131
 3318SOL     OW10852   2.328   5.345   5.744
 3318SOL    HW110853   2.327   5.247   5.727
 3318SOL    HW210854   2.419   5.381   5.725
 3319SOL     OW10855   0.357   5.601   5.039
 3319SOL    HW110856   0.269   5.605   4.991
 3319SOL    HW210857   0.370   5.684   5.092
 3320SOL     OW10858   6.538   0.905   5.869
 3320SOL    HW110859   6.597   0.828   5.846
 3320SOL    HW210860   6.593   0.981   5.902
 3321SOL     OW10861   3.438   3.521   3.096
 3321SOL    HW110862   3.385   3.444   3.132
 3321SOL    HW210863   3.387   3.606   3.109
 3322SOL     OW10864   3.895   1.718   0.238
 3322SOL    HW110865   3.913   1.813   0.210
 3322SOL    HW210866   3.822   1.717   0.306
 3323SOL     OW10867   2.041   5.264   0.443
 3323SOL    HW110868   1.956   5.270   0.497
 3323SOL    HW210869   2.097   5.188   0.478
 3324SOL     OW10870   0.970   2.259   0.844
 3324SOL    HW110871   0.929   2.193   0.781
 3324SOL    HW210872   1.030   2.321   0.793
 3325SOL     OW10873   1.273   3.063   0.887
 3325SOL    HW110874   1.331   3.117   0.949
 3325SOL    HW210875   1.296   2.966   0.896
 3326SOL     OW10876   5.915   1.526   1.185
 3326SOL    HW110877   5.925   1.580   1.269
 3326SOL    HW210878   5.842   1.566   1.129
 3327SOL     OW10879   3.239   6.637   2.544
 3327SOL    HW110880   3.280   6.685   2.467
 3327SOL    HW210881   3.306   6.573   2.582
 3328SOL     OW10882   4.647   0.878   2.279
 3328SOL    HW110883   4.599   0.965   2.289
 3328SOL    HW210884   4.601   0.821   2.211
 3329SOL     OW10885   4.961   0.193   5.730
 3329SOL    HW110886   4.924   0.201   5.822
 3329SOL    HW210887   5.012   0.107   5.722
 3330SOL     OW10888   6.644   5.847   2.850
 3330SOL    HW110889   6.631   5.927   2.909
 3330SOL    HW210890   6.726   5.860   2.795
 3331SOL     OW10891   2.004   3.519   2.827
 3331SOL    HW110892   2.006   3.469   2.740
 3331SOL    HW210893   2.061   3.472   2.894
 3332SOL     OW10894   4.170   5.325   1.201
 3332SOL    HW110895   4.097   5.259   1.184
 3332SOL    HW210896   4.249   5.301   1.146
 3333SOL     OW10897   3.978   3.412   1.766
 3333SOL    HW110898   4.024   3.339   1.715
 3333SOL    HW210899   3.998   3.500   1.724
 3334SOL     OW10900   1.657   2.314   2.673
 3334SOL    HW110901   1.680   2.407   2.704
 3334SOL    HW210902   1.714   2.291   2.595
 3335SOL     OW10903   4.114   4.642   5.265
 3335SOL    HW110904   4.070   4.711   5.207
 3335SOL    HW210905   4.173   4.584   5.209
 3336SOL     OW10906   4.817   5.932   4.145
 3336SOL    HW110907   4.888   5.901   4.208
 3336SOL    HW210908   4.848   5.921   4.051
 3337SOL     OW10909   3.343   3.660   3.420
 3337SOL    HW110910   3.302   3.572   3.446
 3337SOL    HW210911   3.322   3.680   3.324
 3338SOL     OW10912   2.427   1.849   1.459
 3338SOL    HW110913   2.506   1.791   1.439
 3338SOL    HW210914   2.454   1.925   1.517
 3339SOL     OW10915   1.912   6.947   5.522
 3339SOL    HW110916   1.984   6.956   5.453
 3339SOL    HW210917   1.933   6.870   5.582
 3340SOL     OW10918   4.279   0.802   4.434
 3340SOL    HW110919   4.194   0.799   4.383
 3340SOL    HW210920   4.337   0.875   4.398
 3341SOL     OW10921   1.866   4.313   2.926
 3341SOL    HW110922   1.819   4.283   3.009
 3341SOL    HW210923   1.819   4.392   2.887
 3342SOL     OW10924   0.127   0.460   2.758
 3342SOL    HW110925   0.125   0.387   2.690
 3342SOL    HW210926   0.098   0.423   2.847
 3343SOL     OW10927   4.848   4.999   6.430
 3343SOL    HW110928   4.813   4.911   6.463
 3343SOL    HW210929   4.799   5.025   6.347
 3344SOL     OW10930   0.620   3.019   3.224
 3344SOL    HW110931   0.716   3.045   3.222
 3344SOL    HW210932   0.580   3.044   3.312
 3345SOL     OW10933   6.687   4.665   0.191
 3345SOL    HW110934   6.707   4.762   0.177
 3345SOL    HW210935   6.679   4.620   0.102
 3346SOL     OW10936   1.948   1.052   0.150
 3346SOL    HW110937   1.854   1.080   0.166
 3346SOL    HW210938   2.009   1.104   0.211
 3347SOL     OW10939   7.018   3.521   6.471
 3347SOL    HW110940   0.080   3.509   6.414
 3347SOL    HW210941   6.964   3.598   6.436
 3348SOL     OW10942   3.965   3.834   6.093
 3348SOL    HW110943   3.974   3.738   6.119
 3348SOL    HW210944   3.893   3.877   6.146
 3349SOL     OW10945   2.257   5.188   3.885
 3349SOL    HW110946   2.209   5.149   3.806
 3349SOL    HW210947   2.202   5.175   3.967
 3350SOL     OW10948   0.479   4.172   5.390
 3350SOL    HW110949   0.520   4.101   5.447
 3350SOL    HW210950   0.459   4.253   5.445
 3351SOL     OW10951   5.294   0.934   1.508
 3351SOL    HW110952   5.349   1.018   1.506
 3351SOL    HW210953   5.342   0.862   1.459
 3352SOL     OW10954   5.993   2.081   6.645
 3352SOL    HW110955   5.995   2.000   6.703
 3352SOL    HW210956   5.937   2.063   6.564
 3353SOL     OW10957   2.924   0.405   1.544
 3353SOL    HW110958   2.977   0.485   1.574
 3353SOL    HW210959   2.964   0.369   1.460
 3354SOL     OW10960   3.604   3.730   6.543
 3354SOL    HW110961   3.538   3.795   6.505
 3354SOL    HW210962   3.558   3.675   6.614
 3355SOL     OW10963   2.049   0.568   5.241
 3355SOL    HW110964   2.114   0.586   5.315
 3355SOL    HW210965   2.068   0.628   5.164
 3356SOL     OW10966   1.782   6.818   5.283
 3356SOL    HW110967   1.758   6.871   5.365
 3356SOL    HW210968   1.791   6.721   5.308
 3357SOL     OW10969   3.145   3.448   1.557
 3357SOL    HW110970   3.218   3.407   1.502
 3357SOL    HW210971   3.060   3.397   1.541
 3358SOL     OW10972   0.151   1.044   1.860
 3358SOL    HW110973   0.127   1.138   1.883
 3358SOL    HW210974   0.232   1.043   1.801
 3359SOL     OW10975   6.526   6.264   3.811
 3359SOL    HW110976   6.531   6.328   3.888
 3359SOL    HW210977   6.432   6.261   3.777
 3360SOL     OW10978   0.150   3.154   4.984
 3360SOL    HW110979   0.210   3.231   4.967
 3360SOL    HW210980   0.199   3.085   5.039
 3361SOL     OW10981   0.277   0.926   4.500
 3361SOL    HW110982   0.343   1.000   4.490
 3361SOL    HW210983   0.310   0.845   4.452
 3362SOL     OW10984   3.696   1.714   3.935
 3362SOL    HW110985   3.640   1.646   3.888
 3362SOL    HW210986   3.732   1.676   4.020
 3363SOL     OW10987   5.998   3.871   0.362
 3363SOL    HW110988   5.943   3.950   0.388
 3363SOL    HW210989   6.070   3.899   0.299
 3364SOL     OW10990   2.221   4.060   4.005
 3364SOL    HW110991   2.216   4.029   4.100
 3364SOL    HW210992   2.239   4.158   4.003
 3365SOL     OW10993   2.177   3.944   4.259
 3365SOL    HW110994   2.173   4.026   4.316
 3365SOL    HW210995   2.164   3.863   4.316
 3366SOL     OW10996   5.993   3.605   4.197
 3366SOL    HW110997   5.954   3.551   4.272
 3366SOL    HW210998   6.089   3.624   4.215
 3367SOL     OW10999   3.635   3.521   3.789
 3367SOL    HW111000   3.613   3.482   3.878
 3367SOL    HW211001   3.568   3.491   3.721
 3368SOL     OW11002   0.917   6.059   1.261
 3368SOL    HW111003   1.012   6.086   1.280
 3368SOL    HW211004   0.892   6.089   1.169
 3369SOL     OW11005   4.334   3.073   0.925
 3369SOL    HW111006   4.319   3.125   1.009
 3369SOL    HW211007   4.347   2.977   0.946
 3370SOL     OW11008   0.445   6.079   2.929
 3370SOL    HW111009   0.516   6.073   2.999
 3370SOL    HW211010   0.365   6.127   2.967
 3371SOL     OW11011   1.583   2.997   3.521
 3371SOL    HW111012   1.600   2.904   3.552
 3371SOL    HW211013   1.484   3.013   3.516
 3372SOL     OW11014   6.697   3.907   1.845
 3372SOL    HW111015   6.708   3.971   1.921
 3372SOL    HW211016   6.646   3.826   1.877
 3373SOL     OW11017   6.898   2.832   1.720
 3373SOL    HW111018   6.885   2.742   1.679
 3373SOL    HW211019   6.817   2.855   1.775
 3374SOL     OW11020   0.276   0.684   4.228
 3374SOL    HW111021   0.259   0.631   4.145
 3374SOL    HW211022   0.191   0.728   4.257
 3375SOL     OW11023   6.495   5.407   5.851
 3375SOL    HW111024   6.420   5.357   5.808
 3375SOL    HW211025   6.534   5.353   5.925
 3376SOL     OW11026   2.711   3.857   5.227
 3376SOL    HW111027   2.652   3.919   5.176
 3376SOL    HW211028   2.655   3.793   5.280
 3377SOL     OW11029   6.271   4.441   3.539
 3377SOL    HW111030   6.299   4.523   3.489
 3377SOL    HW211031   6.348   4.377   3.545
 3378SOL     OW11032   1.121   6.253   0.773
 3378SOL    HW111033   1.091   6.344   0.801
 3378SOL    HW211034   1.204   6.260   0.719
 3379SOL     OW11035   6.653   4.651   3.692
 3379SOL    HW111036   6.679   4.600   3.611
 3379SOL    HW211037   6.699   4.613   3.772
 3380SOL     OW11038   3.283   4.506   6.446
 3380SOL    HW111039   3.355   4.438   6.459
 3380SOL    HW211040   3.209   4.490   6.511
 3381SOL     OW11041   1.499   3.446   0.695
 3381SOL    HW111042   1.567   3.442   0.622
 3381SOL    HW211043   1.450   3.359   0.700
 3382SOL     OW11044   0.002   2.844   1.347
 3382SOL    HW111045   6.951   2.776   1.330
 3382SOL    HW211046   0.090   2.809   1.317
 3383SOL     OW11047   5.374   5.423   0.266
 3383SOL    HW111048   5.351   5.519   0.252
 3383SOL    HW211049   5.473   5.413   0.273
 3384SOL     OW11050   2.700   4.432   6.877
 3384SOL    HW111051   2.667   4.439   6.783
 3384SOL    HW211052   2.623   4.443   6.940
 3385SOL     OW11053   0.486   2.178   3.999
 3385SOL    HW111054   0.512   2.271   4.027
 3385SOL    HW211055   0.480   2.119   4.079
 3386SOL     OW11056   0.211   4.729   5.850
 3386SOL    HW111057   0.113   4.748   5.842
 3386SOL    HW211058   0.247   4.778   5.930
 3387SOL     OW11059   6.513   0.363   3.341
 3387SOL    HW111060   6.524   0.402   3.249
 3387SOL    HW211061   6.488   0.436   3.405
 3388SOL     OW11062   6.694   3.236   1.197
 3388SOL    HW111063   6.749   3.165   1.241
 3388SOL    HW211064   6.706   3.231   1.098
 3389SOL     OW11065   6.460   6.083   0.199
 3389SOL    HW111066   6.442   6.175   0.164
 3389SOL    HW211067   6.445   6.016   0.126
 3390SOL     OW11068   4.215   6.667   5.870
 3390SOL    HW111069   4.249   6.747   5.920
 3390SOL    HW211070   4.134   6.631   5.916
 3391SOL     OW11071   5.516   3.060   4.231
 3391SOL    HW111072   5.576   3.140   4.224
 3391SOL    HW211073   5.440   3.080   4.293
 3392SOL     OW11074   4.604   6.324   5.698
 3392SOL    HW111075   4.650   6.409   5.671
 3392SOL    HW211076   4.506   6.332   5.678
 3393SOL     OW11077   4.856   5.755   1.288
 3393SOL    HW111078   4.823   5.662   1.302
 3393SOL    HW211079   4.918   5.758   1.210
 3394SOL     OW11080   2.741   5.195   1.610
 3394SOL    HW111081   2.641   5.189   1.601
 3394SOL    HW211082   2.777   5.108   1.643
 3395SOL     OW11083   2.781   0.134   3.468
 3395SOL    HW111084   2.752   0.223   3.505
 3395SOL    HW211085   2.796   0.070   3.543
 3396SOL     OW11086   4.947   1.963   4.528
 3396SOL    HW111087   5.004   1.896   4.577
 3396SOL    HW211088   4.949   1.943   4.430
 3397SOL     OW11089   2.187   5.934   0.504
 3397SOL    HW111090   2.285   5.938   0.486
 3397SOL    HW211091   2.140   6.003   0.449
 3398SOL     OW11092   6.488   2.158   3.993
 3398SOL    HW111093   6.395   2.150   4.028
 3398SOL    HW211094   6.490   2.127   3.898
 3399SOL     OW11095   6.595   5.801   2.180
 3399SOL    HW111096   6.577   5.884   2.128
 3399SOL    HW211097   6.623   5.728   2.117
 3400SOL     OW11098   5.224   1.658   6.042
 3400SOL    HW111099   5.258   1.584   6.099
 3400SOL    HW211100   5.227   1.744   6.094
 3401SOL     OW11101   0.123   3.322   5.468
 3401SOL    HW111102   0.096   3.325   5.372
 3401SOL    HW211103   0.053   3.273   5.521
 3402SOL     OW11104   6.333   3.482   1.441
 3402SOL    HW111105   6.280   3.515   1.520
 3402SOL    HW211106   6.400   3.552   1.416
 3403SOL     OW11107   4.746   6.496   6.787
 3403SOL    HW111108   4.659   6.524   6.829
 3403SOL    HW211109   4.817   6.561   6.812
 3404SOL     OW11110   5.231   3.967   4.951
 3404SOL    HW111111   5.288   4.048   4.957
 3404SOL    HW211112   5.187   3.950   5.039
 3405SOL     OW11113   5.338   5.796   5.957
 3405SOL    HW111114   5.322   5.717   5.899
 3405SOL    HW211115   5.408   5.855   5.916
 3406SOL     OW11116   2.502   4.772   1.658
 3406SOL    HW111117   2.576   4.839   1.644
 3406SOL    HW211118   2.416   4.811   1.624
 3407SOL     OW11119   1.368   3.550   0.334
 3407SOL    HW111120   1.392   3.547   0.237
 3407SOL    HW211121   1.340   3.643   0.358
 3408SOL     OW11122   4.994   2.274   3.656
 3408SOL    HW111123   5.061   2.202   3.644
 3408SOL    HW211124   4.937   2.253   3.735
 3409SOL     OW11125   4.656   0.398   0.632
 3409SOL    HW111126   4.709   0.411   0.716
 3409SOL    HW211127   4.580   0.463   0.630
 3410SOL     OW11128   5.196   0.156   2.556
 3410SOL    HW111129   5.158   0.126   2.643
 3410SOL    HW211130   5.196   0.256   2.552
 3411SOL     OW11131   6.103   2.343   0.618
 3411SOL    HW111132   6.148   2.384   0.697
 3411SOL    HW211133   6.070   2.415   0.557
 3412SOL     OW11134   5.390   3.299   1.410
 3412SOL    HW111135   5.384   3.399   1.411
 3412SOL    HW211136   5.449   3.269   1.485
 3413SOL     OW11137   0.353   3.109   6.150
 3413SOL    HW111138   0.317   3.098   6.243
 3413SOL    HW211139   0.416   3.035   6.130
 3414SOL     OW11140   3.020   4.032   0.810
 3414SOL    HW111141   3.067   4.101   0.754
 3414SOL    HW211142   2.953   4.077   0.869
 3415SOL     OW11143   2.132   2.385   5.600
 3415SOL    HW111144   2.176   2.474   5.607
 3415SOL    HW211145   2.187   2.317   5.647
 3416SOL     OW11146   6.329   0.390   6.464
 3416SOL    HW111147   6.253   0.426   6.409
 3416SOL    HW211148   6.413   0.395   6.410
 3417SOL     OW11149   6.182   0.103   2.759
 3417SOL    HW111150   6.114   0.032   2.780
 3417SOL    HW211151   6.189   0.167   2.836
 3418SOL     OW11152   4.958   4.632   0.576
 3418SOL    HW111153   5.021   4.560   0.547
 3418SOL    HW211154   4.903   4.600   0.653
 3419SOL     OW11155   2.536   5.933   5.878
 3419SOL    HW111156   2.559   6.013   5.823
 3419SOL    HW211157   2.519   5.854   5.819
 3420SOL     OW11158   4.418   2.433   3.004
 3420SOL    HW111159   4.477   2.423   2.924
 3420SOL    HW211160   4.472   2.421   3.087
 3421SOL     OW11161   6.376   2.385   3.216
 3421SOL    HW111162   6.385   2.304   3.159
 3421SOL    HW211163   6.309   2.367   3.288
 3422SOL     OW11164   2.579   6.789   0.994
 3422SOL    HW111165   2.588   6.706   0.938
 3422SOL    HW211166   2.657   6.849   0.977
 3423SOL     OW11167   1.303   4.779   6.292
 3423SOL    HW111168   1.259   4.799   6.379
 3423SOL    HW211169   1.391   4.827   6.287
 3424SOL     OW11170   4.356   0.375   1.881
 3424SOL    HW111171   4.376   0.352   1.976
 3424SOL    HW211172   4.267   0.419   1.875
 3425SOL     OW11173   6.003   3.502   0.695
 3425SOL    HW111174   5.933   3.472   0.759
 3425SOL    HW211175   6.083   3.441   0.702
 3426SOL     OW11176   5.639   2.954   6.846
 3426SOL    HW111177   5.690   2.942   6.760
 3426SOL    HW211178   5.694   2.918   6.922
 3427SOL     OW11179   1.453   2.262   0.643
 3427SOL    HW111180   1.421   2.338   0.587
 3427SOL    HW211181   1.437   2.282   0.740
 3428SOL     OW11182   4.606   6.081   6.079
 3428SOL    HW111183   4.575   6.003   6.133
 3428SOL    HW211184   4.549   6.161   6.100
 3429SOL     OW11185   6.468   0.179   1.129
 3429SOL    HW111186   6.549   0.219   1.086
 3429SOL    HW211187   6.491   0.151   1.222
 3430SOL     OW11188   2.563   4.765   5.501
 3430SOL    HW111189   2.506   4.720   5.570
 3430SOL    HW211190   2.543   4.727   5.411
 3431SOL     OW11191   1.619   5.422   3.175
 3431SOL    HW111192   1.703   5.399   3.225
 3431SOL    HW211193   1.624   5.516   3.142
 3432SOL     OW11194   1.745   4.225   0.576
 3432SOL    HW111195   1.843   4.229   0.595
 3432SOL    HW211196   1.697   4.192   0.657
 3433SOL     OW11197   2.393   1.854   6.735
 3433SOL    HW111198   2.415   1.929   6.673
 3433SOL    HW211199   2.417   1.881   6.828
 3434SOL     OW11200   3.168   2.408   0.772
 3434SOL    HW111201   3.115   2.351   0.835
 3434SOL    HW211202   3.199   2.490   0.819
 3435SOL     OW11203   2.324   0.739   0.866
 3435SOL    HW111204   2.385   0.799   0.816
 3435SOL    HW211205   2.328   0.760   0.964
 3436SOL     OW11206   3.220   6.437   6.523
 3436SOL    HW111207   3.304   6.384   6.514
 3436SOL    HW211208   3.189   6.435   6.618
 3437SOL     OW11209   1.457   6.979   6.633
 3437SOL    HW111210   1.433   6.963   6.729
 3437SOL    HW211211   1.511   6.902   6.599
 3438SOL     OW11212   1.308   3.657   1.356
 3438SOL    HW111213   1.309   3.716   1.276
 3438SOL    HW211214   1.286   3.563   1.329
 3439SOL     OW11215   2.457   5.129   1.990
 3439SOL    HW111216   2.466   5.031   1.972
 3439SOL    HW211217   2.436   5.143   2.086
 3440SOL     OW11218   3.723   3.548   4.529
 3440SOL    HW111219   3.739   3.505   4.440
 3440SOL    HW211220   3.810   3.567   4.574
 3441SOL     OW11221   5.307   4.792   5.761
 3441SOL    HW111222   5.285   4.695   5.767
 3441SOL    HW211223   5.275   4.839   5.843
 3442SOL     OW11224   3.119   3.290   0.937
 3442SOL    HW111225   3.183   3.336   0.999
 3442SOL    HW211226   3.089   3.203   0.977
 3443SOL     OW11227   1.558   6.611   2.216
 3443SOL    HW111228   1.510   6.694   2.246
 3443SOL    HW211229   1.643   6.601   2.269
 3444SOL     OW11230   6.318   4.037   6.908
 3444SOL    HW111231   6.324   4.135   6.894
 3444SOL    HW211232   6.383   4.010   6.980
 3445SOL     OW11233   5.878   4.389   3.187
 3445SOL    HW111234   5.965   4.340   3.176
 3445SOL    HW211235   5.823   4.377   3.104
 3446SOL     OW11236   4.987   0.997   1.087
 3446SOL    HW111237   4.961   1.084   1.129
 3446SOL    HW211238   5.076   0.969   1.123
 3447SOL     OW11239   5.331   1.191   6.701
 3447SOL    HW111240   5.408   1.214   6.642
 3447SOL    HW211241   5.339   1.239   6.788
 3448SOL     OW11242   1.540   6.081   5.158
 3448SOL    HW111243   1.577   6.172   5.173
 3448SOL    HW211244   1.554   6.025   5.240
 3449SOL     OW11245   6.970   4.079   5.422
 3449SOL    HW111246   6.949   4.164   5.372
 3449SOL    HW211247   6.892   4.052   5.477
 3450SOL     OW11248   2.040   6.467   1.643
 3450SOL    HW111249   2.041   6.561   1.676
 3450SOL    HW211250   2.075   6.406   1.714
 3451SOL     OW11251   1.894   1.126   1.311
 3451SOL    HW111252   1.936   1.093   1.396
 3451SOL    HW211253   1.962   1.173   1.256
 3452SOL     OW11254   4.779   0.399   5.075
 3452SOL    HW111255   4.728   0.457   5.011
 3452SOL    HW211256   4.718   0.369   5.148
 3453SOL     OW11257   4.742   6.109   6.423
 3453SOL    HW111258   4.710   6.176   6.355
 3453SOL    HW211259   4.708   6.018   6.400
 3454SOL     OW11260   0.958   2.713   1.564
 3454SOL    HW111261   0.883   2.757   1.614
 3454SOL    HW211262   1.045   2.756   1.589
 3455SOL     OW11263   0.652   3.066   5.446
 3455SOL    HW111264   0.705   3.087   5.364
 3455SOL    HW211265   0.559   3.040   5.420
 3456SOL     OW11266   5.549   4.460   2.712
 3456SOL    HW111267   5.466   4.488   2.759
 3456SOL    HW211268   5.536   4.471   2.613
 3457SOL     OW11269   3.866   4.948   5.721
 3457SOL    HW111270   3.880   4.919   5.626
 3457SOL    HW211271   3.783   5.004   5.727
 3458SOL     OW11272   4.238   1.130   2.539
 3458SOL    HW111273   4.162   1.128   2.473
 3458SOL    HW211274   4.283   1.220   2.536
 3459SOL     OW11275   4.661   6.320   3.111
 3459SOL    HW111276   4.640   6.223   3.100
 3459SOL    HW211277   4.587   6.365   3.162
 3460SOL     OW11278   4.126   1.729   5.141
 3460SOL    HW111279   4.034   1.727   5.181
 3460SOL    HW211280   4.157   1.636   5.124
 3461SOL     OW11281   6.206   5.479   5.091
 3461SOL    HW111282   6.134   5.473   5.161
 3461SOL    HW211283   6.169   5.451   5.003
 3462SOL     OW11284   1.759   4.007   6.451
 3462SOL    HW111285   1.705   3.974   6.529
 3462SOL    HW211286   1.823   3.937   6.421
 3463SOL     OW11287   5.743   4.087   1.000
 3463SOL    HW111288   5.843   4.093   1.000
 3463SOL    HW211289   5.716   3.993   0.978
 3464SOL     OW11290   6.956   4.972   6.337
 3464SOL    HW111291   6.874   4.990   6.283
 3464SOL    HW211292   6.987   5.057   6.380
 3465SOL     OW11293   2.025   0.641   1.169
 3465SOL    HW111294   1.967   0.622   1.089
 3465SOL    HW211295   1.977   0.704   1.230
 3466SOL     OW11296   6.506   4.120   5.349
 3466SOL    HW111297   6.435   4.050   5.342
 3466SOL    HW211298   6.496   4.169   5.436
 3467SOL     OW11299   2.103   1.845   6.946
 3467SOL    HW111300   2.181   1.862   7.006
 3467SOL    HW211301   2.131   1.783   6.872
 3468SOL     OW11302   3.509   7.014   4.016
 3468SOL    HW111303   3.481   0.079   4.061
 3468SOL    HW211304   3.440   6.988   3.949
 3469SOL     OW11305   5.307   2.386   2.913
 3469SOL    HW111306   5.222   2.377   2.964
 3469SOL    HW211307   5.353   2.471   2.938
 3470SOL     OW11308   0.371   5.462   1.218
 3470SOL    HW111309   0.296   5.396   1.229
 3470SOL    HW211310   0.459   5.415   1.230
 3471SOL     OW11311   3.943   6.345   4.536
 3471SOL    HW111312   3.914   6.440   4.543
 3471SOL    HW211313   3.904   6.292   4.611
 3472SOL     OW11314   3.349   1.259   5.106
 3472SOL    HW111315   3.386   1.352   5.107
 3472SOL    HW211316   3.251   1.262   5.123
 3473SOL     OW11317   5.444   0.412   6.113
 3473SOL    HW111318   5.380   0.369   6.050
 3473SOL    HW211319   5.485   0.492   6.070
 3474SOL     OW11320   4.853   5.427   0.872
 3474SOL    HW111321   4.786   5.440   0.946
 3474SOL    HW211322   4.865   5.513   0.822
 3475SOL     OW11323   1.592   5.825   4.702
 3475SOL    HW111324   1.564   5.827   4.798
 3475SOL    HW211325   1.602   5.729   4.673
 3476SOL     OW11326   5.015   0.665   4.107
 3476SOL    HW111327   5.099   0.665   4.162
 3476SOL    HW211328   4.936   0.672   4.168
 3477SOL     OW11329   4.116   5.990   1.466
 3477SOL    HW111330   4.205   5.960   1.500
 3477SOL    HW211331   4.126   6.077   1.417
 3478SOL     OW11332   4.273   4.647   0.352
 3478SOL    HW111333   4.368   4.621   0.337
 3478SOL    HW211334   4.246   4.716   0.284
 3479SOL     OW11335   1.050   0.521   2.459
 3479SOL    HW111336   0.987   0.505   2.383
 3479SOL    HW211337   1.068   0.435   2.506
 3480SOL     OW11338   1.136   1.285   3.169
 3480SOL    HW111339   1.040   1.312   3.171
 3480SOL    HW211340   1.148   1.209   3.106
 3481SOL     OW11341   2.270   6.360   6.796
 3481SOL    HW111342   2.266   6.456   6.821
 3481SOL    HW211343   2.349   6.345   6.736
 3482SOL     OW11344   0.356   2.429   0.508
 3482SOL    HW111345   0.423   2.486   0.556
 3482SOL    HW211346   0.377   2.428   0.410
 3483SOL     OW11347   3.123   6.918   1.353
 3483SOL    HW111348   3.185   6.858   1.302
 3483SOL    HW211349   3.029   6.901   1.324
 3484SOL     OW11350   3.570   3.802   3.495
 3484SOL    HW111351   3.489   3.744   3.481
 3484SOL    HW211352   3.551   3.894   3.462
 3485SOL     OW11353   0.997   2.561   5.103
 3485SOL    HW111354   0.937   2.553   5.023
 3485SOL    HW211355   1.082   2.605   5.076
 3486SOL     OW11356   4.202   1.727   2.176
 3486SOL    HW111357   4.107   1.733   2.143
 3486SOL    HW211358   4.243   1.818   2.176
 3487SOL     OW11359   6.614   0.540   0.233
 3487SOL    HW111360   6.708   0.570   0.217
 3487SOL    HW211361   6.607   0.503   0.325
 3488SOL     OW11362   5.642   3.319   4.120
 3488SOL    HW111363   5.734   3.303   4.155
 3488SOL    HW211364   5.644   3.319   4.020
 3489SOL     OW11365   3.431   0.039   1.121
 3489SOL    HW111366   3.459   0.052   1.216
 3489SOL    HW211367   3.491   6.992   1.077
 3490SOL     OW11368   4.221   3.948   0.390
 3490SOL    HW111369   4.293   3.971   0.456
 3490SOL    HW211370   4.173   3.865   0.420
 3491SOL     OW11371   0.599   3.053   4.757
 3491SOL    HW111372   0.689   3.021   4.727
 3491SOL    HW211373   0.544   2.975   4.786
 3492SOL     OW11374   6.601   4.746   6.662
 3492SOL    HW111375   6.508   4.771   6.688
 3492SOL    HW211376   6.599   4.665   6.603
 3493SOL     OW11377   6.607   4.346   0.871
 3493SOL    HW111378   6.555   4.390   0.797
 3493SOL    HW211379   6.573   4.378   0.959
 3494SOL     OW11380   3.360   0.261   0.646
 3494SOL    HW111381   3.310   0.330   0.593
 3494SOL    HW211382   3.296   0.205   0.698
 3495SOL     OW11383   5.249   4.811   0.477
 3495SOL    HW111384   5.296   4.724   0.497
 3495SOL    HW211385   5.150   4.798   0.484
 3496SOL     OW11386   1.981   3.269   1.266
 3496SOL    HW111387   1.981   3.293   1.169
 3496SOL    HW211388   2.058   3.209   1.286
 3497SOL     OW11389   4.601   0.205   3.428
 3497SOL    HW111390   4.603   0.279   3.496
 3497SOL    HW211391   4.521   0.147   3.444
 3498SOL     OW11392   2.663   1.132   1.764
 3498SOL    HW111393   2.617   1.116   1.677
 3498SOL    HW211394   2.728   1.207   1.754
 3499SOL     OW11395   6.827   3.570   3.717
 3499SOL    HW111396   6.738   3.592   3.757
 3499SOL    HW211397   6.881   3.654   3.708
 3500SOL     OW11398   6.513   3.252   6.993
 3500SOL    HW111399   6.501   3.326   0.041
 3500SOL    HW211400   6.434   3.249   6.933
 3501SOL     OW11401   1.320   4.286   4.631
 3501SOL    HW111402   1.412   4.320   4.647
 3501SOL    HW211403   1.260   4.316   4.705
 3502SOL     OW11404   0.651   3.498   1.411
 3502SOL    HW111405   0.672   3.595   1.397
 3502SOL    HW211406   0.563   3.477   1.369
 3503SOL     OW11407   5.063   6.013   4.700
 3503SOL    HW111408   5.145   5.960   4.679
 3503SOL    HW211409   4.987   5.982   4.642
 3504SOL     OW11410   2.116   3.328   1.743
 3504SOL    HW111411   2.179   3.405   1.751
 3504SOL    HW211412   2.168   3.244   1.728
 3505SOL     OW11413   5.451   5.197   4.919
 3505SOL    HW111414   5.366   5.248   4.934
 3505SOL    HW211415   5.477   5.150   5.003
 3506SOL     OW11416   4.806   5.244   2.579
 3506SOL    HW111417   4.792   5.248   2.480
 3506SOL    HW211418   4.718   5.226   2.624
 3507SOL     OW11419   1.041   0.475   6.296
 3507SOL    HW111420   1.076   0.435   6.380
 3507SOL    HW211421   0.941   0.478   6.300
 3508SOL     OW11422   6.056   3.169   6.902
 3508SOL    HW111423   6.025   3.245   6.847
 3508SOL    HW211424   6.015   3.084   6.869
 3509SOL     OW11425   6.612   6.593   0.917
 3509SOL    HW111426   6.581   6.665   0.855
 3509SOL    HW211427   6.578   6.505   0.885
 3510SOL     OW11428   1.772   3.267   2.074
 3510SOL    HW111429   1.817   3.353   2.050
 3510SOL    HW211430   1.751   3.266   2.172
 3511SOL     OW11431   0.604   1.817   5.950
 3511SOL    HW111432   0.560   1.897   5.992
 3511SOL    HW211433   0.536   1.766   5.897
 3512SOL     OW11434   2.679   3.530   1.150
 3512SOL    HW111435   2.755   3.501   1.092
 3512SOL    HW211436   2.601   3.468   1.136
 3513SOL     OW11437   6.352   4.754   1.309
 3513SOL    HW111438   6.282   4.804   1.360
 3513SOL    HW211439   6.371   4.802   1.223
 3514SOL     OW11440   0.778   6.307   1.340
 3514SOL    HW111441   0.732   6.345   1.420
 3514SOL    HW211442   0.824   6.222   1.365
 3515SOL     OW11443   2.532   6.177   3.678
 3515SOL    HW111444   2.498   6.206   3.767
 3515SOL    HW211445   2.540   6.257   3.618
 3516SOL     OW11446   2.966   1.257   1.078
 3516SOL    HW111447   2.920   1.225   1.161
 3516SOL    HW211448   2.983   1.179   1.018
 3517SOL     OW11449   0.936   0.883   6.229
 3517SOL    HW111450   0.910   0.967   6.276
 3517SOL    HW211451   0.958   0.813   6.297
 3518SOL     OW11452   4.179   3.011   5.642
 3518SOL    HW111453   4.081   3.006   5.658
 3518SOL    HW211454   4.227   3.015   5.730
 3519SOL     OW11455   1.875   6.329   0.404
 3519SOL    HW111456   1.778   6.309   0.395
 3519SOL    HW211457   1.928   6.249   0.376
 3520SOL     OW11458   4.488   5.755   0.957
 3520SOL    HW111459   4.470   5.656   0.951
 3520SOL    HW211460   4.460   5.788   1.047
 3521SOL     OW11461   5.883   2.809   0.518
 3521SOL    HW111462   5.956   2.741   0.530
 3521SOL    HW211463   5.818   2.775   0.449
 3522SOL     OW11464   3.235   4.924   2.325
 3522SOL    HW111465   3.331   4.920   2.355
 3522SOL    HW211466   3.189   4.999   2.372
 3523SOL     OW11467   2.655   4.895   5.956
 3523SOL    HW111468   2.576   4.955   5.946
 3523SOL    HW211469   2.664   4.839   5.873
 3524SOL     OW11470   2.780   0.226   0.779
 3524SOL    HW111471   2.838   0.226   0.861
 3524SOL    HW211472   2.828   0.274   0.705
 3525SOL     OW11473   1.000   2.949   2.943
 3525SOL    HW111474   1.095   2.919   2.937
 3525SOL    HW211475   0.953   2.928   2.857
 3526SOL     OW11476   2.395   1.022   2.432
 3526SOL    HW111477   2.471   0.975   2.477
 3526SOL    HW211478   2.427   1.061   2.346
 3527SOL     OW11479   5.240   2.599   5.843
 3527SOL    HW111480   5.199   2.564   5.759
 3527SOL    HW211481   5.204   2.690   5.862
 3528SOL     OW11482   6.864   6.889   4.584
 3528SOL    HW111483   6.793   6.828   4.549
 3528SOL    HW211484   6.930   6.907   4.512
 3529SOL     OW11485   3.672   6.458   6.139
 3529SOL    HW111486   3.717   6.540   6.172
 3529SOL    HW211487   3.651   6.397   6.216
 3530SOL     OW11488   1.966   5.930   3.376
 3530SOL    HW111489   2.010   6.011   3.339
 3530SOL    HW211490   1.997   5.915   3.470
 3531SOL     OW11491   4.704   3.789   6.755
 3531SOL    HW111492   4.766   3.744   6.691
 3531SOL    HW211493   4.757   3.844   6.820
 3532SOL     OW11494   1.676   6.986   6.982
 3532SOL    HW111495   1.706   7.000   0.057
 3532SOL    HW211496   1.755   6.975   6.923
 3533SOL     OW11497   1.773   1.461   2.613
 3533SOL    HW111498   1.842   1.528   2.641
 3533SOL    HW211499   1.765   1.461   2.513
 3534SOL     OW11500   5.135   1.016   4.160
 3534SOL    HW111501   5.085   1.063   4.232
 3534SOL    HW211502   5.175   0.932   4.196
 3535SOL     OW11503   4.823   5.443   6.287
 3535SOL    HW111504   4.864   5.402   6.369
 3535SOL    HW211505   4.822   5.542   6.297
 3536SOL     OW11506   0.934   4.376   3.311
 3536SOL    HW111507   0.953   4.285   3.347
 3536SOL    HW211508   1.002   4.441   3.345
 3537SOL     OW11509   2.472   4.837   0.832
 3537SOL    HW111510   2.512   4.749   0.807
 3537SOL    HW211511   2.373   4.831   0.830
 3538SOL     OW11512   2.870   1.048   4.705
 3538SOL    HW111513   2.902   0.975   4.644
 3538SOL    HW211514   2.775   1.030   4.731
 3539SOL     OW11515   5.293   5.244   6.247
 3539SOL    HW111516   5.325   5.305   6.174
 3539SOL    HW211517   5.200   5.215   6.228
 3540SOL     OW11518   2.934   3.694   6.561
 3540SOL    HW111519   2.889   3.611   6.529
 3540SOL    HW211520   2.871   3.746   6.619
 3541SOL     OW11521   2.936   2.609   1.108
 3541SOL    HW111522   3.014   2.571   1.057
 3541SOL    HW211523   2.860   2.624   1.046
 3542SOL     OW11524   5.718   2.037   5.966
 3542SOL    HW111525   5.676   2.127   5.976
 3542SOL    HW211526   5.658   1.977   5.914
 3543SOL     OW11527   0.839   2.433   3.645
 3543SOL    HW111528   0.813   2.515   3.595
 3543SOL    HW211529   0.918   2.391   3.602
 3544SOL     OW11530   2.693   4.483   6.246
 3544SOL    HW111531   2.792   4.479   6.264
 3544SOL    HW211532   2.670   4.416   6.175
 3545SOL     OW11533   3.562   6.695   1.153
 3545SOL    HW111534   3.581   6.605   1.193
 3545SOL    HW211535   3.642   6.754   1.166
 3546SOL     OW11536   0.202   4.032   3.343
 3546SOL    HW111537   0.209   3.949   3.399
 3546SOL    HW211538   0.153   4.011   3.259
 3547SOL     OW11539   0.802   4.474   5.629
 3547SOL    HW111540   0.754   4.504   5.712
 3547SOL    HW211541   0.736   4.433   5.566
 3548SOL     OW11542   6.021   0.627   5.122
 3548SOL    HW111543   6.071   0.641   5.207
 3548SOL    HW211544   5.969   0.710   5.099
 3549SOL     OW11545   2.863   6.389   6.996
 3549SOL    HW111546   2.920   6.470   7.011
 3549SOL    HW211547   2.809   6.371   0.059
 3550SOL     OW11548   5.479   1.157   5.169
 3550SOL    HW111549   5.402   1.169   5.106
 3550SOL    HW211550   5.560   1.128   5.118
 3551SOL     OW11551   4.583   1.674   4.371
 3551SOL    HW111552   4.654   1.614   4.334
 3551SOL    HW211553   4.580   1.663   4.471
 3552SOL     OW11554   0.701   6.701   2.940
 3552SOL    HW111555   0.607   6.672   2.925
 3552SOL    HW211556   0.747   6.712   2.851
 3553SOL     OW11557   5.020   5.598   0.254
 3553SOL    HW111558   5.117   5.621   0.269
 3553SOL    HW211559   5.008   5.563   0.162
 3554SOL     OW11560   5.289   2.935   1.114
 3554SOL    HW111561   5.335   2.994   1.047
 3554SOL    HW211562   5.329   2.843   1.111
 3555SOL     OW11563   2.594   2.119   5.336
 3555SOL    HW111564   2.517   2.055   5.345
 3555SOL    HW211565   2.670   2.073   5.290
 3556SOL     OW11566   5.512   0.868   5.751
 3556SOL    HW111567   5.498   0.941   5.684
 3556SOL    HW211568   5.457   0.789   5.726
 3557SOL     OW11569   6.686   1.128   0.894
 3557SOL    HW111570   6.640   1.039   0.894
 3557SOL    HW211571   6.770   1.122   0.948
 3558SOL     OW11572   3.368   6.338   2.219
 3558SOL    HW111573   3.459   6.354   2.181
 3558SOL    HW211574   3.359   6.385   2.306
 3559SOL     OW11575   4.241   6.436   5.080
 3559SOL    HW111576   4.177   6.420   5.005
 3559SOL    HW211577   4.261   6.349   5.125
 3560SOL     OW11578   1.986   5.410   4.489
 3560SOL    HW111579   2.024   5.325   4.527
 3560SOL    HW211580   1.958   5.470   4.564
 3561SOL     OW11581   4.940   3.879   5.454
 3561SOL    HW111582   4.867   3.821   5.416
 3561SOL    HW211583   4.912   3.912   5.544
 3562SOL     OW11584   2.469   1.226   5.833
 3562SOL    HW111585   2.426   1.311   5.806
 3562SOL    HW211586   2.417   1.183   5.907
 3563SOL     OW11587   5.848   2.849   4.917
 3563SOL    HW111588   5.773   2.872   4.856
 3563SOL    HW211589   5.934   2.851   4.867
 3564SOL     OW11590   6.434   4.122   2.008
 3564SOL    HW111591   6.531   4.121   2.033
 3564SOL    HW211592   6.407   4.031   1.978
 3565SOL     OW11593   3.990   5.913   3.369
 3565SOL    HW111594   3.904   5.892   3.416
 3565SOL    HW211595   4.005   5.846   3.296
 3566SOL     OW11596   1.383   0.563   5.512
 3566SOL    HW111597   1.375   0.608   5.423
 3566SOL    HW211598   1.307   0.498   5.523
 3567SOL     OW11599   0.285   3.879   6.251
 3567SOL    HW111600   0.340   3.870   6.334
 3567SOL    HW211601   0.308   3.805   6.188
 3568SOL     OW11602   6.182   3.806   5.564
 3568SOL    HW111603   6.228   3.889   5.598
 3568SOL    HW211604   6.154   3.749   5.642
 3569SOL     OW11605   1.408   1.838   5.266
 3569SOL    HW111606   1.419   1.901   5.189
 3569SOL    HW211607   1.320   1.791   5.258
 3570SOL     OW11608   6.547   1.625   3.872
 3570SOL    HW111609   6.507   1.542   3.832
 3570SOL    HW211610   6.543   1.619   3.972
 3571SOL     OW11611   6.443   6.200   5.704
 3571SOL    HW111612   6.473   6.281   5.655
 3571SOL    HW211613   6.478   6.203   5.798
 3572SOL     OW11614   6.029   5.138   4.559
 3572SOL    HW111615   6.026   5.216   4.496
 3572SOL    HW211616   5.937   5.119   4.593
 3573SOL     OW11617   1.386   2.804   2.491
 3573SOL    HW111618   1.317   2.816   2.420
 3573SOL    HW211619   1.460   2.746   2.457
 3574SOL     OW11620   6.984   3.990   0.731
 3574SOL    HW111621   0.041   3.949   0.780
 3574SOL    HW211622   6.914   3.920   0.715
 3575SOL     OW11623   6.023   4.761   2.105
 3575SOL    HW111624   6.106   4.813   2.085
 3575SOL    HW211625   5.986   4.789   2.193
 3576SOL     OW11626   0.199   1.542   6.080
 3576SOL    HW111627   0.291   1.576   6.099
 3576SOL    HW211628   0.202   1.444   6.063
 3577SOL     OW11629   1.161   3.102   0.136
 3577SOL    HW111630   1.168   3.179   0.199
 3577SOL    HW211631   1.066   3.070   0.132
 3578SOL     OW11632   3.426   5.416   0.864
 3578SOL    HW111633   3.461   5.328   0.834
 3578SOL    HW211634   3.327   5.420   0.848
 3579SOL     OW11635   6.953   3.932   4.648
 3579SOL    HW111636   7.002   3.940   4.561
 3579SOL    HW211637   6.946   4.021   4.691
 3580SOL     OW11638   6.333   2.110   2.085
 3580SOL    HW111639   6.244   2.125   2.128
 3580SOL    HW211640   6.370   2.022   2.115
 3581SOL     OW11641   0.251   0.255   3.122
 3581SOL    HW111642   0.297   0.310   3.052
 3581SOL    HW211643   0.158   0.288   3.134
 3582SOL     OW11644   1.229   0.215   6.330
 3582SOL    HW111645   1.305   0.253   6.383
 3582SOL    HW211646   1.142   0.248   6.367
 3583SOL     OW11647   0.910   5.143   0.463
 3583SOL    HW111648   0.947   5.126   0.372
 3583SOL    HW211649   0.985   5.150   0.529
 3584SOL     OW11650   5.167   5.868   6.460
 3584SOL    HW111651   5.220   5.866   6.376
 3584SOL    HW211652   5.069   5.868   6.438
 3585SOL     OW11653   3.272   4.951   4.226
 3585SOL    HW111654   3.352   4.936   4.168
 3585SOL    HW211655   3.264   4.878   4.293
 3586SOL     OW11656   6.932   3.110   5.693
 3586SOL    HW111657   0.005   3.078   5.714
 3586SOL    HW211658   6.901   3.171   5.765
 3587SOL     OW11659   4.380   6.388   6.938
 3587SOL    HW111660   4.442   6.461   6.966
 3587SOL    HW211661   4.310   6.425   6.877
 3588SOL     OW11662   1.346   1.902   5.915
 3588SOL    HW111663   1.255   1.941   5.902
 3588SOL    HW211664   1.344   1.837   5.991
 3589SOL     OW11665   3.070   1.029   5.409
 3589SOL    HW111666   3.025   1.104   5.459
 3589SOL    HW211667   3.029   1.020   5.318
 3590SOL     OW11668   1.901   5.245   6.565
 3590SOL    HW111669   1.887   5.146   6.560
 3590SOL    HW211670   1.935   5.270   6.655
 3591SOL     OW11671   5.228   2.149   5.693
 3591SOL    HW111672   5.207   2.149   5.595
 3591SOL    HW211673   5.189   2.067   5.735
 3592SOL     OW11674   5.145   3.006   2.443
 3592SOL    HW111675   5.069   3.061   2.477
 3592SOL    HW211676   5.110   2.928   2.391
 3593SOL     OW11677   1.523   6.479   3.855
 3593SOL    HW111678   1.617   6.448   3.840
 3593SOL    HW211679   1.476   6.414   3.914
 3594SOL     OW11680   2.932   1.363   4.278
 3594SOL    HW111681   2.874   1.444   4.281
 3594SOL    HW211682   2.878   1.282   4.298
 3595SOL     OW11683   2.743   5.826   6.391
 3595SOL    HW111684   2.699   5.910   6.359
 3595SOL    HW211685   2.840   5.843   6.406
 3596SOL     OW11686   6.450   1.941   2.709
 3596SOL    HW111687   6.387   1.871   2.676
 3596SOL    HW211688   6.403   1.999   2.775
 3597SOL     OW11689   2.661   5.803   3.703
 3597SOL    HW111690   2.591   5.771   3.640
 3597SOL    HW211691   2.620   5.822   3.792
 3598SOL     OW11692   1.073   6.899   6.789
 3598SOL    HW111693   1.057   6.802   6.808
 3598SOL    HW211694   1.131   6.908   6.708
 3599SOL     OW11695   0.208   1.625   4.911
 3599SOL    HW111696   0.184   1.528   4.902
 3599SOL    HW211697   0.132   1.674   4.952
 3600SOL     OW11698   5.644   2.516   0.556
 3600SOL    HW111699   5.676   2.457   0.482
 3600SOL    HW211700   5.568   2.572   0.524
 3601SOL     OW11701   0.166   4.094   6.162
 3601SOL    HW111702   0.167   4.099   6.063
 3601SOL    HW211703   0.214   4.010   6.191
 3602SOL     OW11704   1.980   0.933   6.938
 3602SOL    HW111705   1.984   0.966   0.012
 3602SOL    HW211706   1.923   0.851   6.934
 3603SOL     OW11707   3.976   4.875   3.774
 3603SOL    HW111708   3.889   4.826   3.776
 3603SOL    HW211709   3.970   4.957   3.831
 3604SOL     OW11710   0.196   2.542   2.789
 3604SOL    HW111711   0.246   2.591   2.860
 3604SOL    HW211712   0.142   2.469   2.832
 3605SOL     OW11713   5.681   3.456   6.397
 3605SOL    HW111714   5.658   3.458   6.495
 3605SOL    HW211715   5.722   3.543   6.371
 3606SOL     OW11716   0.739   4.275   5.330
 3606SOL    HW111717   0.786   4.220   5.261
 3606SOL    HW211718   0.665   4.222   5.371
 3607SOL     OW11719   5.392   6.775   0.627
 3607SOL    HW111720   5.311   6.825   0.658
 3607SOL    HW211721   5.433   6.822   0.549
 3608SOL     OW11722   0.391   2.214   1.649
 3608SOL    HW111723   0.483   2.238   1.617
 3608SOL    HW211724   0.374   2.258   1.737
 3609SOL     OW11725   6.631   0.566   4.658
 3609SOL    HW111726   6.543   0.597   4.694
 3609SOL    HW211727   6.644   0.601   4.566
 3610SOL     OW11728   1.246   6.284   5.906
 3610SOL    HW111729   1.265   6.188   5.930
 3610SOL    HW211730   1.220   6.289   5.810
 3611SOL     OW11731   3.982   5.435   5.938
 3611SOL    HW111732   3.917   5.367   5.904
 3611SOL    HW211733   3.951   5.526   5.912
 3612SOL     OW11734   1.710   6.657   0.883
 3612SOL    HW111735   1.781   6.710   0.837
 3612SOL    HW211736   1.620   6.698   0.863
 3613SOL     OW11737   5.673   5.060   6.483
 3613SOL    HW111738   5.760   5.012   6.474
 3613SOL    HW211739   5.603   4.995   6.513
 3614SOL     OW11740   3.897   3.041   3.371
 3614SOL    HW111741   3.857   3.130   3.351
 3614SOL    HW211742   3.827   2.970   3.364
 3615SOL     OW11743   6.074   5.513   5.566
 3615SOL    HW111744   6.162   5.531   5.520
 3615SOL    HW211745   6.001   5.511   5.498
 3616SOL     OW11746   6.985   2.160   5.037
 3616SOL    HW111747   0.037   2.152   4.967
 3616SOL    HW211748   6.942   2.250   5.029
 3617SOL     OW11749   6.777   1.519   6.495
 3617SOL    HW111750   6.760   1.558   6.585
 3617SOL    HW211751   6.813   1.590   6.434
 3618SOL     OW11752   1.892   1.856   6.677
 3618SOL    HW111753   1.927   1.915   6.750
 3618SOL    HW211754   1.963   1.842   6.609
 3619SOL     OW11755   5.755   2.182   4.330
 3619SOL    HW111756   5.760   2.276   4.295
 3619SOL    HW211757   5.664   2.145   4.312
 3620SOL     OW11758   6.000   0.256   4.792
 3620SOL    HW111759   5.945   0.332   4.757
 3620SOL    HW211760   6.097   0.274   4.774
 3621SOL     OW11761   2.457   3.440   5.896
 3621SOL    HW111762   2.362   3.424   5.869
 3621SOL    HW211763   2.486   3.369   5.959
 3622SOL     OW11764   0.915   2.228   2.185
 3622SOL    HW111765   0.928   2.245   2.282
 3622SOL    HW211766   1.001   2.243   2.137
 3623SOL     OW11767   4.792   5.088   3.404
 3623SOL    HW111768   4.832   5.042   3.324
 3623SOL    HW211769   4.855   5.160   3.435
 3624SOL     OW11770   2.818   6.685   2.943
 3624SOL    HW111771   2.788   6.593   2.919
 3624SOL    HW211772   2.893   6.679   3.009
 3625SOL     OW11773   6.145   3.006   5.511
 3625SOL    HW111774   6.245   3.012   5.515
 3625SOL    HW211775   6.109   2.993   5.603
 3626SOL     OW11776   1.924   4.262   5.359
 3626SOL    HW111777   1.855   4.189   5.361
 3626SOL    HW211778   2.010   4.225   5.324
 3627SOL     OW11779   3.346   3.778   3.815
 3627SOL    HW111780   3.309   3.686   3.801
 3627SOL    HW211781   3.437   3.771   3.857
 3628SOL     OW11782   1.873   5.660   2.547
 3628SOL    HW111783   1.902   5.582   2.603
 3628SOL    HW211784   1.951   5.720   2.531
 3629SOL     OW11785   5.897   1.843   5.255
 3629SOL    HW111786   5.799   1.863   5.247
 3629SOL    HW211787   5.915   1.751   5.221
 3630SOL     OW11788   6.240   2.096   4.364
 3630SOL    HW111789   6.208   2.081   4.458
 3630SOL    HW211790   6.324   2.043   4.349
 3631SOL     OW11791   2.286   0.040   4.870
 3631SOL    HW111792   2.366   7.005   4.843
 3631SOL    HW211793   2.215   6.998   4.904
 3632SOL     OW11794   5.066   0.960   0.575
 3632SOL    HW111795   5.078   0.885   0.639
 3632SOL    HW211796   5.141   0.959   0.508
 3633SOL     OW11797   2.545   2.593   5.907
 3633SOL    HW111798   2.603   2.533   5.852
 3633SOL    HW211799   2.598   2.671   5.939
 3634SOL     OW11800   1.899   6.153   5.001
 3634SOL    HW111801   1.975   6.146   5.066
 3634SOL    HW211802   1.901   6.075   4.939
 3635SOL     OW11803   2.884   1.656   5.757
 3635SOL    HW111804   2.820   1.664   5.680
 3635SOL    HW211805   2.839   1.685   5.841
 3636SOL     OW11806   0.397   5.541   5.827
 3636SOL    HW111807   0.439   5.568   5.740
 3636SOL    HW211808   0.468   5.507   5.889
 3637SOL     OW11809   5.426   1.147   1.393
 3637SOL    HW111810   5.496   1.148   1.464
 3637SOL    HW211811   5.468   1.125   1.305
 3638SOL     OW11812   6.787   4.340   4.515
 3638SOL    HW111813   6.702   4.391   4.523
 3638SOL    HW211814   6.856   4.396   4.469
 3639SOL     OW11815   2.150   4.542   0.792
 3639SOL    HW111816   2.245   4.525   0.766
 3639SOL    HW211817   2.138   4.519   0.889
 3640SOL     OW11818   3.328   5.657   1.470
 3640SOL    HW111819   3.326   5.737   1.530
 3640SOL    HW211820   3.359   5.577   1.521
 3641SOL     OW11821   3.137   0.907   4.811
 3641SOL    HW111822   3.192   0.985   4.780
 3641SOL    HW211823   3.168   0.879   4.902
 3642SOL     OW11824   4.794   0.416   4.613
 3642SOL    HW111825   4.889   0.419   4.645
 3642SOL    HW211826   4.734   0.450   4.685
 3643SOL     OW11827   2.484   5.014   4.959
 3643SOL    HW111828   2.483   5.046   4.864
 3643SOL    HW211829   2.513   4.918   4.961
 3644SOL     OW11830   6.467   2.389   0.987
 3644SOL    HW111831   6.490   2.371   1.083
 3644SOL    HW211832   6.551   2.407   0.936
 3645SOL     OW11833   4.562   1.783   3.485
 3645SOL    HW111834   4.570   1.882   3.493
 3645SOL    HW211835   4.652   1.743   3.468
 3646SOL     OW11836   0.309   5.011   5.976
 3646SOL    HW111837   0.266   5.006   6.066
 3646SOL    HW211838   0.291   5.100   5.935
 3647SOL     OW11839   1.383   2.571   0.737
 3647SOL    HW111840   1.440   2.533   0.810
 3647SOL    HW211841   1.416   2.537   0.648
 3648SOL     OW11842   3.382   5.401   2.208
 3648SOL    HW111843   3.476   5.433   2.204
 3648SOL    HW211844   3.320   5.479   2.196
 3649SOL     OW11845   4.453   3.798   0.928
 3649SOL    HW111846   4.397   3.853   0.867
 3649SOL    HW211847   4.415   3.801   1.021
 3650SOL     OW11848   0.058   5.886   1.028
 3650SOL    HW111849   0.014   5.946   1.095
 3650SOL    HW211850   0.111   5.816   1.076
 3651SOL     OW11851   0.351   5.826   2.455
 3651SOL    HW111852   0.345   5.887   2.533
 3651SOL    HW211853   0.381   5.877   2.374
 3652SOL     OW11854   4.675   6.031   3.557
 3652SOL    HW111855   4.692   5.933   3.567
 3652SOL    HW211856   4.760   6.081   3.575
 3653SOL     OW11857   6.413   1.611   3.062
 3653SOL    HW111858   6.475   1.552   3.011
 3653SOL    HW211859   6.334   1.557   3.093
 3654SOL     OW11860   2.311   6.850   0.466
 3654SOL    HW111861   2.331   6.926   0.404
 3654SOL    HW211862   2.336   6.875   0.559
 3655SOL     OW11863   1.768   0.045   4.683
 3655SOL    HW111864   1.722   0.133   4.671
 3655SOL    HW211865   1.793   0.034   4.779
 3656SOL     OW11866   1.936   2.454   2.155
 3656SOL    HW111867   1.923   2.553   2.149
 3656SOL    HW211868   2.025   2.434   2.195
 3657SOL     OW11869   3.944   5.444   1.045
 3657SOL    HW111870   3.847   5.459   1.062
 3657SOL    HW211871   3.995   5.528   1.062
 3658SOL     OW11872   1.257   5.545   4.977
 3658SOL    HW111873   1.237   5.454   5.014
 3658SOL    HW211874   1.206   5.614   5.028
 3659SOL     OW11875   3.027   4.867   0.282
 3659SOL    HW111876   3.101   4.864   0.350
 3659SOL    HW211877   2.950   4.811   0.314
 3660SOL     OW11878   4.770   5.804   1.608
 3660SOL    HW111879   4.726   5.824   1.520
 3660SOL    HW211880   4.792   5.706   1.613
 3661SOL     OW11881   4.885   1.806   0.696
 3661SOL    HW111882   4.949   1.750   0.748
 3661SOL    HW211883   4.935   1.873   0.642
 3662SOL     OW11884   3.630   0.302   5.215
 3662SOL    HW111885   3.645   0.222   5.158
 3662SOL    HW211886   3.597   0.273   5.305
 3663SOL     OW11887   1.477   1.881   0.399
 3663SOL    HW111888   1.493   1.789   0.434
 3663SOL    HW211889   1.528   1.893   0.314
 3664SOL     OW11890   5.320   1.683   0.597
 3664SOL    HW111891   5.259   1.606   0.578
 3664SOL    HW211892   5.294   1.762   0.541
 3665SOL     OW11893   0.377   6.991   5.144
 3665SOL    HW111894   0.432   0.038   5.195
 3665SOL    HW211895   0.382   7.012   5.046
 3666SOL     OW11896   1.900   4.227   4.137
 3666SOL    HW111897   1.916   4.165   4.061
 3666SOL    HW211898   1.983   4.280   4.154
 3667SOL     OW11899   6.399   0.952   6.408
 3667SOL    HW111900   6.484   0.937   6.457
 3667SOL    HW211901   6.322   0.935   6.469
 3668SOL     OW11902   1.477   0.165   2.919
 3668SOL    HW111903   1.576   0.181   2.926
 3668SOL    HW211904   1.430   0.219   2.989
 3669SOL     OW11905   5.923   2.027   4.169
 3669SOL    HW111906   6.018   2.020   4.198
 3669SOL    HW211907   5.874   2.092   4.227
 3670SOL     OW11908   2.133   5.618   6.827
 3670SOL    HW111909   2.043   5.628   6.868
 3670SOL    HW211910   2.149   5.692   6.762
 3671SOL     OW11911   0.204   0.236   3.508
 3671SOL    HW111912   0.304   0.233   3.515
 3671SOL    HW211913   0.172   0.159   3.453
 3672SOL     OW11914   6.127   2.168   0.413
 3672SOL    HW111915   6.058   2.231   0.376
 3672SOL    HW211916   6.155   2.199   0.504
 3673SOL     OW11917   4.339   1.287   6.873
 3673SOL    HW111918   4.357   1.195   6.907
 3673SOL    HW211919   4.247   1.316   6.901
 3674SOL     OW11920   0.634   6.481   6.889
 3674SOL    HW111921   0.571   6.462   6.964
 3674SOL    HW211922   0.591   6.544   6.825
 3675SOL     OW11923   1.642   2.741   5.640
 3675SOL    HW111924   1.651   2.667   5.707
 3675SOL    HW211925   1.616   2.702   5.551
 3676SOL     OW11926   3.766   4.881   4.274
 3676SOL    HW111927   3.850   4.862   4.326
 3676SOL    HW211928   3.689   4.888   4.337
 3677SOL     OW11929   0.012   6.532   2.936
 3677SOL    HW111930   0.022   6.623   2.976
 3677SOL    HW211931   6.936   6.503   2.942
 3678SOL     OW11932   1.608   2.401   3.797
 3678SOL    HW111933   1.519   2.413   3.753
 3678SOL    HW211934   1.606   2.319   3.854
 3679SOL     OW11935   0.704   0.923   2.506
 3679SOL    HW111936   0.634   0.955   2.442
 3679SOL    HW211937   0.794   0.954   2.474
 3680SOL     OW11938   6.353   3.186   4.035
 3680SOL    HW111939   6.377   3.103   3.985
 3680SOL    HW211940   6.436   3.230   4.069
 3681SOL     OW11941   0.676   0.295   6.040
 3681SOL    HW111942   0.608   0.293   5.967
 3681SOL    HW211943   0.766   0.317   6.000
 3682SOL     OW11944   6.695   1.648   5.515
 3682SOL    HW111945   6.771   1.638   5.452
 3682SOL    HW211946   6.609   1.648   5.463
 3683SOL     OW11947   6.127   6.232   4.497
 3683SOL    HW111948   6.177   6.159   4.544
 3683SOL    HW211949   6.137   6.318   4.549
 3684SOL     OW11950   1.709   3.092   1.854
 3684SOL    HW111951   1.771   3.020   1.823
 3684SOL    HW211952   1.753   3.147   1.924
 3685SOL     OW11953   5.994   6.235   6.281
 3685SOL    HW111954   6.065   6.179   6.324
 3685SOL    HW211955   5.966   6.308   6.344
 3686SOL     OW11956   6.490   5.106   1.969
 3686SOL    HW111957   6.580   5.063   1.980
 3686SOL    HW211958   6.419   5.038   1.987
 3687SOL     OW11959   2.835   6.898   6.607
 3687SOL    HW111960   2.881   6.914   6.694
 3687SOL    HW211961   2.904   6.881   6.536
 3688SOL     OW11962   1.184   3.364   0.267
 3688SOL    HW111963   1.141   3.408   0.188
 3688SOL    HW211964   1.252   3.425   0.307
 3689SOL     OW11965   1.864   1.614   5.211
 3689SOL    HW111966   1.895   1.706   5.236
 3689SOL    HW211967   1.767   1.604   5.235
 3690SOL     OW11968   5.544   0.633   6.005
 3690SOL    HW111969   5.510   0.623   5.912
 3690SOL    HW211970   5.570   0.728   6.022
 3691SOL     OW11971   2.997   3.785   0.026
 3691SOL    HW111972   2.926   3.748   0.086
 3691SOL    HW211973   3.010   3.882   0.046
 3692SOL     OW11974   0.899   6.157   5.167
 3692SOL    HW111975   0.860   6.118   5.083
 3692SOL    HW211976   0.901   6.086   5.238
 3693SOL     OW11977   2.717   2.418   3.492
 3693SOL    HW111978   2.704   2.390   3.587
 3693SOL    HW211979   2.810   2.394   3.463
 3694SOL     OW11980   0.822   6.217   3.451
 3694SOL    HW111981   0.841   6.128   3.492
 3694SOL    HW211982   0.737   6.213   3.398
 3695SOL     OW11983   1.482   1.995   2.626
 3695SOL    HW111984   1.430   2.068   2.670
 3695SOL    HW211985   1.441   1.973   2.537
 3696SOL     OW11986   4.458   6.675   5.191
 3696SOL    HW111987   4.404   6.709   5.114
 3696SOL    HW211988   4.474   6.576   5.179
 3697SOL     OW11989   6.718   6.744   3.565
 3697SOL    HW111990   6.814   6.715   3.574
 3697SOL    HW211991   6.667   6.674   3.516
 3698SOL     OW11992   3.422   0.038   5.841
 3698SOL    HW111993   3.378   6.989   5.783
 3698SOL    HW211994   3.363   0.117   5.850
 3699SOL     OW11995   0.089   3.765   2.561
 3699SOL    HW111996   0.141   3.808   2.487
 3699SOL    HW211997   0.149   3.710   2.618
 3700SOL     OW11998   6.184   6.922   4.252
 3700SOL    HW111999   6.262   6.892   4.198
 3700SOL    HW212000   6.216   6.979   4.328
 3701SOL     OW12001   0.126   0.925   3.937
 3701SOL    HW112002   0.149   0.850   3.874
 3701SOL    HW212003   0.033   0.955   3.919
 3702SOL     OW12004   3.886   0.373   1.522
 3702SOL    HW112005   3.812   0.346   1.459
 3702SOL    HW212006   3.911   0.295   1.578
 3703SOL     OW12007   4.063   4.652   6.131
 3703SOL    HW112008   4.039   4.557   6.152
 3703SOL    HW212009   4.124   4.653   6.051
 3704SOL     OW12010   2.879   1.415   2.450
 3704SOL    HW112011   2.817   1.358   2.396
 3704SOL    HW212012   2.912   1.364   2.529
 3705SOL     OW12013   5.153   0.436   3.682
 3705SOL    HW112014   5.091   0.426   3.760
 3705SOL    HW212015   5.213   0.357   3.677
 3706SOL     OW12016   1.812   3.439   4.335
 3706SOL    HW112017   1.747   3.478   4.269
 3706SOL    HW212018   1.766   3.366   4.387
 3707SOL     OW12019   5.523   2.192   5.582
 3707SOL    HW112020   5.519   2.285   5.619
 3707SOL    HW212021   5.451   2.137   5.624
 3708SOL     OW12022   5.951   0.591   6.701
 3708SOL    HW112023   5.967   0.689   6.704
 3708SOL    HW212024   6.039   0.543   6.694
 3709SOL     OW12025   4.177   1.081   6.169
 3709SOL    HW112026   4.166   1.072   6.268
 3709SOL    HW212027   4.088   1.067   6.124
 3710SOL     OW12028   6.098   5.394   0.309
 3710SOL    HW112029   6.009   5.433   0.333
 3710SOL    HW212030   6.163   5.467   0.291
 3711SOL     OW12031   0.270   6.091   2.015
 3711SOL    HW112032   0.323   6.050   2.089
 3711SOL    HW212033   0.202   6.153   2.054
 3712SOL     OW12034   0.670   6.621   6.488
 3712SOL    HW112035   0.739   6.666   6.544
 3712SOL    HW212036   0.670   6.661   6.396
 3713SOL     OW12037   2.541   5.921   4.899
 3713SOL    HW112038   2.615   5.895   4.961
 3713SOL    HW212039   2.525   5.847   4.834
 3714SOL     OW12040   4.363   6.767   4.332
 3714SOL    HW112041   4.266   6.757   4.311
 3714SOL    HW212042   4.397   6.852   4.292
 3715SOL     OW12043   5.174   4.886   4.079
 3715SOL    HW112044   5.269   4.901   4.105
 3715SOL    HW212045   5.159   4.788   4.062
 3716SOL     OW12046   6.368   0.232   4.437
 3716SOL    HW112047   6.302   0.160   4.461
 3716SOL    HW212048   6.340   0.318   4.481
 3717SOL     OW12049   6.324   5.654   1.000
 3717SOL    HW112050   6.412   5.701   1.002
 3717SOL    HW212051   6.255   5.710   1.044
 3718SOL     OW12052   0.843   6.661   0.273
 3718SOL    HW112053   0.891   6.703   0.196
 3718SOL    HW212054   0.833   6.563   0.257
 3719SOL     OW12055   4.985   4.995   0.102
 3719SOL    HW112056   5.050   5.062   0.138
 3719SOL    HW212057   4.984   4.915   0.161
 3720SOL     OW12058   6.842   1.743   6.324
 3720SOL    HW112059   6.795   1.780   6.244
 3720SOL    HW212060   6.841   1.811   6.397
 3721SOL     OW12061   5.898   4.645   6.839
 3721SOL    HW112062   5.885   4.656   6.741
 3721SOL    HW212063   5.990   4.677   6.864
 3722SOL     OW12064   6.843   5.846   2.684
 3722SOL    HW112065   6.912   5.788   2.727
 3722SOL    HW212066   6.827   5.814   2.590
 3723SOL     OW12067   5.582   6.935   1.493
 3723SOL    HW112068   5.574   0.014   1.475
 3723SOL    HW212069   5.637   6.892   1.422
 3724SOL     OW12070   0.800   5.407   0.487
 3724SOL    HW112071   0.822   5.317   0.450
 3724SOL    HW212072   0.705   5.429   0.465
 3725SOL     OW12073   6.892   5.938   6.701
 3725SOL    HW112074   6.914   5.934   6.604
 3725SOL    HW212075   6.873   6.032   6.728
 3726SOL     OW12076   5.672   3.550   2.031
 3726SOL    HW112077   5.707   3.643   2.040
 3726SOL    HW212078   5.702   3.511   1.945
 3727SOL     OW12079   0.940   3.035   4.997
 3727SOL    HW112080   0.897   3.114   4.954
 3727SOL    HW212081   0.882   2.955   4.986
 3728SOL     OW12082   2.352   3.219   0.245
 3728SOL    HW112083   2.352   3.167   0.331
 3728SOL    HW212084   2.317   3.161   0.172
 3729SOL     OW12085   0.818   2.278   3.202
 3729SOL    HW112086   0.846   2.311   3.292
 3729SOL    HW212087   0.891   2.222   3.162
 3730SOL     OW12088   2.864   0.918   6.898
 3730SOL    HW112089   2.824   0.935   6.989
 3730SOL    HW212090   2.956   0.881   6.909
 3731SOL     OW12091   4.385   1.361   0.803
 3731SOL    HW112092   4.405   1.442   0.747
 3731SOL    HW212093   4.469   1.331   0.849
 3732SOL     OW12094   1.967   3.320   5.870
 3732SOL    HW112095   1.885   3.376   5.878
 3732SOL    HW212096   1.941   3.227   5.843
 3733SOL     OW12097   2.473   4.055   1.297
 3733SOL    HW112098   2.492   3.957   1.298
 3733SOL    HW212099   2.504   4.095   1.384
 3734SOL     OW12100   4.174   1.496   2.610
 3734SOL    HW112101   4.231   1.548   2.674
 3734SOL    HW212102   4.170   1.543   2.522
 3735SOL     OW12103   2.039   2.722   2.911
 3735SOL    HW112104   2.011   2.635   2.869
 3735SOL    HW212105   2.122   2.755   2.867
 3736SOL     OW12106   6.388   2.604   1.142
 3736SOL    HW112107   6.431   2.662   1.073
 3736SOL    HW212108   6.327   2.538   1.096
 3737SOL     OW12109   5.057   0.122   2.785
 3737SOL    HW112110   5.014   0.211   2.798
 3737SOL    HW212111   4.994   0.050   2.813
 3738SOL     OW12112   6.105   6.110   3.448
 3738SOL    HW112113   6.057   6.196   3.467
 3738SOL    HW212114   6.191   6.130   3.401
 3739SOL     OW12115   1.188   3.735   2.195
 3739SOL    HW112116   1.127   3.779   2.262
 3739SOL    HW212117   1.281   3.770   2.207
 3740SOL     OW12118   5.033   1.445   6.961
 3740SOL    HW112119   4.995   1.526   6.918
 3740SOL    HW212120   5.031   1.456   0.041
 3741SOL     OW12121   4.433   3.437   1.087
 3741SOL    HW112122   4.395   3.348   1.113
 3741SOL    HW212123   4.438   3.496   1.168
 3742SOL     OW12124   3.622   1.909   5.876
 3742SOL    HW112125   3.637   1.976   5.949
 3742SOL    HW212126   3.590   1.956   5.794
 3743SOL     OW12127   6.445   5.099   0.307
 3743SOL    HW112128   6.488   5.055   0.386
 3743SOL    HW212129   6.373   5.162   0.338
 3744SOL     OW12130   0.106   4.836   4.085
 3744SOL    HW112131   0.205   4.846   4.090
 3744SOL    HW212132   0.080   4.742   4.106
 3745SOL     OW12133   3.375   5.421   2.533
 3745SOL    HW112134   3.416   5.486   2.469
 3745SOL    HW212135   3.442   5.394   2.602
 3746SOL     OW12136   4.400   2.186   1.667
 3746SOL    HW112137   4.367   2.274   1.701
 3746SOL    HW212138   4.440   2.133   1.742
 3747SOL     OW12139   3.426   0.004   0.153
 3747SOL    HW112140   3.378   0.011   0.240
 3747SOL    HW212141   3.473   6.935   0.148
 3748SOL     OW12142   6.015   0.477   1.194
 3748SOL    HW112143   5.991   0.535   1.116
 3748SOL    HW212144   5.970   0.512   1.276
 3749SOL     OW12145   1.263   6.662   4.327
 3749SOL    HW112146   1.206   6.726   4.276
 3749SOL    HW212147   1.273   6.694   4.422
 3750SOL     OW12148   6.873   3.487   0.323
 3750SOL    HW112149   6.806   3.483   0.249
 3750SOL    HW212150   6.965   3.497   0.285
 3751SOL     OW12151   0.347   4.273   3.054
 3751SOL    HW112152   0.352   4.276   3.154
 3751SOL    HW212153   0.389   4.188   3.022
 3752SOL     OW12154   6.254   1.316   6.034
 3752SOL    HW112155   6.298   1.234   5.997
 3752SOL    HW212156   6.195   1.356   5.964
 3753SOL     OW12157   6.478   0.857   3.723
 3753SOL    HW112158   6.389   0.900   3.718
 3753SOL    HW212159   6.538   0.895   3.653
 3754SOL     OW12160   1.974   1.670   2.043
 3754SOL    HW112161   1.884   1.685   2.002
 3754SOL    HW212162   2.043   1.663   1.971
 3755SOL     OW12163   3.005   5.116   4.444
 3755SOL    HW112164   2.984   5.043   4.378
 3755SOL    HW212165   2.958   5.097   4.530
 3756SOL     OW12166   2.626   6.160   6.960
 3756SOL    HW112167   2.578   6.243   6.930
 3756SOL    HW212168   2.592   6.133   0.031
 3757SOL     OW12169   6.362   4.540   1.747
 3757SOL    HW112170   6.399   4.611   1.808
 3757SOL    HW212171   6.382   4.563   1.652
 3758SOL     OW12172   1.967   0.239   2.948
 3758SOL    HW112173   2.061   0.219   2.977
 3758SOL    HW212174   1.909   0.161   2.969
 3759SOL     OW12175   5.084   0.409   4.298
 3759SOL    HW112176   5.101   0.507   4.304
 3759SOL    HW212177   4.985   0.392   4.303
 3760SOL     OW12178   0.042   0.366   3.695
 3760SOL    HW112179   0.087   0.294   3.748
 3760SOL    HW212180   0.053   0.347   3.597
 3761SOL     OW12181   5.540   0.979   3.927
 3761SOL    HW112182   5.590   1.059   3.961
 3761SOL    HW212183   5.576   0.953   3.838
 3762SOL     OW12184   1.141   3.930   2.443
 3762SOL    HW112185   1.205   4.004   2.418
 3762SOL    HW212186   1.193   3.855   2.484
 3763SOL     OW12187   6.913   4.234   0.181
 3763SOL    HW112188   6.865   4.280   0.255
 3763SOL    HW212189   6.849   4.177   0.129
 3764SOL     OW12190   1.730   0.503   3.087
 3764SOL    HW112191   1.759   0.431   3.024
 3764SOL    HW212192   1.781   0.587   3.068
 3765SOL     OW12193   6.061   1.575   1.802
 3765SOL    HW112194   5.995   1.594   1.875
 3765SOL    HW212195   6.071   1.657   1.745
 3766SOL     OW12196   1.696   3.993   3.314
 3766SOL    HW112197   1.766   3.980   3.245
 3766SOL    HW212198   1.729   3.960   3.402
 3767SOL     OW12199   2.453   4.862   6.727
 3767SOL    HW112200   2.462   4.932   6.656
 3767SOL    HW212201   2.485   4.898   6.814
 3768SOL     OW12202   1.638   0.104   5.246
 3768SOL    HW112203   1.721   0.140   5.204
 3768SOL    HW212204   1.579   0.179   5.275
 3769SOL     OW12205   4.647   6.208   4.795
 3769SOL    HW112206   4.576   6.166   4.739
 3769SOL    HW212207   4.725   6.147   4.803
 3770SOL     OW12208   0.781   1.211   0.289
 3770SOL    HW112209   0.872   1.187   0.256
 3770SOL    HW212210   0.747   1.290   0.239
 3771SOL     OW12211   0.479   4.680   0.420
 3771SOL    HW112212   0.391   4.707   0.382
 3771SOL    HW212213   0.549   4.747   0.394
 3772SOL     OW12214   1.198   5.856   0.658
 3772SOL    HW112215   1.107   5.897   0.647
 3772SOL    HW212216   1.239   5.841   0.568
 3773SOL     OW12217   5.781   3.345   6.159
 3773SOL    HW112218   5.717   3.370   6.086
 3773SOL    HW212219   5.745   3.377   6.247
 3774SOL     OW12220   5.559   6.190   1.393
 3774SOL    HW112221   5.633   6.135   1.354
 3774SOL    HW212222   5.481   6.190   1.331
 3775SOL     OW12223   4.049   4.982   3.499
 3775SOL    HW112224   4.068   4.935   3.585
 3775SOL    HW212225   4.109   4.946   3.427
 3776SOL     OW12226   3.205   2.725   6.751
 3776SOL    HW112227   3.159   2.726   6.662
 3776SOL    HW212228   3.250   2.813   6.766
 3777SOL     OW12229   2.863   6.002   3.978
 3777SOL    HW112230   2.831   5.910   4.000
 3777SOL    HW212231   2.802   6.070   4.018
 3778SOL     OW12232   3.209   5.521   5.260
 3778SOL    HW112233   3.294   5.537   5.311
 3778SOL    HW212234   3.196   5.423   5.247
 3779SOL     OW12235   6.782   4.980   0.125
 3779SOL    HW112236   6.849   5.004   0.055
 3779SOL    HW212237   6.703   4.937   0.082
 3780SOL     OW12238   6.688   3.368   1.442
 3780SOL    HW112239   6.746   3.445   1.470
 3780SOL    HW212240   6.702   3.349   1.345
 3781SOL     OW12241   2.311   6.400   5.363
 3781SOL    HW112242   2.327   6.331   5.292
 3781SOL    HW212243   2.232   6.456   5.338
 3782SOL     OW12244   5.090   6.216   1.488
 3782SOL    HW112245   4.997   6.251   1.484
 3782SOL    HW212246   5.089   6.118   1.510
 3783SOL     OW12247   5.580   5.074   5.931
 3783SOL    HW112248   5.547   5.074   6.026
 3783SOL    HW212249   5.573   5.166   5.893
 3784SOL     OW12250   5.520   2.215   3.637
 3784SOL    HW112251   5.532   2.121   3.670
 3784SOL    HW212252   5.504   2.276   3.715
 3785SOL     OW12253   1.088   4.277   4.323
 3785SOL    HW112254   1.145   4.348   4.364
 3785SOL    HW212255   1.073   4.204   4.390
 3786SOL     OW12256   2.421   2.677   4.530
 3786SOL    HW112257   2.467   2.683   4.442
 3786SOL    HW212258   2.357   2.600   4.529
 3787SOL     OW12259   4.248   0.293   3.339
 3787SOL    HW112260   4.306   0.282   3.259
 3787SOL    HW212261   4.158   0.324   3.311
 3788SOL     OW12262   0.389   2.907   4.887
 3788SOL    HW112263   0.353   2.834   4.945
 3788SOL    HW212264   0.320   2.979   4.877
 3789SOL     OW12265   1.900   2.871   2.683
 3789SOL    HW112266   1.969   2.931   2.642
 3789SOL    HW212267   1.924   2.853   2.778
 3790SOL     OW12268   0.456   6.901   0.672
 3790SOL    HW112269   0.499   6.944   0.592
 3790SOL    HW212270   0.357   6.910   0.666
 3791SOL     OW12271   5.668   1.184   6.021
 3791SOL    HW112272   5.681   1.197   5.923
 3791SOL    HW212273   5.603   1.109   6.036
 3792SOL     OW12274   0.787   0.962   3.683
 3792SOL    HW112275   0.719   1.011   3.629
 3792SOL    HW212276   0.788   0.998   3.776
 3793SOL     OW12277   6.112   6.142   0.249
 3793SOL    HW112278   6.093   6.236   0.280
 3793SOL    HW212279   6.198   6.111   0.289
 3794SOL     OW12280   2.372   3.886   0.469
 3794SOL    HW112281   2.306   3.849   0.403
 3794SOL    HW212282   2.463   3.887   0.427
 3795SOL     OW12283   2.514   5.760   1.248
 3795SOL    HW112284   2.534   5.700   1.326
 3795SOL    HW212285   2.595   5.816   1.227
 3796SOL     OW12286   3.898   2.397   6.586
 3796SOL    HW112287   3.828   2.331   6.612
 3796SOL    HW212288   3.988   2.353   6.588
 3797SOL     OW12289   0.695   4.694   3.294
 3797SOL    HW112290   0.662   4.610   3.339
 3797SOL    HW212291   0.759   4.669   3.221
 3798SOL     OW12292   2.206   6.343   3.120
 3798SOL    HW112293   2.268   6.299   3.056
 3798SOL    HW212294   2.257   6.408   3.176
 3799SOL     OW12295   6.809   2.455   2.887
 3799SOL    HW112296   6.709   2.463   2.887
 3799SOL    HW212297   6.837   2.386   2.821
 3800SOL     OW12298   5.522   1.736   2.888
 3800SOL    HW112299   5.466   1.772   2.813
 3800SOL    HW212300   5.588   1.806   2.917
 3801SOL     OW12301   5.516   0.209   2.223
 3801SOL    HW112302   5.422   0.176   2.232
 3801SOL    HW212303   5.520   0.277   2.150
 3802SOL     OW12304   6.159   1.635   2.099
 3802SOL    HW112305   6.242   1.607   2.147
 3802SOL    HW212306   6.129   1.724   2.134
 3803SOL     OW12307   2.947   3.576   4.409
 3803SOL    HW112308   2.912   3.539   4.322
 3803SOL    HW212309   2.948   3.676   4.405
 3804SOL     OW12310   3.217   6.809   4.526
 3804SOL    HW112311   3.265   6.877   4.582
 3804SOL    HW212312   3.252   6.812   4.432
 3805SOL     OW12313   2.264   3.042   0.049
 3805SOL    HW112314   2.215   2.993   0.120
 3805SOL    HW212315   2.232   3.012   6.979
 3806SOL     OW12316   4.038   4.393   6.873
 3806SOL    HW112317   3.988   4.354   6.951
 3806SOL    HW212318   4.077   4.481   6.901
 3807SOL     OW12319   1.283   4.774   3.769
 3807SOL    HW112320   1.302   4.770   3.671
 3807SOL    HW212321   1.333   4.702   3.816
 3808SOL     OW12322   4.381   6.875   6.020
 3808SOL    HW112323   4.388   6.935   5.939
 3808SOL    HW212324   4.466   6.823   6.030
 3809SOL     OW12325   5.221   2.116   1.719
 3809SOL    HW112326   5.182   2.124   1.811
 3809SOL    HW212327   5.279   2.035   1.714
 3810SOL     OW12328   6.565   2.206   2.317
 3810SOL    HW112329   6.619   2.197   2.233
 3810SOL    HW212330   6.483   2.261   2.299
 3811SOL     OW12331   6.637   5.107   4.873
 3811SOL    HW112332   6.709   5.162   4.830
 3811SOL    HW212333   6.552   5.159   4.873
 3812SOL     OW12334   3.819   6.250   0.195
 3812SOL    HW112335   3.720   6.242   0.199
 3812SOL    HW212336   3.854   6.283   0.283
 3813SOL     OW12337   6.504   3.606   0.766
 3813SOL    HW112338   6.561   3.574   0.841
 3813SOL    HW212339   6.541   3.575   0.679
 3814SOL     OW12340   6.547   0.321   4.231
 3814SOL    HW112341   6.502   0.281   4.312
 3814SOL    HW212342   6.634   0.274   4.215
 3815SOL     OW12343   4.670   3.470   0.369
 3815SOL    HW112344   4.584   3.476   0.419
 3815SOL    HW212345   4.652   3.447   0.274
 3816SOL     OW12346   1.439   6.050   6.005
 3816SOL    HW112347   1.520   6.104   6.029
 3816SOL    HW212348   1.383   6.035   6.086
 3817SOL     OW12349   5.235   3.443   2.363
 3817SOL    HW112350   5.219   3.376   2.435
 3817SOL    HW212351   5.333   3.461   2.355
 3818SOL     OW12352   0.603   0.761   1.843
 3818SOL    HW112353   0.682   0.807   1.803
 3818SOL    HW212354   0.620   0.742   1.940
 3819SOL     OW12355   6.209   4.768   3.578
 3819SOL    HW112356   6.141   4.779   3.650
 3819SOL    HW212357   6.172   4.710   3.506
 3820SOL     OW12358   5.698   0.013   4.491
 3820SOL    HW112359   5.677   6.992   4.402
 3820SOL    HW212360   5.652   6.981   4.563
 3821SOL     OW12361   0.506   6.923   0.075
 3821SOL    HW112362   0.463   6.944   7.008
 3821SOL    HW212363   0.443   6.944   0.150
 3822SOL     OW12364   3.741   1.353   0.069
 3822SOL    HW112365   3.739   1.270   0.014
 3822SOL    HW212366   3.780   1.428   0.015
 3823SOL     OW12367   5.174   4.544   6.285
 3823SOL    HW112368   5.185   4.561   6.383
 3823SOL    HW212369   5.140   4.451   6.270
 3824SOL     OW12370   1.800   3.140   0.240
 3824SOL    HW112371   1.780   3.119   0.335
 3824SOL    HW212372   1.899   3.136   0.225
 3825SOL     OW12373   1.730   3.636   6.407
 3825SOL    HW112374   1.788   3.701   6.358
 3825SOL    HW212375   1.658   3.686   6.455
 3826SOL     OW12376   5.925   4.418   2.022
 3826SOL    HW112377   5.936   4.323   2.050
 3826SOL    HW212378   6.014   4.458   2.003
 3827SOL     OW12379   1.225   1.095   1.457
 3827SOL    HW112380   1.182   1.181   1.429
 3827SOL    HW212381   1.320   1.094   1.427
 3828SOL     OW12382   3.855   3.877   4.732
 3828SOL    HW112383   3.885   3.793   4.687
 3828SOL    HW212384   3.854   3.952   4.666
 3829SOL     OW12385   0.307   4.637   2.561
 3829SOL    HW112386   0.245   4.585   2.502
 3829SOL    HW212387   0.396   4.592   2.564
 3830SOL     OW12388   0.519   0.900   4.951
 3830SOL    HW112389   0.579   0.951   5.013
 3830SOL    HW212390   0.477   0.964   4.886
 3831SOL     OW12391   4.657   2.017   3.160
 3831SOL    HW112392   4.563   1.996   3.184
 3831SOL    HW212393   4.719   1.960   3.213
 3832SOL     OW12394   0.758   0.305   2.367
 3832SOL    HW112395   0.730   0.297   2.463
 3832SOL    HW212396   0.777   0.401   2.346
 3833SOL     OW12397   1.218   6.996   6.501
 3833SOL    HW112398   1.220   0.063   6.451
 3833SOL    HW212399   1.296   6.992   6.563
 3834SOL     OW12400   4.826   3.619   1.167
 3834SOL    HW112401   4.901   3.654   1.111
 3834SOL    HW212402   4.789   3.537   1.125
 3835SOL     OW12403   3.690   6.092   5.329
 3835SOL    HW112404   3.746   6.087   5.411
 3835SOL    HW212405   3.604   6.043   5.344
 3836SOL     OW12406   0.405   5.172   6.352
 3836SOL    HW112407   0.459   5.144   6.432
 3836SOL    HW212408   0.459   5.157   6.269
 3837SOL     OW12409   4.021   4.867   5.147
 3837SOL    HW112410   3.957   4.937   5.177
 3837SOL    HW212411   4.094   4.910   5.093
 3838SOL     OW12412   2.149   1.335   3.513
 3838SOL    HW112413   2.109   1.384   3.436
 3838SOL    HW212414   2.210   1.263   3.480
 3839SOL     OW12415   4.599   0.404   3.624
 3839SOL    HW112416   4.689   0.447   3.626
 3839SOL    HW212417   4.528   0.475   3.623
 3840SOL     OW12418   2.377   0.645   0.473
 3840SOL    HW112419   2.319   0.579   0.424
 3840SOL    HW212420   2.394   0.611   0.566
 3841SOL     OW12421   6.681   5.034   4.230
 3841SOL    HW112422   6.659   4.970   4.156
 3841SOL    HW212423   6.695   5.126   4.192
 3842SOL     OW12424   2.384   2.704   5.068
 3842SOL    HW112425   2.441   2.659   5.136
 3842SOL    HW212426   2.379   2.802   5.088
 3843SOL     OW12427   5.075   3.169   0.385
 3843SOL    HW112428   5.008   3.214   0.326
 3843SOL    HW212429   5.038   3.081   0.416
 3844SOL     OW12430   1.021   5.067   0.246
 3844SOL    HW112431   1.089   5.032   0.181
 3844SOL    HW212432   0.938   5.093   0.196
 3845SOL     OW12433   2.031   6.121   0.347
 3845SOL    HW112434   1.976   6.077   0.276
 3845SOL    HW212435   2.115   6.158   0.307
 3846SOL     OW12436   0.836   3.287   4.372
 3846SOL    HW112437   0.774   3.313   4.298
 3846SOL    HW212438   0.929   3.277   4.336
 3847SOL     OW12439   5.967   1.376   5.020
 3847SOL    HW112440   6.052   1.323   5.025
 3847SOL    HW212441   5.892   1.322   5.059
 3848SOL     OW12442   4.900   3.123   2.459
 3848SOL    HW112443   4.879   3.092   2.366
 3848SOL    HW212444   4.894   3.223   2.463
 3849SOL     OW12445   0.541   6.105   6.105
 3849SOL    HW112446   0.579   6.197   6.094
 3849SOL    HW212447   0.607   6.047   6.152
 3850SOL     OW12448   2.939   2.079   1.599
 3850SOL    HW112449   2.867   2.134   1.557
 3850SOL    HW212450   3.000   2.139   1.652
 3851SOL     OW12451   0.191   5.459   3.516
 3851SOL    HW112452   0.112   5.401   3.498
 3851SOL    HW212453   0.175   5.512   3.599
 3852SOL     OW12454   2.940   6.945   4.071
 3852SOL    HW112455   2.928   6.857   4.026
 3852SOL    HW212456   2.880   6.951   4.151
 3853SOL     OW12457   1.916   1.603   3.835
 3853SOL    HW112458   1.926   1.590   3.933
 3853SOL    HW212459   1.970   1.535   3.786
 3854SOL     OW12460   1.591   2.701   2.872
 3854SOL    HW112461   1.510   2.657   2.832
 3854SOL    HW212462   1.648   2.632   2.916
 3855SOL     OW12463   4.695   6.505   0.239
 3855SOL    HW112464   4.668   6.589   0.191
 3855SOL    HW212465   4.728   6.528   0.331
 3856SOL     OW12466   0.032   2.102   6.378
 3856SOL    HW112467   0.117   2.050   6.368
 3856SOL    HW212468   0.010   2.147   6.292
 3857SOL     OW12469   2.411   0.032   6.065
 3857SOL    HW112470   2.501   7.010   6.052
 3857SOL    HW212471   2.406   0.072   6.156
 3858SOL     OW12472   3.576   1.553   5.177
 3858SOL    HW112473   3.618   1.631   5.222
 3858SOL    HW212474   3.486   1.578   5.142
 3859SOL     OW12475   5.386   0.483   0.959
 3859SOL    HW112476   5.420   0.430   1.036
 3859SOL    HW212477   5.359   0.574   0.991
 3860SOL     OW12478   1.989   0.946   4.308
 3860SOL    HW112479   2.006   0.902   4.220
 3860SOL    HW212480   1.993   0.877   4.381
 3861SOL     OW12481   4.427   5.499   2.462
 3861SOL    HW112482   4.430   5.403   2.490
 3861SOL    HW212483   4.331   5.526   2.447
 3862SOL     OW12484   0.386   0.467   4.384
 3862SOL    HW112485   0.351   0.549   4.339
 3862SOL    HW212486   0.470   0.438   4.339
 3863SOL     OW12487   4.661   0.496   0.049
 3863SOL    HW112488   4.688   0.576   7.014
 3863SOL    HW212489   4.711   0.416   0.018
 3864SOL     OW12490   2.483   0.374   5.232
 3864SOL    HW112491   2.530   0.297   5.276
 3864SOL    HW212492   2.461   0.443   5.301
 3865SOL     OW12493   4.941   0.842   0.153
 3865SOL    HW112494   4.964   0.854   0.056
 3865SOL    HW212495   4.982   0.915   0.207
 3866SOL     OW12496   3.225   1.780   6.760
 3866SOL    HW112497   3.252   1.684   6.769
 3866SOL    HW212498   3.245   1.829   6.845
 3867SOL     OW12499   1.415   4.844   3.124
 3867SOL    HW112500   1.488   4.780   3.101
 3867SOL    HW212501   1.444   4.900   3.202
 3868SOL     OW12502   3.862   0.682   6.420
 3868SOL    HW112503   3.915   0.663   6.503
 3868SOL    HW212504   3.765   0.663   6.437
 3869SOL     OW12505   6.943   3.823   3.713
 3869SOL    HW112506   7.007   3.899   3.709
 3869SOL    HW212507   6.852   3.857   3.739
 3870SOL     OW12508   6.591   6.957   3.154
 3870SOL    HW112509   6.664   6.949   3.222
 3870SOL    HW212510   6.589   6.874   3.098
 3871SOL     OW12511   2.933   6.462   3.633
 3871SOL    HW112512   2.956   6.494   3.542
 3871SOL    HW212513   2.872   6.383   3.627
 3872SOL     OW12514   3.288   2.915   4.115
 3872SOL    HW112515   3.264   2.997   4.167
 3872SOL    HW212516   3.239   2.836   4.152
 3873SOL     OW12517   5.089   4.026   0.794
 3873SOL    HW112518   5.010   3.972   0.823
 3873SOL    HW212519   5.136   3.979   0.719
 3874SOL     OW12520   4.522   0.295   0.255
 3874SOL    HW112521   4.474   0.271   0.170
 3874SOL    HW212522   4.605   0.239   0.263
 3875SOL     OW12523   2.018   3.087   4.150
 3875SOL    HW112524   2.031   3.134   4.238
 3875SOL    HW212525   2.088   3.116   4.086
 3876SOL     OW12526   3.910   6.036   0.073
 3876SOL    HW112527   3.855   6.112   0.108
 3876SOL    HW212528   4.001   6.039   0.115
 3877SOL     OW12529   6.679   2.239   0.714
 3877SOL    HW112530   6.675   2.239   0.614
 3877SOL    HW212531   6.753   2.300   0.744
 3878SOL     OW12532   4.818   6.861   4.502
 3878SOL    HW112533   4.897   6.899   4.549
 3878SOL    HW212534   4.766   6.803   4.565
 3879SOL     OW12535   5.757   5.016   0.088
 3879SOL    HW112536   5.793   4.970   0.169
 3879SOL    HW212537   5.809   4.987   0.008
 3880SOL     OW12538   5.436   3.676   4.724
 3880SOL    HW112539   5.471   3.584   4.707
 3880SOL    HW212540   5.337   3.677   4.713
 3881SOL     OW12541   1.056   3.264   1.036
 3881SOL    HW112542   1.126   3.268   0.963
 3881SOL    HW212543   1.013   3.354   1.045
 3882SOL     OW12544   1.603   1.157   6.900
 3882SOL    HW112545   1.595   1.217   6.821
 3882SOL    HW212546   1.597   1.211   6.984
 3883SOL     OW12547   4.623   0.502   2.729
 3883SOL    HW112548   4.680   0.581   2.707
 3883SOL    HW212549   4.596   0.455   2.645
 3884SOL     OW12550   0.696   6.052   3.073
 3884SOL    HW112551   0.738   6.053   3.164
 3884SOL    HW212552   0.744   5.986   3.016
 3885SOL     OW12553   5.722   6.466   3.019
 3885SOL    HW112554   5.674   6.440   3.103
 3885SOL    HW212555   5.662   6.524   2.963
 3886SOL     OW12556   5.128   5.655   5.457
 3886SOL    HW112557   5.124   5.708   5.372
 3886SOL    HW212558   5.036   5.640   5.492
 3887SOL     OW12559   1.055   6.744   0.411
 3887SOL    HW112560   0.966   6.716   0.373
 3887SOL    HW212561   1.043   6.825   0.467
 3888SOL     OW12562   6.153   5.961   4.614
 3888SOL    HW112563   6.115   5.962   4.706
 3888SOL    HW212564   6.213   5.882   4.604
 3889SOL     OW12565   6.159   2.647   6.957
 3889SOL    HW112566   6.187   2.734   6.997
 3889SOL    HW212567   6.231   2.615   6.895
 3890SOL     OW12568   5.626   4.288   4.248
 3890SOL    HW112569   5.675   4.340   4.179
 3890SOL    HW212570   5.652   4.320   4.339
 3891SOL     OW12571   5.116   3.774   3.406
 3891SOL    HW112572   5.021   3.795   3.385
 3891SOL    HW212573   5.133   3.677   3.387
 3892SOL     OW12574   0.313   3.095   1.565
 3892SOL    HW112575   0.357   3.005   1.564
 3892SOL    HW212576   0.382   3.166   1.578
 3893SOL     OW12577   4.332   3.755   1.156
 3893SOL    HW112578   4.388   3.781   1.234
 3893SOL    HW212579   4.295   3.663   1.169
 3894SOL     OW12580   5.367   0.715   6.784
 3894SOL    HW112581   5.376   0.615   6.777
 3894SOL    HW212582   5.451   0.753   6.823
 3895SOL     OW12583   1.912   0.191   5.154
 3895SOL    HW112584   2.010   0.182   5.175
 3895SOL    HW212585   1.875   0.269   5.203
 3896SOL     OW12586   0.297   1.100   6.230
 3896SOL    HW112587   0.317   1.005   6.205
 3896SOL    HW212588   0.210   1.104   6.279
 3897SOL     OW12589   4.098   5.499   2.474
 3897SOL    HW112590   4.088   5.531   2.380
 3897SOL    HW212591   4.111   5.399   2.474
 3898SOL     OW12592   3.412   2.479   7.015
 3898SOL    HW112593   3.445   2.400   0.047
 3898SOL    HW212594   3.314   2.488   0.008
 3899SOL     OW12595   4.632   6.360   6.300
 3899SOL    HW112596   4.564   6.353   6.228
 3899SOL    HW212597   4.639   6.455   6.330
 3900SOL     OW12598   5.204   2.782   4.043
 3900SOL    HW112599   5.150   2.832   3.976
 3900SOL    HW212600   5.301   2.801   4.029
 3901SOL     OW12601   3.412   0.887   6.379
 3901SOL    HW112602   3.401   0.788   6.386
 3901SOL    HW212603   3.402   0.929   6.469
 3902SOL     OW12604   6.028   3.117   1.919
 3902SOL    HW112605   6.089   3.165   1.981
 3902SOL    HW212606   6.015   3.023   1.951
 3903SOL     OW12607   3.781   6.554   0.295
 3903SOL    HW112608   3.828   6.483   0.347
 3903SOL    HW212609   3.847   6.623   0.265
 3904SOL     OW12610   1.618   0.608   6.759
 3904SOL    HW112611   1.539   0.551   6.778
 3904SOL    HW212612   1.686   0.556   6.706
 3905SOL     OW12613   0.031   6.697   5.688
 3905SOL    HW112614   0.037   6.713   5.589
 3905SOL    HW212615   6.960   6.726   5.720
 3906SOL     OW12616   5.675   6.751   5.856
 3906SOL    HW112617   5.690   6.849   5.864
 3906SOL    HW212618   5.762   6.702   5.865
 3907SOL     OW12619   5.907   1.042   3.942
 3907SOL    HW112620   5.841   1.046   4.017
 3907SOL    HW212621   5.908   1.129   3.893
 3908SOL     OW12622   0.806   2.662   6.875
 3908SOL    HW112623   0.839   2.756   6.881
 3908SOL    HW212624   0.872   2.606   6.825
 3909SOL     OW12625   5.691   5.926   4.336
 3909SOL    HW112626   5.633   5.946   4.415
 3909SOL    HW212627   5.768   5.990   4.334
 3910SOL     OW12628   3.433   3.872   2.654
 3910SOL    HW112629   3.455   3.814   2.733
 3910SOL    HW212630   3.334   3.883   2.648
 3911SOL     OW12631   6.024   1.542   5.335
 3911SOL    HW112632   6.078   1.502   5.261
 3911SOL    HW212633   5.927   1.540   5.311
 3912SOL     OW12634   5.703   0.665   4.739
 3912SOL    HW112635   5.662   0.733   4.678
 3912SOL    HW212636   5.794   0.641   4.707
 3913SOL     OW12637   2.412   6.849   6.361
 3913SOL    HW112638   2.462   6.840   6.447
 3913SOL    HW212639   2.314   6.842   6.379
 3914SOL     OW12640   2.889   0.899   1.691
 3914SOL    HW112641   2.801   0.860   1.719
 3914SOL    HW212642   2.958   0.881   1.761
 3915SOL     OW12643   5.362   6.205   1.226
 3915SOL    HW112644   5.368   6.155   1.140
 3915SOL    HW212645   5.277   6.257   1.229
 3916SOL     OW12646   1.145   7.010   3.878
 3916SOL    HW112647   1.103   6.999   3.788
 3916SOL    HW212648   1.204   6.931   3.897
 3917SOL     OW12649   0.228   6.135   6.583
 3917SOL    HW112650   0.154   6.155   6.519
 3917SOL    HW212651   0.237   6.211   6.648
 3918SOL     OW12652   5.816   5.926   1.251
 3918SOL    HW112653   5.788   5.838   1.288
 3918SOL    HW212654   5.759   5.949   1.172
 3919SOL     OW12655   4.675   6.785   0.116
 3919SOL    HW112656   4.695   6.821   0.025
 3919SOL    HW212657   4.712   6.847   0.185
 3920SOL     OW12658   2.601   3.600   0.658
 3920SOL    HW112659   2.542   3.668   0.699
 3920SOL    HW212660   2.693   3.608   0.696
 3921SOL     OW12661   0.027   3.125   1.311
 3921SOL    HW112662   0.102   3.156   1.252
 3921SOL    HW212663   0.033   3.026   1.322
 3922SOL     OW12664   0.088   3.917   1.937
 3922SOL    HW112665   0.144   3.977   1.881
 3922SOL    HW212666   0.024   3.866   1.879
 3923SOL     OW12667   6.804   1.078   0.225
 3923SOL    HW112668   6.833   1.161   0.176
 3923SOL    HW212669   6.726   1.099   0.284
 3924SOL     OW12670   5.263   5.353   3.691
 3924SOL    HW112671   5.193   5.283   3.701
 3924SOL    HW212672   5.328   5.348   3.767
 3925SOL     OW12673   1.908   5.140   1.150
 3925SOL    HW112674   1.905   5.099   1.059
 3925SOL    HW212675   1.826   5.116   1.201
 3926SOL     OW12676   5.317   4.517   2.208
 3926SOL    HW112677   5.372   4.478   2.135
 3926SOL    HW212678   5.245   4.575   2.169
 3927SOL     OW12679   6.776   2.764   5.027
 3927SOL    HW112680   6.829   2.704   5.087
 3927SOL    HW212681   6.678   2.750   5.043
 3928SOL     OW12682   3.909   5.935   6.581
 3928SOL    HW112683   3.900   5.848   6.533
 3928SOL    HW212684   3.987   5.986   6.546
 3929SOL     OW12685   0.147   0.693   4.713
 3929SOL    HW112686   0.106   0.647   4.635
 3929SOL    HW212687   0.145   0.792   4.699
 3930SOL     OW12688   2.793   2.158   4.155
 3930SOL    HW112689   2.736   2.234   4.124
 3930SOL    HW212690   2.754   2.119   4.239
 3931SOL     OW12691   1.522   1.728   1.585
 3931SOL    HW112692   1.470   1.765   1.661
 3931SOL    HW212693   1.574   1.648   1.616
 3932SOL     OW12694   1.314   4.452   3.527
 3932SOL    HW112695   1.404   4.410   3.521
 3932SOL    HW212696   1.274   4.431   3.616
 3933SOL     OW12697   1.693   6.480   6.668
 3933SOL    HW112698   1.635   6.420   6.723
 3933SOL    HW212699   1.789   6.455   6.682
 3934SOL     OW12700   6.910   1.001   6.888
 3934SOL    HW112701   6.958   1.086   6.867
 3934SOL    HW212702   6.882   0.957   6.803
 3935SOL     OW12703   3.441   6.625   6.860
 3935SOL    HW112704   3.397   6.665   6.780
 3935SOL    HW212705   3.375   6.617   6.935
 3936SOL     OW12706   6.646   4.949   5.569
 3936SOL    HW112707   6.700   4.900   5.637
 3936SOL    HW212708   6.663   4.910   5.479
 3937SOL     OW12709   0.572   1.459   2.958
 3937SOL    HW112710   0.580   1.514   3.040
 3937SOL    HW212711   0.475   1.454   2.931
 3938SOL     OW12712   0.277   2.250   3.146
 3938SOL    HW112713   0.354   2.284   3.092
 3938SOL    HW212714   0.305   2.167   3.195
 3939SOL     OW12715   1.911   3.153   3.247
 3939SOL    HW112716   1.820   3.173   3.281
 3939SOL    HW212717   1.910   3.067   3.197
 3940SOL     OW12718   4.790   4.501   1.118
 3940SOL    HW112719   4.696   4.470   1.130
 3940SOL    HW212720   4.805   4.586   1.169
 3941SOL     OW12721   5.537   3.370   5.224
 3941SOL    HW112722   5.527   3.275   5.256
 3941SOL    HW212723   5.634   3.392   5.214
 3942SOL     OW12724   0.516   6.671   6.726
 3942SOL    HW112725   0.440   6.726   6.693
 3942SOL    HW212726   0.548   6.611   6.653
 3943SOL     OW12727   0.123   2.922   3.450
 3943SOL    HW112728   0.213   2.879   3.439
 3943SOL    HW212729   0.099   2.925   3.547
 3944SOL     OW12730   4.809   2.921   4.747
 3944SOL    HW112731   4.884   2.911   4.682
 3944SOL    HW212732   4.725   2.943   4.697
 3945SOL     OW12733   0.157   2.018   0.241
 3945SOL    HW112734   0.141   1.994   0.337
 3945SOL    HW212735   0.082   2.077   0.209
 3946SOL     OW12736   5.290   4.467   4.494
 3946SOL    HW112737   5.333   4.446   4.581
 3946SOL    HW212738   5.324   4.404   4.423
 3947SOL     OW12739   5.586   6.058   0.195
 3947SOL    HW112740   5.618   6.123   0.126
 3947SOL    HW212741   5.635   5.971   0.185
 3948SOL     OW12742   0.125   5.020   2.645
 3948SOL    HW112743   0.090   4.982   2.730
 3948SOL    HW212744   0.213   5.066   2.662
 3949SOL     OW12745   5.208   6.632   3.539
 3949SOL    HW112746   5.235   6.715   3.587
 3949SOL    HW212747   5.131   6.590   3.586
 3950SOL     OW12748   1.940   4.510   0.626
 3950SOL    HW112749   2.024   4.522   0.680
 3950SOL    HW212750   1.962   4.462   0.541
 3951SOL     OW12751   4.495   0.748   1.308
 3951SOL    HW112752   4.493   0.648   1.321
 3951SOL    HW212753   4.460   0.770   1.217
 3952SOL     OW12754   6.720   2.540   2.293
 3952SOL    HW112755   6.789   2.599   2.251
 3952SOL    HW212756   6.733   2.538   2.392
 3953SOL     OW12757   3.912   4.565   1.354
 3953SOL    HW112758   3.894   4.471   1.326
 3953SOL    HW212759   3.945   4.617   1.275
 3954SOL     OW12760   4.227   5.040   5.513
 3954SOL    HW112761   4.196   4.949   5.487
 3954SOL    HW212762   4.172   5.073   5.590
 3955SOL     OW12763   3.166   0.390   6.255
 3955SOL    HW112764   3.212   0.345   6.332
 3955SOL    HW212765   3.110   0.465   6.289
 3956SOL     OW12766   1.380   0.857   2.552
 3956SOL    HW112767   1.420   0.884   2.465
 3956SOL    HW212768   1.451   0.821   2.612
 3957SOL     OW12769   4.563   6.551   4.352
 3957SOL    HW112770   4.485   6.612   4.343
 3957SOL    HW212771   4.647   6.600   4.329
 3958SOL     OW12772   5.405   1.334   4.232
 3958SOL    HW112773   5.390   1.430   4.257
 3958SOL    HW212774   5.336   1.306   4.164
 3959SOL     OW12775   4.881   6.115   0.298
 3959SOL    HW112776   4.911   6.053   0.370
 3959SOL    HW212777   4.790   6.088   0.266
 3960SOL     OW12778   5.033   0.897   6.476
 3960SOL    HW112779   4.992   0.988   6.464
 3960SOL    HW212780   5.127   0.907   6.507
 3961SOL     OW12781   5.112   1.069   2.442
 3961SOL    HW112782   5.065   1.006   2.504
 3961SOL    HW212783   5.053   1.089   2.364
 3962SOL     OW12784   2.632   5.130   6.582
 3962SOL    HW112785   2.728   5.121   6.556
 3962SOL    HW212786   2.623   5.202   6.651
 3963SOL     OW12787   4.609   5.559   2.262
 3963SOL    HW112788   4.696   5.520   2.294
 3963SOL    HW212789   4.538   5.542   2.331
 3964SOL     OW12790   4.461   4.891   3.485
 3964SOL    HW112791   4.473   4.939   3.572
 3964SOL    HW212792   4.421   4.801   3.502
 3965SOL     OW12793   4.977   3.092   4.419
 3965SOL    HW112794   4.955   3.167   4.481
 3965SOL    HW212795   5.067   3.054   4.443
 3966SOL     OW12796   3.957   6.137   6.308
 3966SOL    HW112797   3.865   6.101   6.319
 3966SOL    HW212798   4.021   6.083   6.363
 3967SOL     OW12799   2.148   3.981   1.941
 3967SOL    HW112800   2.054   4.012   1.927
 3967SOL    HW212801   2.148   3.894   1.991
 3968SOL     OW12802   4.302   0.791   0.720
 3968SOL    HW112803   4.238   0.728   0.763
 3968SOL    HW212804   4.380   0.740   0.684
 3969SOL     OW12805   1.393   5.053   2.394
 3969SOL    HW112806   1.368   4.960   2.366
 3969SOL    HW212807   1.483   5.076   2.356
 3970SOL     OW12808   4.931   6.035   3.261
 3970SOL    HW112809   4.962   5.984   3.341
 3970SOL    HW212810   4.929   6.132   3.283
 3971SOL     OW12811   3.196   5.313   4.362
 3971SOL    HW112812   3.186   5.267   4.274
 3971SOL    HW212813   3.139   5.267   4.430
 3972SOL     OW12814   1.317   3.804   0.411
 3972SOL    HW112815   1.408   3.843   0.398
 3972SOL    HW212816   1.269   3.855   0.483
 3973SOL     OW12817   1.306   5.701   0.045
 3973SOL    HW112818   1.366   5.781   0.047
 3973SOL    HW212819   1.327   5.640   0.121
 3974SOL     OW12820   2.036   6.780   5.712
 3974SOL    HW112821   2.110   6.824   5.764
 3974SOL    HW212822   1.994   6.709   5.769
 3975SOL     OW12823   5.051   1.418   6.152
 3975SOL    HW112824   5.133   1.432   6.207
 3975SOL    HW212825   5.067   1.453   6.060
 3976SOL     OW12826   1.609   6.170   3.084
 3976SOL    HW112827   1.669   6.238   3.041
 3976SOL    HW212828   1.656   6.082   3.089
 3977SOL     OW12829   1.727   2.794   6.168
 3977SOL    HW112830   1.688   2.883   6.146
 3977SOL    HW212831   1.796   2.805   6.240
 3978SOL     OW12832   5.606   5.234   3.466
 3978SOL    HW112833   5.666   5.182   3.527
 3978SOL    HW212834   5.568   5.313   3.515
 3979SOL     OW12835   3.877   0.966   6.540
 3979SOL    HW112836   3.913   0.876   6.516
 3979SOL    HW212837   3.925   1.001   6.621
 3980SOL     OW12838   5.596   6.801   6.553
 3980SOL    HW112839   5.555   6.833   6.638
 3980SOL    HW212840   5.619   6.880   6.495
 3981SOL     OW12841   3.891   6.354   0.453
 3981SOL    HW112842   3.923   6.413   0.526
 3981SOL    HW212843   3.871   6.263   0.490
 3982SOL     OW12844   2.144   6.271   3.571
 3982SOL    HW112845   2.061   6.266   3.627
 3982SOL    HW212846   2.119   6.259   3.475
 3983SOL     OW12847   4.766   5.179   3.716
 3983SOL    HW112848   4.830   5.160   3.791
 3983SOL    HW212849   4.816   5.178   3.629
 3984SOL     OW12850   6.835   1.203   1.894
 3984SOL    HW112851   6.831   1.147   1.811
 3984SOL    HW212852   6.815   1.298   1.871
 3985SOL     OW12853   2.867   5.056   6.893
 3985SOL    HW112854   2.802   5.055   6.969
 3985SOL    HW212855   2.872   4.965   6.852
 3986SOL     OW12856   5.186   1.524   2.579
 3986SOL    HW112857   5.170   1.574   2.664
 3986SOL    HW212858   5.104   1.528   2.522
 3987SOL     OW12859   3.477   4.927   4.060
 3987SOL    HW112860   3.573   4.899   4.060
 3987SOL    HW212861   3.446   4.940   3.966
 3988SOL     OW12862   3.473   5.191   0.081
 3988SOL    HW112863   3.373   5.188   0.088
 3988SOL    HW212864   3.511   5.242   0.158
 3989SOL     OW12865   6.771   2.141   6.777
 3989SOL    HW112866   6.870   2.141   6.763
 3989SOL    HW212867   6.734   2.230   6.749
 3990SOL     OW12868   4.614   2.601   2.495
 3990SOL    HW112869   4.550   2.562   2.429
 3990SOL    HW212870   4.657   2.683   2.456
 3991SOL     OW12871   6.902   1.441   1.738
 3991SOL    HW112872   6.809   1.411   1.714
 3991SOL    HW212873   6.898   1.533   1.776
 3992SOL     OW12874   3.382   1.556   0.325
 3992SOL    HW112875   3.294   1.590   0.358
 3992SOL    HW212876   3.433   1.515   0.400
 3993SOL     OW12877   1.462   3.164   2.359
 3993SOL    HW112878   1.504   3.078   2.331
 3993SOL    HW212879   1.529   3.220   2.408
 3994SOL     OW12880   2.958   6.908   5.918
 3994SOL    HW112881   3.036   6.846   5.928
 3994SOL    HW212882   2.972   6.966   5.838
 3995SOL     OW12883   2.378   3.777   6.338
 3995SOL    HW112884   2.437   3.738   6.267
 3995SOL    HW212885   2.374   3.876   6.327
 3996SOL     OW12886   0.391   6.601   5.064
 3996SOL    HW112887   0.373   6.514   5.017
 3996SOL    HW212888   0.389   6.586   5.163
 3997SOL     OW12889   5.809   2.128   3.229
 3997SOL    HW112890   5.754   2.051   3.197
 3997SOL    HW212891   5.840   2.181   3.151
 3998SOL     OW12892   3.599   1.480   4.328
 3998SOL    HW112893   3.525   1.548   4.329
 3998SOL    HW212894   3.566   1.396   4.285
 3999SOL     OW12895   5.954   2.273   3.920
 3999SOL    HW112896   5.987   2.322   4.000
 3999SOL    HW212897   6.008   2.300   3.840
 4000SOL     OW12898   2.926   6.711   3.928
 4000SOL    HW112899   2.868   6.634   3.902
 4000SOL    HW212900   2.982   6.738   3.849
 4001SOL     OW12901   2.639   1.807   4.203
 4001SOL    HW112902   2.597   1.897   4.212
 4001SOL    HW212903   2.599   1.759   4.125
 4002SOL     OW12904   3.556   3.708   1.489
 4002SOL    HW112905   3.475   3.766   1.485
 4002SOL    HW212906   3.636   3.760   1.460
 4003SOL     OW12907   3.359   0.277   3.965
 4003SOL    HW112908   3.342   0.209   3.894
 4003SOL    HW212909   3.289   0.270   4.036
 4004SOL     OW12910   5.973   2.023   4.708
 4004SOL    HW112911   6.031   1.942   4.695
 4004SOL    HW212912   5.928   2.018   4.797
 4005SOL     OW12913   4.942   4.966   6.035
 4005SOL    HW112914   4.847   4.995   6.026
 4005SOL    HW212915   4.947   4.887   6.097
 4006SOL     OW12916   4.077   5.031   1.756
 4006SOL    HW112917   4.110   5.121   1.728
 4006SOL    HW212918   3.978   5.034   1.768
 4007SOL     OW12919   0.180   2.996   0.037
 4007SOL    HW112920   0.164   3.081   7.007
 4007SOL    HW212921   0.168   3.011   0.135
 4008SOL     OW12922   2.633   2.394   4.666
 4008SOL    HW112923   2.685   2.341   4.734
 4008SOL    HW212924   2.616   2.485   4.703
 4009SOL     OW12925   4.355   3.017   1.489
 4009SOL    HW112926   4.294   3.003   1.411
 4009SOL    HW212927   4.302   3.020   1.574
 4010SOL     OW12928   2.811   2.731   1.589
 4010SOL    HW112929   2.800   2.677   1.506
 4010SOL    HW212930   2.724   2.738   1.637
 4011SOL     OW12931   0.971   1.784   1.958
 4011SOL    HW112932   1.054   1.823   1.919
 4011SOL    HW212933   0.903   1.857   1.971
 4012SOL     OW12934   6.532   4.152   2.305
 4012SOL    HW112935   6.542   4.147   2.404
 4012SOL    HW212936   6.569   4.069   2.264
 4013SOL     OW12937   3.804   1.984   4.698
 4013SOL    HW112938   3.843   1.962   4.608
 4013SOL    HW212939   3.878   1.989   4.766
 4014SOL     OW12940   6.191   6.723   2.356
 4014SOL    HW112941   6.275   6.777   2.358
 4014SOL    HW212942   6.159   6.713   2.262
 4015SOL     OW12943   4.913   4.361   6.243
 4015SOL    HW112944   4.845   4.288   6.255
 4015SOL    HW212945   5.004   4.323   6.256
 4016SOL     OW12946   2.682   6.143   6.170
 4016SOL    HW112947   2.660   6.215   6.235
 4016SOL    HW212948   2.600   6.087   6.153
 4017SOL     OW12949   6.721   5.789   0.361
 4017SOL    HW112950   6.737   5.856   0.289
 4017SOL    HW212951   6.809   5.763   0.403
 4018SOL     OW12952   4.684   6.248   2.407
 4018SOL    HW112953   4.706   6.338   2.445
 4018SOL    HW212954   4.586   6.244   2.386
 4019SOL     OW12955   5.059   4.358   2.991
 4019SOL    HW112956   5.004   4.437   3.018
 4019SOL    HW212957   5.000   4.289   2.948
 4020SOL     OW12958   4.585   2.557   5.436
 4020SOL    HW112959   4.488   2.541   5.448
 4020SOL    HW212960   4.600   2.653   5.411
 4021SOL     OW12961   3.567   5.242   6.686
 4021SOL    HW112962   3.564   5.167   6.752
 4021SOL    HW212963   3.654   5.241   6.638
 4022SOL     OW12964   4.739   1.929   0.297
 4022SOL    HW112965   4.646   1.933   0.332
 4022SOL    HW212966   4.764   2.018   0.260
 4023SOL     OW12967   6.496   2.332   4.804
 4023SOL    HW112968   6.549   2.334   4.889
 4023SOL    HW212969   6.559   2.324   4.727
 4024SOL     OW12970   3.729   5.464   4.617
 4024SOL    HW112971   3.652   5.529   4.618
 4024SOL    HW212972   3.755   5.445   4.523
 4025SOL     OW12973   0.534   3.825   3.576
 4025SOL    HW112974   0.516   3.881   3.495
 4025SOL    HW212975   0.541   3.729   3.550
 4026SOL     OW12976   4.980   6.684   4.162
 4026SOL    HW112977   5.004   6.589   4.140
 4026SOL    HW212978   5.052   6.725   4.217
 4027SOL     OW12979   3.764   4.518   1.621
 4027SOL    HW112980   3.772   4.530   1.522
 4027SOL    HW212981   3.690   4.453   1.641
 4028SOL     OW12982   1.907   2.040   3.854
 4028SOL    HW112983   1.857   1.964   3.812
 4028SOL    HW212984   2.002   2.012   3.870
 4029SOL     OW12985   2.043   4.509   5.437
 4029SOL    HW112986   2.099   4.468   5.509
 4029SOL    HW212987   1.992   4.437   5.390
 4030SOL     OW12988   0.575   2.011   5.205
 4030SOL    HW112989   0.567   1.929   5.149
 4030SOL    HW212990   0.484   2.038   5.237
 4031SOL     OW12991   4.081   5.766   4.264
 4031SOL    HW112992   4.125   5.699   4.323
 4031SOL    HW212993   4.056   5.847   4.317
 4032SOL     OW12994   5.344   6.838   3.710
 4032SOL    HW112995   5.321   6.760   3.768
 4032SOL    HW212996   5.388   6.909   3.765
 4033SOL     OW12997   2.992   3.294   4.351
 4033SOL    HW112998   2.946   3.343   4.278
 4033SOL    HW212999   2.925   3.263   4.419
 4034SOL     OW13000   6.764   1.581   3.711
 4034SOL    HW113001   6.672   1.585   3.750
 4034SOL    HW213002   6.767   1.633   3.626
 4035SOL     OW13003   0.879   4.051   6.638
 4035SOL    HW113004   0.905   4.146   6.657
 4035SOL    HW213005   0.830   4.014   6.717
 4036SOL     OW13006   6.169   6.687   2.780
 4036SOL    HW113007   6.110   6.698   2.700
 4036SOL    HW213008   6.115   6.655   2.858
 4037SOL     OW13009   0.949   3.235   6.773
 4037SOL    HW113010   0.967   3.139   6.795
 4037SOL    HW213011   1.015   3.265   6.704
 4038SOL     OW13012   4.995   4.800   2.933
 4038SOL    HW113013   4.948   4.887   2.917
 4038SOL    HW213014   5.063   4.786   2.862
 4039SOL     OW13015   5.503   6.435   0.154
 4039SOL    HW113016   5.486   6.437   0.055
 4039SOL    HW213017   5.419   6.410   0.201
 4040SOL     OW13018   3.294   6.760   1.208
 4040SOL    HW113019   3.286   6.662   1.225
 4040SOL    HW213020   3.390   6.785   1.199
 4041SOL     OW13021   1.238   6.411   3.672
 4041SOL    HW113022   1.158   6.459   3.707
 4041SOL    HW213023   1.306   6.402   3.745
 4042SOL     OW13024   5.809   5.218   1.811
 4042SOL    HW113025   5.810   5.118   1.802
 4042SOL    HW213026   5.811   5.260   1.721
 4043SOL     OW13027   5.703   2.334   1.898
 4043SOL    HW113028   5.746   2.298   1.815
 4043SOL    HW213029   5.605   2.315   1.896
 4044SOL     OW13030   5.836   6.869   3.321
 4044SOL    HW113031   5.902   6.918   3.377
 4044SOL    HW213032   5.810   6.926   3.243
 4045SOL     OW13033   1.658   5.881   6.898
 4045SOL    HW113034   1.589   5.903   6.967
 4045SOL    HW213035   1.613   5.855   6.813
 4046SOL     OW13036   1.107   2.837   1.771
 4046SOL    HW113037   1.159   2.874   1.848
 4046SOL    HW213038   1.043   2.767   1.803
 4047SOL     OW13039   2.689   3.719   1.688
 4047SOL    HW113040   2.621   3.792   1.699
 4047SOL    HW213041   2.763   3.751   1.628
 4048SOL     OW13042   4.609   0.620   1.004
 4048SOL    HW113043   4.642   0.560   1.077
 4048SOL    HW213044   4.642   0.713   1.019
 4049SOL     OW13045   5.208   6.634   5.102
 4049SOL    HW113046   5.226   6.665   5.008
 4049SOL    HW213047   5.294   6.614   5.148
 4050SOL     OW13048   1.926   6.785   0.796
 4050SOL    HW113049   1.915   6.759   0.700
 4050SOL    HW213050   1.999   6.852   0.804
 4051SOL     OW13051   3.424   4.054   1.237
 4051SOL    HW113052   3.417   3.973   1.296
 4051SOL    HW213053   3.342   4.110   1.246
 4052SOL     OW13054   0.395   0.920   0.180
 4052SOL    HW113055   0.395   0.933   0.081
 4052SOL    HW213056   0.367   1.004   0.225
 4053SOL     OW13057   3.637   4.898   3.729
 4053SOL    HW113058   3.639   4.971   3.797
 4053SOL    HW213059   3.545   4.893   3.689
 4054SOL     OW13060   3.730   2.734   1.126
 4054SOL    HW113061   3.751   2.813   1.069
 4054SOL    HW213062   3.750   2.650   1.076
 4055SOL     OW13063   4.015   1.596   5.775
 4055SOL    HW113064   3.933   1.646   5.803
 4055SOL    HW213065   4.093   1.630   5.827
 4056SOL     OW13066   3.543   3.586   0.245
 4056SOL    HW113067   3.485   3.635   0.180
 4056SOL    HW213068   3.573   3.650   0.317
 4057SOL     OW13069   4.760   3.017   6.572
 4057SOL    HW113070   4.850   3.003   6.612
 4057SOL    HW213071   4.743   2.949   6.501
 4058SOL     OW13072   2.165   0.708   5.668
 4058SOL    HW113073   2.229   0.726   5.593
 4058SOL    HW213074   2.215   0.703   5.754
 4059SOL     OW13075   0.865   1.776   5.064
 4059SOL    HW113076   0.855   1.809   5.158
 4059SOL    HW213077   0.819   1.688   5.055
 4060SOL     OW13078   4.192   5.143   4.535
 4060SOL    HW113079   4.173   5.227   4.484
 4060SOL    HW213080   4.111   5.116   4.587
 4061SOL     OW13081   3.138   3.521   2.006
 4061SOL    HW113082   3.191   3.535   1.923
 4061SOL    HW213083   3.191   3.551   2.086
 4062SOL     OW13084   2.920   0.668   3.522
 4062SOL    HW113085   3.019   0.665   3.536
 4062SOL    HW213086   2.900   0.688   3.426
 4063SOL     OW13087   3.007   5.205   6.313
 4063SOL    HW113088   3.041   5.207   6.407
 4063SOL    HW213089   2.935   5.137   6.305
 4064SOL     OW13090   6.644   1.008   3.566
 4064SOL    HW113091   6.663   1.104   3.589
 4064SOL    HW213092   6.727   0.965   3.532
 4065SOL     OW13093   6.693   6.557   0.323
 4065SOL    HW113094   6.774   6.503   0.300
 4065SOL    HW213095   6.709   6.607   0.408
 4066SOL     OW13096   6.187   4.200   1.782
 4066SOL    HW113097   6.244   4.165   1.856
 4066SOL    HW213098   6.111   4.137   1.765
 4067SOL     OW13099   6.001   1.424   2.139
 4067SOL    HW113100   5.942   1.421   2.058
 4067SOL    HW213101   6.072   1.492   2.125
 4068SOL     OW13102   6.117   0.511   3.436
 4068SOL    HW113103   6.151   0.431   3.387
 4068SOL    HW213104   6.154   0.512   3.529
 4069SOL     OW13105   5.829   5.210   1.006
 4069SOL    HW113106   5.875   5.131   1.047
 4069SOL    HW213107   5.865   5.294   1.046
 4070SOL     OW13108   1.409   3.431   2.926
 4070SOL    HW113109   1.379   3.504   2.989
 4070SOL    HW213110   1.463   3.364   2.976
 4071SOL     OW13111   0.968   0.026   4.105
 4071SOL    HW113112   0.976   0.124   4.122
 4071SOL    HW213113   1.025   0.001   4.027
 4072SOL     OW13114   1.680   0.016   4.972
 4072SOL    HW113115   1.595   7.013   4.923
 4072SOL    HW213116   1.662   0.017   5.071
 4073SOL     OW13117   2.295   6.245   0.007
 4073SOL    HW113118   2.274   6.301   6.946
 4073SOL    HW213119   2.264   6.151   7.011
 4074SOL     OW13120   1.571   3.750   0.743
 4074SOL    HW113121   1.547   3.837   0.786
 4074SOL    HW213122   1.493   3.688   0.747
 4075SOL     OW13123   4.678   2.024   3.490
 4075SOL    HW113124   4.754   1.967   3.459
 4075SOL    HW213125   4.685   2.115   3.448
 4076SOL     OW13126   1.788   3.757   4.320
 4076SOL    HW113127   1.793   3.675   4.377
 4076SOL    HW213128   1.820   3.736   4.228
 4077SOL     OW13129   3.770   1.196   0.539
 4077SOL    HW113130   3.840   1.129   0.512
 4077SOL    HW213131   3.747   1.253   0.460
 4078SOL     OW13132   6.071   4.018   1.501
 4078SOL    HW113133   6.048   4.116   1.505
 4078SOL    HW213134   6.112   3.997   1.413
 4079SOL     OW13135   0.508   0.729   3.736
 4079SOL    HW113136   0.574   0.725   3.660
 4079SOL    HW213137   0.467   0.820   3.739
 4080SOL     OW13138   3.283   3.561   1.773
 4080SOL    HW113139   3.343   3.483   1.791
 4080SOL    HW213140   3.230   3.543   1.690
 4081SOL     OW13141   2.195   2.190   5.971
 4081SOL    HW113142   2.256   2.249   6.023
 4081SOL    HW213143   2.113   2.241   5.945
 4082SOL     OW13144   1.263   2.831   4.473
 4082SOL    HW113145   1.251   2.809   4.376
 4082SOL    HW213146   1.185   2.884   4.505
 4083SOL     OW13147   5.726   5.238   2.711
 4083SOL    HW113148   5.657   5.306   2.686
 4083SOL    HW213149   5.686   5.147   2.706
 4084SOL     OW13150   4.766   0.723   3.483
 4084SOL    HW113151   4.827   0.751   3.409
 4084SOL    HW213152   4.777   0.626   3.501
 4085SOL     OW13153   3.353   5.049   2.650
 4085SOL    HW113154   3.334   4.954   2.674
 4085SOL    HW213155   3.434   5.081   2.701
 4086SOL     OW13156   5.966   5.612   6.289
 4086SOL    HW113157   5.964   5.684   6.220
 4086SOL    HW213158   5.971   5.523   6.244
 4087SOL     OW13159   3.102   6.934   2.563
 4087SOL    HW113160   3.054   6.901   2.644
 4087SOL    HW213161   3.090   6.869   2.488
 4088SOL     OW13162   0.513   1.657   5.736
 4088SOL    HW113163   0.576   1.663   5.658
 4088SOL    HW213164   0.458   1.575   5.727
 4089SOL     OW13165   0.147   0.264   4.054
 4089SOL    HW113166   0.201   0.347   4.037
 4089SOL    HW213167   0.155   0.238   4.150
 4090SOL     OW13168   2.914   1.208   6.267
 4090SOL    HW113169   2.903   1.273   6.192
 4090SOL    HW213170   2.824   1.178   6.298
 4091SOL     OW13171   2.144   5.690   2.428
 4091SOL    HW113172   2.175   5.659   2.517
 4091SOL    HW213173   2.178   5.628   2.357
 4092SOL     OW13174   5.263   3.125   3.860
 4092SOL    HW113175   5.326   3.057   3.896
 4092SOL    HW213176   5.178   3.079   3.831
 4093SOL     OW13177   4.027   5.136   2.747
 4093SOL    HW113178   3.961   5.153   2.674
 4093SOL    HW213179   3.980   5.142   2.836
 4094SOL     OW13180   6.542   5.286   6.291
 4094SOL    HW113181   6.592   5.243   6.366
 4094SOL    HW213182   6.486   5.360   6.325
 4095SOL     OW13183   0.675   4.894   6.756
 4095SOL    HW113184   0.621   4.818   6.721
 4095SOL    HW213185   0.624   4.941   6.827
 4096SOL     OW13186   1.427   1.493   6.902
 4096SOL    HW113187   1.480   1.507   6.818
 4096SOL    HW213188   1.412   1.581   6.946
 4097SOL     OW13189   0.008   4.644   5.217
 4097SOL    HW113190   6.972   4.589   5.155
 4097SOL    HW213191   6.993   4.738   5.219
 4098SOL     OW13192   2.499   4.825   3.300
 4098SOL    HW113193   2.510   4.836   3.399
 4098SOL    HW213194   2.419   4.767   3.282
 4099SOL     OW13195   4.523   4.845   5.452
 4099SOL    HW113196   4.465   4.840   5.534
 4099SOL    HW213197   4.465   4.848   5.371
 4100SOL     OW13198   1.472   0.006   3.941
 4100SOL    HW113199   1.568   7.000   3.938
 4100SOL    HW213200   1.415   6.944   3.945
 4101SOL     OW13201   6.309   6.835   0.313
 4101SOL    HW113202   6.398   6.828   0.359
 4101SOL    HW213203   6.287   6.931   0.297
 4102SOL     OW13204   1.257   0.999   0.224
 4102SOL    HW113205   1.297   0.911   0.248
 4102SOL    HW213206   1.307   1.072   0.272
 4103SOL     OW13207   1.405   6.934   3.011
 4103SOL    HW113208   1.434   0.005   2.983
 4103SOL    HW213209   1.476   6.867   2.987
 4104SOL     OW13210   0.948   5.819   4.367
 4104SOL    HW113211   0.946   5.845   4.270
 4104SOL    HW213212   0.868   5.762   4.387
 4105SOL     OW13213   4.834   1.276   1.158
 4105SOL    HW113214   4.751   1.243   1.113
 4105SOL    HW213215   4.886   1.334   1.096
 4106SOL     OW13216   0.097   2.109   3.495
 4106SOL    HW113217   0.068   2.187   3.439
 4106SOL    HW213218   0.058   2.117   3.586
 4107SOL     OW13219   0.518   6.380   6.531
 4107SOL    HW113220   0.525   6.355   6.627
 4107SOL    HW213221   0.580   6.456   6.511
 4108SOL     OW13222   6.577   5.271   4.123
 4108SOL    HW113223   6.519   5.345   4.091
 4108SOL    HW213224   6.673   5.298   4.115
 4109SOL     OW13225   6.540   6.991   2.819
 4109SOL    HW113226   6.484   0.051   2.797
 4109SOL    HW213227   6.503   6.945   2.899
 4110SOL     OW13228   4.618   3.926   0.679
 4110SOL    HW113229   4.583   3.948   0.770
 4110SOL    HW213230   4.573   3.843   0.645
 4111SOL     OW13231   6.697   3.858   3.808
 4111SOL    HW113232   6.628   3.807   3.757
 4111SOL    HW213233   6.695   3.954   3.780
 4112SOL     OW13234   4.747   6.598   5.340
 4112SOL    HW113235   4.824   6.662   5.333
 4112SOL    HW213236   4.731   6.555   5.251
 4113SOL     OW13237   4.249   4.962   5.004
 4113SOL    HW113238   4.226   5.045   4.954
 4113SOL    HW213239   4.306   4.903   4.947
 4114SOL     OW13240   0.199   1.975   2.295
 4114SOL    HW113241   0.158   1.895   2.252
 4114SOL    HW213242   0.146   2.056   2.273
 4115SOL     OW13243   3.663   5.638   4.247
 4115SOL    HW113244   3.660   5.589   4.160
 4115SOL    HW213245   3.573   5.678   4.266
 4116SOL     OW13246   5.455   2.877   3.649
 4116SOL    HW113247   5.535   2.904   3.702
 4116SOL    HW213248   5.481   2.868   3.553
 4117SOL     OW13249   1.406   2.354   2.974
 4117SOL    HW113250   1.449   2.264   2.983
 4117SOL    HW213251   1.406   2.399   3.063
 4118SOL     OW13252   0.292   5.911   5.793
 4118SOL    HW113253   0.292   5.956   5.882
 4118SOL    HW213254   0.372   5.940   5.741
 4119SOL     OW13255   1.482   1.415   3.702
 4119SOL    HW113256   1.434   1.364   3.631
 4119SOL    HW213257   1.558   1.361   3.737
 4120SOL     OW13258   1.420   1.231   6.377
 4120SOL    HW113259   1.344   1.198   6.320
 4120SOL    HW213260   1.393   1.318   6.420
 4121SOL     OW13261   6.400   6.629   1.555
 4121SOL    HW113262   6.370   6.535   1.565
 4121SOL    HW213263   6.500   6.634   1.564
 4122SOL     OW13264   6.446   4.569   3.329
 4122SOL    HW113265   6.440   4.530   3.237
 4122SOL    HW213266   6.538   4.554   3.365
 4123SOL     OW13267   3.958   5.328   1.910
 4123SOL    HW113268   4.045   5.377   1.903
 4123SOL    HW213269   3.944   5.301   2.006
 4124SOL     OW13270   6.209   5.827   0.086
 4124SOL    HW113271   6.171   5.919   0.071
 4124SOL    HW213272   6.306   5.827   0.062
 4125SOL     OW13273   5.796   1.638   1.912
 4125SOL    HW113274   5.783   1.706   1.984
 4125SOL    HW213275   5.808   1.685   1.824
 4126SOL     OW13276   1.500   3.391   2.058
 4126SOL    HW113277   1.566   3.323   2.090
 4126SOL    HW213278   1.492   3.464   2.125
 4127SOL     OW13279   3.925   1.879   3.843
 4127SOL    HW113280   3.858   1.823   3.890
 4127SOL    HW213281   3.887   1.970   3.825
 4128SOL     OW13282   0.399   2.879   0.488
 4128SOL    HW113283   0.459   2.928   0.551
 4128SOL    HW213284   0.318   2.934   0.470
 4129SOL     OW13285   2.434   2.144   0.834
 4129SOL    HW113286   2.456   2.083   0.910
 4129SOL    HW213287   2.423   2.237   0.867
 4130SOL     OW13288   5.434   2.709   0.748
 4130SOL    HW113289   5.500   2.739   0.818
 4130SOL    HW213290   5.400   2.618   0.772
 4131SOL     OW13291   4.788   0.246   2.782
 4131SOL    HW113292   4.754   0.336   2.756
 4131SOL    HW213293   4.749   0.176   2.722
 4132SOL     OW13294   6.612   4.594   4.194
 4132SOL    HW113295   6.675   4.643   4.255
 4132SOL    HW213296   6.542   4.658   4.162
 4133SOL     OW13297   5.828   6.989   2.462
 4133SOL    HW113298   5.784   0.059   2.463
 4133SOL    HW213299   5.758   6.918   2.456
 4134SOL     OW13300   1.721   3.173   1.335
 4134SOL    HW113301   1.683   3.256   1.376
 4134SOL    HW213302   1.809   3.195   1.292
 4135SOL     OW13303   0.536   1.397   2.688
 4135SOL    HW113304   0.585   1.377   2.773
 4135SOL    HW213305   0.536   1.496   2.672
 4136SOL     OW13306   1.410   4.727   1.915
 4136SOL    HW113307   1.329   4.760   1.964
 4136SOL    HW213308   1.492   4.752   1.967
 4137SOL     OW13309   1.823   2.229   0.169
 4137SOL    HW113310   1.873   2.230   0.255
 4137SOL    HW213311   1.773   2.143   0.160
 4138SOL     OW13312   5.102   6.855   0.708
 4138SOL    HW113313   5.091   6.915   0.787
 4138SOL    HW213314   5.042   6.887   0.634
 4139SOL     OW13315   2.028   3.179   2.851
 4139SOL    HW113316   2.001   3.091   2.889
 4139SOL    HW213317   2.065   3.237   2.923
 4140SOL     OW13318   2.441   2.460   5.471
 4140SOL    HW113319   2.446   2.361   5.485
 4140SOL    HW213320   2.405   2.504   5.553
 4141SOL     OW13321   4.574   6.796   6.397
 4141SOL    HW113322   4.477   6.812   6.379
 4141SOL    HW213323   4.629   6.856   6.338
 4142SOL     OW13324   6.697   4.464   2.849
 4142SOL    HW113325   6.766   4.537   2.844
 4142SOL    HW213326   6.731   4.382   2.802
 4143SOL     OW13327   5.714   2.953   0.157
 4143SOL    HW113328   5.707   2.876   0.221
 4143SOL    HW213329   5.622   2.983   0.131
 4144SOL     OW13330   5.808   2.041   0.511
 4144SOL    HW113331   5.846   1.962   0.464
 4144SOL    HW213332   5.873   2.074   0.580
 4145SOL     OW13333   0.187   6.652   1.449
 4145SOL    HW113334   0.099   6.618   1.481
 4145SOL    HW213335   0.237   6.693   1.525
 4146SOL     OW13336   4.824   6.284   3.607
 4146SOL    HW113337   4.811   6.320   3.514
 4146SOL    HW213338   4.908   6.321   3.646
 4147SOL     OW13339   5.458   4.296   5.707
 4147SOL    HW113340   5.391   4.335   5.645
 4147SOL    HW213341   5.442   4.330   5.800
 4148SOL     OW13342   2.620   1.444   6.000
 4148SOL    HW113343   2.586   1.535   5.974
 4148SOL    HW213344   2.544   1.391   6.039
 4149SOL     OW13345   2.435   2.429   6.834
 4149SOL    HW113346   2.428   2.511   6.890
 4149SOL    HW213347   2.525   2.387   6.848
 4150SOL     OW13348   6.057   2.262   5.675
 4150SOL    HW113349   5.964   2.243   5.644
 4150SOL    HW213350   6.071   2.222   5.765
 4151SOL     OW13351   2.387   6.584   4.258
 4151SOL    HW113352   2.342   6.505   4.216
 4151SOL    HW213353   2.474   6.601   4.211
 4152SOL     OW13354   2.543   5.034   1.274
 4152SOL    HW113355   2.543   5.071   1.181
 4152SOL    HW213356   2.468   4.968   1.284
 4153SOL     OW13357   6.825   5.108   1.706
 4153SOL    HW113358   6.923   5.123   1.691
 4153SOL    HW213359   6.808   5.094   1.803
 4154SOL     OW13360   1.050   6.174   3.791
 4154SOL    HW113361   0.999   6.246   3.744
 4154SOL    HW213362   0.988   6.124   3.852
 4155SOL     OW13363   0.628   1.924   1.173
 4155SOL    HW113364   0.632   1.904   1.076
 4155SOL    HW213365   0.689   2.000   1.195
 4156SOL     OW13366   6.913   5.511   5.113
 4156SOL    HW113367   6.936   5.427   5.065
 4156SOL    HW213368   6.997   5.554   5.148
 4157SOL     OW13369   6.869   6.093   1.939
 4157SOL    HW113370   6.895   6.132   1.851
 4157SOL    HW213371   6.797   6.025   1.925
 4158SOL     OW13372   1.573   2.644   2.327
 4158SOL    HW113373   1.673   2.654   2.323
 4158SOL    HW213374   1.548   2.591   2.408
 4159SOL     OW13375   2.956   1.578   3.569
 4159SOL    HW113376   2.911   1.666   3.582
 4159SOL    HW213377   3.001   1.550   3.654
 4160SOL     OW13378   6.469   6.636   6.608
 4160SOL    HW113379   6.442   6.562   6.547
 4160SOL    HW213380   6.549   6.683   6.569
 4161SOL     OW13381   3.380   2.676   1.468
 4161SOL    HW113382   3.463   2.637   1.428
 4161SOL    HW213383   3.368   2.642   1.561
 4162SOL     OW13384   5.652   5.699   1.932
 4162SOL    HW113385   5.700   5.712   1.845
 4162SOL    HW213386   5.714   5.658   1.999
 4163SOL     OW13387   3.907   6.631   1.030
 4163SOL    HW113388   3.971   6.642   0.954
 4163SOL    HW213389   3.883   6.721   1.068
 4164SOL     OW13390   6.257   0.397   4.681
 4164SOL    HW113391   6.262   0.468   4.750
 4164SOL    HW213392   6.279   0.308   4.722
 4165SOL     OW13393   4.797   1.026   5.148
 4165SOL    HW113394   4.735   1.104   5.136
 4165SOL    HW213395   4.858   1.019   5.069
 4166SOL     OW13396   5.980   0.902   1.770
 4166SOL    HW113397   5.889   0.861   1.781
 4166SOL    HW213398   6.026   0.861   1.692
 4167SOL     OW13399   4.057   5.372   5.117
 4167SOL    HW113400   3.990   5.445   5.114
 4167SOL    HW213401   4.132   5.398   5.179
 4168SOL     OW13402   4.944   4.021   6.434
 4168SOL    HW113403   5.013   4.092   6.417
 4168SOL    HW213404   4.958   3.946   6.370
 4169SOL     OW13405   4.954   3.751   4.835
 4169SOL    HW113406   5.004   3.821   4.887
 4169SOL    HW213407   4.881   3.714   4.892
 4170SOL     OW13408   6.545   3.671   4.536
 4170SOL    HW113409   6.535   3.577   4.503
 4170SOL    HW213410   6.641   3.698   4.530
 4171SOL     OW13411   0.459   3.355   1.171
 4171SOL    HW113412   0.441   3.404   1.086
 4171SOL    HW213413   0.538   3.295   1.159
 4172SOL     OW13414   2.907   4.630   0.612
 4172SOL    HW113415   2.939   4.711   0.661
 4172SOL    HW213416   2.908   4.551   0.673
 4173SOL     OW13417   4.844   3.191   5.233
 4173SOL    HW113418   4.817   3.169   5.327
 4173SOL    HW213419   4.818   3.115   5.173
 4174SOL     OW13420   3.978   0.574   5.041
 4174SOL    HW113421   3.892   0.623   5.025
 4174SOL    HW213422   3.977   0.488   4.989
 4175SOL     OW13423   1.523   4.429   6.576
 4175SOL    HW113424   1.427   4.412   6.557
 4175SOL    HW213425   1.535   4.522   6.612
 4176SOL     OW13426   5.259   6.761   6.263
 4176SOL    HW113427   5.298   6.850   6.238
 4176SOL    HW213428   5.325   6.689   6.241
 4177SOL     OW13429   4.628   4.323   3.285
 4177SOL    HW113430   4.558   4.385   3.320
 4177SOL    HW213431   4.667   4.361   3.201
 4178SOL     OW13432   3.988   5.285   2.195
 4178SOL    HW113433   3.906   5.241   2.230
 4178SOL    HW213434   4.057   5.290   2.267
 4179SOL     OW13435   5.139   3.078   4.887
 4179SOL    HW113436   5.131   3.132   4.971
 4179SOL    HW213437   5.087   3.123   4.814
 4180SOL     OW13438   5.197   3.668   0.315
 4180SOL    HW113439   5.257   3.597   0.280
 4180SOL    HW213440   5.168   3.728   0.240
 4181SOL     OW13441   4.822   0.513   5.796
 4181SOL    HW113442   4.757   0.439   5.814
 4181SOL    HW213443   4.795   0.594   5.848
 4182SOL     OW13444   6.899   6.221   4.024
 4182SOL    HW113445   6.859   6.278   4.095
 4182SOL    HW213446   6.839   6.222   3.943
 4183SOL     OW13447   3.640   1.769   1.909
 4183SOL    HW113448   3.650   1.839   1.979
 4183SOL    HW213449   3.728   1.724   1.894
 4184SOL     OW13450   3.106   5.559   3.279
 4184SOL    HW113451   3.131   5.489   3.213
 4184SOL    HW213452   3.172   5.558   3.355
 4185SOL     OW13453   6.780   3.810   2.713
 4185SOL    HW113454   6.681   3.827   2.720
 4185SOL    HW213455   6.802   3.783   2.619
 4186SOL     OW13456   1.991   6.549   0.282
 4186SOL    HW113457   1.943   6.477   0.331
 4186SOL    HW213458   2.085   6.555   0.314
 4187SOL     OW13459   1.686   3.670   0.250
 4187SOL    HW113460   1.642   3.757   0.274
 4187SOL    HW213461   1.617   3.605   0.219
 4188SOL     OW13462   4.718   0.145   6.654
 4188SOL    HW113463   4.722   0.046   6.642
 4188SOL    HW213464   4.734   0.190   6.565
 4189SOL     OW13465   4.978   5.270   2.786
 4189SOL    HW113466   4.910   5.247   2.716
 4189SOL    HW213467   4.971   5.367   2.809
 4190SOL     OW13468   0.349   6.742   1.128
 4190SOL    HW113469   0.297   6.661   1.154
 4190SOL    HW213470   0.445   6.717   1.116
 4191SOL     OW13471   4.453   4.438   5.768
 4191SOL    HW113472   4.545   4.428   5.806
 4191SOL    HW213473   4.400   4.355   5.787
 4192SOL     OW13474   1.282   2.397   1.777
 4192SOL    HW113475   1.279   2.430   1.871
 4192SOL    HW213476   1.192   2.410   1.734
 4193SOL     OW13477   6.623   0.584   0.902
 4193SOL    HW113478   6.619   0.615   0.997
 4193SOL    HW213479   6.549   0.518   0.886
 4194SOL     OW13480   4.836   0.653   5.272
 4194SOL    HW113481   4.764   0.587   5.252
 4194SOL    HW213482   4.845   0.717   5.195
 4195SOL     OW13483   4.766   5.519   1.636
 4195SOL    HW113484   4.827   5.442   1.623
 4195SOL    HW213485   4.741   5.526   1.732
 4196SOL     OW13486   6.845   2.270   3.091
 4196SOL    HW113487   6.797   2.301   3.173
 4196SOL    HW213488   6.848   2.343   3.024
 4197SOL     OW13489   3.512   6.540   6.364
 4197SOL    HW113490   3.467   6.630   6.364
 4197SOL    HW213491   3.488   6.491   6.281
 4198SOL     OW13492   6.520   0.791   2.126
 4198SOL    HW113493   6.603   0.777   2.072
 4198SOL    HW213494   6.440   0.770   2.071
 4199SOL     OW13495   1.378   4.161   6.038
 4199SOL    HW113496   1.433   4.124   5.963
 4199SOL    HW213497   1.298   4.208   6.000
 4200SOL     OW13498   4.850   0.726   4.546
 4200SOL    HW113499   4.781   0.667   4.504
 4200SOL    HW213500   4.931   0.671   4.570
 4201SOL     OW13501   5.640   7.002   3.111
 4201SOL    HW113502   5.558   6.977   3.162
 4201SOL    HW213503   5.633   0.077   3.080
 4202SOL     OW13504   4.429   5.284   0.485
 4202SOL    HW113505   4.492   5.247   0.417
 4202SOL    HW213506   4.412   5.215   0.555
 4203SOL     OW13507   6.027   5.812   6.747
 4203SOL    HW113508   6.037   5.716   6.775
 4203SOL    HW213509   6.001   5.815   6.650
 4204SOL     OW13510   3.145   3.591   5.723
 4204SOL    HW113511   3.204   3.666   5.693
 4204SOL    HW213512   3.172   3.563   5.815
 4205SOL     OW13513   3.749   5.485   5.374
 4205SOL    HW113514   3.735   5.499   5.276
 4205SOL    HW213515   3.660   5.485   5.420
 4206SOL     OW13516   1.712   2.368   5.123
 4206SOL    HW113517   1.630   2.411   5.083
 4206SOL    HW213518   1.697   2.353   5.220
 4207SOL     OW13519   1.402   2.704   1.910
 4207SOL    HW113520   1.381   2.657   1.995
 4207SOL    HW213521   1.445   2.792   1.930
 4208SOL     OW13522   2.093   3.607   5.148
 4208SOL    HW113523   2.101   3.655   5.236
 4208SOL    HW213524   2.070   3.673   5.077
 4209SOL     OW13525   6.999   6.232   2.633
 4209SOL    HW113526   0.057   6.242   2.696
 4209SOL    HW213527   0.001   6.164   2.563
 4210SOL     OW13528   4.132   3.567   4.811
 4210SOL    HW113529   4.225   3.599   4.794
 4210SOL    HW213530   4.132   3.468   4.821
 4211SOL     OW13531   4.006   2.271   5.241
 4211SOL    HW113532   4.029   2.226   5.327
 4211SOL    HW213533   4.073   2.342   5.221
 4212SOL     OW13534   0.071   1.314   3.193
 4212SOL    HW113535   0.062   1.374   3.113
 4212SOL    HW213536   0.061   1.219   3.164
 4213SOL     OW13537   3.274   0.308   3.060
 4213SOL    HW113538   3.279   0.405   3.082
 4213SOL    HW213539   3.364   0.266   3.073
 4214SOL     OW13540   0.953   4.828   4.468
 4214SOL    HW113541   0.959   4.746   4.411
 4214SOL    HW213542   1.026   4.892   4.443
 4215SOL     OW13543   4.827   6.095   5.133
 4215SOL    HW113544   4.739   6.135   5.107
 4215SOL    HW213545   4.870   6.054   5.053
 4216SOL     OW13546   2.454   0.102   2.641
 4216SOL    HW113547   2.377   0.065   2.693
 4216SOL    HW213548   2.427   0.190   2.600
 4217SOL     OW13549   1.291   0.284   2.092
 4217SOL    HW113550   1.286   0.332   2.179
 4217SOL    HW213551   1.350   0.335   2.029
 4218SOL     OW13552   3.157   1.279   1.696
 4218SOL    HW113553   3.131   1.316   1.607
 4218SOL    HW213554   3.161   1.353   1.763
 4219SOL     OW13555   3.591   6.251   3.751
 4219SOL    HW113556   3.538   6.293   3.825
 4219SOL    HW213557   3.595   6.152   3.764
 4220SOL     OW13558   4.572   2.315   1.478
 4220SOL    HW113559   4.579   2.371   1.560
 4220SOL    HW213560   4.513   2.236   1.496
 4221SOL     OW13561   6.726   5.956   5.951
 4221SOL    HW113562   6.817   5.915   5.944
 4221SOL    HW213563   6.663   5.890   5.992
 4222SOL     OW13564   5.177   2.045   3.616
 4222SOL    HW113565   5.176   2.008   3.708
 4222SOL    HW213566   5.259   2.015   3.568
 4223SOL     OW13567   3.991   4.212   1.605
 4223SOL    HW113568   3.932   4.278   1.558
 4223SOL    HW213569   4.059   4.177   1.541
 4224SOL     OW13570   5.098   3.829   4.436
 4224SOL    HW113571   5.049   3.744   4.413
 4224SOL    HW213572   5.099   3.889   4.356
 4225SOL     OW13573   1.010   2.315   4.873
 4225SOL    HW113574   0.979   2.403   4.837
 4225SOL    HW213575   0.960   2.241   4.828
 4226SOL     OW13576   1.128   5.580   4.721
 4226SOL    HW113577   1.169   5.557   4.809
 4226SOL    HW213578   1.174   5.660   4.683
 4227SOL     OW13579   5.447   5.497   1.619
 4227SOL    HW113580   5.400   5.439   1.686
 4227SOL    HW213581   5.509   5.441   1.564
 4228SOL     OW13582   0.802   6.039   4.552
 4228SOL    HW113583   0.833   6.113   4.611
 4228SOL    HW213584   0.862   5.960   4.563
 4229SOL     OW13585   5.852   4.735   5.963
 4229SOL    HW113586   5.869   4.685   5.878
 4229SOL    HW213587   5.904   4.821   5.962
 4230SOL     OW13588   1.360   0.431   2.316
 4230SOL    HW113589   1.284   0.435   2.381
 4230SOL    HW213590   1.443   0.467   2.360
 4231SOL     OW13591   5.630   1.003   4.759
 4231SOL    HW113592   5.600   0.945   4.683
 4231SOL    HW213593   5.727   1.027   4.747
 4232SOL     OW13594   2.090   5.180   4.114
 4232SOL    HW113595   2.126   5.243   4.184
 4232SOL    HW213596   1.995   5.157   4.136
 4233SOL     OW13597   5.818   6.161   3.659
 4233SOL    HW113598   5.810   6.115   3.748
 4233SOL    HW213599   5.894   6.226   3.662
 4234SOL     OW13600   1.970   5.454   5.572
 4234SOL    HW113601   1.977   5.551   5.550
 4234SOL    HW213602   1.899   5.441   5.642
 4235SOL     OW13603   6.771   4.683   6.186
 4235SOL    HW113604   6.810   4.706   6.275
 4235SOL    HW213605   6.672   4.696   6.188
 4236SOL     OW13606   0.223   5.327   2.014
 4236SOL    HW113607   0.229   5.262   2.090
 4236SOL    HW213608   0.306   5.383   2.012
 4237SOL     OW13609   6.979   4.295   3.830
 4237SOL    HW113610   0.021   4.285   3.751
 4237SOL    HW213611   6.964   4.392   3.848
 4238SOL     OW13612   1.852   1.108   3.215
 4238SOL    HW113613   1.830   1.194   3.170
 4238SOL    HW213614   1.886   1.125   3.307
 4239SOL     OW13615   3.933   0.958   2.911
 4239SOL    HW113616   3.905   0.877   2.963
 4239SOL    HW213617   3.944   1.035   2.974
 4240SOL     OW13618   0.873   5.251   0.958
 4240SOL    HW113619   0.812   5.325   0.927
 4240SOL    HW213620   0.900   5.195   0.880
 4241SOL     OW13621   0.203   1.614   0.028
 4241SOL    HW113622   0.153   1.536   0.066
 4241SOL    HW213623   0.205   1.688   0.094
 4242SOL     OW13624   2.382   2.231   4.688
 4242SOL    HW113625   2.392   2.182   4.775
 4242SOL    HW213626   2.469   2.274   4.663
 4243SOL     OW13627   5.271   0.742   3.011
 4243SOL    HW113628   5.291   0.840   3.011
 4243SOL    HW213629   5.292   0.703   3.100
 4244SOL     OW13630   3.676   3.598   2.444
 4244SOL    HW113631   3.617   3.653   2.386
 4244SOL    HW213632   3.752   3.655   2.477
 4245SOL     OW13633   6.938   2.324   5.340
 4245SOL    HW113634   6.963   2.399   5.401
 4245SOL    HW213635   6.979   2.239   5.373
 4246SOL     OW13636   6.961   3.719   2.887
 4246SOL    HW113637   6.893   3.741   2.817
 4246SOL    HW213638   0.015   3.664   2.847
 4247SOL     OW13639   6.889   6.196   5.266
 4247SOL    HW113640   6.987   6.189   5.249
 4247SOL    HW213641   6.839   6.167   5.185
 4248SOL     OW13642   1.393   2.405   5.549
 4248SOL    HW113643   1.330   2.351   5.605
 4248SOL    HW213644   1.477   2.422   5.602
 4249SOL     OW13645   6.450   3.093   5.562
 4249SOL    HW113646   6.399   3.143   5.492
 4249SOL    HW213647   6.442   3.140   5.650
 4250SOL     OW13648   6.429   5.168   3.612
 4250SOL    HW113649   6.340   5.127   3.591
 4250SOL    HW213650   6.493   5.097   3.640
 4251SOL     OW13651   5.688   4.266   0.528
 4251SOL    HW113652   5.682   4.249   0.626
 4251SOL    HW213653   5.716   4.182   0.481
 4252SOL     OW13654   6.619   5.868   4.808
 4252SOL    HW113655   6.664   5.803   4.869
 4252SOL    HW213656   6.633   5.841   4.713
 4253SOL     OW13657   4.551   1.026   1.605
 4253SOL    HW113658   4.471   0.990   1.557
 4253SOL    HW213659   4.573   1.117   1.570
 4254SOL     OW13660   1.594   3.398   1.449
 4254SOL    HW113661   1.605   3.497   1.455
 4254SOL    HW213662   1.502   3.376   1.418
 4255SOL     OW13663   5.963   2.858   4.158
 4255SOL    HW113664   6.042   2.799   4.143
 4255SOL    HW213665   5.973   2.904   4.246
 4256SOL     OW13666   1.516   6.872   1.341
 4256SOL    HW113667   1.447   6.803   1.361
 4256SOL    HW213668   1.601   6.827   1.314
 4257SOL     OW13669   3.641   1.826   5.221
 4257SOL    HW113670   3.670   1.914   5.183
 4257SOL    HW213671   3.541   1.821   5.222
 4258SOL     OW13672   6.031   6.805   1.774
 4258SOL    HW113673   6.013   6.899   1.801
 4258SOL    HW213674   6.120   6.776   1.810
 4259SOL     OW13675   2.695   1.649   6.701
 4259SOL    HW113676   2.629   1.693   6.762
 4259SOL    HW213677   2.780   1.634   6.751
 4260SOL     OW13678   4.076   5.721   3.869
 4260SOL    HW113679   4.103   5.643   3.926
 4260SOL    HW213680   4.082   5.805   3.923
 4261SOL     OW13681   2.296   6.463   2.153
 4261SOL    HW113682   2.299   6.388   2.219
 4261SOL    HW213683   2.388   6.482   2.119
 4262SOL     OW13684   2.236   5.179   6.663
 4262SOL    HW113685   2.196   5.092   6.636
 4262SOL    HW213686   2.166   5.236   6.706
 4263SOL     OW13687   2.379   5.912   5.152
 4263SOL    HW113688   2.370   5.813   5.165
 4263SOL    HW213689   2.391   5.932   5.055
 4264SOL     OW13690   0.269   1.771   0.281
 4264SOL    HW113691   0.248   1.741   0.374
 4264SOL    HW213692   0.241   1.867   0.269
 4265SOL     OW13693   6.392   1.969   0.124
 4265SOL    HW113694   6.486   1.980   0.091
 4265SOL    HW213695   6.357   2.058   0.153
 4266SOL     OW13696   2.647   5.649   0.174
 4266SOL    HW113697   2.729   5.593   0.188
 4266SOL    HW213698   2.662   5.740   0.214
 4267SOL     OW13699   2.108   3.853   4.987
 4267SOL    HW113700   2.172   3.928   5.003
 4267SOL    HW213701   2.100   3.836   4.889
 4268SOL     OW13702   2.034   7.017   0.265
 4268SOL    HW113703   2.050   0.008   0.363
 4268SOL    HW213704   1.935   7.010   0.248
 4269SOL     OW13705   2.923   2.792   0.169
 4269SOL    HW113706   2.875   2.868   0.213
 4269SOL    HW213707   3.015   2.785   0.208
 4270SOL     OW13708   3.748   2.893   4.831
 4270SOL    HW113709   3.741   2.817   4.896
 4270SOL    HW213710   3.661   2.904   4.783
 4271SOL     OW13711   0.416   6.844   5.550
 4271SOL    HW113712   0.502   6.830   5.501
 4271SOL    HW213713   0.340   6.837   5.485
 4272SOL     OW13714   6.657   4.758   5.282
 4272SOL    HW113715   6.706   4.674   5.304
 4272SOL    HW213716   6.708   4.809   5.212
 4273SOL     OW13717   4.776   6.927   4.825
 4273SOL    HW113718   4.759   6.985   4.746
 4273SOL    HW213719   4.736   6.836   4.809
 4274SOL     OW13720   1.471   6.862   3.337
 4274SOL    HW113721   1.423   6.907   3.262
 4274SOL    HW213722   1.432   6.892   3.425
 4275SOL     OW13723   0.108   1.120   5.537
 4275SOL    HW113724   0.066   1.029   5.528
 4275SOL    HW213725   0.040   1.190   5.516
 4276SOL     OW13726   2.299   4.655   2.896
 4276SOL    HW113727   2.339   4.738   2.856
 4276SOL    HW213728   2.372   4.589   2.917
 4277SOL     OW13729   6.182   5.364   3.822
 4277SOL    HW113730   6.256   5.368   3.889
 4277SOL    HW213731   6.144   5.272   3.820
 4278SOL     OW13732   6.411   6.124   5.041
 4278SOL    HW113733   6.343   6.173   4.986
 4278SOL    HW213734   6.467   6.190   5.091
 4279SOL     OW13735   3.315   6.221   5.533
 4279SOL    HW113736   3.265   6.306   5.548
 4279SOL    HW213737   3.377   6.205   5.610
 4280SOL     OW13738   6.485   1.598   5.340
 4280SOL    HW113739   6.511   1.508   5.305
 4280SOL    HW213740   6.397   1.592   5.387
 4281SOL     OW13741   1.635   4.897   5.068
 4281SOL    HW113742   1.538   4.874   5.069
 4281SOL    HW213743   1.668   4.905   5.162
 4282SOL     OW13744   2.650   2.248   0.458
 4282SOL    HW113745   2.608   2.334   0.486
 4282SOL    HW213746   2.735   2.267   0.409
 4283SOL     OW13747   1.682   0.035   3.707
 4283SOL    HW113748   1.745   0.102   3.747
 4283SOL    HW213749   1.732   6.970   3.688
 4284SOL     OW13750   5.570   0.810   2.579
 4284SOL    HW113751   5.479   0.850   2.571
 4284SOL    HW213752   5.564   0.711   2.563
 4285SOL     OW13753   0.365   6.735   5.798
 4285SOL    HW113754   0.362   6.760   5.701
 4285SOL    HW213755   0.380   6.637   5.807
 4286SOL     OW13756   4.460   5.679   6.987
 4286SOL    HW113757   4.393   5.753   6.985
 4286SOL    HW213758   4.503   5.670   6.898
 4287SOL     OW13759   5.790   6.736   5.038
 4287SOL    HW113760   5.827   6.728   4.945
 4287SOL    HW213761   5.750   6.827   5.049
 4288SOL     OW13762   0.746   6.847   3.888
 4288SOL    HW113763   0.790   6.927   3.849
 4288SOL    HW213764   0.776   6.836   3.983
 4289SOL     OW13765   4.998   2.381   1.601
 4289SOL    HW113766   5.097   2.386   1.615
 4289SOL    HW213767   4.952   2.393   1.689
 4290SOL     OW13768   2.125   6.830   1.941
 4290SOL    HW113769   2.092   6.924   1.951
 4290SOL    HW213770   2.222   6.830   1.917
 4291SOL     OW13771   5.205   3.258   0.856
 4291SOL    HW113772   5.115   3.227   0.886
 4291SOL    HW213773   5.275   3.224   0.919
 4292SOL     OW13774   6.498   4.183   5.681
 4292SOL    HW113775   6.477   4.226   5.769
 4292SOL    HW213776   6.594   4.199   5.658
 4293SOL     OW13777   6.982   3.908   6.242
 4293SOL    HW113778   0.047   3.961   6.251
 4293SOL    HW213779   6.984   3.856   6.156
 4294SOL     OW13780   3.808   2.769   6.130
 4294SOL    HW113781   3.749   2.831   6.080
 4294SOL    HW213782   3.836   2.813   6.216
 4295SOL     OW13783   3.231   0.302   5.124
 4295SOL    HW113784   3.162   0.358   5.078
 4295SOL    HW213785   3.227   0.320   5.222
 4296SOL     OW13786   2.728   1.967   0.786
 4296SOL    HW113787   2.633   1.998   0.778
 4296SOL    HW213788   2.776   1.984   0.700
 4297SOL     OW13789   4.968   6.611   4.847
 4297SOL    HW113790   5.018   6.570   4.771
 4297SOL    HW213791   5.020   6.688   4.884
 4298SOL     OW13792   1.470   5.937   1.328
 4298SOL    HW113793   1.560   5.970   1.302
 4298SOL    HW213794   1.445   5.859   1.271
 4299SOL     OW13795   0.952   3.322   6.036
 4299SOL    HW113796   0.960   3.303   6.134
 4299SOL    HW213797   1.037   3.297   5.990
 4300SOL     OW13798   3.074   1.125   6.619
 4300SOL    HW113799   3.036   1.037   6.590
 4300SOL    HW213800   3.020   1.200   6.581
 4301SOL     OW13801   2.174   1.526   0.425
 4301SOL    HW113802   2.162   1.447   0.366
 4301SOL    HW213803   2.271   1.550   0.430
 4302SOL     OW13804   1.360   6.016   6.762
 4302SOL    HW113805   1.448   5.981   6.728
 4302SOL    HW213806   1.316   5.946   6.817
 4303SOL     OW13807   6.562   4.212   3.261
 4303SOL    HW113808   6.553   4.298   3.211
 4303SOL    HW213809   6.521   4.221   3.351
 4304SOL     OW13810   3.571   3.450   4.092
 4304SOL    HW113811   3.491   3.397   4.120
 4304SOL    HW213812   3.561   3.545   4.121
 4305SOL     OW13813   6.338   0.966   3.075
 4305SOL    HW113814   6.272   1.041   3.065
 4305SOL    HW213815   6.357   0.951   3.172
 4306SOL     OW13816   0.238   4.036   5.871
 4306SOL    HW113817   0.282   4.003   5.788
 4306SOL    HW213818   0.145   3.999   5.876
 4307SOL     OW13819   4.702   4.099   5.515
 4307SOL    HW113820   4.699   4.048   5.600
 4307SOL    HW213821   4.739   4.191   5.532
 4308SOL     OW13822   5.415   5.706   5.336
 4308SOL    HW113823   5.322   5.734   5.315
 4308SOL    HW213824   5.422   5.677   5.431
 4309SOL     OW13825   1.555   0.778   0.527
 4309SOL    HW113826   1.591   0.770   0.620
 4309SOL    HW213827   1.596   0.708   0.468
 4310SOL     OW13828   1.547   2.736   3.580
 4310SOL    HW113829   1.621   2.669   3.573
 4310SOL    HW213830   1.503   2.729   3.669
 4311SOL     OW13831   1.313   6.084   3.790
 4311SOL    HW113832   1.234   6.145   3.793
 4311SOL    HW213833   1.289   5.996   3.831
 4312SOL     OW13834   1.709   5.738   1.870
 4312SOL    HW113835   1.635   5.718   1.806
 4312SOL    HW213836   1.697   5.829   1.908
 4313SOL     OW13837   5.985   0.749   1.260
 4313SOL    HW113838   5.955   0.843   1.241
 4313SOL    HW213839   5.909   0.698   1.301
 4314SOL     OW13840   4.840   2.903   2.966
 4314SOL    HW113841   4.829   2.901   2.866
 4314SOL    HW213842   4.769   2.845   3.008
 4315SOL     OW13843   2.635   0.453   1.966
 4315SOL    HW113844   2.592   0.498   2.044
 4315SOL    HW213845   2.723   0.415   1.993
 4316SOL     OW13846   4.911   6.737   1.316
 4316SOL    HW113847   4.847   6.685   1.260
 4316SOL    HW213848   4.960   6.674   1.377
 4317SOL     OW13849   3.565   1.382   5.403
 4317SOL    HW113850   3.573   1.422   5.312
 4317SOL    HW213851   3.602   1.445   5.471
 4318SOL     OW13852   1.198   4.134   4.103
 4318SOL    HW113853   1.269   4.203   4.087
 4318SOL    HW213854   1.150   4.154   4.188
 4319SOL     OW13855   2.585   3.544   6.763
 4319SOL    HW113856   2.531   3.521   6.682
 4319SOL    HW213857   2.668   3.592   6.735
 4320SOL     OW13858   1.495   6.643   2.602
 4320SOL    HW113859   1.518   6.562   2.548
 4320SOL    HW213860   1.405   6.631   2.644
 4321SOL     OW13861   6.126   0.782   4.568
 4321SOL    HW113862   6.183   0.759   4.489
 4321SOL    HW213863   6.030   0.767   4.546
 4322SOL     OW13864   6.824   1.245   6.608
 4322SOL    HW113865   6.859   1.261   6.700
 4322SOL    HW213866   6.847   1.322   6.549
 4323SOL     OW13867   5.680   2.950   2.253
 4323SOL    HW113868   5.605   2.954   2.319
 4323SOL    HW213869   5.753   2.892   2.289
 4324SOL     OW13870   5.558   3.657   6.644
 4324SOL    HW113871   5.558   3.719   6.565
 4324SOL    HW213872   5.583   3.708   6.726
 4325SOL     OW13873   2.270   0.760   6.943
 4325SOL    HW113874   2.331   0.682   6.959
 4325SOL    HW213875   2.308   0.841   6.987
 4326SOL     OW13876   6.774   3.257   4.974
 4326SOL    HW113877   6.818   3.194   5.037
 4326SOL    HW213878   6.757   3.211   4.887
 4327SOL     OW13879   5.158   5.645   2.647
 4327SOL    HW113880   5.128   5.567   2.592
 4327SOL    HW213881   5.176   5.722   2.587
 4328SOL     OW13882   4.617   4.936   5.963
 4328SOL    HW113883   4.630   4.858   5.902
 4328SOL    HW213884   4.545   4.996   5.927
 4329SOL     OW13885   3.773   1.680   5.857
 4329SOL    HW113886   3.725   1.606   5.904
 4329SOL    HW213887   3.708   1.754   5.837
 4330SOL     OW13888   2.722   0.236   6.078
 4330SOL    HW113889   2.755   0.277   6.163
 4330SOL    HW213890   2.704   0.139   6.093
 4331SOL     OW13891   5.275   3.354   0.427
 4331SOL    HW113892   5.184   3.313   0.422
 4331SOL    HW213893   5.276   3.423   0.500
 4332SOL     OW13894   5.194   3.447   2.097
 4332SOL    HW113895   5.215   3.465   2.193
 4332SOL    HW213896   5.245   3.367   2.066
 4333SOL     OW13897   5.581   1.380   5.044
 4333SOL    HW113898   5.557   1.476   5.060
 4333SOL    HW213899   5.585   1.332   5.132
 4334SOL     OW13900   3.025   2.093   1.994
 4334SOL    HW113901   2.973   2.178   1.996
 4334SOL    HW213902   2.976   2.026   1.938
 4335SOL     OW13903   2.948   3.727   3.922
 4335SOL    HW113904   2.964   3.809   3.867
 4335SOL    HW213905   2.948   3.751   4.019
 4336SOL     OW13906   1.735   6.167   5.484
 4336SOL    HW113907   1.658   6.108   5.459
 4336SOL    HW213908   1.701   6.252   5.523
 4337SOL     OW13909   0.416   4.892   0.104
 4337SOL    HW113910   0.418   4.970   0.166
 4337SOL    HW213911   0.372   4.814   0.150
 4338SOL     OW13912   5.957   5.573   4.713
 4338SOL    HW113913   5.918   5.620   4.792
 4338SOL    HW213914   5.940   5.627   4.631
 4339SOL     OW13915   6.615   2.609   4.752
 4339SOL    HW113916   6.671   2.610   4.835
 4339SOL    HW213917   6.547   2.536   4.759
 4340SOL     OW13918   6.489   3.262   2.377
 4340SOL    HW113919   6.506   3.360   2.369
 4340SOL    HW213920   6.551   3.212   2.317
 4341SOL     OW13921   1.495   4.041   1.984
 4341SOL    HW113922   1.456   4.076   1.898
 4341SOL    HW213923   1.589   4.013   1.969
 4342SOL     OW13924   0.541   2.744   3.175
 4342SOL    HW113925   0.602   2.666   3.186
 4342SOL    HW213926   0.594   2.829   3.173
 4343SOL     OW13927   3.535   1.012   0.156
 4343SOL    HW113928   3.486   1.099   0.149
 4343SOL    HW213929   3.626   1.028   0.194
 4344SOL     OW13930   1.858   4.907   3.422
 4344SOL    HW113931   1.785   4.919   3.489
 4344SOL    HW213932   1.824   4.930   3.331
 4345SOL     OW13933   1.684   3.102   5.424
 4345SOL    HW113934   1.728   3.019   5.459
 4345SOL    HW213935   1.750   3.152   5.367
 4346SOL     OW13936   2.480   3.019   1.701
 4346SOL    HW113937   2.395   3.061   1.668
 4346SOL    HW213938   2.557   3.078   1.678
 4347SOL     OW13939   6.705   0.409   1.591
 4347SOL    HW113940   6.764   0.413   1.672
 4347SOL    HW213941   6.727   0.485   1.530
 4348SOL     OW13942   0.724   4.043   1.707
 4348SOL    HW113943   0.793   3.995   1.653
 4348SOL    HW213944   0.749   4.039   1.804
 4349SOL     OW13945   0.326   1.691   3.517
 4349SOL    HW113946   0.300   1.595   3.525
 4349SOL    HW213947   0.244   1.748   3.513
 4350SOL     OW13948   5.322   2.403   4.594
 4350SOL    HW113949   5.230   2.379   4.563
 4350SOL    HW213950   5.316   2.459   4.676
 4351SOL     OW13951   2.660   6.286   2.325
 4351SOL    HW113952   2.647   6.190   2.302
 4351SOL    HW213953   2.737   6.295   2.389
 4352SOL     OW13954   0.556   2.098   2.009
 4352SOL    HW113955   0.555   2.191   2.045
 4352SOL    HW213956   0.506   2.094   1.923
 4353SOL     OW13957   2.222   5.783   0.825
 4353SOL    HW113958   2.252   5.819   0.913
 4353SOL    HW213959   2.301   5.768   0.766
 4354SOL     OW13960   2.188   6.997   0.027
 4354SOL    HW113961   2.151   6.996   0.120
 4354SOL    HW213962   2.116   0.004   6.983
 4355SOL     OW13963   4.227   1.059   1.142
 4355SOL    HW113964   4.305   1.106   1.185
 4355SOL    HW213965   4.246   1.044   1.045
 4356SOL     OW13966   4.767   4.003   1.587
 4356SOL    HW113967   4.803   3.973   1.675
 4356SOL    HW213968   4.759   3.925   1.525
 4357SOL     OW13969   6.200   0.677   7.018
 4357SOL    HW113970   6.251   0.752   0.040
 4357SOL    HW213971   6.247   0.646   6.935
 4358SOL     OW13972   0.197   5.940   1.373
 4358SOL    HW113973   0.212   6.024   1.426
 4358SOL    HW213974   0.268   5.932   1.303
 4359SOL     OW13975   0.947   2.564   4.769
 4359SOL    HW113976   1.042   2.571   4.738
 4359SOL    HW213977   0.887   2.607   4.701
 4360SOL     OW13978   0.571   3.833   2.194
 4360SOL    HW113979   0.597   3.921   2.232
 4360SOL    HW213980   0.559   3.767   2.268
 4361SOL     OW13981   4.246   2.691   1.703
 4361SOL    HW113982   4.315   2.762   1.693
 4361SOL    HW213983   4.155   2.732   1.698
 4362SOL     OW13984   6.281   3.615   5.357
 4362SOL    HW113985   6.354   3.653   5.300
 4362SOL    HW213986   6.245   3.687   5.417
 4363SOL     OW13987   5.308   2.318   5.286
 4363SOL    HW113988   5.372   2.246   5.312
 4363SOL    HW213989   5.307   2.327   5.186
 4364SOL     OW13990   3.059   4.082   4.940
 4364SOL    HW113991   2.988   4.144   4.975
 4364SOL    HW213992   3.143   4.095   4.992
 4365SOL     OW13993   3.824   2.156   2.512
 4365SOL    HW113994   3.917   2.191   2.521
 4365SOL    HW213995   3.812   2.077   2.573
 4366SOL     OW13996   6.183   6.830   1.282
 4366SOL    HW113997   6.177   6.790   1.374
 4366SOL    HW213998   6.102   6.804   1.229
 4367SOL     OW13999   1.036   5.265   5.740
 4367SOL    HW114000   0.965   5.216   5.688
 4367SOL    HW214001   1.088   5.323   5.678
 4368SOL     OW14002   5.077   5.004   1.421
 4368SOL    HW114003   5.175   4.983   1.424
 4368SOL    HW214004   5.063   5.098   1.390
 4369SOL     OW14005   4.523   4.624   2.462
 4369SOL    HW114006   4.603   4.673   2.497
 4369SOL    HW214007   4.471   4.684   2.402
 4370SOL     OW14008   5.539   4.504   3.510
 4370SOL    HW114009   5.564   4.476   3.602
 4370SOL    HW214010   5.451   4.552   3.512
 4371SOL     OW14011   6.442   0.401   1.790
 4371SOL    HW114012   6.355   0.446   1.811
 4371SOL    HW214013   6.500   0.463   1.737
 4372SOL     OW14014   4.576   1.072   3.067
 4372SOL    HW114015   4.562   1.130   3.148
 4372SOL    HW214016   4.538   1.118   2.986
 4373SOL     OW14017   6.771   2.401   6.633
 4373SOL    HW114018   6.790   2.489   6.677
 4373SOL    HW214019   6.847   2.375   6.575
 4374SOL     OW14020   1.192   2.004   2.260
 4374SOL    HW114021   1.105   1.991   2.308
 4374SOL    HW214022   1.229   2.094   2.281
 4375SOL     OW14023   2.404   6.945   4.111
 4375SOL    HW114024   2.462   6.864   4.117
 4375SOL    HW214025   2.385   6.979   4.204
 4376SOL     OW14026   6.538   0.265   2.573
 4376SOL    HW114027   6.580   0.338   2.520
 4376SOL    HW214028   6.609   0.204   2.608
 4377SOL     OW14029   5.845   3.946   0.100
 4377SOL    HW114030   5.911   3.978   0.032
 4377SOL    HW214031   5.829   3.848   0.088
 4378SOL     OW14032   2.336   0.551   3.667
 4378SOL    HW114033   2.287   0.479   3.717
 4378SOL    HW214034   2.272   0.624   3.643
 4379SOL     OW14035   2.612   1.173   5.092
 4379SOL    HW114036   2.608   1.118   5.009
 4379SOL    HW214037   2.700   1.222   5.095
 4380SOL     OW14038   1.324   1.324   1.290
 4380SOL    HW114039   1.278   1.373   1.364
 4380SOL    HW214040   1.422   1.318   1.310
 4381SOL     OW14041   0.759   5.456   5.291
 4381SOL    HW114042   0.705   5.460   5.375
 4381SOL    HW214043   0.827   5.383   5.298
 4382SOL     OW14044   0.033   3.308   5.210
 4382SOL    HW114045   6.992   3.384   5.189
 4382SOL    HW214046   0.044   3.250   5.130
 4383SOL     OW14047   5.547   2.860   5.997
 4383SOL    HW114048   5.537   2.820   6.088
 4383SOL    HW214049   5.595   2.795   5.937
 4384SOL     OW14050   6.949   0.061   3.193
 4384SOL    HW114051   6.952   0.052   3.094
 4384SOL    HW214052   6.858   0.033   3.226
 4385SOL     OW14053   5.162   1.815   4.686
 4385SOL    HW114054   5.168   1.760   4.770
 4385SOL    HW214055   5.240   1.795   4.627
 4386SOL     OW14056   1.528   4.084   5.812
 4386SOL    HW114057   1.592   4.030   5.759
 4386SOL    HW214058   1.494   4.160   5.757
 4387SOL     OW14059   6.341   2.743   0.749
 4387SOL    HW114060   6.266   2.705   0.695
 4387SOL    HW214061   6.342   2.843   0.740
 4388SOL     OW14062   5.260   1.924   6.140
 4388SOL    HW114063   5.343   1.972   6.168
 4388SOL    HW214064   5.181   1.965   6.185
 4389SOL     OW14065   0.139   3.337   1.997
 4389SOL    HW114066   0.147   3.282   2.080
 4389SOL    HW214067   0.121   3.432   2.021
 4390SOL     OW14068   5.593   0.029   0.643
 4390SOL    HW114069   5.498   0.060   0.634
 4390SOL    HW214070   5.629   0.009   0.552
 4391SOL     OW14071   1.987   5.699   6.449
 4391SOL    HW114072   1.912   5.633   6.454
 4391SOL    HW214073   2.073   5.650   6.436
 4392SOL     OW14074   1.096   1.475   4.136
 4392SOL    HW114075   1.172   1.482   4.072
 4392SOL    HW214076   1.023   1.537   4.109
 4393SOL     OW14077   6.121   0.140   1.324
 4393SOL    HW114078   6.143   0.079   1.248
 4393SOL    HW214079   6.072   0.088   1.395
 4394SOL     OW14080   1.139   0.371   1.408
 4394SOL    HW114081   1.233   0.398   1.385
 4394SOL    HW214082   1.075   0.437   1.369
 4395SOL     OW14083   2.324   0.144   2.180
 4395SOL    HW114084   2.254   0.092   2.231
 4395SOL    HW214085   2.401   0.084   2.159
 4396SOL     OW14086   1.257   0.894   3.459
 4396SOL    HW114087   1.158   0.902   3.469
 4396SOL    HW214088   1.280   0.805   3.421
 4397SOL     OW14089   2.456   2.566   3.762
 4397SOL    HW114090   2.441   2.507   3.682
 4397SOL    HW214091   2.403   2.650   3.751
 4398SOL     OW14092   2.172   3.604   6.374
 4398SOL    HW114093   2.122   3.593   6.459
 4398SOL    HW214094   2.242   3.675   6.385
 4399SOL     OW14095   2.287   6.341   2.392
 4399SOL    HW114096   2.202   6.288   2.389
 4399SOL    HW214097   2.359   6.285   2.432
 4400SOL     OW14098   1.670   6.844   4.120
 4400SOL    HW114099   1.743   6.856   4.188
 4400SOL    HW214100   1.710   6.822   4.031
 4401SOL     OW14101   3.502   6.409   5.415
 4401SOL    HW114102   3.576   6.419   5.481
 4401SOL    HW214103   3.441   6.336   5.445
 4402SOL     OW14104   1.571   0.835   3.011
 4402SOL    HW114105   1.587   0.929   2.982
 4402SOL    HW214106   1.506   0.791   2.949
 4403SOL     OW14107   0.739   5.192   1.422
 4403SOL    HW114108   0.686   5.267   1.461
 4403SOL    HW214109   0.837   5.207   1.439
 4404SOL     OW14110   1.550   5.752   6.043
 4404SOL    HW114111   1.470   5.787   6.091
 4404SOL    HW214112   1.611   5.704   6.107
 4405SOL     OW14113   2.875   4.745   3.720
 4405SOL    HW114114   2.902   4.763   3.626
 4405SOL    HW214115   2.813   4.667   3.723
 4406SOL     OW14116   6.239   3.488   2.022
 4406SOL    HW114117   6.316   3.539   2.061
 4406SOL    HW214118   6.163   3.549   2.004
 4407SOL     OW14119   0.031   6.175   2.147
 4407SOL    HW114120   6.999   6.128   2.075
 4407SOL    HW214121   0.004   6.271   2.151
 4408SOL     OW14122   3.972   6.745   0.251
 4408SOL    HW114123   3.972   6.844   0.258
 4408SOL    HW214124   4.059   6.714   0.212
 4409SOL     OW14125   4.005   0.583   2.848
 4409SOL    HW114126   3.933   0.631   2.799
 4409SOL    HW214127   4.079   0.559   2.785
 4410SOL     OW14128   0.276   5.904   0.829
 4410SOL    HW114129   0.204   5.916   0.898
 4410SOL    HW214130   0.328   5.988   0.820
 4411SOL     OW14131   3.342   4.714   6.007
 4411SOL    HW114132   3.260   4.772   6.009
 4411SOL    HW214133   3.321   4.626   6.050
 4412SOL     OW14134   3.911   6.569   3.580
 4412SOL    HW114135   3.950   6.480   3.600
 4412SOL    HW214136   3.821   6.577   3.624
 4413SOL     OW14137   3.192   0.239   4.225
 4413SOL    HW114138   3.144   0.208   4.308
 4413SOL    HW214139   3.288   0.256   4.246
 4414SOL     OW14140   4.879   5.212   1.932
 4414SOL    HW114141   4.809   5.163   1.881
 4414SOL    HW214142   4.879   5.182   2.028
 4415SOL     OW14143   3.368   4.094   1.961
 4415SOL    HW114144   3.438   4.023   1.954
 4415SOL    HW214145   3.403   4.179   1.921
 4416SOL     OW14146   4.009   1.490   4.629
 4416SOL    HW114147   3.942   1.429   4.587
 4416SOL    HW214148   4.040   1.557   4.561
 4417SOL     OW14149   0.151   3.384   4.420
 4417SOL    HW114150   0.149   3.384   4.320
 4417SOL    HW214151   0.189   3.471   4.452
 4418SOL     OW14152   6.832   0.839   1.039
 4418SOL    HW114153   6.822   0.910   1.109
 4418SOL    HW214154   6.846   0.750   1.083
 4419SOL     OW14155   6.691   5.899   5.659
 4419SOL    HW114156   6.726   5.978   5.610
 4419SOL    HW214157   6.686   5.920   5.757
 4420SOL     OW14158   3.617   1.941   1.547
 4420SOL    HW114159   3.531   1.981   1.513
 4420SOL    HW214160   3.672   2.012   1.591
 4421SOL     OW14161   1.238   3.084   4.734
 4421SOL    HW114162   1.227   3.012   4.803
 4421SOL    HW214163   1.152   3.135   4.726
 4422SOL     OW14164   0.250   4.711   0.245
 4422SOL    HW114165   0.212   4.621   0.266
 4422SOL    HW214166   0.176   4.775   0.224
 4423SOL     OW14167   6.145   4.423   5.785
 4423SOL    HW114168   6.184   4.350   5.841
 4423SOL    HW214169   6.046   4.411   5.780
 4424SOL     OW14170   4.708   5.716   4.276
 4424SOL    HW114171   4.717   5.800   4.222
 4424SOL    HW214172   4.660   5.737   4.361
 4425SOL     OW14173   1.668   5.161   1.301
 4425SOL    HW114174   1.717   5.182   1.386
 4425SOL    HW214175   1.581   5.210   1.300
 4426SOL     OW14176   0.770   0.009   4.343
 4426SOL    HW114177   0.808   6.949   4.390
 4426SOL    HW214178   0.822   0.026   4.259
 4427SOL     OW14179   3.470   6.130   2.987
 4427SOL    HW114180   3.526   6.210   2.964
 4427SOL    HW214181   3.520   6.071   3.051
 4428SOL     OW14182   5.948   0.743   4.165
 4428SOL    HW114183   6.040   0.714   4.193
 4428SOL    HW214184   5.950   0.773   4.069
 4429SOL     OW14185   2.693   6.305   3.390
 4429SOL    HW114186   2.661   6.396   3.416
 4429SOL    HW214187   2.778   6.314   3.337
 4430SOL     OW14188   5.143   4.610   4.129
 4430SOL    HW114189   5.118   4.518   4.157
 4430SOL    HW214190   5.139   4.671   4.209
 4431SOL     OW14191   3.511   0.793   3.938
 4431SOL    HW114192   3.417   0.819   3.960
 4431SOL    HW214193   3.526   0.698   3.964
 4432SOL     OW14194   1.537   3.452   6.636
 4432SOL    HW114195   1.591   3.535   6.623
 4432SOL    HW214196   1.482   3.461   6.719
 4433SOL     OW14197   0.791   1.388   4.771
 4433SOL    HW114198   0.882   1.398   4.731
 4433SOL    HW214199   0.760   1.293   4.762
 4434SOL     OW14200   6.569   1.698   1.340
 4434SOL    HW114201   6.602   1.790   1.321
 4434SOL    HW214202   6.572   1.681   1.438
 4435SOL     OW14203   2.920   3.366   0.224
 4435SOL    HW114204   2.954   3.329   0.137
 4435SOL    HW214205   2.843   3.311   0.256
 4436SOL     OW14206   4.702   1.940   1.261
 4436SOL    HW114207   4.796   1.906   1.249
 4436SOL    HW214208   4.643   1.899   1.191
 4437SOL     OW14209   0.295   3.693   2.282
 4437SOL    HW114210   0.373   3.635   2.259
 4437SOL    HW214211   0.317   3.748   2.362
 4438SOL     OW14212   4.522   6.410   5.324
 4438SOL    HW114213   4.604   6.442   5.373
 4438SOL    HW214214   4.442   6.456   5.361
 4439SOL     OW14215   2.149   7.010   3.192
 4439SOL    HW114216   2.239   6.966   3.186
 4439SOL    HW214217   2.093   6.981   3.114
 4440SOL     OW14218   1.886   5.008   0.915
 4440SOL    HW114219   1.894   4.916   0.877
 4440SOL    HW214220   1.908   5.075   0.845
 4441SOL     OW14221   0.955   1.585   0.414
 4441SOL    HW114222   0.999   1.660   0.365
 4441SOL    HW214223   0.899   1.532   0.351
 4442SOL     OW14224   1.901   4.663   6.321
 4442SOL    HW114225   1.956   4.617   6.391
 4442SOL    HW214226   1.828   4.602   6.290
 4443SOL     OW14227   0.498   5.022   6.923
 4443SOL    HW114228   0.461   4.968   6.998
 4443SOL    HW214229   0.462   5.116   6.929
 4444SOL     OW14230   4.864   4.237   0.557
 4444SOL    HW114231   4.899   4.254   0.650
 4444SOL    HW214232   4.875   4.141   0.535
 4445SOL     OW14233   0.006   5.673   6.742
 4445SOL    HW114234   0.019   5.643   6.837
 4445SOL    HW214235   6.987   5.765   6.742
 4446SOL     OW14236   4.948   1.418   0.589
 4446SOL    HW114237   4.869   1.479   0.583
 4446SOL    HW214238   4.918   1.328   0.622
 4447SOL     OW14239   5.519   4.814   4.932
 4447SOL    HW114240   5.433   4.763   4.942
 4447SOL    HW214241   5.592   4.751   4.905
 4448SOL     OW14242   2.853   6.506   1.767
 4448SOL    HW114243   2.806   6.428   1.724
 4448SOL    HW214244   2.866   6.487   1.864
 4449SOL     OW14245   3.773   1.128   6.928
 4449SOL    HW114246   3.741   1.040   6.963
 4449SOL    HW214247   3.740   1.140   6.834
 4450SOL     OW14248   3.668   0.615   0.084
 4450SOL    HW114249   3.752   0.579   0.044
 4450SOL    HW214250   3.642   0.559   0.163
 4451SOL     OW14251   4.692   4.620   3.634
 4451SOL    HW114252   4.633   4.541   3.653
 4451SOL    HW214253   4.659   4.667   3.552
 4452SOL     OW14254   5.233   6.114   4.413
 4452SOL    HW114255   5.284   6.106   4.327
 4452SOL    HW214256   5.221   6.023   4.452
 4453SOL     OW14257   0.090   3.377   1.411
 4453SOL    HW114258   0.093   3.282   1.380
 4453SOL    HW214259   0.062   3.380   1.507
 4454SOL     OW14260   0.995   1.975   0.080
 4454SOL    HW114261   0.919   1.935   0.029
 4454SOL    HW214262   0.997   1.936   0.172
 4455SOL     OW14263   6.459   5.513   4.792
 4455SOL    HW114264   6.553   5.517   4.756
 4455SOL    HW214265   6.420   5.605   4.794
 4456SOL     OW14266   1.854   6.700   3.767
 4456SOL    HW114267   1.885   6.779   3.713
 4456SOL    HW214268   1.762   6.673   3.738
 4457SOL     OW14269   1.450   1.962   5.018
 4457SOL    HW114270   1.496   1.885   4.974
 4457SOL    HW214271   1.355   1.967   4.987
 4458SOL     OW14272   2.103   4.018   1.648
 4458SOL    HW114273   2.166   3.950   1.685
 4458SOL    HW214274   2.037   4.044   1.719
 4459SOL     OW14275   1.449   3.028   4.410
 4459SOL    HW114276   1.488   3.052   4.499
 4459SOL    HW214277   1.406   2.938   4.416
 4460SOL     OW14278   0.097   3.396   4.138
 4460SOL    HW114279   7.017   3.404   4.140
 4460SOL    HW214280   0.126   3.371   4.046
 4461SOL     OW14281   2.842   0.991   1.423
 4461SOL    HW114282   2.830   0.951   1.514
 4461SOL    HW214283   2.864   1.088   1.432
 4462SOL     OW14284   6.518   3.665   1.875
 4462SOL    HW114285   6.512   3.587   1.812
 4462SOL    HW214286   6.520   3.631   1.969
 4463SOL     OW14287   5.831   1.875   1.717
 4463SOL    HW114288   5.810   1.830   1.630
 4463SOL    HW214289   5.756   1.936   1.742
 4464SOL     OW14290   0.372   5.714   0.288
 4464SOL    HW114291   0.461   5.759   0.300
 4464SOL    HW214292   0.300   5.775   0.319
 4465SOL     OW14293   2.461   5.937   0.428
 4465SOL    HW114294   2.509   5.926   0.515
 4465SOL    HW214295   2.523   5.913   0.353
 4466SOL     OW14296   1.670   2.186   3.965
 4466SOL    HW114297   1.742   2.116   3.969
 4466SOL    HW214298   1.693   2.261   4.027
 4467SOL     OW14299   2.940   5.759   3.186
 4467SOL    HW114300   2.983   5.670   3.198
 4467SOL    HW214301   2.873   5.775   3.259
 4468SOL     OW14302   1.228   2.993   1.968
 4468SOL    HW114303   1.325   2.968   1.969
 4468SOL    HW214304   1.219   3.087   1.935
 4469SOL     OW14305   2.536   0.059   1.551
 4469SOL    HW114306   2.487   0.068   1.638
 4469SOL    HW214307   2.472   0.032   1.480
 4470SOL     OW14308   1.362   0.483   2.741
 4470SOL    HW114309   1.307   0.422   2.684
 4470SOL    HW214310   1.313   0.505   2.825
 4471SOL     OW14311   2.433   2.094   6.273
 4471SOL    HW114312   2.476   2.185   6.269
 4471SOL    HW214313   2.336   2.102   6.251
 4472SOL     OW14314   1.490   3.079   1.184
 4472SOL    HW114315   1.557   3.106   1.253
 4472SOL    HW214316   1.495   3.140   1.106
 4473SOL     OW14317   0.423   3.286   4.098
 4473SOL    HW114318   0.356   3.267   4.170
 4473SOL    HW214319   0.376   3.331   4.021
 4474SOL     OW14320   3.674   0.764   1.805
 4474SOL    HW114321   3.603   0.822   1.844
 4474SOL    HW214322   3.755   0.766   1.864
 4475SOL     OW14323   0.795   4.033   1.988
 4475SOL    HW114324   0.895   4.030   1.998
 4475SOL    HW214325   0.753   4.026   2.079
 4476SOL     OW14326   5.649   1.350   3.785
 4476SOL    HW114327   5.556   1.348   3.749
 4476SOL    HW214328   5.672   1.444   3.812
 4477SOL     OW14329   2.683   6.969   5.684
 4477SOL    HW114330   2.679   6.982   5.783
 4477SOL    HW214331   2.608   6.909   5.655
 4478SOL     OW14332   1.727   0.255   0.700
 4478SOL    HW114333   1.711   0.224   0.794
 4478SOL    HW214334   1.825   0.274   0.688
 4479SOL     OW14335   0.960   2.509   0.073
 4479SOL    HW114336   0.956   2.607   0.053
 4479SOL    HW214337   0.897   2.460   0.013
 4480SOL     OW14338   6.476   5.499   4.476
 4480SOL    HW114339   6.490   5.440   4.555
 4480SOL    HW214340   6.416   5.454   4.410
 4481SOL     OW14341   2.817   5.014   6.299
 4481SOL    HW114342   2.809   4.915   6.286
 4481SOL    HW214343   2.743   5.060   6.250
 4482SOL     OW14344   2.916   5.447   6.417
 4482SOL    HW114345   2.824   5.477   6.392
 4482SOL    HW214346   2.933   5.357   6.377
 4483SOL     OW14347   6.988   2.453   1.899
 4483SOL    HW114348   6.987   2.544   1.941
 4483SOL    HW214349   0.021   2.456   1.814
 4484SOL     OW14350   2.574   3.000   6.834
 4484SOL    HW114351   2.661   2.954   6.814
 4484SOL    HW214352   2.572   3.026   6.930
 4485SOL     OW14353   5.074   2.204   4.649
 4485SOL    HW114354   5.050   2.273   4.580
 4485SOL    HW214355   5.041   2.114   4.619
 4486SOL     OW14356   5.221   4.700   5.191
 4486SOL    HW114357   5.298   4.679   5.252
 4486SOL    HW214358   5.254   4.706   5.097
 4487SOL     OW14359   1.746   2.456   0.040
 4487SOL    HW114360   1.834   2.492   0.010
 4487SOL    HW214361   1.759   2.368   0.086
 4488SOL     OW14362   0.504   4.800   4.388
 4488SOL    HW114363   0.501   4.700   4.399
 4488SOL    HW214364   0.456   4.843   4.465
 4489SOL     OW14365   4.977   5.396   5.270
 4489SOL    HW114366   4.919   5.477   5.276
 4489SOL    HW214367   5.070   5.422   5.246
 4490SOL     OW14368   5.243   1.987   0.836
 4490SOL    HW114369   5.157   1.948   0.871
 4490SOL    HW214370   5.320   1.936   0.874
 4491SOL     OW14371   1.319   3.090   3.351
 4491SOL    HW114372   1.288   3.170   3.301
 4491SOL    HW214373   1.247   3.021   3.354
 4492SOL     OW14374   5.638   0.408   1.791
 4492SOL    HW114375   5.594   0.353   1.721
 4492SOL    HW214376   5.732   0.428   1.763
 4493SOL     OW14377   5.223   0.687   5.425
 4493SOL    HW114378   5.167   0.666   5.345
 4493SOL    HW214379   5.176   0.656   5.508
 4494SOL     OW14380   0.110   0.310   6.797
 4494SOL    HW114381   0.167   0.375   6.746
 4494SOL    HW214382   0.014   0.336   6.788
 4495SOL     OW14383   3.777   6.067   2.140
 4495SOL    HW114384   3.766   5.970   2.120
 4495SOL    HW214385   3.850   6.104   2.083
 4496SOL     OW14386   3.869   6.158   5.900
 4496SOL    HW114387   3.877   6.163   5.999
 4496SOL    HW214388   3.945   6.105   5.863
 4497SOL     OW14389   4.271   1.907   6.199
 4497SOL    HW114390   4.265   1.938   6.104
 4497SOL    HW214391   4.236   1.813   6.205
 4498SOL     OW14392   0.250   5.269   5.914
 4498SOL    HW114393   0.157   5.282   5.949
 4498SOL    HW214394   0.309   5.343   5.947
 4499SOL     OW14395   5.848   1.803   2.721
 4499SOL    HW114396   5.884   1.848   2.803
 4499SOL    HW214397   5.799   1.720   2.747
 4500SOL     OW14398   3.477   5.327   0.351
 4500SOL    HW114399   3.382   5.355   0.359
 4500SOL    HW214400   3.533   5.375   0.419
 4501SOL     OW14401   5.744   1.844   2.083
 4501SOL    HW114402   5.655   1.804   2.104
 4501SOL    HW214403   5.787   1.877   2.167
 4502SOL     OW14404   0.849   3.526   0.120
 4502SOL    HW114405   0.927   3.500   0.063
 4502SOL    HW214406   0.829   3.453   0.185
 4503SOL     OW14407   2.798   0.210   2.339
 4503SOL    HW114408   2.816   0.154   2.258
 4503SOL    HW214409   2.826   0.160   2.420
 4504SOL     OW14410   0.327   2.014   3.350
 4504SOL    HW114411   0.257   2.051   3.412
 4504SOL    HW214412   0.402   1.976   3.404
 4505SOL     OW14413   5.990   3.840   2.610
 4505SOL    HW114414   6.021   3.783   2.686
 4505SOL    HW214415   5.982   3.784   2.528
 4506SOL     OW14416   5.332   2.826   4.524
 4506SOL    HW114417   5.370   2.901   4.470
 4506SOL    HW214418   5.319   2.746   4.465
 4507SOL     OW14419   6.675   3.077   3.304
 4507SOL    HW114420   6.696   3.175   3.312
 4507SOL    HW214421   6.759   3.027   3.284
 4508SOL     OW14422   0.598   5.024   0.675
 4508SOL    HW114423   0.532   4.949   0.680
 4508SOL    HW214424   0.655   5.023   0.758
 4509SOL     OW14425   4.391   2.115   2.387
 4509SOL    HW114426   4.445   2.076   2.312
 4509SOL    HW214427   4.299   2.134   2.354
 4510SOL     OW14428   4.841   1.239   4.544
 4510SOL    HW114429   4.894   1.324   4.541
 4510SOL    HW214430   4.794   1.225   4.457
 4511SOL     OW14431   0.213   4.692   1.076
 4511SOL    HW114432   0.222   4.608   1.130
 4511SOL    HW214433   0.132   4.685   1.017
 4512SOL     OW14434   3.650   2.169   6.028
 4512SOL    HW114435   3.731   2.224   6.042
 4512SOL    HW214436   3.583   2.220   5.973
 4513SOL     OW14437   1.567   6.012   0.308
 4513SOL    HW114438   1.648   5.976   0.261
 4513SOL    HW214439   1.583   6.107   0.334
 4514SOL     OW14440   3.275   3.644   6.465
 4514SOL    HW114441   3.337   3.722   6.466
 4514SOL    HW214442   3.180   3.676   6.472
 4515SOL     OW14443   5.130   6.838   5.530
 4515SOL    HW114444   5.147   6.919   5.586
 4515SOL    HW214445   5.095   6.866   5.441
 4516SOL     OW14446   3.722   1.631   5.489
 4516SOL    HW114447   3.720   1.586   5.579
 4516SOL    HW214448   3.755   1.725   5.500
 4517SOL     OW14449   4.201   0.492   5.954
 4517SOL    HW114450   4.189   0.554   5.876
 4517SOL    HW214451   4.211   0.545   6.038
 4518SOL     OW14452   2.110   0.195   1.179
 4518SOL    HW114453   2.102   0.201   1.080
 4518SOL    HW214454   2.178   0.260   1.211
 4519SOL     OW14455   5.835   6.442   0.281
 4519SOL    HW114456   5.777   6.361   0.290
 4519SOL    HW214457   5.865   6.472   0.372
 4520SOL     OW14458   3.962   6.380   5.143
 4520SOL    HW114459   4.037   6.426   5.191
 4520SOL    HW214460   3.968   6.400   5.045
 4521SOL     OW14461   4.853   3.002   5.022
 4521SOL    HW114462   4.953   3.005   5.025
 4521SOL    HW214463   4.823   2.971   4.932
 4522SOL     OW14464   5.143   3.508   3.369
 4522SOL    HW114465   5.219   3.496   3.306
 4522SOL    HW214466   5.151   3.442   3.445
 4523SOL     OW14467   0.571   3.218   6.412
 4523SOL    HW114468   0.570   3.283   6.336
 4523SOL    HW214469   0.665   3.187   6.427
 4524SOL     OW14470   0.656   3.496   2.663
 4524SOL    HW114471   0.712   3.455   2.735
 4524SOL    HW214472   0.565   3.455   2.664
 4525SOL     OW14473   2.151   2.545   5.973
 4525SOL    HW114474   2.079   2.559   6.041
 4525SOL    HW214475   2.229   2.498   6.015
 4526SOL     OW14476   0.485   6.807   6.039
 4526SOL    HW114477   0.439   6.781   5.954
 4526SOL    HW214478   0.474   6.906   6.053
 4527SOL     OW14479   6.248   0.262   3.349
 4527SOL    HW114480   6.240   0.193   3.420
 4527SOL    HW214481   6.340   0.300   3.349
 4528SOL     OW14482   3.871   1.147   5.277
 4528SOL    HW114483   3.887   1.241   5.307
 4528SOL    HW214484   3.797   1.107   5.332
 4529SOL     OW14485   2.882   1.006   5.210
 4529SOL    HW114486   2.842   0.935   5.268
 4529SOL    HW214487   2.887   0.973   5.116
 4530SOL     OW14488   2.516   6.422   4.770
 4530SOL    HW114489   2.591   6.416   4.836
 4530SOL    HW214490   2.449   6.350   4.790
 4531SOL     OW14491   1.160   5.160   6.169
 4531SOL    HW114492   1.199   5.243   6.128
 4531SOL    HW214493   1.200   5.146   6.260
 4532SOL     OW14494   5.415   0.371   2.726
 4532SOL    HW114495   5.340   0.408   2.671
 4532SOL    HW214496   5.388   0.369   2.822
 4533SOL     OW14497   2.293   0.585   1.894
 4533SOL    HW114498   2.303   0.518   1.968
 4533SOL    HW214499   2.328   0.674   1.924
 4534SOL     OW14500   4.779   1.521   4.240
 4534SOL    HW114501   4.834   1.452   4.288
 4534SOL    HW214502   4.838   1.573   4.178
 4535SOL     OW14503   3.205   1.614   1.024
 4535SOL    HW114504   3.108   1.590   1.027
 4535SOL    HW214505   3.258   1.543   1.072
 4536SOL     OW14506   2.912   1.708   6.243
 4536SOL    HW114507   2.841   1.663   6.297
 4536SOL    HW214508   2.995   1.653   6.245
 4537SOL     OW14509   3.629   4.092   4.389
 4537SOL    HW114510   3.601   3.996   4.394
 4537SOL    HW214511   3.624   4.133   4.480
 4538SOL     OW14512   6.714   2.478   0.890
 4538SOL    HW114513   6.806   2.449   0.866
 4538SOL    HW214514   6.698   2.571   0.856
 4539SOL     OW14515   1.316   5.720   5.822
 4539SOL    HW114516   1.401   5.772   5.817
 4539SOL    HW214517   1.256   5.760   5.891
 4540SOL     OW14518   0.014   1.310   0.932
 4540SOL    HW114519   6.955   1.263   0.973
 4540SOL    HW214520   0.094   1.249   0.934
 4541SOL     OW14521   4.316   2.016   5.940
 4541SOL    HW114522   4.384   2.089   5.937
 4541SOL    HW214523   4.355   1.932   5.905
 4542SOL     OW14524   0.256   2.788   1.211
 4542SOL    HW114525   0.321   2.864   1.205
 4542SOL    HW214526   0.244   2.747   1.120
 4543SOL     OW14527   3.805   2.130   6.761
 4543SOL    HW114528   3.835   2.053   6.705
 4543SOL    HW214529   3.708   2.120   6.783
 4544SOL     OW14530   5.866   5.187   0.477
 4544SOL    HW114531   5.843   5.111   0.538
 4544SOL    HW214532   5.936   5.158   0.412
 4545SOL     OW14533   1.653   3.656   5.035
 4545SOL    HW114534   1.583   3.666   4.964
 4545SOL    HW214535   1.715   3.734   5.033
 4546SOL     OW14536   2.361   1.365   6.126
 4546SOL    HW114537   2.323   1.273   6.117
 4546SOL    HW214538   2.298   1.431   6.083
 4547SOL     OW14539   6.274   0.389   0.116
 4547SOL    HW114540   6.304   0.402   0.211
 4547SOL    HW214541   6.352   0.404   0.055
 4548SOL     OW14542   2.115   3.390   3.032
 4548SOL    HW114543   2.187   3.336   3.076
 4548SOL    HW214544   2.059   3.434   3.102
 4549SOL     OW14545   5.623   4.132   2.747
 4549SOL    HW114546   5.594   4.177   2.832
 4549SOL    HW214547   5.719   4.153   2.730
 4550SOL     OW14548   0.639   4.301   2.891
 4550SOL    HW114549   0.616   4.391   2.854
 4550SOL    HW214550   0.715   4.310   2.955
 4551SOL     OW14551   0.873   3.572   5.165
 4551SOL    HW114552   0.811   3.635   5.211
 4551SOL    HW214553   0.961   3.571   5.212
 4552SOL     OW14554   5.836   0.975   1.367
 4552SOL    HW114555   5.769   0.998   1.437
 4552SOL    HW214556   5.909   1.044   1.367
 4553SOL     OW14557   5.477   5.000   6.185
 4553SOL    HW114558   5.572   4.969   6.177
 4553SOL    HW214559   5.475   5.088   6.233
 4554SOL     OW14560   0.615   6.478   1.573
 4554SOL    HW114561   0.676   6.528   1.635
 4554SOL    HW214562   0.534   6.448   1.622
 4555SOL     OW14563   0.869   1.239   6.790
 4555SOL    HW114564   0.802   1.261   6.862
 4555SOL    HW214565   0.854   1.145   6.759
 4556SOL     OW14566   5.935   3.233   5.958
 4556SOL    HW114567   5.884   3.275   6.034
 4556SOL    HW214568   5.968   3.305   5.897
 4557SOL     OW14569   5.813   4.888   3.026
 4557SOL    HW114570   5.870   4.877   3.107
 4557SOL    HW214571   5.737   4.950   3.047
 4558SOL     OW14572   6.872   3.050   5.441
 4558SOL    HW114573   6.783   3.081   5.407
 4558SOL    HW214574   6.880   3.073   5.538
 4559SOL     OW14575   0.861   3.034   2.592
 4559SOL    HW114576   0.779   3.083   2.563
 4559SOL    HW214577   0.837   2.939   2.613
 4560SOL     OW14578   6.174   4.748   2.397
 4560SOL    HW114579   6.193   4.652   2.374
 4560SOL    HW214580   6.191   4.763   2.494
 4561SOL     OW14581   4.037   2.139   4.517
 4561SOL    HW114582   3.995   2.050   4.501
 4561SOL    HW214583   4.043   2.189   4.431
 4562SOL     OW14584   2.311   0.475   0.763
 4562SOL    HW114585   2.400   0.444   0.794
 4562SOL    HW214586   2.296   0.570   0.793
 4563SOL     OW14587   0.304   3.171   1.869
 4563SOL    HW114588   0.252   3.093   1.836
 4563SOL    HW214589   0.244   3.251   1.877
 4564SOL     OW14590   0.388   4.506   1.940
 4564SOL    HW114591   0.408   4.409   1.953
 4564SOL    HW214592   0.397   4.554   2.027
 4565SOL     OW14593   2.125   6.837   4.889
 4565SOL    HW114594   2.105   6.761   4.827
 4565SOL    HW214595   2.045   6.856   4.945
 4566SOL     OW14596   6.957   4.458   1.646
 4566SOL    HW114597   6.876   4.401   1.659
 4566SOL    HW214598   6.946   4.544   1.697
 4567SOL     OW14599   0.162   0.365   6.148
 4567SOL    HW114600   0.076   0.403   6.112
 4567SOL    HW214601   0.210   0.317   6.074
 4568SOL     OW14602   0.392   5.590   3.371
 4568SOL    HW114603   0.444   5.519   3.325
 4568SOL    HW214604   0.305   5.553   3.404
 4569SOL     OW14605   2.833   1.298   3.174
 4569SOL    HW114606   2.782   1.312   3.089
 4569SOL    HW214607   2.826   1.381   3.230
 4570SOL     OW14608   6.361   5.500   1.651
 4570SOL    HW114609   6.434   5.566   1.666
 4570SOL    HW214610   6.397   5.407   1.666
 4571SOL     OW14611   3.562   3.288   6.365
 4571SOL    HW114612   3.472   3.251   6.342
 4571SOL    HW214613   3.556   3.340   6.450
 4572SOL     OW14614   2.369   2.933   1.065
 4572SOL    HW114615   2.365   3.031   1.085
 4572SOL    HW214616   2.460   2.898   1.088
 4573SOL     OW14617   1.206   6.434   1.029
 4573SOL    HW114618   1.168   6.506   1.087
 4573SOL    HW214619   1.303   6.452   1.013
 4574SOL     OW14620   6.693   3.149   0.384
 4574SOL    HW114621   6.727   3.174   0.475
 4574SOL    HW214622   6.596   3.172   0.377
 4575SOL     OW14623   6.343   0.463   4.016
 4575SOL    HW114624   6.407   0.479   4.091
 4575SOL    HW214625   6.342   0.543   3.956
 4576SOL     OW14626   2.612   5.250   5.070
 4576SOL    HW114627   2.620   5.247   5.170
 4576SOL    HW214628   2.555   5.174   5.039
 4577SOL     OW14629   2.008   1.556   3.056
 4577SOL    HW114630   2.028   1.650   3.028
 4577SOL    HW214631   2.003   1.498   2.975
 4578SOL     OW14632   1.231   0.874   2.155
 4578SOL    HW114633   1.302   0.805   2.167
 4578SOL    HW214634   1.269   0.954   2.108
 4579SOL     OW14635   3.976   0.270   2.190
 4579SOL    HW114636   4.026   0.272   2.276
 4579SOL    HW214637   4.024   0.212   2.124
 4580SOL     OW14638   6.575   3.438   6.707
 4580SOL    HW114639   6.616   3.352   6.737
 4580SOL    HW214640   6.511   3.421   6.632
 4581SOL     OW14641   3.216   6.929   1.806
 4581SOL    HW114642   3.169   7.012   1.835
 4581SOL    HW214643   3.315   6.942   1.817
 4582SOL     OW14644   6.115   0.726   2.813
 4582SOL    HW114645   6.030   0.675   2.797
 4582SOL    HW214646   6.174   0.675   2.876
 4583SOL     OW14647   2.429   6.930   6.931
 4583SOL    HW114648   2.353   6.970   6.983
 4583SOL    HW214649   2.421   6.956   6.835
 4584SOL     OW14650   1.578   0.524   6.005
 4584SOL    HW114651   1.500   0.586   6.006
 4584SOL    HW214652   1.656   0.570   5.962
 4585SOL     OW14653   1.391   4.274   3.281
 4585SOL    HW114654   1.422   4.369   3.278
 4585SOL    HW214655   1.390   4.236   3.189
 4586SOL     OW14656   5.298   4.483   6.606
 4586SOL    HW114657   5.280   4.568   6.557
 4586SOL    HW214658   5.238   4.478   6.686
 4587SOL     OW14659   3.265   3.736   4.624
 4587SOL    HW114660   3.283   3.824   4.580
 4587SOL    HW214661   3.182   3.742   4.678
 4588SOL     OW14662   2.636   3.921   5.961
 4588SOL    HW114663   2.641   3.826   5.931
 4588SOL    HW214664   2.628   3.980   5.881
 4589SOL     OW14665   5.263   6.375   2.154
 4589SOL    HW114666   5.343   6.410   2.105
 4589SOL    HW214667   5.191   6.445   2.154
 4590SOL     OW14668   3.361   5.130   2.089
 4590SOL    HW114669   3.390   5.210   2.142
 4590SOL    HW214670   3.261   5.123   2.092
 4591SOL     OW14671   2.405   0.189   5.612
 4591SOL    HW114672   2.323   0.246   5.606
 4591SOL    HW214673   2.451   0.206   5.699
 4592SOL     OW14674   2.369   1.615   4.604
 4592SOL    HW114675   2.387   1.709   4.633
 4592SOL    HW214676   2.411   1.552   4.669
 4593SOL     OW14677   0.174   5.665   3.695
 4593SOL    HW114678   0.271   5.671   3.718
 4593SOL    HW214679   0.133   5.756   3.695
 4594SOL     OW14680   1.951   0.432   2.736
 4594SOL    HW114681   1.947   0.391   2.828
 4594SOL    HW214682   2.037   0.482   2.727
 4595SOL     OW14683   4.825   1.422   6.311
 4595SOL    HW114684   4.879   1.430   6.227
 4595SOL    HW214685   4.871   1.473   6.385
 4596SOL     OW14686   0.965   0.793   2.223
 4596SOL    HW114687   0.966   0.796   2.323
 4596SOL    HW214688   1.055   0.816   2.187
 4597SOL     OW14689   3.081   5.576   6.902
 4597SOL    HW114690   3.177   5.572   6.871
 4597SOL    HW214691   3.021   5.559   6.824
 4598SOL     OW14692   1.791   5.415   7.003
 4598SOL    HW114693   1.823   5.502   6.966
 4598SOL    HW214694   1.846   5.390   0.063
 4599SOL     OW14695   1.899   4.523   2.730
 4599SOL    HW114696   1.931   4.569   2.813
 4599SOL    HW214697   1.908   4.585   2.652
 4600SOL     OW14698   6.752   6.538   5.482
 4600SOL    HW114699   6.828   6.512   5.421
 4600SOL    HW214700   6.713   6.457   5.524
 4601SOL     OW14701   0.699   1.017   4.246
 4601SOL    HW114702   0.641   0.942   4.216
 4601SOL    HW214703   0.765   1.039   4.174
 4602SOL     OW14704   3.155   0.767   6.774
 4602SOL    HW114705   3.134   0.749   6.870
 4602SOL    HW214706   3.223   0.840   6.768
 4603SOL     OW14707   4.389   5.801   1.203
 4603SOL    HW114708   4.467   5.817   1.264
 4603SOL    HW214709   4.310   5.773   1.258
 4604SOL     OW14710   5.384   6.687   5.901
 4604SOL    HW114711   5.385   6.636   5.987
 4604SOL    HW214712   5.477   6.717   5.880
 4605SOL     OW14713   2.875   6.778   2.010
 4605SOL    HW114714   2.899   6.805   1.917
 4605SOL    HW214715   2.955   6.789   2.069
 4606SOL     OW14716   0.251   6.671   3.207
 4606SOL    HW114717   0.329   6.651   3.266
 4606SOL    HW214718   0.282   6.710   3.121
 4607SOL     OW14719   1.522   3.506   2.668
 4607SOL    HW114720   1.568   3.424   2.635
 4607SOL    HW214721   1.475   3.485   2.754
 4608SOL     OW14722   6.907   3.407   4.718
 4608SOL    HW114723   6.913   3.358   4.805
 4608SOL    HW214724   6.920   3.343   4.642
 4609SOL     OW14725   4.451   6.258   6.651
 4609SOL    HW114726   4.428   6.352   6.626
 4609SOL    HW214727   4.551   6.250   6.659
 4610SOL     OW14728   5.220   2.197   0.637
 4610SOL    HW114729   5.298   2.258   0.655
 4610SOL    HW214730   5.207   2.136   0.714
 4611SOL     OW14731   0.908   0.464   5.920
 4611SOL    HW114732   0.998   0.453   5.962
 4611SOL    HW214733   0.865   0.548   5.955
 4612SOL     OW14734   1.839   6.485   2.459
 4612SOL    HW114735   1.853   6.579   2.430
 4612SOL    HW214736   1.915   6.428   2.425
 4613SOL     OW14737   1.951   4.955   1.812
 4613SOL    HW114738   2.000   5.025   1.863
 4613SOL    HW214739   1.853   4.963   1.831
 4614SOL     OW14740   6.223   3.371   4.804
 4614SOL    HW114741   6.145   3.344   4.859
 4614SOL    HW214742   6.304   3.381   4.862
 4615SOL     OW14743   1.559   1.864   1.329
 4615SOL    HW114744   1.564   1.802   1.407
 4615SOL    HW214745   1.486   1.834   1.267
 4616SOL     OW14746   6.164   3.223   4.453
 4616SOL    HW114747   6.181   3.300   4.391
 4616SOL    HW214748   6.248   3.201   4.503
 4617SOL     OW14749   0.346   2.363   2.141
 4617SOL    HW114750   0.383   2.300   2.209
 4617SOL    HW214751   0.254   2.391   2.168
 4618SOL     OW14752   2.761   4.304   5.886
 4618SOL    HW114753   2.699   4.235   5.850
 4618SOL    HW214754   2.787   4.367   5.813
 4619SOL     OW14755   3.012   6.120   4.807
 4619SOL    HW114756   2.914   6.139   4.815
 4619SOL    HW214757   3.046   6.156   4.720
 4620SOL     OW14758   0.848   5.553   2.450
 4620SOL    HW114759   0.802   5.626   2.400
 4620SOL    HW214760   0.947   5.561   2.436
 4621SOL     OW14761   4.938   0.482   2.652
 4621SOL    HW114762   4.902   0.564   2.607
 4621SOL    HW214763   4.912   0.401   2.599
 4622SOL     OW14764   4.283   5.528   1.361
 4622SOL    HW114765   4.193   5.498   1.331
 4622SOL    HW214766   4.339   5.447   1.382
 4623SOL     OW14767   2.986   5.171   1.129
 4623SOL    HW114768   3.053   5.227   1.176
 4623SOL    HW214769   2.936   5.115   1.196
 4624SOL     OW14770   4.000   1.137   3.098
 4624SOL    HW114771   3.938   1.196   3.150
 4624SOL    HW214772   4.048   1.076   3.160
 4625SOL     OW14773   1.681   5.016   1.970
 4625SOL    HW114774   1.751   5.042   2.037
 4625SOL    HW214775   1.626   5.096   1.946
 4626SOL     OW14776   3.894   3.947   1.697
 4626SOL    HW114777   3.881   4.044   1.680
 4626SOL    HW214778   3.987   3.920   1.670
 4627SOL     OW14779   6.733   6.502   4.772
 4627SOL    HW114780   6.817   6.498   4.718
 4627SOL    HW214781   6.742   6.444   4.853
 4628SOL     OW14782   4.582   5.358   3.394
 4628SOL    HW114783   4.534   5.271   3.387
 4628SOL    HW214784   4.653   5.363   3.324
 4629SOL     OW14785   1.948   5.957   6.866
 4629SOL    HW114786   1.851   5.934   6.866
 4629SOL    HW214787   1.991   5.921   6.783
 4630SOL     OW14788   1.777   4.344   2.018
 4630SOL    HW114789   1.829   4.400   2.082
 4630SOL    HW214790   1.693   4.393   1.992
 4631SOL     OW14791   0.391   0.953   3.679
 4631SOL    HW114792   0.367   1.039   3.725
 4631SOL    HW214793   0.319   0.885   3.695
 4632SOL     OW14794   3.580   4.894   2.531
 4632SOL    HW114795   3.499   4.846   2.563
 4632SOL    HW214796   3.585   4.887   2.431
 4633SOL     OW14797   5.252   1.361   3.848
 4633SOL    HW114798   5.302   1.386   3.765
 4633SOL    HW214799   5.276   1.268   3.875
 4634SOL     OW14800   3.172   3.318   4.744
 4634SOL    HW114801   3.140   3.240   4.797
 4634SOL    HW214802   3.210   3.387   4.807
 4635SOL     OW14803   5.401   5.653   0.530
 4635SOL    HW114804   5.413   5.554   0.532
 4635SOL    HW214805   5.461   5.695   0.597
 4636SOL     OW14806   2.142   5.576   0.111
 4636SOL    HW114807   2.152   5.501   0.045
 4636SOL    HW214808   2.160   5.542   0.203
 4637SOL     OW14809   1.927   0.268   2.401
 4637SOL    HW114810   2.015   0.310   2.379
 4637SOL    HW214811   1.938   0.208   2.481
 4638SOL     OW14812   4.052   4.874   0.725
 4638SOL    HW114813   4.064   4.870   0.626
 4638SOL    HW214814   3.978   4.812   0.751
 4639SOL     OW14815   1.915   1.881   0.660
 4639SOL    HW114816   1.957   1.893   0.570
 4639SOL    HW214817   1.841   1.814   0.653
 4640SOL     OW14818   6.642   3.133   5.357
 4640SOL    HW114819   6.584   3.185   5.294
 4640SOL    HW214820   6.591   3.113   5.440
 4641SOL     OW14821   0.698   5.670   3.970
 4641SOL    HW114822   0.796   5.656   3.984
 4641SOL    HW214823   0.665   5.737   4.036
 4642SOL     OW14824   1.584   2.060   3.483
 4642SOL    HW114825   1.614   2.149   3.449
 4642SOL    HW214826   1.491   2.042   3.452
 4643SOL     OW14827   6.981   2.074   6.978
 4643SOL    HW114828   6.999   2.074   6.879
 4643SOL    HW214829   7.011   2.161   7.017
 4644SOL     OW14830   2.061   0.798   0.800
 4644SOL    HW114831   2.029   0.869   0.862
 4644SOL    HW214832   2.151   0.766   0.829
 4645SOL     OW14833   1.437   0.895   3.675
 4645SOL    HW114834   1.386   0.924   3.595
 4645SOL    HW214835   1.535   0.893   3.654
 4646SOL     OW14836   1.803   5.136   3.697
 4646SOL    HW114837   1.768   5.218   3.652
 4646SOL    HW214838   1.741   5.060   3.680
 4647SOL     OW14839   1.841   6.903   2.765
 4647SOL    HW114840   1.741   6.892   2.762
 4647SOL    HW214841   1.864   7.000   2.765
 4648SOL     OW14842   3.165   1.453   4.397
 4648SOL    HW114843   3.212   1.365   4.399
 4648SOL    HW214844   3.072   1.442   4.363
 4649SOL     OW14845   6.008   0.416   0.171
 4649SOL    HW114846   6.101   0.415   0.134
 4649SOL    HW214847   6.009   0.449   0.265
 4650SOL     OW14848   5.278   6.679   1.454
 4650SOL    HW114849   5.308   6.727   1.536
 4650SOL    HW214850   5.178   6.670   1.455
 4651SOL     OW14851   6.313   3.006   5.938
 4651SOL    HW114852   6.388   2.951   5.902
 4651SOL    HW214853   6.286   2.971   6.028
 4652SOL     OW14854   6.790   6.091   4.691
 4652SOL    HW114855   6.708   6.062   4.641
 4652SOL    HW214856   6.768   6.169   4.749
 4653SOL     OW14857   5.343   5.891   1.264
 4653SOL    HW114858   5.279   5.814   1.271
 4653SOL    HW214859   5.318   5.948   1.185
 4654SOL     OW14860   6.689   6.734   4.459
 4654SOL    HW114861   6.657   6.640   4.469
 4654SOL    HW214862   6.692   6.758   4.362
 4655SOL     OW14863   4.686   2.857   1.006
 4655SOL    HW114864   4.590   2.857   0.978
 4655SOL    HW214865   4.692   2.861   1.106
 4656SOL     OW14866   0.849   1.228   1.486
 4656SOL    HW114867   0.810   1.142   1.454
 4656SOL    HW214868   0.931   1.210   1.541
 4657SOL     OW14869   5.052   6.863   2.573
 4657SOL    HW114870   5.145   6.827   2.586
 4657SOL    HW214871   5.056   6.943   2.513
 4658SOL     OW14872   2.767   2.335   5.138
 4658SOL    HW114873   2.825   2.269   5.187
 4658SOL    HW214874   2.770   2.423   5.184
 4659SOL     OW14875   3.413   4.683   0.993
 4659SOL    HW114876   3.344   4.755   0.983
 4659SOL    HW214877   3.368   4.597   1.014
 4660SOL     OW14878   1.036   6.237   4.290
 4660SOL    HW114879   1.032   6.141   4.317
 4660SOL    HW214880   1.038   6.244   4.191
 4661SOL     OW14881   2.132   3.397   6.071
 4661SOL    HW114882   2.074   3.374   5.993
 4661SOL    HW214883   2.177   3.485   6.055
 4662SOL     OW14884   2.788   6.604   4.663
 4662SOL    HW114885   2.795   6.537   4.737
 4662SOL    HW214886   2.706   6.585   4.609
 4663SOL     OW14887   1.098   0.246   0.120
 4663SOL    HW114888   1.063   0.165   0.167
 4663SOL    HW214889   1.162   0.218   0.048
 4664SOL     OW14890   6.405   6.551   0.354
 4664SOL    HW114891   6.501   6.580   0.356
 4664SOL    HW214892   6.346   6.630   0.347
 4665SOL     OW14893   2.239   0.792   5.095
 4665SOL    HW114894   2.151   0.806   5.049
 4665SOL    HW214895   2.277   0.880   5.122
 4666SOL     OW14896   1.954   2.465   6.140
 4666SOL    HW114897   1.925   2.371   6.153
 4666SOL    HW214898   1.938   2.517   6.224
 4667SOL     OW14899   6.538   3.430   1.725
 4667SOL    HW114900   6.503   3.415   1.633
 4667SOL    HW214901   6.519   3.349   1.781
 4668SOL     OW14902   4.317   2.294   4.561
 4668SOL    HW114903   4.269   2.305   4.474
 4668SOL    HW214904   4.251   2.300   4.636
 4669SOL     OW14905   5.424   6.879   0.380
 4669SOL    HW114906   5.349   6.940   0.355
 4669SOL    HW214907   5.441   6.816   0.305
 4670SOL     OW14908   0.586   3.602   0.304
 4670SOL    HW114909   0.568   3.563   0.213
 4670SOL    HW214910   0.602   3.700   0.295
 4671SOL     OW14911   0.316   3.736   0.135
 4671SOL    HW114912   0.400   3.778   0.169
 4671SOL    HW214913   0.259   3.805   0.090
 4672SOL     OW14914   3.433   4.205   5.761
 4672SOL    HW114915   3.336   4.226   5.751
 4672SOL    HW214916   3.444   4.124   5.818
 4673SOL     OW14917   5.678   0.607   6.642
 4673SOL    HW114918   5.764   0.613   6.692
 4673SOL    HW214919   5.619   0.538   6.684
 4674SOL     OW14920   0.544   1.871   0.265
 4674SOL    HW114921   0.533   1.829   0.355
 4674SOL    HW214922   0.607   1.948   0.271
 4675SOL     OW14923   3.237   5.765   0.049
 4675SOL    HW114924   3.333   5.751   0.028
 4675SOL    HW214925   3.186   5.681   0.032
 4676SOL     OW14926   0.682   6.468   3.940
 4676SOL    HW114927   0.736   6.450   4.022
 4676SOL    HW214928   0.594   6.507   3.966
 4677SOL     OW14929   4.480   0.416   6.307
 4677SOL    HW114930   4.455   0.389   6.214
 4677SOL    HW214931   4.407   0.390   6.370
 4678SOL     OW14932   1.930   4.945   0.415
 4678SOL    HW114933   1.957   4.880   0.343
 4678SOL    HW214934   2.012   4.977   0.463
 4679SOL     OW14935   2.616   0.572   6.328
 4679SOL    HW114936   2.535   0.535   6.283
 4679SOL    HW214937   2.691   0.506   6.322
 4680SOL     OW14938   1.482   5.013   0.767
 4680SOL    HW114939   1.545   5.086   0.794
 4680SOL    HW214940   1.389   5.050   0.763
 4681SOL     OW14941   0.355   4.908   5.710
 4681SOL    HW114942   0.374   4.946   5.800
 4681SOL    HW214943   0.277   4.845   5.716
 4682SOL     OW14944   4.247   6.452   0.521
 4682SOL    HW114945   4.337   6.482   0.552
 4682SOL    HW214946   4.252   6.358   0.487
 4683SOL     OW14947   5.895   3.802   2.243
 4683SOL    HW114948   5.813   3.859   2.233
 4683SOL    HW214949   5.870   3.706   2.236
 4684SOL     OW14950   1.331   2.094   4.751
 4684SOL    HW114951   1.325   2.193   4.739
 4684SOL    HW214952   1.242   2.053   4.735
 4685SOL     OW14953   5.014   5.072   4.186
 4685SOL    HW114954   5.072   5.153   4.179
 4685SOL    HW214955   5.057   4.996   4.137
 4686SOL     OW14956   4.898   5.280   6.539
 4686SOL    HW114957   4.944   5.310   6.622
 4686SOL    HW214958   4.901   5.180   6.533
 4687SOL     OW14959   5.816   4.417   4.905
 4687SOL    HW114960   5.808   4.477   4.825
 4687SOL    HW214961   5.754   4.449   4.976
 4688SOL     OW14962   0.531   3.226   6.825
 4688SOL    HW114963   0.604   3.278   6.779
 4688SOL    HW214964   0.443   3.271   6.807
 4689SOL     OW14965   6.690   6.052   5.063
 4689SOL    HW114966   6.738   5.973   5.103
 4689SOL    HW214967   6.598   6.024   5.036
 4690SOL     OW14968   1.307   1.259   0.250
 4690SOL    HW114969   1.233   1.325   0.263
 4690SOL    HW214970   1.395   1.307   0.246
 4691SOL     OW14971   2.504   4.533   0.995
 4691SOL    HW114972   2.449   4.570   1.070
 4691SOL    HW214973   2.546   4.447   1.024
 4692SOL     OW14974   6.918   4.810   3.342
 4692SOL    HW114975   6.956   4.844   3.428
 4692SOL    HW214976   6.991   4.773   3.285
 4693SOL     OW14977   0.199   1.215   4.428
 4693SOL    HW114978   0.292   1.239   4.456
 4693SOL    HW214979   0.202   1.167   4.340
 4694SOL     OW14980   1.878   1.204   0.549
 4694SOL    HW114981   1.778   1.199   0.556
 4694SOL    HW214982   1.917   1.223   0.638
 4695SOL     OW14983   3.672   2.786   1.998
 4695SOL    HW114984   3.676   2.686   1.999
 4695SOL    HW214985   3.688   2.819   1.905
 4696SOL     OW14986   6.902   3.207   5.963
 4696SOL    HW114987   6.991   3.225   6.004
 4696SOL    HW214988   6.856   3.294   5.946
 4697SOL     OW14989   0.990   4.213   6.892
 4697SOL    HW114990   1.013   4.168   6.979
 4697SOL    HW214991   1.069   4.266   6.861
 4698SOL     OW14992   5.423   3.850   1.284
 4698SOL    HW114993   5.520   3.876   1.283
 4698SOL    HW214994   5.371   3.919   1.334
 4699SOL     OW14995   0.354   0.766   2.493
 4699SOL    HW114996   0.348   0.738   2.588
 4699SOL    HW214997   0.268   0.808   2.464
 4700SOL     OW14998   5.018   1.609   0.812
 4700SOL    HW114999   5.010   1.562   0.724
 4700SOL    HW215000   5.058   1.548   0.880
 4701SOL     OW15001   0.890   1.580   0.034
 4701SOL    HW115002   0.869   1.606   6.960
 4701SOL    HW215003   0.979   1.535   0.038
 4702SOL     OW15004   3.650   4.265   6.863
 4702SOL    HW115005   3.678   4.244   6.957
 4702SOL    HW215006   3.581   4.198   6.834
 4703SOL     OW15007   2.084   0.762   2.727
 4703SOL    HW115008   2.110   0.797   2.817
 4703SOL    HW215009   2.130   0.674   2.712
 4704SOL     OW15010   0.182   6.923   0.616
 4704SOL    HW115011   0.188   6.850   0.547
 4704SOL    HW215012   0.088   6.957   0.619
 4705SOL     OW15013   3.499   3.153   4.446
 4705SOL    HW115014   3.552   3.205   4.378
 4705SOL    HW215015   3.533   3.059   4.450
 4706SOL     OW15016   4.001   6.388   6.971
 4706SOL    HW115017   3.919   6.347   7.011
 4706SOL    HW215018   3.985   6.406   6.874
 4707SOL     OW15019   2.185   5.582   1.269
 4707SOL    HW115020   2.110   5.521   1.293
 4707SOL    HW215021   2.212   5.566   1.174
 4708SOL     OW15022   3.192   2.663   1.261
 4708SOL    HW115023   3.258   2.671   1.336
 4708SOL    HW215024   3.173   2.754   1.224
 4709SOL     OW15025   3.737   4.962   5.359
 4709SOL    HW115026   3.717   4.881   5.415
 4709SOL    HW215027   3.834   4.985   5.368
 4710SOL     OW15028   4.858   1.045   6.781
 4710SOL    HW115029   4.867   1.102   6.700
 4710SOL    HW215030   4.762   1.031   6.802
 4711SOL     OW15031   3.328   0.078   2.466
 4711SOL    HW115032   3.410   0.031   2.499
 4711SOL    HW215033   3.252   0.060   2.529
 4712SOL     OW15034   1.918   4.683   0.872
 4712SOL    HW115035   2.000   4.659   0.925
 4712SOL    HW215036   1.911   4.623   0.793
 4713SOL     OW15037   2.308   5.372   1.403
 4713SOL    HW115038   2.289   5.449   1.341
 4713SOL    HW215039   2.235   5.304   1.394
 4714SOL     OW15040   3.214   2.000   1.802
 4714SOL    HW115041   3.147   2.029   1.871
 4714SOL    HW215042   3.241   1.905   1.820
 4715SOL     OW15043   6.941   2.632   3.064
 4715SOL    HW115044   0.016   2.626   3.031
 4715SOL    HW215045   6.886   2.563   3.018
 4716SOL     OW15046   3.627   5.878   0.367
 4716SOL    HW115047   3.576   5.797   0.341
 4716SOL    HW215048   3.568   5.939   0.422
 4717SOL     OW15049   0.841   5.874   3.366
 4717SOL    HW115050   0.817   5.893   3.461
 4717SOL    HW215051   0.916   5.934   3.338
 4718SOL     OW15052   5.654   1.458   6.289
 4718SOL    HW115053   5.629   1.366   6.320
 4718SOL    HW215054   5.719   1.499   6.352
 4719SOL     OW15055   5.317   3.227   1.984
 4719SOL    HW115056   5.409   3.189   1.997
 4719SOL    HW215057   5.266   3.169   1.921
 4720SOL     OW15058   2.486   0.289   5.923
 4720SOL    HW115059   2.581   0.319   5.927
 4720SOL    HW215060   2.477   0.200   5.967
 4721SOL     OW15061   1.641   2.139   0.910
 4721SOL    HW115062   1.589   2.067   0.954
 4721SOL    HW215063   1.658   2.114   0.814
 4722SOL     OW15064   1.718   6.989   0.230
 4722SOL    HW115065   1.636   7.008   0.284
 4722SOL    HW215066   1.748   6.895   0.246
 4723SOL     OW15067   2.577   6.840   6.592
 4723SOL    HW115068   2.674   6.865   6.596
 4723SOL    HW215069   2.555   6.780   6.669
 4724SOL     OW15070   3.645   6.664   1.493
 4724SOL    HW115071   3.685   6.640   1.582
 4724SOL    HW215072   3.631   6.580   1.440
 4725SOL     OW15073   5.628   6.464   3.296
 4725SOL    HW115074   5.710   6.521   3.288
 4725SOL    HW215075   5.638   6.401   3.373
 4726SOL     OW15076   1.162   3.924   6.832
 4726SOL    HW115077   1.097   3.993   6.801
 4726SOL    HW215078   1.255   3.954   6.811
 4727SOL     OW15079   6.797   5.616   6.620
 4727SOL    HW115080   6.838   5.665   6.544
 4727SOL    HW215081   6.858   5.618   6.699
 4728SOL     OW15082   0.065   0.771   6.314
 4728SOL    HW115083   7.004   0.758   6.257
 4728SOL    HW215084   0.099   0.682   6.344
 4729SOL     OW15085   3.305   6.999   2.218
 4729SOL    HW115086   3.320   0.025   2.306
 4729SOL    HW215087   3.386   7.012   2.160
 4730SOL     OW15088   2.134   6.462   5.985
 4730SOL    HW115089   2.086   6.397   6.044
 4730SOL    HW215090   2.071   6.536   5.960
 4731SOL     OW15091   5.903   1.085   4.731
 4731SOL    HW115092   5.982   1.039   4.770
 4731SOL    HW215093   5.925   1.181   4.714
 4732SOL     OW15094   0.129   3.243   6.965
 4732SOL    HW115095   0.214   3.279   6.927
 4732SOL    HW215096   0.053   3.265   6.903
 4733SOL     OW15097   0.122   4.247   3.617
 4733SOL    HW115098   0.077   4.238   3.528
 4733SOL    HW215099   0.206   4.300   3.608
 4734SOL     OW15100   4.307   4.049   6.635
 4734SOL    HW115101   4.216   4.073   6.599
 4734SOL    HW215102   4.316   4.085   6.728
 4735SOL     OW15103   0.720   5.055   3.803
 4735SOL    HW115104   0.739   5.094   3.713
 4735SOL    HW215105   0.793   5.078   3.866
 4736SOL     OW15106   0.963   0.854   0.100
 4736SOL    HW115107   0.971   0.804   0.186
 4736SOL    HW215108   0.957   0.952   0.118
 4737SOL     OW15109   2.472   4.828   2.021
 4737SOL    HW115110   2.470   4.756   1.952
 4737SOL    HW215111   2.564   4.838   2.057
 4738SOL     OW15112   6.726   6.544   1.790
 4738SOL    HW115113   6.740   6.637   1.758
 4738SOL    HW215114   6.699   6.486   1.713
 4739SOL     OW15115   4.561   0.458   2.468
 4739SOL    HW115116   4.507   0.378   2.439
 4739SOL    HW215117   4.501   0.537   2.475
 4740SOL     OW15118   1.260   1.863   2.734
 4740SOL    HW115119   1.334   1.906   2.683
 4740SOL    HW215120   1.193   1.824   2.671
 4741SOL     OW15121   4.339   3.442   1.675
 4741SOL    HW115122   4.397   3.377   1.624
 4741SOL    HW215123   4.373   3.535   1.660
 4742SOL     OW15124   3.348   6.958   0.651
 4742SOL    HW115125   3.393   6.907   0.724
 4742SOL    HW215126   3.266   7.003   0.686
 4743SOL     OW15127   2.201   4.872   0.910
 4743SOL    HW115128   2.261   4.932   0.963
 4743SOL    HW215129   2.109   4.911   0.908
 4744SOL     OW15130   1.883   6.444   0.903
 4744SOL    HW115131   1.900   6.420   0.999
 4744SOL    HW215132   1.824   6.525   0.899
 4745SOL     OW15133   2.007   4.248   0.296
 4745SOL    HW115134   1.910   4.268   0.284
 4745SOL    HW215135   2.018   4.171   0.360
 4746SOL     OW15136   4.216   5.587   4.428
 4746SOL    HW115137   4.185   5.606   4.522
 4746SOL    HW215138   4.181   5.498   4.400
 4747SOL     OW15139   1.672   2.450   0.877
 4747SOL    HW115140   1.726   2.491   0.951
 4747SOL    HW215141   1.614   2.377   0.915
 4748SOL     OW15142   1.854   6.419   3.223
 4748SOL    HW115143   1.788   6.383   3.289
 4748SOL    HW215144   1.824   6.396   3.130
 4749SOL     OW15145   2.011   0.005   0.529
 4749SOL    HW115146   1.997   0.100   0.558
 4749SOL    HW215147   2.093   6.988   0.572
 4750SOL     OW15148   5.487   3.385   5.543
 4750SOL    HW115149   5.393   3.380   5.577
 4750SOL    HW215150   5.537   3.304   5.573
 4751SOL     OW15151   4.754   0.932   2.902
 4751SOL    HW115152   4.845   0.967   2.922
 4751SOL    HW215153   4.686   0.984   2.954
 4752SOL     OW15154   4.416   2.277   6.856
 4752SOL    HW115155   4.375   2.215   6.924
 4752SOL    HW215156   4.343   2.322   6.805
 4753SOL     OW15157   2.707   6.295   5.127
 4753SOL    HW115158   2.635   6.225   5.121
 4753SOL    HW215159   2.672   6.383   5.095
 4754SOL     OW15160   4.382   4.892   6.448
 4754SOL    HW115161   4.419   4.876   6.539
 4754SOL    HW215162   4.419   4.977   6.411
 4755SOL     OW15163   1.285   0.749   1.232
 4755SOL    HW115164   1.374   0.746   1.187
 4755SOL    HW215165   1.237   0.833   1.207
 4756SOL     OW15166   6.599   3.978   6.454
 4756SOL    HW115167   6.499   3.982   6.456
 4756SOL    HW215168   6.632   4.035   6.379
 4757SOL     OW15169   1.895   3.337   1.596
 4757SOL    HW115170   1.906   3.420   1.542
 4757SOL    HW215171   1.968   3.330   1.664
 4758SOL     OW15172   1.886   6.996   3.017
 4758SOL    HW115173   1.845   6.946   3.094
 4758SOL    HW215174   1.863   6.951   2.931
 4759SOL     OW15175   1.087   4.928   1.340
 4759SOL    HW115176   0.999   4.894   1.374
 4759SOL    HW215177   1.139   4.968   1.416
 4760SOL     OW15178   1.775   6.463   0.607
 4760SOL    HW115179   1.799   6.408   0.527
 4760SOL    HW215180   1.799   6.413   0.690
 4761SOL     OW15181   0.375   0.085   1.083
 4761SOL    HW115182   0.396   0.038   1.169
 4761SOL    HW215183   0.455   0.137   1.054
 4762SOL     OW15184   1.685   5.693   2.355
 4762SOL    HW115185   1.728   5.677   2.266
 4762SOL    HW215186   1.751   5.671   2.428
 4763SOL     OW15187   4.948   5.779   2.097
 4763SOL    HW115188   5.037   5.800   2.056
 4763SOL    HW215189   4.917   5.855   2.153
 4764SOL     OW15190   4.162   3.991   5.983
 4764SOL    HW115191   4.240   3.932   6.000
 4764SOL    HW215192   4.078   3.938   5.990
 4765SOL     OW15193   3.866   1.691   4.839
 4765SOL    HW115194   3.932   1.635   4.790
 4765SOL    HW215195   3.790   1.715   4.777
 4766SOL     OW15196   6.895   6.790   3.986
 4766SOL    HW115197   6.959   6.787   4.063
 4766SOL    HW215198   6.932   6.737   3.909
 4767SOL     OW15199   2.247   4.998   5.298
 4767SOL    HW115200   2.270   5.045   5.213
 4767SOL    HW215201   2.227   4.902   5.279
 4768SOL     OW15202   4.521   2.266   0.171
 4768SOL    HW115203   4.478   2.176   0.167
 4768SOL    HW215204   4.452   2.334   0.197
 4769SOL     OW15205   3.057   5.377   1.536
 4769SOL    HW115206   3.096   5.410   1.621
 4769SOL    HW215207   2.960   5.402   1.532
 4770SOL     OW15208   0.691   1.127   5.589
 4770SOL    HW115209   0.710   1.087   5.499
 4770SOL    HW215210   0.660   1.055   5.651
 4771SOL     OW15211   2.098   6.556   5.295
 4771SOL    HW115212   2.144   6.634   5.338
 4771SOL    HW215213   2.000   6.561   5.315
 4772SOL     OW15214   2.112   6.211   1.278
 4772SOL    HW115215   2.059   6.278   1.227
 4772SOL    HW215216   2.060   6.181   1.358
 4773SOL     OW15217   2.461   5.474   5.410
 4773SOL    HW115218   2.520   5.540   5.457
 4773SOL    HW215219   2.508   5.387   5.401
 4774SOL     OW15220   1.605   3.956   0.315
 4774SOL    HW115221   1.585   4.001   0.228
 4774SOL    HW215222   1.686   3.998   0.357
 4775SOL     OW15223   5.696   6.523   5.195
 4775SOL    HW115224   5.739   6.512   5.284
 4775SOL    HW215225   5.695   6.620   5.171
 4776SOL     OW15226   0.914   0.733   5.965
 4776SOL    HW115227   0.988   0.742   6.032
 4776SOL    HW215228   0.930   0.798   5.890
 4777SOL     OW15229   0.874   6.492   1.145
 4777SOL    HW115230   0.802   6.454   1.203
 4777SOL    HW215231   0.894   6.586   1.173
 4778SOL     OW15232   1.521   2.949   5.754
 4778SOL    HW115233   1.584   2.886   5.709
 4778SOL    HW215234   1.504   3.027   5.694
 4779SOL     OW15235   5.222   1.000   3.677
 4779SOL    HW115236   5.250   1.049   3.760
 4779SOL    HW215237   5.123   0.985   3.679
 4780SOL     OW15238   6.156   2.262   5.252
 4780SOL    HW115239   6.134   2.174   5.294
 4780SOL    HW215240   6.143   2.335   5.318
 4781SOL     OW15241   2.354   6.204   2.949
 4781SOL    HW115242   2.304   6.214   2.863
 4781SOL    HW215243   2.451   6.223   2.935
 4782SOL     OW15244   5.918   5.513   4.269
 4782SOL    HW115245   5.847   5.443   4.274
 4782SOL    HW215246   5.975   5.497   4.188
 4783SOL     OW15247   6.084   2.811   1.198
 4783SOL    HW115248   6.142   2.879   1.154
 4783SOL    HW215249   6.097   2.816   1.297
 4784SOL     OW15250   5.533   1.985   6.226
 4784SOL    HW115251   5.598   2.022   6.160
 4784SOL    HW215252   5.560   2.012   6.319
 4785SOL     OW15253   0.447   5.634   3.852
 4785SOL    HW115254   0.529   5.647   3.907
 4785SOL    HW215255   0.418   5.538   3.856
 4786SOL     OW15256   2.541   6.403   0.593
 4786SOL    HW115257   2.466   6.423   0.529
 4786SOL    HW215258   2.530   6.310   0.629
 4787SOL     OW15259   3.210   1.200   4.318
 4787SOL    HW115260   3.135   1.134   4.327
 4787SOL    HW215261   3.216   1.230   4.223
 4788SOL     OW15262   6.143   6.577   6.482
 4788SOL    HW115263   6.130   6.676   6.483
 4788SOL    HW215264   6.054   6.532   6.494
 4789SOL     OW15265   5.195   0.425   2.552
 4789SOL    HW115266   5.110   0.461   2.589
 4789SOL    HW215267   5.230   0.487   2.482
 4790SOL     OW15268   6.091   2.272   4.952
 4790SOL    HW115269   6.016   2.221   4.909
 4790SOL    HW215270   6.093   2.253   5.050
 4791SOL     OW15271   6.960   2.017   0.729
 4791SOL    HW115272   6.876   1.981   0.689
 4791SOL    HW215273   6.939   2.064   0.815
 4792SOL     OW15274   2.103   3.435   4.168
 4792SOL    HW115275   2.104   3.487   4.083
 4792SOL    HW215276   2.099   3.498   4.245
 4793SOL     OW15277   0.833   3.527   5.735
 4793SOL    HW115278   0.750   3.544   5.788
 4793SOL    HW215279   0.913   3.553   5.789
 4794SOL     OW15280   4.545   0.696   3.987
 4794SOL    HW115281   4.521   0.698   3.890
 4794SOL    HW215282   4.594   0.780   4.011
 4795SOL     OW15283   1.097   1.289   5.296
 4795SOL    HW115284   1.143   1.354   5.357
 4795SOL    HW215285   1.088   1.201   5.342
 4796SOL     OW15286   3.898   1.691   5.266
 4796SOL    HW115287   3.866   1.605   5.305
 4796SOL    HW215288   3.820   1.751   5.249
 4797SOL     OW15289   0.860   5.694   4.770
 4797SOL    HW115290   0.865   5.690   4.870
 4797SOL    HW215291   0.950   5.718   4.734
 4798SOL     OW15292   4.561   4.373   6.162
 4798SOL    HW115293   4.617   4.425   6.098
 4798SOL    HW215294   4.618   4.337   6.236
 4799SOL     OW15295   3.635   3.290   6.822
 4799SOL    HW115296   3.642   3.374   6.876
 4799SOL    HW215297   3.546   3.286   6.778
 4800SOL     OW15298   0.779   4.803   0.182
 4800SOL    HW115299   0.738   4.750   0.108
 4800SOL    HW215300   0.754   4.899   0.172
 4801SOL     OW15301   4.530   2.494   1.701
 4801SOL    HW115302   4.576   2.483   1.789
 4801SOL    HW215303   4.464   2.568   1.707
 4802SOL     OW15304   6.930   6.966   2.340
 4802SOL    HW115305   6.849   6.908   2.327
 4802SOL    HW215306   7.001   6.915   2.388
 4803SOL     OW15307   5.652   3.945   6.058
 4803SOL    HW115308   5.670   4.030   6.008
 4803SOL    HW215309   5.687   3.953   6.151
 4804SOL     OW15310   5.273   0.922   0.391
 4804SOL    HW115311   5.367   0.956   0.390
 4804SOL    HW215312   5.270   0.829   0.354
 4805SOL     OW15313   6.039   2.045   0.949
 4805SOL    HW115314   6.138   2.048   0.950
 4805SOL    HW215315   6.008   1.956   0.916
 4806SOL     OW15316   0.842   1.982   3.530
 4806SOL    HW115317   0.743   1.985   3.546
 4806SOL    HW215318   0.880   1.898   3.568
 4807SOL     OW15319   1.042   2.544   6.218
 4807SOL    HW115320   1.135   2.568   6.189
 4807SOL    HW215321   0.982   2.541   6.139
 4808SOL     OW15322   4.206   5.801   0.549
 4808SOL    HW115323   4.277   5.734   0.572
 4808SOL    HW215324   4.186   5.797   0.451
 4809SOL     OW15325   3.652   4.981   1.768
 4809SOL    HW115326   3.565   4.965   1.815
 4809SOL    HW215327   3.645   5.064   1.713
 4810SOL     OW15328   0.856   4.378   3.680
 4810SOL    HW115329   0.926   4.346   3.743
 4810SOL    HW215330   0.892   4.453   3.625
 4811SOL     OW15331   2.861   3.667   4.851
 4811SOL    HW115332   2.763   3.653   4.837
 4811SOL    HW215333   2.913   3.606   4.791
 4812SOL     OW15334   0.438   0.121   2.149
 4812SOL    HW115335   0.526   0.106   2.194
 4812SOL    HW215336   0.409   0.036   2.106
 4813SOL     OW15337   6.588   1.484   6.796
 4813SOL    HW115338   6.557   1.405   6.743
 4813SOL    HW215339   6.529   1.563   6.774
 4814SOL     OW15340   6.927   3.754   1.807
 4814SOL    HW115341   6.972   3.751   1.718
 4814SOL    HW215342   6.850   3.818   1.804
 4815SOL     OW15343   5.661   4.722   2.827
 4815SOL    HW115344   5.754   4.718   2.862
 4815SOL    HW215345   5.650   4.656   2.753
 4816SOL     OW15346   1.800   0.473   2.288
 4816SOL    HW115347   1.807   0.397   2.353
 4816SOL    HW215348   1.885   0.526   2.290
 4817SOL     OW15349   4.095   1.401   1.105
 4817SOL    HW115350   4.128   1.391   1.199
 4817SOL    HW215351   4.130   1.326   1.049
 4818SOL     OW15352   3.414   0.480   5.025
 4818SOL    HW115353   3.466   0.502   5.108
 4818SOL    HW215354   3.339   0.418   5.048
 4819SOL     OW15355   2.929   0.639   1.273
 4819SOL    HW115356   2.843   0.643   1.324
 4819SOL    HW215357   2.946   0.545   1.243
 4820SOL     OW15358   6.867   3.987   2.262
 4820SOL    HW115359   6.874   4.054   2.336
 4820SOL    HW215360   6.955   3.940   2.252
 4821SOL     OW15361   6.409   5.189   1.388
 4821SOL    HW115362   6.460   5.152   1.465
 4821SOL    HW215363   6.461   5.264   1.346
 4822SOL     OW15364   1.899   3.967   3.149
 4822SOL    HW115365   1.895   4.009   3.059
 4822SOL    HW215366   1.967   3.893   3.149
 4823SOL     OW15367   1.247   0.399   4.902
 4823SOL    HW115368   1.229   0.428   4.996
 4823SOL    HW215369   1.345   0.400   4.885
 4824SOL     OW15370   5.240   2.577   2.636
 4824SOL    HW115371   5.204   2.484   2.642
 4824SOL    HW215372   5.167   2.642   2.656
 4825SOL     OW15373   1.287   3.605   3.122
 4825SOL    HW115374   1.276   3.704   3.121
 4825SOL    HW215375   1.203   3.563   3.158
 4826SOL     OW15376   0.009   6.089   0.727
 4826SOL    HW115377   6.969   6.145   0.670
 4826SOL    HW215378   0.020   6.133   0.816
 4827SOL     OW15379   4.613   1.169   1.002
 4827SOL    HW115380   4.638   1.078   1.036
 4827SOL    HW215381   4.581   1.162   0.908
 4828SOL     OW15382   4.594   3.545   1.325
 4828SOL    HW115383   4.625   3.518   1.417
 4828SOL    HW215384   4.668   3.594   1.279
 4829SOL     OW15385   3.257   1.197   6.368
 4829SOL    HW115386   3.346   1.209   6.325
 4829SOL    HW215387   3.231   1.281   6.415
 4830SOL     OW15388   4.366   6.478   3.969
 4830SOL    HW115389   4.311   6.487   3.887
 4830SOL    HW215390   4.451   6.430   3.947
 4831SOL     OW15391   6.550   4.525   5.522
 4831SOL    HW115392   6.490   4.450   5.493
 4831SOL    HW215393   6.638   4.516   5.475
 4832SOL     OW15394   2.749   3.355   5.791
 4832SOL    HW115395   2.771   3.385   5.699
 4832SOL    HW215396   2.650   3.362   5.806
 4833SOL     OW15397   4.128   1.372   3.397
 4833SOL    HW115398   4.183   1.370   3.313
 4833SOL    HW215399   4.114   1.467   3.426
 4834SOL     OW15400   4.608   1.694   1.878
 4834SOL    HW115401   4.560   1.738   1.803
 4834SOL    HW215402   4.542   1.652   1.940
 4835SOL     OW15403   2.679   6.800   6.975
 4835SOL    HW115404   2.598   6.852   6.948
 4835SOL    HW215405   2.702   6.821   0.050
 4836SOL     OW15406   4.951   1.888   4.263
 4836SOL    HW115407   5.015   1.965   4.255
 4836SOL    HW215408   4.876   1.900   4.198
 4837SOL     OW15409   2.362   2.441   0.953
 4837SOL    HW115410   2.281   2.391   0.923
 4837SOL    HW215411   2.343   2.539   0.953
 4838SOL     OW15412   3.783   4.996   2.033
 4838SOL    HW115413   3.845   4.940   2.088
 4838SOL    HW215414   3.725   4.937   1.977
 4839SOL     OW15415   0.534   5.340   5.972
 4839SOL    HW115416   0.538   5.269   6.041
 4839SOL    HW215417   0.563   5.303   5.884
 4840SOL     OW15418   6.595   6.179   6.883
 4840SOL    HW115419   6.672   6.239   6.906
 4840SOL    HW215420   6.558   6.205   6.794
 4841SOL     OW15421   3.078   5.140   2.036
 4841SOL    HW115422   3.027   5.179   2.113
 4841SOL    HW215423   3.054   5.189   1.952
 4842SOL     OW15424   4.378   6.061   1.086
 4842SOL    HW115425   4.397   5.963   1.084
 4842SOL    HW215426   4.443   6.109   1.027
 4843SOL     OW15427   6.813   3.823   6.671
 4843SOL    HW115428   6.842   3.786   6.582
 4843SOL    HW215429   6.726   3.870   6.661
 4844SOL     OW15430   6.113   2.192   6.323
 4844SOL    HW115431   6.168   2.224   6.400
 4844SOL    HW215432   6.054   2.266   6.291
 4845SOL     OW15433   5.594   5.093   3.849
 4845SOL    HW115434   5.662   5.069   3.779
 4845SOL    HW215435   5.591   5.193   3.859
 4846SOL     OW15436   1.353   2.829   1.169
 4846SOL    HW115437   1.370   2.926   1.184
 4846SOL    HW215438   1.361   2.779   1.255
 4847SOL     OW15439   3.647   2.046   4.995
 4847SOL    HW115440   3.699   2.038   4.910
 4847SOL    HW215441   3.550   2.055   4.974
 4848SOL     OW15442   2.922   1.449   2.810
 4848SOL    HW115443   2.962   1.495   2.889
 4848SOL    HW215444   2.994   1.416   2.750
 4849SOL     OW15445   1.198   0.513   0.282
 4849SOL    HW115446   1.165   0.442   0.343
 4849SOL    HW215447   1.176   0.488   0.187
 4850SOL     OW15448   4.478   0.212   1.654
 4850SOL    HW115449   4.400   0.232   1.595
 4850SOL    HW215450   4.465   0.254   1.744
 4851SOL     OW15451   4.052   6.287   5.513
 4851SOL    HW115452   4.130   6.234   5.546
 4851SOL    HW215453   4.012   6.338   5.588
 4852SOL     OW15454   2.461   0.843   6.746
 4852SOL    HW115455   2.436   0.928   6.792
 4852SOL    HW215456   2.397   0.771   6.773
 4853SOL     OW15457   3.525   1.662   2.594
 4853SOL    HW115458   3.602   1.667   2.658
 4853SOL    HW215459   3.442   1.639   2.643
 4854SOL     OW15460   4.848   6.320   2.204
 4854SOL    HW115461   4.874   6.414   2.225
 4854SOL    HW215462   4.772   6.293   2.263
 4855SOL     OW15463   5.802   1.170   2.105
 4855SOL    HW115464   5.900   1.166   2.124
 4855SOL    HW215465   5.784   1.246   2.042
 4856SOL     OW15466   2.525   5.102   4.412
 4856SOL    HW115467   2.509   5.198   4.389
 4856SOL    HW215468   2.526   5.047   4.328
 4857SOL     OW15469   0.467   2.147   5.624
 4857SOL    HW115470   0.550   2.103   5.588
 4857SOL    HW215471   0.437   2.098   5.706
 4858SOL     OW15472   1.777   2.274   4.608
 4858SOL    HW115473   1.690   2.319   4.628
 4858SOL    HW215474   1.800   2.211   4.683
 4859SOL     OW15475   1.538   5.888   4.969
 4859SOL    HW115476   1.529   5.970   5.026
 4859SOL    HW215477   1.531   5.807   5.026
 4860SOL     OW15478   4.517   5.379   1.760
 4860SOL    HW115479   4.457   5.402   1.836
 4860SOL    HW215480   4.602   5.432   1.768
 4861SOL     OW15481   5.112   4.205   5.563
 4861SOL    HW115482   5.124   4.131   5.629
 4861SOL    HW215483   5.021   4.245   5.574
 4862SOL     OW15484   1.505   5.501   2.707
 4862SOL    HW115485   1.491   5.468   2.801
 4862SOL    HW215486   1.465   5.436   2.643
 4863SOL     OW15487   5.913   4.335   6.949
 4863SOL    HW115488   5.899   4.428   6.914
 4863SOL    HW215489   5.825   4.294   6.970
 4864SOL     OW15490   2.855   1.043   3.267
 4864SOL    HW115491   2.839   1.128   3.217
 4864SOL    HW215492   2.897   1.064   3.355
 4865SOL     OW15493   2.395   5.760   4.471
 4865SOL    HW115494   2.303   5.755   4.510
 4865SOL    HW215495   2.459   5.710   4.529
 4866SOL     OW15496   0.236   3.649   1.102
 4866SOL    HW115497   0.140   3.676   1.100
 4866SOL    HW215498   0.261   3.620   1.195
 4867SOL     OW15499   4.536   6.058   2.835
 4867SOL    HW115500   4.552   6.056   2.934
 4867SOL    HW215501   4.596   5.991   2.791
 4868SOL     OW15502   6.761   4.288   1.686
 4868SOL    HW115503   6.717   4.262   1.772
 4868SOL    HW215504   6.714   4.243   1.610
 4869SOL     OW15505   0.468   1.575   6.145
 4869SOL    HW115506   0.562   1.589   6.116
 4869SOL    HW215507   0.434   1.656   6.192
 4870SOL     OW15508   0.851   6.183   1.819
 4870SOL    HW115509   0.787   6.219   1.887
 4870SOL    HW215510   0.940   6.166   1.862
 4871SOL     OW15511   1.085   0.922   4.543
 4871SOL    HW115512   1.160   0.944   4.480
 4871SOL    HW215513   1.092   0.979   4.625
 4872SOL     OW15514   6.958   6.593   3.562
 4872SOL    HW115515   0.020   6.642   3.531
 4872SOL    HW215516   6.964   6.497   3.535
 4873SOL     OW15517   0.011   5.956   4.793
 4873SOL    HW115518   6.934   5.973   4.771
 4873SOL    HW215519   0.040   6.020   4.865
 4874SOL     OW15520   4.678   2.738   3.378
 4874SOL    HW115521   4.664   2.821   3.325
 4874SOL    HW215522   4.767   2.744   3.424
 4875SOL     OW15523   5.154   6.445   6.843
 4875SOL    HW115524   5.140   6.464   6.746
 4875SOL    HW215525   5.094   6.503   6.898
 4876SOL     OW15526   1.813   1.767   2.778
 4876SOL    HW115527   1.828   1.842   2.714
 4876SOL    HW215528   1.758   1.799   2.855
 4877SOL     OW15529   0.716   1.388   4.020
 4877SOL    HW115530   0.746   1.422   4.109
 4877SOL    HW215531   0.674   1.298   4.031
 4878SOL     OW15532   6.376   1.613   2.257
 4878SOL    HW115533   6.383   1.600   2.356
 4878SOL    HW215534   6.430   1.544   2.210
 4879SOL     OW15535   4.721   1.655   2.493
 4879SOL    HW115536   4.779   1.663   2.574
 4879SOL    HW215537   4.637   1.707   2.506
 4880SOL     OW15538   6.160   2.708   6.483
 4880SOL    HW115539   6.082   2.694   6.422
 4880SOL    HW215540   6.127   2.726   6.576
 4881SOL     OW15541   1.634   2.930   2.197
 4881SOL    HW115542   1.726   2.916   2.161
 4881SOL    HW215543   1.613   2.858   2.262
 4882SOL     OW15544   4.419   2.105   4.984
 4882SOL    HW115545   4.493   2.107   4.918
 4882SOL    HW215546   4.389   2.010   4.999
 4883SOL     OW15547   5.598   3.451   1.131
 4883SOL    HW115548   5.595   3.351   1.134
 4883SOL    HW215549   5.532   3.488   1.196
 4884SOL     OW15550   1.454   6.206   1.400
 4884SOL    HW115551   1.535   6.239   1.351
 4884SOL    HW215552   1.444   6.107   1.385
 4885SOL     OW15553   2.295   5.076   1.110
 4885SOL    HW115554   2.383   5.123   1.116
 4885SOL    HW215555   2.230   5.120   1.172
 4886SOL     OW15556   3.727   0.356   2.571
 4886SOL    HW115557   3.706   0.288   2.500
 4886SOL    HW215558   3.823   0.347   2.599
 4887SOL     OW15559   1.374   6.608   1.900
 4887SOL    HW115560   1.449   6.587   1.963
 4887SOL    HW215561   1.334   6.524   1.865
 4888SOL     OW15562   3.026   6.759   3.345
 4888SOL    HW115563   2.933   6.779   3.373
 4888SOL    HW215564   3.033   6.765   3.245
 4889SOL     OW15565   6.495   2.449   3.842
 4889SOL    HW115566   6.413   2.506   3.832
 4889SOL    HW215567   6.532   2.461   3.934
 4890SOL     OW15568   1.305   0.680   5.295
 4890SOL    HW115569   1.310   0.611   5.224
 4890SOL    HW215570   1.217   0.726   5.292
 4891SOL     OW15571   2.373   5.362   6.502
 4891SOL    HW115572   2.430   5.423   6.557
 4891SOL    HW215573   2.323   5.300   6.562
 4892SOL     OW15574   5.564   6.909   2.212
 4892SOL    HW115575   5.581   6.890   2.309
 4892SOL    HW215576   5.593   7.002   2.191
 4893SOL     OW15577   0.375   3.830   1.742
 4893SOL    HW115578   0.338   3.751   1.792
 4893SOL    HW215579   0.401   3.802   1.650
 4894SOL     OW15580   3.628   6.799   2.020
 4894SOL    HW115581   3.702   6.763   2.077
 4894SOL    HW215582   3.632   6.756   1.930
 4895SOL     OW15583   0.060   4.924   3.550
 4895SOL    HW115584   0.040   4.924   3.648
 4895SOL    HW215585   0.124   4.998   3.528
 4896SOL     OW15586   1.613   4.954   3.552
 4896SOL    HW115587   1.634   4.858   3.574
 4896SOL    HW215588   1.533   4.983   3.604
 4897SOL     OW15589   1.763   5.854   5.674
 4897SOL    HW115590   1.806   5.876   5.587
 4897SOL    HW215591   1.682   5.911   5.686
 4898SOL     OW15592   3.639   1.646   4.640
 4898SOL    HW115593   3.635   1.693   4.552
 4898SOL    HW215594   3.687   1.559   4.629
 4899SOL     OW15595   6.300   5.301   2.125
 4899SOL    HW115596   6.377   5.243   2.101
 4899SOL    HW215597   6.296   5.379   2.062
 4900SOL     OW15598   4.280   6.510   5.442
 4900SOL    HW115599   4.208   6.553   5.388
 4900SOL    HW215600   4.241   6.434   5.494
 4901SOL     OW15601   0.819   2.029   6.019
 4901SOL    HW115602   0.739   2.074   5.979
 4901SOL    HW215603   0.838   1.944   5.970
 4902SOL     OW15604   2.181   0.441   6.576
 4902SOL    HW115605   2.208   0.463   6.483
 4902SOL    HW215606   2.169   0.525   6.628
 4903SOL     OW15607   5.035   5.188   1.166
 4903SOL    HW115608   5.107   5.121   1.149
 4903SOL    HW215609   5.059   5.274   1.122
 4904SOL     OW15610   1.806   0.737   6.896
 4904SOL    HW115611   1.869   0.670   6.937
 4904SOL    HW215612   1.734   0.689   6.847
 4905SOL     OW15613   3.377   0.066   3.239
 4905SOL    HW115614   3.381   0.051   3.140
 4905SOL    HW215615   3.428   0.149   3.262
 4906SOL     OW15616   4.909   3.449   5.256
 4906SOL    HW115617   4.902   3.349   5.249
 4906SOL    HW215618   4.871   3.491   5.174
 4907SOL     OW15619   4.508   1.519   0.201
 4907SOL    HW115620   4.604   1.540   0.221
 4907SOL    HW215621   4.487   1.547   0.108
 4908SOL     OW15622   4.766   0.185   0.166
 4908SOL    HW115623   4.860   0.203   0.138
 4908SOL    HW215624   4.763   0.105   0.225
 4909SOL     OW15625   6.202   4.150   3.440
 4909SOL    HW115626   6.158   4.060   3.432
 4909SOL    HW215627   6.150   4.207   3.503
 4910SOL     OW15628   5.058   0.649   5.649
 4910SOL    HW115629   5.028   0.734   5.692
 4910SOL    HW215630   5.029   0.572   5.705
 4911SOL     OW15631   1.585   2.252   2.319
 4911SOL    HW115632   1.619   2.313   2.390
 4911SOL    HW215633   1.619   2.282   2.230
 4912SOL     OW15634   5.916   1.708   5.505
 4912SOL    HW115635   5.980   1.656   5.448
 4912SOL    HW215636   5.877   1.783   5.452
 4913SOL     OW15637   5.611   2.636   4.994
 4913SOL    HW115638   5.696   2.583   4.991
 4913SOL    HW215639   5.606   2.694   4.912
 4914SOL     OW15640   4.794   0.576   4.268
 4914SOL    HW115641   4.707   0.616   4.299
 4914SOL    HW215642   4.782   0.477   4.259
 4915SOL     OW15643   3.030   5.709   5.357
 4915SOL    HW115644   2.948   5.706   5.299
 4915SOL    HW215645   3.087   5.629   5.338
 4916SOL     OW15646   6.022   0.800   3.920
 4916SOL    HW115647   5.967   0.740   3.862
 4916SOL    HW215648   5.977   0.890   3.926
 4917SOL     OW15649   4.053   6.224   1.079
 4917SOL    HW115650   4.128   6.186   1.132
 4917SOL    HW215651   4.059   6.193   0.984
 4918SOL     OW15652   6.297   5.528   1.975
 4918SOL    HW115653   6.289   5.621   2.011
 4918SOL    HW215654   6.240   5.518   1.894
 4919SOL     OW15655   4.207   3.200   1.855
 4919SOL    HW115656   4.241   3.179   1.946
 4919SOL    HW215657   4.259   3.277   1.816
 4920SOL     OW15658   5.902   0.856   5.114
 4920SOL    HW115659   5.823   0.896   5.068
 4920SOL    HW215660   5.898   0.879   5.212
 4921SOL     OW15661   0.575   6.659   1.069
 4921SOL    HW115662   0.587   6.641   1.167
 4921SOL    HW215663   0.568   6.572   1.020
 4922SOL     OW15664   3.362   1.844   5.170
 4922SOL    HW115665   3.374   1.849   5.071
 4922SOL    HW215666   3.364   1.936   5.209
 4923SOL     OW15667   3.394   1.861   3.456
 4923SOL    HW115668   3.338   1.853   3.539
 4923SOL    HW215669   3.383   1.952   3.417
 4924SOL     OW15670   2.803   1.719   6.008
 4924SOL    HW115671   2.845   1.712   6.099
 4924SOL    HW215672   2.738   1.795   6.007
 4925SOL     OW15673   4.634   6.640   3.143
 4925SOL    HW115674   4.537   6.620   3.160
 4925SOL    HW215675   4.648   6.653   3.044
 4926SOL     OW15676   5.569   1.954   1.758
 4926SOL    HW115677   5.547   1.857   1.766
 4926SOL    HW215678   5.520   2.006   1.828
 4927SOL     OW15679   3.389   1.875   6.523
 4927SOL    HW115680   3.307   1.875   6.581
 4927SOL    HW215681   3.418   1.782   6.506
 4928SOL     OW15682   1.346   1.932   0.869
 4928SOL    HW115683   1.416   1.914   0.800
 4928SOL    HW215684   1.273   1.865   0.862
 4929SOL     OW15685   0.239   0.510   4.003
 4929SOL    HW115686   0.295   0.510   3.920
 4929SOL    HW215687   0.147   0.543   3.982
 4930SOL     OW15688   5.730   6.937   1.738
 4930SOL    HW115689   5.660   6.897   1.797
 4930SOL    HW215690   5.701   6.929   1.642
 4931SOL     OW15691   6.367   6.358   1.838
 4931SOL    HW115692   6.355   6.360   1.738
 4931SOL    HW215693   6.390   6.265   1.866
 4932SOL     OW15694   2.932   3.382   2.780
 4932SOL    HW115695   2.974   3.342   2.862
 4932SOL    HW215696   2.977   3.345   2.699
 4933SOL     OW15697   2.724   6.138   4.760
 4933SOL    HW115698   2.701   6.046   4.728
 4933SOL    HW215699   2.695   6.205   4.691
 4934SOL     OW15700   3.578   5.952   3.201
 4934SOL    HW115701   3.557   5.856   3.218
 4934SOL    HW215702   3.553   6.006   3.282
 4935SOL     OW15703   0.967   2.057   6.730
 4935SOL    HW115704   0.999   1.996   6.657
 4935SOL    HW215705   1.034   2.130   6.744
 4936SOL     OW15706   2.154   3.845   1.367
 4936SOL    HW115707   2.091   3.827   1.443
 4936SOL    HW215708   2.245   3.812   1.391
 4937SOL     OW15709   5.009   3.272   4.707
 4937SOL    HW115710   4.953   3.317   4.777
 4937SOL    HW215711   5.049   3.341   4.647
 4938SOL     OW15712   4.438   5.084   5.794
 4938SOL    HW115713   4.355   5.106   5.844
 4938SOL    HW215714   4.419   5.083   5.696
 4939SOL     OW15715   4.576   2.865   5.590
 4939SOL    HW115716   4.506   2.814   5.641
 4939SOL    HW215717   4.535   2.903   5.507
 4940SOL     OW15718   1.798   6.433   5.107
 4940SOL    HW115719   1.844   6.348   5.080
 4940SOL    HW215720   1.742   6.466   5.031
 4941SOL     OW15721   4.780   1.661   0.181
 4941SOL    HW115722   4.774   1.704   0.091
 4941SOL    HW215723   4.761   1.730   0.251
 4942SOL     OW15724   5.063   3.599   5.426
 4942SOL    HW115725   5.003   3.542   5.370
 4942SOL    HW215726   5.046   3.581   5.523
 4943SOL     OW15727   3.667   2.555   0.724
 4943SOL    HW115728   3.741   2.493   0.698
 4943SOL    HW215729   3.593   2.502   0.765
 4944SOL     OW15730   2.351   4.291   2.874
 4944SOL    HW115731   2.398   4.223   2.930
 4944SOL    HW215732   2.291   4.245   2.809
 4945SOL     OW15733   6.677   6.728   4.187
 4945SOL    HW115734   6.727   6.755   4.104
 4945SOL    HW215735   6.580   6.750   4.175
 4946SOL     OW15736   1.815   3.548   2.120
 4946SOL    HW115737   1.849   3.626   2.172
 4946SOL    HW215738   1.884   3.519   2.054
 4947SOL     OW15739   1.325   0.282   0.696
 4947SOL    HW115740   1.398   0.214   0.709
 4947SOL    HW215741   1.237   0.236   0.694
 4948SOL     OW15742   2.498   1.102   2.199
 4948SOL    HW115743   2.505   1.125   2.102
 4948SOL    HW215744   2.532   1.178   2.253
 4949SOL     OW15745   5.528   0.473   5.033
 4949SOL    HW115746   5.545   0.468   4.935
 4949SOL    HW215747   5.615   0.478   5.082
 4950SOL     OW15748   2.784   5.673   5.261
 4950SOL    HW115749   2.733   5.614   5.197
 4950SOL    HW215750   2.736   5.676   5.348
 4951SOL     OW15751   4.558   1.617   4.657
 4951SOL    HW115752   4.472   1.568   4.672
 4951SOL    HW215753   4.611   1.618   4.742
 4952SOL     OW15754   0.018   6.494   5.234
 4952SOL    HW115755   0.008   6.511   5.136
 4952SOL    HW215756   0.072   6.411   5.248
 4953SOL     OW15757   2.266   5.588   1.889
 4953SOL    HW115758   2.260   5.592   1.988
 4953SOL    HW215759   2.218   5.667   1.850
 4954SOL     OW15760   5.732   5.584   0.052
 4954SOL    HW115761   5.825   5.611   0.028
 4954SOL    HW215762   5.711   5.496   0.009
 4955SOL     OW15763   1.125   6.626   1.225
 4955SOL    HW115764   1.042   6.614   1.280
 4955SOL    HW215765   1.202   6.649   1.284
 4956SOL     OW15766   4.189   6.831   4.719
 4956SOL    HW115767   4.209   6.925   4.748
 4956SOL    HW215768   4.106   6.831   4.663
 4957SOL     OW15769   0.983   0.800   3.922
 4957SOL    HW115770   1.041   0.860   3.868
 4957SOL    HW215771   1.040   0.738   3.976
 4958SOL     OW15772   0.511   5.765   6.597
 4958SOL    HW115773   0.503   5.828   6.520
 4958SOL    HW215774   0.510   5.671   6.564
 4959SOL     OW15775   1.076   0.583   1.216
 4959SOL    HW115776   0.994   0.614   1.169
 4959SOL    HW215777   1.126   0.661   1.253
 4960SOL     OW15778   3.956   5.948   4.580
 4960SOL    HW115779   4.039   6.002   4.562
 4960SOL    HW215780   3.908   5.931   4.494
 4961SOL     OW15781   5.044   0.437   4.983
 4961SOL    HW115782   4.968   0.384   5.022
 4961SOL    HW215783   5.117   0.445   5.051
 4962SOL     OW15784   6.440   2.413   1.491
 4962SOL    HW115785   6.348   2.453   1.500
 4962SOL    HW215786   6.450   2.375   1.399
 4963SOL     OW15787   0.589   4.933   1.995
 4963SOL    HW115788   0.658   4.861   1.991
 4963SOL    HW215789   0.629   5.020   1.969
 4964SOL     OW15790   3.294   6.429   3.535
 4964SOL    HW115791   3.216   6.476   3.494
 4964SOL    HW215792   3.263   6.347   3.583
 4965SOL     OW15793   6.390   0.151   4.076
 4965SOL    HW115794   6.453   0.228   4.088
 4965SOL    HW215795   6.321   0.174   4.007
 4966SOL     OW15796   3.487   5.468   5.487
 4966SOL    HW115797   3.439   5.396   5.437
 4966SOL    HW215798   3.454   5.470   5.582
 4967SOL     OW15799   3.858   2.518   5.967
 4967SOL    HW115800   3.872   2.588   6.037
 4967SOL    HW215801   3.889   2.429   6.002
 4968SOL     OW15802   5.605   3.257   4.759
 4968SOL    HW115803   5.609   3.343   4.810
 4968SOL    HW215804   5.663   3.189   4.804
 4969SOL     OW15805   1.479   1.083   1.374
 4969SOL    HW115806   1.522   1.029   1.301
 4969SOL    HW215807   1.509   1.049   1.463
 4970SOL     OW15808   1.161   1.976   5.038
 4970SOL    HW115809   1.167   2.075   5.046
 4970SOL    HW215810   1.090   1.952   4.972
 4971SOL     OW15811   6.281   6.503   3.232
 4971SOL    HW115812   6.378   6.510   3.211
 4971SOL    HW215813   6.233   6.459   3.155
 4972SOL     OW15814   1.866   3.457   0.403
 4972SOL    HW115815   1.926   3.421   0.331
 4972SOL    HW215816   1.899   3.547   0.432
 4973SOL     OW15817   5.652   5.916   2.295
 4973SOL    HW115818   5.724   5.950   2.235
 4973SOL    HW215819   5.663   5.818   2.309
 4974SOL     OW15820   5.703   6.215   2.060
 4974SOL    HW115821   5.750   6.280   2.119
 4974SOL    HW215822   5.759   6.132   2.050
 4975SOL     OW15823   6.281   6.153   0.585
 4975SOL    HW115824   6.278   6.151   0.685
 4975SOL    HW215825   6.337   6.230   0.555
 4976SOL     OW15826   3.770   0.778   5.099
 4976SOL    HW115827   3.848   0.790   5.161
 4976SOL    HW215828   3.709   0.708   5.135
 4977SOL     OW15829   3.555   3.381   0.861
 4977SOL    HW115830   3.615   3.460   0.872
 4977SOL    HW215831   3.547   3.332   0.948
 4978SOL     OW15832   5.448   2.956   5.758
 4978SOL    HW115833   5.462   2.935   5.855
 4978SOL    HW215834   5.362   3.006   5.747
 4979SOL     OW15835   0.705   0.403   5.667
 4979SOL    HW115836   0.693   0.477   5.601
 4979SOL    HW215837   0.782   0.346   5.640
 4980SOL     OW15838   3.651   5.480   2.204
 4980SOL    HW115839   3.678   5.386   2.181
 4980SOL    HW215840   3.690   5.505   2.292
 4981SOL     OW15841   4.099   6.635   5.264
 4981SOL    HW115842   4.082   6.711   5.327
 4981SOL    HW215843   4.147   6.669   5.183
 4982SOL     OW15844   1.975   2.579   0.172
 4982SOL    HW115845   1.958   2.545   0.265
 4982SOL    HW215846   1.939   2.672   0.164
 4983SOL     OW15847   5.388   2.502   4.357
 4983SOL    HW115848   5.323   2.562   4.313
 4983SOL    HW215849   5.356   2.480   4.450
 4984SOL     OW15850   4.870   3.606   4.300
 4984SOL    HW115851   4.852   3.704   4.309
 4984SOL    HW215852   4.872   3.581   4.203
 4985SOL     OW15853   5.290   5.462   2.192
 4985SOL    HW115854   5.250   5.375   2.162
 4985SOL    HW215855   5.342   5.502   2.117
 4986SOL     OW15856   5.279   4.485   2.869
 4986SOL    HW115857   5.202   4.423   2.887
 4986SOL    HW215858   5.244   4.569   2.827
 4987SOL     OW15859   0.074   3.111   1.696
 4987SOL    HW115860   7.014   3.062   1.662
 4987SOL    HW215861   0.155   3.082   1.646
 4988SOL     OW15862   0.216   1.497   4.178
 4988SOL    HW115863   0.173   1.410   4.152
 4988SOL    HW215864   0.299   1.478   4.231
 4989SOL     OW15865   6.876   1.431   0.701
 4989SOL    HW115866   6.834   1.515   0.738
 4989SOL    HW215867   6.917   1.379   0.775
 4990SOL     OW15868   1.071   2.376   5.417
 4990SOL    HW115869   1.159   2.390   5.462
 4990SOL    HW215870   1.036   2.464   5.384
 4991SOL     OW15871   1.041   3.017   4.237
 4991SOL    HW115872   1.033   3.084   4.163
 4991SOL    HW215873   1.115   2.953   4.216
 4992SOL     OW15874   3.334   0.802   5.268
 4992SOL    HW115875   3.324   0.769   5.174
 4992SOL    HW215876   3.383   0.889   5.267
 4993SOL     OW15877   2.377   6.245   3.920
 4993SOL    HW115878   2.331   6.321   3.875
 4993SOL    HW215879   2.313   6.199   3.982
 4994SOL     OW15880   0.624   0.107   2.928
 4994SOL    HW115881   0.602   0.092   2.832
 4994SOL    HW215882   0.624   0.205   2.947
 4995SOL     OW15883   6.204   2.280   6.046
 4995SOL    HW115884   6.107   2.254   6.042
 4995SOL    HW215885   6.258   2.201   6.076
 4996SOL     OW15886   0.522   2.093   2.809
 4996SOL    HW115887   0.587   2.093   2.885
 4996SOL    HW215888   0.450   2.025   2.827
 4997SOL     OW15889   6.918   2.929   3.291
 4997SOL    HW115890   7.003   2.924   3.343
 4997SOL    HW215891   6.936   2.902   3.196
 4998SOL     OW15892   1.444   5.412   4.822
 4998SOL    HW115893   1.405   5.494   4.866
 4998SOL    HW215894   1.374   5.369   4.765
 4999SOL     OW15895   5.852   5.532   0.860
 4999SOL    HW115896   5.920   5.496   0.923
 4999SOL    HW215897   5.883   5.517   0.766
 5000SOL     OW15898   0.515   0.413   4.644
 5000SOL    HW115899   0.464   0.422   4.559
 5000SOL    HW215900   0.509   0.498   4.696
 5001SOL     OW15901   3.232   4.200   5.302
 5001SOL    HW115902   3.275   4.288   5.321
 5001SOL    HW215903   3.137   4.214   5.274
 5002SOL     OW15904   2.149   1.161   1.757
 5002SOL    HW115905   2.163   1.260   1.745
 5002SOL    HW215906   2.052   1.142   1.764
 5003SOL     OW15907   6.641   6.442   2.705
 5003SOL    HW115908   6.566   6.486   2.656
 5003SOL    HW215909   6.728   6.478   2.673
 5004SOL     OW15910   2.799   6.447   6.679
 5004SOL    HW115911   2.832   6.441   6.773
 5004SOL    HW215912   2.866   6.405   6.617
 5005SOL     OW15913   4.251   2.926   0.309
 5005SOL    HW115914   4.245   2.915   0.408
 5005SOL    HW215915   4.176   2.877   0.265
 5006SOL     OW15916   5.069   6.374   5.021
 5006SOL    HW115917   5.030   6.453   4.974
 5006SOL    HW215918   5.008   6.344   5.094
 5007SOL     OW15919   4.354   0.967   5.192
 5007SOL    HW115920   4.297   0.928   5.120
 5007SOL    HW215921   4.297   1.020   5.255
 5008SOL     OW15922   6.239   0.962   3.728
 5008SOL    HW115923   6.228   1.038   3.664
 5008SOL    HW215924   6.197   0.986   3.815
 5009SOL     OW15925   0.848   6.721   2.682
 5009SOL    HW115926   0.831   6.694   2.587
 5009SOL    HW215927   0.914   6.658   2.723
 5010SOL     OW15928   3.807   3.978   4.219
 5010SOL    HW115929   3.805   4.040   4.140
 5010SOL    HW215930   3.755   4.018   4.294
 5011SOL     OW15931   1.009   3.027   2.285
 5011SOL    HW115932   0.997   3.107   2.227
 5011SOL    HW215933   0.989   3.052   2.380
 5012SOL     OW15934   6.777   2.551   5.911
 5012SOL    HW115935   6.800   2.612   5.987
 5012SOL    HW215936   6.693   2.501   5.932
 5013SOL     OW15937   4.465   1.599   5.595
 5013SOL    HW115938   4.427   1.559   5.512
 5013SOL    HW215939   4.434   1.546   5.674
 5014SOL     OW15940   5.947   6.488   0.619
 5014SOL    HW115941   5.898   6.407   0.650
 5014SOL    HW215942   5.891   6.569   0.634
 5015SOL     OW15943   4.573   2.360   3.547
 5015SOL    HW115944   4.665   2.332   3.520
 5015SOL    HW215945   4.572   2.459   3.563
 5016SOL     OW15946   2.317   0.645   2.915
 5016SOL    HW115947   2.362   0.614   2.999
 5016SOL    HW215948   2.256   0.722   2.936
 5017SOL     OW15949   3.045   2.253   0.979
 5017SOL    HW115950   3.089   2.166   1.001
 5017SOL    HW215951   2.951   2.237   0.949
 5018SOL     OW15952   6.161   5.076   3.545
 5018SOL    HW115953   6.066   5.106   3.537
 5018SOL    HW215954   6.186   5.022   3.465
 5019SOL     OW15955   1.945   4.116   6.954
 5019SOL    HW115956   1.899   4.027   6.953
 5019SOL    HW215957   2.044   4.103   6.948
 5020SOL     OW15958   4.947   5.111   6.879
 5020SOL    HW115959   4.849   5.129   6.870
 5020SOL    HW215960   4.968   5.087   6.974
 5021SOL     OW15961   2.378   4.695   5.686
 5021SOL    HW115962   2.282   4.723   5.679
 5021SOL    HW215963   2.412   4.717   5.777
 5022SOL     OW15964   1.372   6.117   0.656
 5022SOL    HW115965   1.360   6.157   0.566
 5022SOL    HW215966   1.349   6.020   0.653
 5023SOL     OW15967   6.093   3.226   1.261
 5023SOL    HW115968   6.042   3.274   1.190
 5023SOL    HW215969   6.175   3.184   1.222
 5024SOL     OW15970   6.256   3.649   4.190
 5024SOL    HW115971   6.324   3.621   4.258
 5024SOL    HW215972   6.294   3.722   4.134
 5025SOL     OW15973   5.299   1.475   3.148
 5025SOL    HW115974   5.338   1.430   3.228
 5025SOL    HW215975   5.324   1.424   3.066
 5026SOL     OW15976   6.622   6.041   4.277
 5026SOL    HW115977   6.552   6.111   4.289
 5026SOL    HW215978   6.627   6.015   4.181
 5027SOL     OW15979   1.010   6.720   3.455
 5027SOL    HW115980   0.974   6.627   3.455
 5027SOL    HW215981   1.046   6.742   3.364
 5028SOL     OW15982   0.438   0.287   3.328
 5028SOL    HW115983   0.439   0.194   3.364
 5028SOL    HW215984   0.413   0.286   3.231
 5029SOL     OW15985   6.962   1.912   1.050
 5029SOL    HW115986   6.897   1.903   1.126
 5029SOL    HW215987   7.012   1.998   1.059
 5030SOL     OW15988   0.095   0.036   6.831
 5030SOL    HW115989   0.092   0.136   6.838
 5030SOL    HW215990   0.033   7.015   6.898
 5031SOL     OW15991   5.815   0.492   4.213
 5031SOL    HW115992   5.838   0.430   4.138
 5031SOL    HW215993   5.876   0.571   4.211
 5032SOL     OW15994   1.384   5.211   1.037
 5032SOL    HW115995   1.465   5.268   1.023
 5032SOL    HW215996   1.401   5.149   1.113
 5033SOL     OW15997   2.616   4.076   5.751
 5033SOL    HW115998   2.709   4.054   5.718
 5033SOL    HW215999   2.550   4.053   5.680
 5034SOL     OW16000   6.476   2.918   1.537
 5034SOL    HW116001   6.536   2.997   1.550
 5034SOL    HW216002   6.526   2.845   1.492
 5035SOL     OW16003   5.587   5.298   0.438
 5035SOL    HW116004   5.678   5.270   0.466
 5035SOL    HW216005   5.518   5.250   0.492
 5036SOL     OW16006   1.330   6.707   1.420
 5036SOL    HW116007   1.254   6.763   1.453
 5036SOL    HW216008   1.390   6.684   1.496
 5037SOL     OW16009   4.433   1.992   4.050
 5037SOL    HW116010   4.452   1.893   4.055
 5037SOL    HW216011   4.461   2.027   3.961
 5038SOL     OW16012   1.467   6.230   5.662
 5038SOL    HW116013   1.415   6.314   5.646
 5038SOL    HW216014   1.516   6.236   5.749
 5039SOL     OW16015   2.033   2.493   5.346
 5039SOL    HW116016   2.085   2.446   5.417
 5039SOL    HW216017   2.082   2.486   5.259
 5040SOL     OW16018   3.315   3.929   5.444
 5040SOL    HW116019   3.277   3.876   5.368
 5040SOL    HW216020   3.313   4.026   5.421
 5041SOL     OW16021   1.060   3.458   1.346
 5041SOL    HW116022   0.971   3.461   1.299
 5041SOL    HW216023   1.046   3.475   1.443
 5042SOL     OW16024   5.578   2.703   6.460
 5042SOL    HW116025   5.497   2.722   6.516
 5042SOL    HW216026   5.657   2.751   6.498
 5043SOL     OW16027   3.527   0.522   3.374
 5043SOL    HW116028   3.483   0.518   3.463
 5043SOL    HW216029   3.538   0.617   3.346
 5044SOL     OW16030   5.868   5.213   3.230
 5044SOL    HW116031   5.830   5.303   3.249
 5044SOL    HW216032   5.796   5.151   3.200
 5045SOL     OW16033   6.515   2.378   6.540
 5045SOL    HW116034   6.603   2.389   6.585
 5045SOL    HW216035   6.471   2.467   6.529
 5046SOL     OW16036   3.259   3.026   5.308
 5046SOL    HW116037   3.344   3.042   5.257
 5046SOL    HW216038   3.281   2.994   5.400
 5047SOL     OW16039   0.495   1.047   2.343
 5047SOL    HW116040   0.480   1.134   2.389
 5047SOL    HW216041   0.513   1.063   2.246
 5048SOL     OW16042   6.876   2.585   1.583
 5048SOL    HW116043   6.790   2.553   1.624
 5048SOL    HW216044   6.871   2.576   1.484
 5049SOL     OW16045   0.762   2.416   2.021
 5049SOL    HW116046   0.735   2.453   1.932
 5049SOL    HW216047   0.794   2.322   2.010
 5050SOL     OW16048   0.798   3.026   1.785
 5050SOL    HW116049   0.765   2.981   1.867
 5050SOL    HW216050   0.754   3.115   1.775
 5051SOL     OW16051   2.925   4.879   0.727
 5051SOL    HW116052   2.854   4.950   0.732
 5051SOL    HW216053   2.917   4.818   0.806
 5052SOL     OW16054   5.364   4.829   1.276
 5052SOL    HW116055   5.326   4.818   1.367
 5052SOL    HW216056   5.442   4.767   1.265
 5053SOL     OW16057   2.416   3.740   0.795
 5053SOL    HW116058   2.319   3.755   0.815
 5053SOL    HW216059   2.468   3.749   0.880
 5054SOL     OW16060   3.860   5.550   5.090
 5054SOL    HW116061   3.808   5.467   5.069
 5054SOL    HW216062   3.797   5.626   5.106
 5055SOL     OW16063   0.636   1.321   5.391
 5055SOL    HW116064   0.695   1.283   5.319
 5055SOL    HW216065   0.646   1.266   5.474
 5056SOL     OW16066   0.672   3.224   5.671
 5056SOL    HW116067   0.670   3.160   5.595
 5056SOL    HW216068   0.764   3.225   5.712
 5057SOL     OW16069   6.864   5.608   3.352
 5057SOL    HW116070   6.958   5.640   3.342
 5057SOL    HW216071   6.818   5.610   3.264
 5058SOL     OW16072   4.515   4.717   6.154
 5058SOL    HW116073   4.538   4.799   6.102
 5058SOL    HW216074   4.593   4.654   6.152
 5059SOL     OW16075   3.491   2.064   4.361
 5059SOL    HW116076   3.511   2.161   4.348
 5059SOL    HW216077   3.519   2.014   4.279
 5060SOL     OW16078   0.814   2.876   5.506
 5060SOL    HW116079   0.861   2.836   5.427
 5060SOL    HW216080   0.767   2.960   5.478
 5061SOL     OW16081   3.655   2.877   5.177
 5061SOL    HW116082   3.738   2.932   5.184
 5061SOL    HW216083   3.590   2.923   5.116
 5062SOL     OW16084   4.869   0.660   2.977
 5062SOL    HW116085   4.809   0.739   2.984
 5062SOL    HW216086   4.948   0.683   2.919
 5063SOL     OW16087   1.192   6.903   2.620
 5063SOL    HW116088   1.110   6.954   2.646
 5063SOL    HW216089   1.271   6.964   2.621
 5064SOL     OW16090   4.808   5.260   0.537
 5064SOL    HW116091   4.812   5.358   0.517
 5064SOL    HW216092   4.817   5.209   0.452
 5065SOL     OW16093   2.599   0.149   3.273
 5065SOL    HW116094   2.666   0.125   3.343
 5065SOL    HW216095   2.534   0.216   3.310
 5066SOL     OW16096   2.348   4.440   1.383
 5066SOL    HW116097   2.302   4.380   1.448
 5066SOL    HW216098   2.441   4.406   1.367
 5067SOL     OW16099   4.008   2.954   1.441
 5067SOL    HW116100   3.953   2.892   1.386
 5067SOL    HW216101   3.994   2.934   1.538
 5068SOL     OW16102   3.158   6.141   0.344
 5068SOL    HW116103   3.071   6.189   0.335
 5068SOL    HW216104   3.143   6.042   0.333
 5069SOL     OW16105   3.273   4.474   6.147
 5069SOL    HW116106   3.353   4.437   6.099
 5069SOL    HW216107   3.282   4.456   6.245
 5070SOL     OW16108   6.599   3.586   3.889
 5070SOL    HW116109   6.597   3.489   3.914
 5070SOL    HW216110   6.539   3.638   3.950
 5071SOL     OW16111   3.443   1.292   3.834
 5071SOL    HW116112   3.446   1.253   3.742
 5071SOL    HW216113   3.525   1.263   3.884
 5072SOL     OW16114   1.656   1.046   1.103
 5072SOL    HW116115   1.629   1.070   1.009
 5072SOL    HW216116   1.664   1.129   1.158
 5073SOL     OW16117   2.462   6.458   2.663
 5073SOL    HW116118   2.470   6.501   2.573
 5073SOL    HW216119   2.419   6.522   2.726
 5074SOL     OW16120   3.760   2.123   1.698
 5074SOL    HW116121   3.841   2.082   1.741
 5074SOL    HW216122   3.707   2.172   1.767
 5075SOL     OW16123   1.310   3.192   6.948
 5075SOL    HW116124   1.237   3.158   7.008
 5075SOL    HW216125   1.379   3.121   6.936
 5076SOL     OW16126   5.761   0.590   0.350
 5076SOL    HW116127   5.841   0.539   0.381
 5076SOL    HW216128   5.714   0.537   0.278
 5077SOL     OW16129   0.965   5.012   3.426
 5077SOL    HW116130   1.044   4.951   3.422
 5077SOL    HW216131   0.881   4.960   3.415
 5078SOL     OW16132   6.918   1.098   3.649
 5078SOL    HW116133   6.921   1.060   3.741
 5078SOL    HW216134   6.907   1.025   3.582
 5079SOL     OW16135   1.615   2.357   5.943
 5079SOL    HW116136   1.639   2.260   5.950
 5079SOL    HW216137   1.520   2.370   5.970
 5080SOL     OW16138   5.926   4.981   5.950
 5080SOL    HW116139   5.887   5.013   5.864
 5080SOL    HW216140   6.000   5.042   5.978
 5081SOL     OW16141   3.381   5.811   5.601
 5081SOL    HW116142   3.303   5.872   5.619
 5081SOL    HW216143   3.366   5.724   5.648
 5082SOL     OW16144   5.487   6.517   1.436
 5082SOL    HW116145   5.523   6.495   1.346
 5082SOL    HW216146   5.413   6.584   1.427
 5083SOL     OW16147   2.417   0.587   3.182
 5083SOL    HW116148   2.368   0.537   3.254
 5083SOL    HW216149   2.515   0.579   3.197
 5084SOL     OW16150   1.074   4.856   5.253
 5084SOL    HW116151   1.160   4.859   5.304
 5084SOL    HW216152   1.032   4.947   5.254
 5085SOL     OW16153   0.805   3.839   6.154
 5085SOL    HW116154   0.854   3.923   6.131
 5085SOL    HW216155   0.785   3.838   6.252
 5086SOL     OW16156   1.735   4.689   1.853
 5086SOL    HW116157   1.832   4.697   1.834
 5086SOL    HW216158   1.721   4.639   1.938
 5087SOL     OW16159   6.476   5.226   2.824
 5087SOL    HW116160   6.464   5.325   2.827
 5087SOL    HW216161   6.493   5.191   2.916
 5088SOL     OW16162   4.577   6.314   1.991
 5088SOL    HW116163   4.562   6.289   2.086
 5088SOL    HW216164   4.524   6.253   1.932
 5089SOL     OW16165   5.832   4.527   4.591
 5089SOL    HW116166   5.741   4.535   4.551
 5089SOL    HW216167   5.878   4.446   4.555
 5090SOL     OW16168   2.685   0.266   4.307
 5090SOL    HW116169   2.604   0.253   4.364
 5090SOL    HW216170   2.755   0.317   4.358
 5091SOL     OW16171   6.201   6.745   0.056
 5091SOL    HW116172   6.200   6.646   0.070
 5091SOL    HW216173   6.211   6.791   0.144
 5092SOL     OW16174   3.493   3.595   5.023
 5092SOL    HW116175   3.436   3.598   5.105
 5092SOL    HW216176   3.446   3.541   4.953
 5093SOL     OW16177   1.959   1.557   2.291
 5093SOL    HW116178   1.959   1.582   2.194
 5093SOL    HW216179   1.865   1.550   2.324
 5094SOL     OW16180   2.100   5.845   6.673
 5094SOL    HW116181   2.047   5.817   6.594
 5094SOL    HW216182   2.183   5.892   6.643
 5095SOL     OW16183   0.124   1.009   2.779
 5095SOL    HW116184   0.059   0.939   2.748
 5095SOL    HW216185   0.212   0.994   2.734
 5096SOL     OW16186   5.063   2.540   6.062
 5096SOL    HW116187   4.995   2.467   6.061
 5096SOL    HW216188   5.119   2.534   5.979
 5097SOL     OW16189   0.159   5.863   6.503
 5097SOL    HW116190   0.167   5.962   6.515
 5097SOL    HW216191   0.192   5.817   6.585
 5098SOL     OW16192   3.936   2.084   1.910
 5098SOL    HW116193   3.939   1.996   1.958
 5098SOL    HW216194   3.850   2.131   1.930
 5099SOL     OW16195   1.175   6.052   1.719
 5099SOL    HW116196   1.170   5.974   1.782
 5099SOL    HW216197   1.082   6.083   1.697
 5100SOL     OW16198   5.216   4.145   2.375
 5100SOL    HW116199   5.297   4.146   2.434
 5100SOL    HW216200   5.244   4.131   2.280
 5101SOL     OW16201   4.006   6.901   5.186
 5101SOL    HW116202   3.988   6.942   5.096
 5101SOL    HW216203   4.095   6.931   5.219
 5102SOL     OW16204   5.062   4.789   4.344
 5102SOL    HW116205   5.061   4.848   4.263
 5102SOL    HW216206   5.154   4.786   4.382
 5103SOL     OW16207   1.069   0.456   5.651
 5103SOL    HW116208   1.161   0.424   5.670
 5103SOL    HW216209   1.024   0.480   5.737
 5104SOL     OW16210   3.672   4.765   1.100
 5104SOL    HW116211   3.635   4.765   1.193
 5104SOL    HW216212   3.599   4.745   1.035
 5105SOL     OW16213   3.569   2.951   6.870
 5105SOL    HW116214   3.595   3.012   6.795
 5105SOL    HW216215   3.651   2.920   6.918
 5106SOL     OW16216   4.082   2.813   1.034
 5106SOL    HW116217   3.993   2.846   1.002
 5106SOL    HW216218   4.084   2.713   1.030
 5107SOL     OW16219   4.822   3.164   1.111
 5107SOL    HW116220   4.778   3.075   1.125
 5107SOL    HW216221   4.759   3.225   1.062
 5108SOL     OW16222   4.273   3.496   6.544
 5108SOL    HW116223   4.270   3.474   6.641
 5108SOL    HW216224   4.201   3.562   6.522
 5109SOL     OW16225   1.803   2.524   0.658
 5109SOL    HW116226   1.881   2.562   0.709
 5109SOL    HW216227   1.732   2.496   0.722
 5110SOL     OW16228   6.072   0.559   6.305
 5110SOL    HW116229   6.089   0.522   6.214
 5110SOL    HW216230   6.043   0.654   6.298
 5111SOL     OW16231   1.088   5.741   5.091
 5111SOL    HW116232   1.064   5.777   5.181
 5111SOL    HW216233   1.114   5.817   5.031
 5112SOL     OW16234   6.964   0.362   3.108
 5112SOL    HW116235   6.954   0.449   3.060
 5112SOL    HW216236   6.880   0.309   3.100
 5113SOL     OW16237   1.846   5.223   0.718
 5113SOL    HW116238   1.753   5.238   0.752
 5113SOL    HW216239   1.900   5.306   0.731
 5114SOL     OW16240   4.101   6.536   0.769
 5114SOL    HW116241   4.156   6.497   0.842
 5114SOL    HW216242   4.135   6.505   0.681
 5115SOL     OW16243   1.590   3.949   1.185
 5115SOL    HW116244   1.604   4.041   1.221
 5115SOL    HW216245   1.653   3.886   1.229
 5116SOL     OW16246   2.294   6.627   6.841
 5116SOL    HW116247   2.391   6.624   6.815
 5116SOL    HW216248   2.283   6.678   6.926
 5117SOL     OW16249   1.794   2.943   4.400
 5117SOL    HW116250   1.796   2.862   4.459
 5117SOL    HW216251   1.700   2.975   4.391
 5118SOL     OW16252   6.160   6.404   0.156
 5118SOL    HW116253   6.147   6.426   0.253
 5118SOL    HW216254   6.257   6.390   0.137
 5119SOL     OW16255   4.978   1.973   0.495
 5119SOL    HW116256   4.975   2.072   0.478
 5119SOL    HW216257   4.910   1.927   0.437
 5120SOL     OW16258   5.122   6.828   4.893
 5120SOL    HW116259   5.154   6.882   4.971
 5120SOL    HW216260   5.171   6.855   4.811
 5121SOL     OW16261   2.892   4.060   6.717
 5121SOL    HW116262   2.925   4.134   6.658
 5121SOL    HW216263   2.882   4.095   6.810
 5122SOL     OW16264   4.363   5.380   3.981
 5122SOL    HW116265   4.455   5.404   4.011
 5122SOL    HW216266   4.366   5.345   3.888
 5123SOL     OW16267   4.508   2.447   2.276
 5123SOL    HW116268   4.428   2.388   2.266
 5123SOL    HW216269   4.534   2.484   2.186
 5124SOL     OW16270   2.210   6.486   3.919
 5124SOL    HW116271   2.232   6.454   4.011
 5124SOL    HW216272   2.165   6.575   3.924
 5125SOL     OW16273   0.631   1.847   3.754
 5125SOL    HW116274   0.705   1.852   3.820
 5125SOL    HW216275   0.595   1.754   3.751
 5126SOL     OW16276   1.837   6.971   1.631
 5126SOL    HW116277   1.828   6.962   1.532
 5126SOL    HW216278   1.896   6.898   1.666
 5127SOL     OW16279   2.001   5.472   0.756
 5127SOL    HW116280   2.101   5.466   0.746
 5127SOL    HW216281   1.968   5.556   0.713
 5128SOL     OW16282   6.165   6.001   1.561
 5128SOL    HW116283   6.184   5.929   1.627
 5128SOL    HW216284   6.244   6.061   1.552
 5129SOL     OW16285   4.709   6.362   1.202
 5129SOL    HW116286   4.746   6.274   1.229
 5129SOL    HW216287   4.784   6.428   1.190
 5130SOL     OW16288   6.041   4.756   3.813
 5130SOL    HW116289   5.962   4.707   3.774
 5130SOL    HW216290   6.022   4.777   3.909
 5131SOL     OW16291   1.726   2.540   3.605
 5131SOL    HW116292   1.677   2.494   3.679
 5131SOL    HW216293   1.824   2.521   3.613
 5132SOL     OW16294   3.638   5.140   6.284
 5132SOL    HW116295   3.707   5.135   6.356
 5132SOL    HW216296   3.549   5.118   6.322
 5133SOL     OW16297   4.120   6.467   6.258
 5133SOL    HW116298   4.186   6.443   6.329
 5133SOL    HW216299   4.102   6.387   6.200
 5134SOL     OW16300   0.465   3.926   0.990
 5134SOL    HW116301   0.440   3.846   0.934
 5134SOL    HW216302   0.383   3.961   1.036
 5135SOL     OW16303   6.993   1.632   4.621
 5135SOL    HW116304   0.019   1.716   4.591
 5135SOL    HW216305   6.905   1.656   4.663
 5136SOL     OW16306   4.948   0.935   3.907
 5136SOL    HW116307   4.959   0.836   3.911
 5136SOL    HW216308   5.005   0.978   3.977
 5137SOL     OW16309   4.517   4.082   6.019
 5137SOL    HW116310   4.502   3.984   6.029
 5137SOL    HW216311   4.430   4.130   6.032
 5138SOL     OW16312   2.502   3.722   6.094
 5138SOL    HW116313   2.569   3.651   6.076
 5138SOL    HW216314   2.535   3.810   6.058
 5139SOL     OW16315   1.053   6.814   4.230
 5139SOL    HW116316   0.979   6.803   4.296
 5139SOL    HW216317   1.035   6.893   4.172
 5140SOL     OW16318   2.952   2.707   0.531
 5140SOL    HW116319   2.885   2.747   0.469
 5140SOL    HW216320   2.951   2.757   0.618
 5141SOL     OW16321   5.785   3.314   0.496
 5141SOL    HW116322   5.695   3.357   0.492
 5141SOL    HW216323   5.827   3.315   0.405
 5142SOL     OW16324   5.917   3.471   4.771
 5142SOL    HW116325   5.876   3.562   4.772
 5142SOL    HW216326   5.970   3.459   4.688
 5143SOL     OW16327   6.826   4.987   4.450
 5143SOL    HW116328   6.839   5.082   4.478
 5143SOL    HW216329   6.758   4.984   4.376
 5144SOL     OW16330   1.352   0.828   6.414
 5144SOL    HW116331   1.394   0.739   6.401
 5144SOL    HW216332   1.321   0.837   6.509
 5145SOL     OW16333   2.643   5.169   6.164
 5145SOL    HW116334   2.571   5.229   6.198
 5145SOL    HW216335   2.647   5.175   6.064
 5146SOL     OW16336   3.488   4.091   6.734
 5146SOL    HW116337   3.392   4.077   6.756
 5146SOL    HW216338   3.523   4.013   6.682
 5147SOL     OW16339   6.696   4.050   0.335
 5147SOL    HW116340   6.640   4.093   0.264
 5147SOL    HW216341   6.745   4.121   0.385
 5148SOL     OW16342   0.186   5.753   1.554
 5148SOL    HW116343   0.150   5.793   1.639
 5148SOL    HW216344   0.185   5.823   1.482
 5149SOL     OW16345   6.199   1.203   3.585
 5149SOL    HW116346   6.269   1.274   3.582
 5149SOL    HW216347   6.121   1.230   3.529
 5150SOL     OW16348   1.445   5.601   3.721
 5150SOL    HW116349   1.484   5.552   3.799
 5150SOL    HW216350   1.368   5.549   3.683
 5151SOL     OW16351   4.703   1.059   6.166
 5151SOL    HW116352   4.790   1.036   6.122
 5151SOL    HW216353   4.629   1.055   6.099
 5152SOL     OW16354   0.737   4.421   0.217
 5152SOL    HW116355   0.687   4.421   0.303
 5152SOL    HW216356   0.743   4.514   0.182
 5153SOL     OW16357   1.688   2.119   0.630
 5153SOL    HW116358   1.662   2.023   0.623
 5153SOL    HW216359   1.605   2.175   0.634
 5154SOL     OW16360   1.716   3.381   5.596
 5154SOL    HW116361   1.635   3.441   5.603
 5154SOL    HW216362   1.773   3.411   5.520
 5155SOL     OW16363   3.828   6.409   1.905
 5155SOL    HW116364   3.738   6.379   1.937
 5155SOL    HW216365   3.891   6.413   1.982
 5156SOL     OW16366   6.501   2.607   5.086
 5156SOL    HW116367   6.547   2.521   5.063
 5156SOL    HW216368   6.402   2.596   5.079
 5157SOL     OW16369   5.151   2.744   3.664
 5157SOL    HW116370   5.244   2.779   3.673
 5157SOL    HW216371   5.143   2.656   3.711
 5158SOL     OW16372   4.041   0.846   1.093
 5158SOL    HW116373   3.948   0.874   1.114
 5158SOL    HW216374   4.103   0.923   1.108
 5159SOL     OW16375   0.949   3.502   4.207
 5159SOL    HW116376   1.043   3.469   4.213
 5159SOL    HW216377   0.890   3.429   4.173
 5160SOL     OW16378   1.653   3.930   4.880
 5160SOL    HW116379   1.587   4.005   4.883
 5160SOL    HW216380   1.652   3.888   4.790
 5161SOL     OW16381   0.934   3.194   5.757
 5161SOL    HW116382   0.979   3.162   5.673
 5161SOL    HW216383   0.981   3.275   5.792
 5162SOL     OW16384   6.767   6.183   3.788
 5162SOL    HW116385   6.671   6.211   3.791
 5162SOL    HW216386   6.779   6.116   3.715
 5163SOL     OW16387   5.838   4.738   0.875
 5163SOL    HW116388   5.882   4.822   0.844
 5163SOL    HW216389   5.891   4.659   0.843
 5164SOL     OW16390   6.266   3.407   5.175
 5164SOL    HW116391   6.178   3.381   5.135
 5164SOL    HW216392   6.250   3.478   5.244
 5165SOL     OW16393   6.173   4.421   4.597
 5165SOL    HW116394   6.092   4.400   4.651
 5165SOL    HW216395   6.206   4.337   4.553
 5166SOL     OW16396   1.621   4.773   2.130
 5166SOL    HW116397   1.661   4.853   2.084
 5166SOL    HW216398   1.541   4.801   2.181
 5167SOL     OW16399   0.101   6.673   5.981
 5167SOL    HW116400   0.014   6.721   5.991
 5167SOL    HW216401   0.173   6.740   5.961
 5168SOL     OW16402   4.210   2.217   2.970
 5168SOL    HW116403   4.279   2.286   2.991
 5168SOL    HW216404   4.254   2.139   2.924
 5169SOL     OW16405   3.350   3.678   6.170
 5169SOL    HW116406   3.312   3.684   6.263
 5169SOL    HW216407   3.288   3.723   6.106
 5170SOL     OW16408   6.327   4.631   4.672
 5170SOL    HW116409   6.284   4.542   4.658
 5170SOL    HW216410   6.308   4.664   4.764
 5171SOL     OW16411   2.094   4.936   4.424
 5171SOL    HW116412   2.183   4.978   4.441
 5171SOL    HW216413   2.049   4.916   4.512
 5172SOL     OW16414   0.751   4.650   2.341
 5172SOL    HW116415   0.772   4.611   2.251
 5172SOL    HW216416   0.675   4.714   2.332
 5173SOL     OW16417   5.146   2.989   6.240
 5173SOL    HW116418   5.243   3.012   6.245
 5173SOL    HW216419   5.104   2.999   6.330
 5174SOL     OW16420   1.904   4.899   6.183
 5174SOL    HW116421   1.829   4.883   6.119
 5174SOL    HW216422   1.932   4.812   6.224
 5175SOL     OW16423   1.364   4.241   0.645
 5175SOL    HW116424   1.427   4.177   0.689
 5175SOL    HW216425   1.409   4.329   0.632
 5176SOL     OW16426   3.880   3.835   0.804
 5176SOL    HW116427   3.951   3.859   0.870
 5176SOL    HW216428   3.842   3.918   0.764
 5177SOL     OW16429   4.856   6.255   5.995
 5177SOL    HW116430   4.893   6.202   5.919
 5177SOL    HW216431   4.808   6.194   6.058
 5178SOL     OW16432   3.087   2.761   1.651
 5178SOL    HW116433   3.132   2.695   1.591
 5178SOL    HW216434   2.993   2.777   1.619
 5179SOL     OW16435   3.480   6.158   5.755
 5179SOL    HW116436   3.523   6.072   5.726
 5179SOL    HW216437   3.546   6.211   5.809
 5180SOL     OW16438   3.076   2.182   0.424
 5180SOL    HW116439   3.015   2.259   0.406
 5180SOL    HW216440   3.148   2.211   0.487
 5181SOL     OW16441   4.419   0.124   2.685
 5181SOL    HW116442   4.374   0.195   2.740
 5181SOL    HW216443   4.417   0.037   2.734
 5182SOL     OW16444   5.582   4.201   2.045
 5182SOL    HW116445   5.599   4.176   1.949
 5182SOL    HW216446   5.633   4.140   2.105
 5183SOL     OW16447   4.654   6.556   1.931
 5183SOL    HW116448   4.708   6.586   2.010
 5183SOL    HW216449   4.644   6.457   1.933
 5184SOL     OW16450   1.200   1.056   3.038
 5184SOL    HW116451   1.294   1.061   3.072
 5184SOL    HW216452   1.201   1.062   2.938
 5185SOL     OW16453   3.706   6.971   2.403
 5185SOL    HW116454   3.661   0.007   2.332
 5185SOL    HW216455   3.804   6.968   2.385
 5186SOL     OW16456   6.740   4.218   1.214
 5186SOL    HW116457   6.664   4.160   1.242
 5186SOL    HW216458   6.754   4.210   1.115
 5187SOL     OW16459   6.128   1.736   3.251
 5187SOL    HW116460   6.102   1.719   3.346
 5187SOL    HW216461   6.066   1.687   3.189
 5188SOL     OW16462   0.864   4.571   6.285
 5188SOL    HW116463   0.848   4.531   6.194
 5188SOL    HW216464   0.882   4.498   6.351
 5189SOL     OW16465   4.617   4.588   6.418
 5189SOL    HW116466   4.619   4.488   6.417
 5189SOL    HW216467   4.530   4.620   6.383
 5190SOL     OW16468   1.082   2.569   4.099
 5190SOL    HW116469   1.162   2.525   4.058
 5190SOL    HW216470   1.009   2.575   4.031
 5191SOL     OW16471   3.466   1.409   2.031
 5191SOL    HW116472   3.507   1.319   2.017
 5191SOL    HW216473   3.536   1.473   2.062
 5192SOL     OW16474   5.480   5.991   2.485
 5192SOL    HW116475   5.542   5.945   2.421
 5192SOL    HW216476   5.440   5.924   2.547
 5193SOL     OW16477   4.805   3.872   4.257
 5193SOL    HW116478   4.732   3.923   4.302
 5193SOL    HW216479   4.824   3.912   4.167
 5194SOL     OW16480   5.707   0.858   6.079
 5194SOL    HW116481   5.715   0.841   6.177
 5194SOL    HW216482   5.790   0.826   6.033
 5195SOL     OW16483   6.157   6.684   5.226
 5195SOL    HW116484   6.194   6.603   5.180
 5195SOL    HW216485   6.083   6.656   5.288
 5196SOL     OW16486   0.608   4.283   1.672
 5196SOL    HW116487   0.531   4.254   1.614
 5196SOL    HW216488   0.669   4.205   1.687
 5197SOL     OW16489   2.424   6.179   4.886
 5197SOL    HW116490   2.491   6.105   4.885
 5197SOL    HW216491   2.333   6.142   4.904
 5198SOL     OW16492   3.635   6.357   5.156
 5198SOL    HW116493   3.611   6.322   5.247
 5198SOL    HW216494   3.733   6.376   5.152
 5199SOL     OW16495   1.958   5.484   1.500
 5199SOL    HW116496   1.942   5.582   1.507
 5199SOL    HW216497   2.010   5.453   1.579
 5200SOL     OW16498   0.197   1.350   4.966
 5200SOL    HW116499   0.192   1.345   5.065
 5200SOL    HW216500   0.241   1.268   4.930
 5201SOL     OW16501   5.318   5.035   3.819
 5201SOL    HW116502   5.282   5.007   3.908
 5201SOL    HW216503   5.414   5.062   3.828
 5202SOL     OW16504   4.047   3.275   6.161
 5202SOL    HW116505   3.962   3.296   6.208
 5202SOL    HW216506   4.064   3.343   6.090
 5203SOL     OW16507   1.970   0.287   0.550
 5203SOL    HW116508   1.902   0.323   0.486
 5203SOL    HW216509   2.037   0.358   0.571
 5204SOL     OW16510   3.331   0.964   6.909
 5204SOL    HW116511   3.320   1.024   6.988
 5204SOL    HW216512   3.369   0.876   6.939
 5205SOL     OW16513   0.056   5.548   0.897
 5205SOL    HW116514   6.989   5.520   0.856
 5205SOL    HW216515   0.051   5.540   0.996
 5206SOL     OW16516   0.652   4.817   5.302
 5206SOL    HW116517   0.728   4.817   5.368
 5206SOL    HW216518   0.651   4.730   5.253
 5207SOL     OW16519   0.387   1.133   4.839
 5207SOL    HW116520   0.312   1.073   4.865
 5207SOL    HW216521   0.424   1.178   4.920
 5208SOL     OW16522   4.410   2.341   0.824
 5208SOL    HW116523   4.492   2.316   0.773
 5208SOL    HW216524   4.330   2.334   0.764
 5209SOL     OW16525   4.547   6.060   3.138
 5209SOL    HW116526   4.606   5.979   3.142
 5209SOL    HW216527   4.487   6.062   3.218
 5210SOL     OW16528   5.594   4.528   0.402
 5210SOL    HW116529   5.621   4.470   0.480
 5210SOL    HW216530   5.496   4.544   0.405
 5211SOL     OW16531   4.586   2.665   4.169
 5211SOL    HW116532   4.493   2.694   4.147
 5211SOL    HW216533   4.650   2.709   4.106
 5212SOL     OW16534   0.672   3.186   1.128
 5212SOL    HW116535   0.723   3.143   1.202
 5212SOL    HW216536   0.708   3.156   1.040
 5213SOL     OW16537   4.125   3.237   2.244
 5213SOL    HW116538   4.139   3.170   2.317
 5213SOL    HW216539   4.028   3.247   2.226
 5214SOL     OW16540   5.756   3.675   6.001
 5214SOL    HW116541   5.725   3.627   5.919
 5214SOL    HW216542   5.731   3.771   5.995
 5215SOL     OW16543   0.210   3.957   4.894
 5215SOL    HW116544   0.159   3.955   4.981
 5215SOL    HW216545   0.194   4.044   4.848
 5216SOL     OW16546   5.598   4.910   0.484
 5216SOL    HW116547   5.603   4.923   0.583
 5216SOL    HW216548   5.517   4.957   0.448
 5217SOL     OW16549   3.925   5.908   3.714
 5217SOL    HW116550   3.871   5.870   3.639
 5217SOL    HW216551   3.979   5.836   3.757
 5218SOL     OW16552   0.851   0.486   0.736
 5218SOL    HW116553   0.930   0.515   0.791
 5218SOL    HW216554   0.773   0.470   0.796
 5219SOL     OW16555   2.280   2.176   5.250
 5219SOL    HW116556   2.205   2.204   5.189
 5219SOL    HW216557   2.355   2.242   5.243
 5220SOL     OW16558   1.680   4.442   3.789
 5220SOL    HW116559   1.687   4.368   3.722
 5220SOL    HW216560   1.736   4.421   3.869
 5221SOL     OW16561   6.536   0.497   1.173
 5221SOL    HW116562   6.620   0.444   1.179
 5221SOL    HW216563   6.472   0.450   1.112
 5222SOL     OW16564   4.626   4.809   1.378
 5222SOL    HW116565   4.725   4.800   1.388
 5222SOL    HW216566   4.585   4.718   1.366
 5223SOL     OW16567   0.423   3.012   1.122
 5223SOL    HW116568   0.342   3.070   1.116
 5223SOL    HW216569   0.504   3.069   1.131
 5224SOL     OW16570   0.640   1.985   4.652
 5224SOL    HW116571   0.547   2.023   4.657
 5224SOL    HW216572   0.637   1.887   4.673
 5225SOL     OW16573   0.458   1.518   5.036
 5225SOL    HW116574   0.376   1.553   4.990
 5225SOL    HW216575   0.456   1.418   5.036
 5226SOL     OW16576   0.046   6.649   3.813
 5226SOL    HW116577   0.034   6.648   3.714
 5226SOL    HW216578   0.067   6.557   3.845
 5227SOL     OW16579   0.209   2.460   4.669
 5227SOL    HW116580   0.119   2.477   4.710
 5227SOL    HW216581   0.271   2.423   4.738
 5228SOL     OW16582   1.969   2.849   5.907
 5228SOL    HW116583   1.894   2.794   5.873
 5228SOL    HW216584   2.037   2.862   5.835
 5229SOL     OW16585   4.477   0.867   6.289
 5229SOL    HW116586   4.535   0.942   6.257
 5229SOL    HW216587   4.394   0.905   6.331
 5230SOL     OW16588   6.874   0.047   2.074
 5230SOL    HW116589   6.888   0.010   2.166
 5230SOL    HW216590   6.817   0.130   2.080
 5231SOL     OW16591   6.260   1.692   2.654
 5231SOL    HW116592   6.324   1.618   2.636
 5231SOL    HW216593   6.187   1.690   2.585
 5232SOL     OW16594   2.153   3.093   5.759
 5232SOL    HW116595   2.178   3.021   5.694
 5232SOL    HW216596   2.072   3.141   5.725
 5233SOL     OW16597   3.098   0.593   2.485
 5233SOL    HW116598   3.007   0.569   2.519
 5233SOL    HW216599   3.158   0.513   2.492
 5234SOL     OW16600   2.426   2.359   1.337
 5234SOL    HW116601   2.490   2.386   1.265
 5234SOL    HW216602   2.358   2.432   1.348
 5235SOL     OW16603   2.805   1.511   1.331
 5235SOL    HW116604   2.883   1.531   1.391
 5235SOL    HW216605   2.830   1.533   1.237
 5236SOL     OW16606   3.376   5.810   2.009
 5236SOL    HW116607   3.323   5.725   2.011
 5236SOL    HW216608   3.456   5.798   1.951
 5237SOL     OW16609   1.782   2.407   4.096
 5237SOL    HW116610   1.851   2.458   4.045
 5237SOL    HW216611   1.787   2.433   4.193
 5238SOL     OW16612   1.330   6.153   3.112
 5238SOL    HW116613   1.425   6.144   3.142
 5238SOL    HW216614   1.312   6.248   3.085
 5239SOL     OW16615   2.616   3.793   1.036
 5239SOL    HW116616   2.699   3.811   0.983
 5239SOL    HW216617   2.637   3.729   1.110
 5240SOL     OW16618   2.406   3.704   5.747
 5240SOL    HW116619   2.374   3.654   5.667
 5240SOL    HW216620   2.452   3.641   5.809
 5241SOL     OW16621   0.700   5.781   2.354
 5241SOL    HW116622   0.625   5.814   2.411
 5241SOL    HW216623   0.747   5.858   2.311
 5242SOL     OW16624   5.012   0.856   6.904
 5242SOL    HW116625   4.960   0.913   6.841
 5242SOL    HW216626   4.984   0.761   6.894
 5243SOL     OW16627   2.152   6.681   2.181
 5243SOL    HW116628   2.142   6.718   2.089
 5243SOL    HW216629   2.195   6.590   2.177
 5244SOL     OW16630   4.494   3.156   0.407
 5244SOL    HW116631   4.560   3.142   0.333
 5244SOL    HW216632   4.515   3.095   0.483
 5245SOL     OW16633   3.852   3.889   1.150
 5245SOL    HW116634   3.802   3.813   1.192
 5245SOL    HW216635   3.812   3.976   1.179
 5246SOL     OW16636   5.991   3.052   0.967
 5246SOL    HW116637   6.012   3.013   0.878
 5246SOL    HW216638   5.917   3.000   1.010
 5247SOL     OW16639   4.169   1.665   6.272
 5247SOL    HW116640   4.071   1.677   6.288
 5247SOL    HW216641   4.197   1.574   6.302
 5248SOL     OW16642   6.470   1.406   3.380
 5248SOL    HW116643   6.569   1.399   3.380
 5248SOL    HW216644   6.438   1.437   3.290
 5249SOL     OW16645   0.700   4.859   6.465
 5249SOL    HW116646   0.701   4.784   6.532
 5249SOL    HW216647   0.609   4.864   6.422
 5250SOL     OW16648   2.333   6.145   1.128
 5250SOL    HW116649   2.313   6.220   1.064
 5250SOL    HW216650   2.252   6.128   1.185
 5251SOL     OW16651   0.507   4.542   0.771
 5251SOL    HW116652   0.595   4.557   0.727
 5251SOL    HW216653   0.481   4.625   0.821
 5252SOL     OW16654   4.019   0.015   2.700
 5252SOL    HW116655   4.077   6.962   2.661
 5252SOL    HW216656   4.010   7.019   2.798
 5253SOL     OW16657   6.024   4.715   4.611
 5253SOL    HW116658   6.111   4.713   4.562
 5253SOL    HW216659   5.980   4.625   4.603
 5254SOL     OW16660   5.871   0.225   2.815
 5254SOL    HW116661   5.872   0.126   2.828
 5254SOL    HW216662   5.907   0.247   2.724
 5255SOL     OW16663   6.333   1.425   4.897
 5255SOL    HW116664   6.275   1.507   4.902
 5255SOL    HW216665   6.323   1.383   4.807
 5256SOL     OW16666   5.447   1.000   2.986
 5256SOL    HW116667   5.510   0.968   2.915
 5256SOL    HW216668   5.495   1.006   3.073
 5257SOL     OW16669   4.269   0.945   5.929
 5257SOL    HW116670   4.249   1.043   5.927
 5257SOL    HW216671   4.240   0.907   6.017
 5258SOL     OW16672   4.781   2.100   2.244
 5258SOL    HW116673   4.700   2.096   2.185
 5258SOL    HW216674   4.762   2.053   2.331
 5259SOL     OW16675   5.191   5.199   2.938
 5259SOL    HW116676   5.108   5.224   2.889
 5259SOL    HW216677   5.271   5.227   2.885
 5260SOL     OW16678   2.444   1.042   0.840
 5260SOL    HW116679   2.496   1.045   0.754
 5260SOL    HW216680   2.346   1.047   0.819
 5261SOL     OW16681   6.389   4.548   0.171
 5261SOL    HW116682   6.356   4.640   0.188
 5261SOL    HW216683   6.444   4.517   0.248
 5262SOL     OW16684   2.617   0.935   2.567
 5262SOL    HW116685   2.675   1.002   2.613
 5262SOL    HW216686   2.636   0.936   2.469
 5263SOL     OW16687   1.712   0.928   3.607
 5263SOL    HW116688   1.734   0.915   3.510
 5263SOL    HW216689   1.721   1.024   3.631
 5264SOL     OW16690   0.134   2.160   1.547
 5264SOL    HW116691   0.115   2.063   1.535
 5264SOL    HW216692   0.221   2.172   1.594
 5265SOL     OW16693   5.965   3.736   4.573
 5265SOL    HW116694   5.973   3.822   4.523
 5265SOL    HW216695   6.042   3.727   4.636
 5266SOL     OW16696   2.574   0.377   0.795
 5266SOL    HW116697   2.588   0.423   0.883
 5266SOL    HW216698   2.646   0.309   0.781
 5267SOL     OW16699   4.661   2.183   4.307
 5267SOL    HW116700   4.698   2.260   4.254
 5267SOL    HW216701   4.702   2.183   4.398
 5268SOL     OW16702   5.689   0.729   6.366
 5268SOL    HW116703   5.710   0.668   6.442
 5268SOL    HW216704   5.592   0.756   6.371
 5269SOL     OW16705   0.479   6.434   3.045
 5269SOL    HW116706   0.463   6.472   2.954
 5269SOL    HW216707   0.415   6.359   3.062
 5270SOL     OW16708   7.018   2.366   6.506
 5270SOL    HW116709   0.030   2.280   6.466
 5270SOL    HW216710   0.055   2.389   6.585
 5271SOL     OW16711   6.297   5.716   3.811
 5271SOL    HW116712   6.356   5.797   3.804
 5271SOL    HW216713   6.292   5.670   3.723
 5272SOL     OW16714   4.364   0.544   0.064
 5272SOL    HW116715   4.463   0.531   0.065
 5272SOL    HW216716   4.329   0.525   6.991
 5273SOL     OW16717   1.128   2.570   2.376
 5273SOL    HW116718   1.034   2.570   2.345
 5273SOL    HW216719   1.173   2.655   2.351
 5274SOL     OW16720   4.402   6.039   2.500
 5274SOL    HW116721   4.406   6.139   2.502
 5274SOL    HW216722   4.493   6.002   2.481
 5275SOL     OW16723   3.680   1.098   6.689
 5275SOL    HW116724   3.723   1.013   6.659
 5275SOL    HW216725   3.609   1.125   6.624
 5276SOL     OW16726   3.432   6.443   2.617
 5276SOL    HW116727   3.456   6.397   2.532
 5276SOL    HW216728   3.515   6.470   2.666
 5277SOL     OW16729   1.886   1.893   1.877
 5277SOL    HW116730   1.854   1.869   1.786
 5277SOL    HW216731   1.858   1.987   1.898
 5278SOL     OW16732   4.643   5.152   1.644
 5278SOL    HW116733   4.579   5.090   1.599
 5278SOL    HW216734   4.594   5.234   1.675
 5279SOL     OW16735   2.734   4.918   1.659
 5279SOL    HW116736   2.759   4.908   1.755
 5279SOL    HW216737   2.796   4.864   1.603
 5280SOL     OW16738   4.052   5.835   4.812
 5280SOL    HW116739   4.008   5.889   4.741
 5280SOL    HW216740   3.992   5.759   4.838
 5281SOL     OW16741   0.537   1.756   1.525
 5281SOL    HW116742   0.613   1.726   1.582
 5281SOL    HW216743   0.500   1.677   1.476
 5282SOL     OW16744   3.537   1.846   3.759
 5282SOL    HW116745   3.537   1.802   3.849
 5282SOL    HW216746   3.584   1.787   3.693
 5283SOL     OW16747   5.208   5.471   6.977
 5283SOL    HW116748   5.247   5.382   7.000
 5283SOL    HW216749   5.281   5.534   6.950
 5284SOL     OW16750   5.867   2.822   2.853
 5284SOL    HW116751   5.809   2.835   2.773
 5284SOL    HW216752   5.835   2.882   2.927
 5285SOL     OW16753   3.127   5.187   2.825
 5285SOL    HW116754   3.212   5.158   2.781
 5285SOL    HW216755   3.129   5.286   2.839
 5286SOL     OW16756   1.728   4.783   1.118
 5286SOL    HW116757   1.756   4.777   1.214
 5286SOL    HW216758   1.799   4.743   1.061
 5287SOL     OW16759   2.163   1.942   1.125
 5287SOL    HW116760   2.090   1.917   1.061
 5287SOL    HW216761   2.206   1.859   1.160
 5288SOL     OW16762   3.896   0.045   0.897
 5288SOL    HW116763   3.806   0.000   0.890
 5288SOL    HW216764   3.893   0.133   0.850
 5289SOL     OW16765   1.679   5.579   1.615
 5289SOL    HW116766   1.769   5.575   1.573
 5289SOL    HW216767   1.610   5.598   1.545
 5290SOL     OW16768   4.566   6.125   0.647
 5290SOL    HW116769   4.487   6.068   0.669
 5290SOL    HW216770   4.552   6.167   0.557
 5291SOL     OW16771   1.919   4.969   6.447
 5291SOL    HW116772   1.991   4.950   6.514
 5291SOL    HW216773   1.953   4.951   6.355
 5292SOL     OW16774   4.338   2.989   5.898
 5292SOL    HW116775   4.394   2.915   5.934
 5292SOL    HW216776   4.279   3.025   5.971
 5293SOL     OW16777   0.811   0.384   4.638
 5293SOL    HW116778   0.845   0.329   4.562
 5293SOL    HW216779   0.712   0.395   4.630
 5294SOL     OW16780   6.200   2.582   6.065
 5294SOL    HW116781   6.216   2.483   6.070
 5294SOL    HW216782   6.104   2.599   6.045
 5295SOL     OW16783   6.502   1.183   2.019
 5295SOL    HW116784   6.413   1.180   2.065
 5295SOL    HW216785   6.573   1.151   2.081
 5296SOL     OW16786   0.576   4.534   1.552
 5296SOL    HW116787   0.618   4.452   1.591
 5296SOL    HW216788   0.489   4.552   1.598
 5297SOL     OW16789   1.912   2.314   1.372
 5297SOL    HW116790   1.977   2.243   1.399
 5297SOL    HW216791   1.855   2.280   1.298
 5298SOL     OW16792   0.615   5.386   1.561
 5298SOL    HW116793   0.625   5.377   1.660
 5298SOL    HW216794   0.580   5.477   1.539
 5299SOL     OW16795   2.881   0.431   2.152
 5299SOL    HW116796   2.920   0.349   2.194
 5299SOL    HW216797   2.955   0.488   2.117
 5300SOL     OW16798   6.459   5.569   3.114
 5300SOL    HW116799   6.419   5.615   3.192
 5300SOL    HW216800   6.552   5.602   3.099
 5301SOL     OW16801   4.057   1.827   6.847
 5301SOL    HW116802   4.001   1.835   6.764
 5301SOL    HW216803   4.041   1.906   6.906
 5302SOL     OW16804   5.937   4.174   2.904
 5302SOL    HW116805   6.000   4.226   2.963
 5302SOL    HW216806   5.937   4.078   2.932
 5303SOL     OW16807   6.959   4.450   3.129
 5303SOL    HW116808   6.911   4.487   3.049
 5303SOL    HW216809   0.027   4.496   3.140
 5304SOL     OW16810   5.321   1.729   5.467
 5304SOL    HW116811   5.254   1.655   5.477
 5304SOL    HW216812   5.411   1.696   5.496
 5305SOL     OW16813   2.434   1.218   3.533
 5305SOL    HW116814   2.467   1.311   3.518
 5305SOL    HW216815   2.469   1.159   3.460
 5306SOL     OW16816   2.930   6.934   5.585
 5306SOL    HW116817   2.927   6.942   5.485
 5306SOL    HW216818   2.837   6.936   5.621
 5307SOL     OW16819   5.090   6.649   0.186
 5307SOL    HW116820   5.152   6.720   0.153
 5307SOL    HW216821   5.066   6.668   0.281
 5308SOL     OW16822   0.089   1.274   2.506
 5308SOL    HW116823   0.100   1.350   2.443
 5308SOL    HW216824   0.172   1.263   2.561
 5309SOL     OW16825   3.521   4.096   3.696
 5309SOL    HW116826   3.443   4.086   3.758
 5309SOL    HW216827   3.494   4.069   3.603
 5310SOL     OW16828   4.675   2.190   0.983
 5310SOL    HW116829   4.609   2.149   1.046
 5310SOL    HW216830   4.767   2.159   1.006
 5311SOL     OW16831   1.008   5.717   0.048
 5311SOL    HW116832   1.027   5.684   6.975
 5311SOL    HW216833   1.090   5.709   0.104
 5312SOL     OW16834   0.411   3.782   3.066
 5312SOL    HW116835   0.396   3.726   3.148
 5312SOL    HW216836   0.324   3.800   3.021
 5313SOL     OW16837   1.096   5.628   1.116
 5313SOL    HW116838   1.019   5.622   1.053
 5313SOL    HW216839   1.137   5.719   1.110
 5314SOL     OW16840   3.761   5.054   0.969
 5314SOL    HW116841   3.753   5.037   1.067
 5314SOL    HW216842   3.726   4.975   0.918
 5315SOL     OW16843   5.486   2.513   2.155
 5315SOL    HW116844   5.551   2.512   2.230
 5315SOL    HW216845   5.491   2.426   2.105
 5316SOL     OW16846   5.977   4.856   4.067
 5316SOL    HW116847   5.897   4.915   4.081
 5316SOL    HW216848   6.052   4.889   4.125
 5317SOL     OW16849   5.648   6.507   2.551
 5317SOL    HW116850   5.743   6.476   2.546
 5317SOL    HW216851   5.601   6.484   2.466
 5318SOL     OW16852   0.538   2.581   4.517
 5318SOL    HW116853   0.450   2.628   4.523
 5318SOL    HW216854   0.529   2.504   4.453
 5319SOL     OW16855   4.812   0.420   0.844
 5319SOL    HW116856   4.824   0.349   0.913
 5319SOL    HW216857   4.890   0.419   0.782
 5320SOL     OW16858   5.701   3.109   5.889
 5320SOL    HW116859   5.793   3.130   5.923
 5320SOL    HW216860   5.662   3.035   5.943
 5321SOL     OW16861   2.192   5.525   6.360
 5321SOL    HW116862   2.140   5.463   6.302
 5321SOL    HW216863   2.262   5.474   6.410
 5322SOL     OW16864   3.183   5.863   0.298
 5322SOL    HW116865   3.201   5.823   0.208
 5322SOL    HW216866   3.269   5.873   0.347
 5323SOL     OW16867   5.175   3.078   0.646
 5323SOL    HW116868   5.198   3.134   0.725
 5323SOL    HW216869   5.126   3.134   0.579
 5324SOL     OW16870   3.757   3.699   1.825
 5324SOL    HW116871   3.778   3.700   1.728
 5324SOL    HW216872   3.823   3.641   1.873
 5325SOL     OW16873   4.968   5.646   3.191
 5325SOL    HW116874   4.986   5.711   3.117
 5325SOL    HW216875   5.001   5.555   3.165
 5326SOL     OW16876   6.669   6.327   1.567
 5326SOL    HW116877   6.702   6.290   1.480
 5326SOL    HW216878   6.619   6.255   1.616
 5327SOL     OW16879   6.882   0.596   3.498
 5327SOL    HW116880   6.819   0.567   3.570
 5327SOL    HW216881   6.951   0.525   3.483
 5328SOL     OW16882   3.864   4.611   0.736
 5328SOL    HW116883   3.767   4.604   0.759
 5328SOL    HW216884   3.882   4.562   0.651
 5329SOL     OW16885   7.000   4.773   0.142
 5329SOL    HW116886   6.960   4.814   0.060
 5329SOL    HW216887   6.964   4.819   0.223
 5330SOL     OW16888   4.809   4.566   0.836
 5330SOL    HW116889   4.782   4.657   0.868
 5330SOL    HW216890   4.832   4.509   0.915
 5331SOL     OW16891   4.590   3.526   6.851
 5331SOL    HW116892   4.629   3.475   6.775
 5331SOL    HW216893   4.617   3.622   6.845
 5332SOL     OW16894   5.973   2.902   0.094
 5332SOL    HW116895   5.881   2.925   0.125
 5332SOL    HW216896   5.969   2.820   0.036
 5333SOL     OW16897   1.350   1.841   3.929
 5333SOL    HW116898   1.384   1.784   3.853
 5333SOL    HW216899   1.423   1.851   3.997
 5334SOL     OW16900   4.337   5.201   2.141
 5334SOL    HW116901   4.409   5.146   2.184
 5334SOL    HW216902   4.253   5.194   2.195
 5335SOL     OW16903   6.982   4.444   1.248
 5335SOL    HW116904   0.062   4.435   1.241
 5335SOL    HW216905   6.941   4.431   1.159
 5336SOL     OW16906   1.387   3.625   4.068
 5336SOL    HW116907   1.387   3.723   4.088
 5336SOL    HW216908   1.295   3.589   4.077
 5337SOL     OW16909   6.625   4.469   1.129
 5337SOL    HW116910   6.661   4.394   1.184
 5337SOL    HW216911   6.701   4.525   1.095
 5338SOL     OW16912   6.890   3.445   0.866
 5338SOL    HW116913   6.961   3.511   0.888
 5338SOL    HW216914   6.888   3.430   0.767
 5339SOL     OW16915   5.559   3.227   3.026
 5339SOL    HW116916   5.615   3.308   3.041
 5339SOL    HW216917   5.536   3.186   3.114
 5340SOL     OW16918   5.683   2.572   2.344
 5340SOL    HW116919   5.750   2.642   2.321
 5340SOL    HW216920   5.703   2.536   2.435
 5341SOL     OW16921   3.836   5.385   4.321
 5341SOL    HW116922   3.791   5.296   4.310
 5341SOL    HW216923   3.773   5.457   4.292
 5342SOL     OW16924   5.927   6.661   4.307
 5342SOL    HW116925   5.921   6.732   4.237
 5342SOL    HW216926   5.876   6.580   4.277
 5343SOL     OW16927   3.672   3.506   7.004
 5343SOL    HW116928   3.705   3.529   0.076
 5343SOL    HW216929   3.738   3.537   6.936
 5344SOL     OW16930   1.542   1.729   6.318
 5344SOL    HW116931   1.633   1.697   6.345
 5344SOL    HW216932   1.493   1.656   6.271
 5345SOL     OW16933   4.907   2.439   0.199
 5345SOL    HW116934   4.992   2.471   0.155
 5345SOL    HW216935   4.860   2.518   0.239
 5346SOL     OW16936   3.014   5.778   3.777
 5346SOL    HW116937   2.986   5.706   3.714
 5346SOL    HW216938   2.942   5.793   3.845
 5347SOL     OW16939   6.013   1.513   3.899
 5347SOL    HW116940   6.026   1.414   3.892
 5347SOL    HW216941   6.040   1.557   3.813
 5348SOL     OW16942   5.390   2.180   2.759
 5348SOL    HW116943   5.361   2.268   2.797
 5348SOL    HW216944   5.486   2.164   2.783
 5349SOL     OW16945   0.356   3.851   2.507
 5349SOL    HW116946   0.370   3.950   2.512
 5349SOL    HW216947   0.393   3.807   2.589
 5350SOL     OW16948   1.481   6.412   0.234
 5350SOL    HW116949   1.491   6.347   0.309
 5350SOL    HW216950   1.559   6.405   0.172
 5351SOL     OW16951   6.500   6.246   2.322
 5351SOL    HW116952   6.417   6.213   2.277
 5351SOL    HW216953   6.501   6.215   2.417
 5352SOL     OW16954   1.226   3.524   5.046
 5352SOL    HW116955   1.185   3.501   5.134
 5352SOL    HW216956   1.307   3.468   5.031
 5353SOL     OW16957   3.628   5.290   3.622
 5353SOL    HW116958   3.707   5.323   3.674
 5353SOL    HW216959   3.659   5.222   3.555
 5354SOL     OW16960   4.774   5.616   0.630
 5354SOL    HW116961   4.705   5.555   0.670
 5354SOL    HW216962   4.798   5.584   0.539
 5355SOL     OW16963   4.895   4.274   5.187
 5355SOL    HW116964   4.855   4.182   5.181
 5355SOL    HW216965   4.939   4.297   5.101
 5356SOL     OW16966   0.676   5.161   1.137
 5356SOL    HW116967   0.752   5.209   1.094
 5356SOL    HW216968   0.681   5.173   1.236
 5357SOL     OW16969   5.524   3.134   2.528
 5357SOL    HW116970   5.565   3.180   2.449
 5357SOL    HW216971   5.447   3.078   2.498
 5358SOL     OW16972   4.130   2.326   6.961
 5358SOL    HW116973   4.171   2.380   0.014
 5358SOL    HW216974   4.163   2.358   6.872
 5359SOL     OW16975   3.269   2.141   6.693
 5359SOL    HW116976   3.331   2.169   6.619
 5359SOL    HW216977   3.223   2.221   6.730
 5360SOL     OW16978   5.193   4.030   3.335
 5360SOL    HW116979   5.120   4.097   3.320
 5360SOL    HW216980   5.153   3.944   3.366
 5361SOL     OW16981   2.030   5.415   2.480
 5361SOL    HW116982   2.103   5.458   2.532
 5361SOL    HW216983   2.005   5.472   2.402
 5362SOL     OW16984   5.760   0.733   1.833
 5362SOL    HW116985   5.798   0.646   1.802
 5362SOL    HW216986   5.795   0.754   1.924
 5363SOL     OW16987   5.775   5.448   3.311
 5363SOL    HW116988   5.789   5.532   3.363
 5363SOL    HW216989   5.803   5.462   3.216
 5364SOL     OW16990   4.687   1.259   2.331
 5364SOL    HW116991   4.590   1.235   2.337
 5364SOL    HW216992   4.696   1.347   2.283
 5365SOL     OW16993   3.495   2.912   3.716
 5365SOL    HW116994   3.489   2.850   3.638
 5365SOL    HW216995   3.589   2.912   3.751
 5366SOL     OW16996   6.380   6.571   2.654
 5366SOL    HW116997   6.311   6.632   2.692
 5366SOL    HW216998   6.423   6.615   2.575
 5367SOL     OW16999   6.366   6.116   1.402
 5367SOL    HW117000   6.417   6.036   1.370
 5367SOL    HW217001   6.313   6.154   1.326
 5368SOL     OW17002   6.424   5.964   3.782
 5368SOL    HW117003   6.416   6.056   3.745
 5368SOL    HW217004   6.507   5.957   3.837
 5369SOL     OW17005   2.551   5.775   2.532
 5369SOL    HW117006   2.582   5.724   2.451
 5369SOL    HW217007   2.515   5.864   2.503
 5370SOL     OW17008   1.249   3.431   0.892
 5370SOL    HW117009   1.240   3.522   0.931
 5370SOL    HW217010   1.240   3.436   0.793
 5371SOL     OW17011   5.627   5.335   4.579
 5371SOL    HW117012   5.656   5.251   4.626
 5371SOL    HW217013   5.563   5.385   4.637
 5372SOL     OW17014   1.122   0.080   3.372
 5372SOL    HW117015   1.214   0.080   3.333
 5372SOL    HW217016   1.059   0.036   3.308
 5373SOL     OW17017   3.680   1.415   6.685
 5373SOL    HW117018   3.775   1.393   6.664
 5373SOL    HW217019   3.621   1.343   6.650
 5374SOL     OW17020   1.849   4.801   2.459
 5374SOL    HW117021   1.865   4.823   2.363
 5374SOL    HW217022   1.936   4.777   2.503
 5375SOL     OW17023   1.620   4.380   4.698
 5375SOL    HW117024   1.698   4.325   4.729
 5375SOL    HW217025   1.642   4.422   4.610
 5376SOL     OW17026   0.560   0.095   6.203
 5376SOL    HW117027   0.627   0.163   6.174
 5376SOL    HW217028   0.605   0.025   6.259
 5377SOL     OW17029   2.324   0.981   3.653
 5377SOL    HW117030   2.340   1.072   3.613
 5377SOL    HW217031   2.382   0.914   3.608
 5378SOL     OW17032   4.896   1.082   2.251
 5378SOL    HW117033   4.843   1.164   2.274
 5378SOL    HW217034   4.845   1.001   2.278
 5379SOL     OW17035   1.610   2.023   6.295
 5379SOL    HW117036   1.708   2.040   6.309
 5379SOL    HW217037   1.593   1.924   6.298
 5380SOL     OW17038   4.261   6.451   1.353
 5380SOL    HW117039   4.174   6.500   1.344
 5380SOL    HW217040   4.335   6.509   1.319
 5381SOL     OW17041   4.420   0.004   3.711
 5381SOL    HW117042   4.468   6.949   3.758
 5381SOL    HW217043   4.413   7.003   3.614
 5382SOL     OW17044   4.035   1.597   1.630
 5382SOL    HW117045   4.058   1.639   1.542
 5382SOL    HW217046   4.114   1.601   1.691
 5383SOL     OW17047   1.925   2.505   4.708
 5383SOL    HW117048   2.023   2.492   4.692
 5383SOL    HW217049   1.879   2.416   4.703
 5384SOL     OW17050   5.700   5.437   4.062
 5384SOL    HW117051   5.689   5.386   4.147
 5384SOL    HW217052   5.718   5.533   4.082
 5385SOL     OW17053   3.947   2.878   5.737
 5385SOL    HW117054   3.904   2.869   5.647
 5385SOL    HW217055   3.881   2.856   5.808
 5386SOL     OW17056   5.758   4.657   4.026
 5386SOL    HW117057   5.809   4.577   4.057
 5386SOL    HW217058   5.798   4.691   3.941
 5387SOL     OW17059   1.905   1.171   3.508
 5387SOL    HW117060   1.972   1.245   3.501
 5387SOL    HW217061   1.813   1.208   3.495
 5388SOL     OW17062   0.470   6.356   2.192
 5388SOL    HW117063   0.535   6.409   2.246
 5388SOL    HW217064   0.437   6.279   2.246
 5389SOL     OW17065   4.589   1.766   4.060
 5389SOL    HW117066   4.675   1.732   4.022
 5389SOL    HW217067   4.520   1.694   4.055
 5390SOL     OW17068   0.527   2.789   2.785
 5390SOL    HW117069   0.497   2.882   2.769
 5390SOL    HW217070   0.476   2.750   2.862
 5391SOL     OW17071   2.743   3.677   0.403
 5391SOL    HW117072   2.710   3.618   0.477
 5391SOL    HW217073   2.799   3.751   0.441
 5392SOL     OW17074   5.351   1.951   3.913
 5392SOL    HW117075   5.345   1.852   3.923
 5392SOL    HW217076   5.428   1.986   3.967
 5393SOL     OW17077   4.353   1.844   5.034
 5393SOL    HW117078   4.399   1.777   4.976
 5393SOL    HW217079   4.266   1.807   5.065
 5394SOL     OW17080   1.814   2.212   1.107
 5394SOL    HW117081   1.818   2.312   1.108
 5394SOL    HW217082   1.773   2.181   1.022
 5395SOL     OW17083   6.344   1.965   0.601
 5395SOL    HW117084   6.334   1.895   0.673
 5395SOL    HW217085   6.374   2.051   0.643
 5396SOL     OW17086   5.396   4.482   1.323
 5396SOL    HW117087   5.466   4.547   1.293
 5396SOL    HW217088   5.342   4.522   1.397
 5397SOL     OW17089   0.459   1.335   2.430
 5397SOL    HW117090   0.468   1.344   2.529
 5397SOL    HW217091   0.534   1.384   2.385
 5398SOL     OW17092   5.674   1.441   2.463
 5398SOL    HW117093   5.766   1.459   2.429
 5398SOL    HW217094   5.610   1.438   2.386
 5399SOL     OW17095   1.960   1.201   6.794
 5399SOL    HW117096   1.941   1.113   6.839
 5399SOL    HW217097   1.979   1.271   6.863
 5400SOL     OW17098   4.504   3.691   1.628
 5400SOL    HW117099   4.570   3.689   1.703
 5400SOL    HW217100   4.443   3.769   1.639
 5401SOL     OW17101   5.542   3.166   1.199
 5401SOL    HW117102   5.587   3.092   1.249
 5401SOL    HW217103   5.483   3.217   1.262
 5402SOL     OW17104   1.236   6.394   1.736
 5402SOL    HW117105   1.177   6.383   1.655
 5402SOL    HW217106   1.324   6.350   1.719
 5403SOL     OW17107   4.633   3.142   0.151
 5403SOL    HW117108   4.653   3.075   0.079
 5403SOL    HW217109   4.590   3.223   0.110
 5404SOL     OW17110   6.479   1.248   0.543
 5404SOL    HW117111   6.476   1.333   0.490
 5404SOL    HW217112   6.478   1.270   0.641
 5405SOL     OW17113   6.409   5.369   6.959
 5405SOL    HW117114   6.507   5.361   6.977
 5405SOL    HW217115   6.360   5.300   7.012
 5406SOL     OW17116   2.653   0.793   5.683
 5406SOL    HW117117   2.638   0.694   5.684
 5406SOL    HW217118   2.732   0.815   5.740
 5407SOL     OW17119   2.363   0.095   2.918
 5407SOL    HW117120   2.355   0.181   2.970
 5407SOL    HW217121   2.442   0.043   2.951
 5408SOL     OW17122   3.582   1.901   4.140
 5408SOL    HW117123   3.625   1.977   4.090
 5408SOL    HW217124   3.566   1.825   4.077
 5409SOL     OW17125   0.749   2.535   1.487
 5409SOL    HW117126   0.674   2.575   1.433
 5409SOL    HW217127   0.828   2.595   1.483
 5410SOL     OW17128   0.985   2.588   0.484
 5410SOL    HW117129   1.059   2.565   0.422
 5410SOL    HW217130   0.898   2.561   0.443
 5411SOL     OW17131   3.365   5.484   0.085
 5411SOL    HW117132   3.424   5.460   0.008
 5411SOL    HW217133   3.290   5.418   0.091
 5412SOL     OW17134   0.278   2.208   6.116
 5412SOL    HW117135   0.285   2.298   6.073
 5412SOL    HW217136   0.201   2.158   6.076
 5413SOL     OW17137   6.473   6.138   4.727
 5413SOL    HW117138   6.457   6.101   4.636
 5413SOL    HW217139   6.473   6.063   4.794
 5414SOL     OW17140   5.435   4.064   5.585
 5414SOL    HW117141   5.503   4.000   5.621
 5414SOL    HW217142   5.423   4.139   5.649
 5415SOL     OW17143   4.610   0.831   0.183
 5415SOL    HW117144   4.616   0.929   0.164
 5415SOL    HW217145   4.691   0.785   0.149
 5416SOL     OW17146   3.553   6.029   6.071
 5416SOL    HW117147   3.571   6.094   6.145
 5416SOL    HW217148   3.455   6.015   6.062
 5417SOL     OW17149   4.085   6.712   4.301
 5417SOL    HW117150   4.030   6.784   4.258
 5417SOL    HW217151   4.062   6.624   4.259
 5418SOL     OW17152   6.612   3.396   4.508
 5418SOL    HW117153   6.705   3.394   4.471
 5418SOL    HW217154   6.616   3.419   4.606
 5419SOL     OW17155   4.979   6.679   6.280
 5419SOL    HW117156   5.078   6.695   6.279
 5419SOL    HW217157   4.961   6.582   6.265
 5420SOL     OW17158   1.115   1.083   1.954
 5420SOL    HW117159   1.085   1.071   2.049
 5420SOL    HW217160   1.154   0.998   1.920
 5421SOL     OW17161   4.117   4.757   2.076
 5421SOL    HW117162   4.149   4.848   2.047
 5421SOL    HW217163   4.179   4.721   2.146
 5422SOL     OW17164   3.117   5.326   3.631
 5422SOL    HW117165   3.068   5.257   3.684
 5422SOL    HW217166   3.207   5.341   3.671
 5423SOL     OW17167   5.431   6.316   1.658
 5423SOL    HW117168   5.399   6.223   1.678
 5423SOL    HW217169   5.461   6.321   1.562
 5424SOL     OW17170   4.354   4.071   5.635
 5424SOL    HW117171   4.282   4.114   5.690
 5424SOL    HW217172   4.384   4.134   5.564
 5425SOL     OW17173   1.484   4.324   5.679
 5425SOL    HW117174   1.524   4.330   5.588
 5425SOL    HW217175   1.448   4.413   5.705
 5426SOL     OW17176   5.960   5.419   1.121
 5426SOL    HW117177   6.041   5.361   1.125
 5426SOL    HW217178   5.969   5.494   1.187
 5427SOL     OW17179   4.676   2.265   6.330
 5427SOL    HW117180   4.681   2.363   6.309
 5427SOL    HW217181   4.604   2.223   6.274
 5428SOL     OW17182   5.885   5.973   2.597
 5428SOL    HW117183   5.903   5.946   2.692
 5428SOL    HW217184   5.832   5.901   2.552
 5429SOL     OW17185   3.508   0.580   4.795
 5429SOL    HW117186   3.470   0.537   4.877
 5429SOL    HW217187   3.608   0.572   4.797
 5430SOL     OW17188   2.591   3.826   5.580
 5430SOL    HW117189   2.530   3.803   5.657
 5430SOL    HW217190   2.559   3.780   5.497
 5431SOL     OW17191   3.365   4.328   7.005
 5431SOL    HW117192   3.337   4.256   0.049
 5431SOL    HW217193   3.462   4.319   6.984
 5432SOL     OW17194   6.845   5.242   6.888
 5432SOL    HW117195   6.849   5.280   6.980
 5432SOL    HW217196   6.768   5.284   6.839
 5433SOL     OW17197   2.012   0.559   1.699
 5433SOL    HW117198   1.975   0.648   1.726
 5433SOL    HW217199   1.962   0.525   1.620
 5434SOL     OW17200   5.505   0.590   5.424
 5434SOL    HW117201   5.413   0.617   5.395
 5434SOL    HW217202   5.571   0.659   5.396
 5435SOL     OW17203   6.805   4.433   0.666
 5435SOL    HW117204   6.743   4.421   0.744
 5435SOL    HW217205   6.772   4.507   0.608
 5436SOL     OW17206   1.321   4.691   2.794
 5436SOL    HW117207   1.265   4.667   2.715
 5436SOL    HW217208   1.357   4.783   2.783
 5437SOL     OW17209   3.526   5.392   1.396
 5437SOL    HW117210   3.467   5.447   1.337
 5437SOL    HW217211   3.538   5.439   1.484
 5438SOL     OW17212   4.274   5.906   2.759
 5438SOL    HW117213   4.341   5.964   2.713
 5438SOL    HW217214   4.310   5.879   2.848
 5439SOL     OW17215   1.037   4.660   1.859
 5439SOL    HW117216   1.082   4.726   1.799
 5439SOL    HW217217   1.106   4.605   1.905
 5440SOL     OW17218   6.279   6.810   3.506
 5440SOL    HW117219   6.266   6.858   3.593
 5440SOL    HW217220   6.234   6.721   3.511
 5441SOL     OW17221   6.149   3.358   4.177
 5441SOL    HW117222   6.218   3.429   4.186
 5441SOL    HW217223   6.172   3.299   4.100
 5442SOL     OW17224   4.088   7.014   5.986
 5442SOL    HW117225   4.014   6.992   6.049
 5442SOL    HW217226   4.170   6.964   6.013
 5443SOL     OW17227   4.546   1.132   3.513
 5443SOL    HW117228   4.557   1.229   3.491
 5443SOL    HW217229   4.467   1.119   3.572
 5444SOL     OW17230   6.270   1.296   4.629
 5444SOL    HW117231   6.234   1.207   4.657
 5444SOL    HW217232   6.214   1.333   4.556
 5445SOL     OW17233   5.683   5.684   4.224
 5445SOL    HW117234   5.672   5.782   4.241
 5445SOL    HW217235   5.768   5.652   4.265
 5446SOL     OW17236   7.006   4.385   6.094
 5446SOL    HW117237   0.006   4.479   6.067
 5446SOL    HW217238   0.010   4.373   6.190
 5447SOL     OW17239   1.063   2.098   1.077
 5447SOL    HW117240   1.135   2.144   1.129
 5447SOL    HW217241   1.057   2.138   0.986
 5448SOL     OW17242   4.023   5.114   3.095
 5448SOL    HW117243   4.097   5.118   3.162
 5448SOL    HW217244   4.015   5.203   3.049
 5449SOL     OW17245   3.248   1.508   1.878
 5449SOL    HW117246   3.284   1.447   1.948
 5449SOL    HW217247   3.292   1.597   1.885
 5450SOL     OW17248   3.904   5.764   1.820
 5450SOL    HW117249   3.905   5.864   1.810
 5450SOL    HW217250   3.974   5.724   1.760
 5451SOL     OW17251   0.194   6.963   2.819
 5451SOL    HW117252   0.129   6.922   2.756
 5451SOL    HW217253   0.145   0.001   2.885
 5452SOL     OW17254   2.212   4.349   1.631
 5452SOL    HW117255   2.120   4.310   1.637
 5452SOL    HW217256   2.218   4.431   1.689
 5453SOL     OW17257   6.012   3.887   2.987
 5453SOL    HW117258   5.915   3.864   2.998
 5453SOL    HW217259   6.059   3.876   3.075
 5454SOL     OW17260   5.610   4.700   2.314
 5454SOL    HW117261   5.666   4.670   2.237
 5454SOL    HW217262   5.521   4.655   2.310
 5455SOL     OW17263   1.384   2.129   3.946
 5455SOL    HW117264   1.480   2.124   3.973
 5455SOL    HW217265   1.346   2.036   3.939
 5456SOL     OW17266   5.745   1.549   0.953
 5456SOL    HW117267   5.711   1.630   0.905
 5456SOL    HW217268   5.789   1.488   0.887
 5457SOL     OW17269   5.431   1.561   6.743
 5457SOL    HW117270   5.373   1.488   6.778
 5457SOL    HW217271   5.401   1.585   6.650
 5458SOL     OW17272   6.062   3.924   6.929
 5458SOL    HW117273   6.049   3.838   6.880
 5458SOL    HW217274   6.159   3.950   6.925
 5459SOL     OW17275   1.869   3.425   5.394
 5459SOL    HW117276   1.835   3.351   5.337
 5459SOL    HW217277   1.967   3.438   5.377
 5460SOL     OW17278   1.212   0.965   1.065
 5460SOL    HW117279   1.297   1.016   1.054
 5460SOL    HW217280   1.166   0.957   0.976
 5461SOL     OW17281   6.435   1.389   5.170
 5461SOL    HW117282   6.404   1.426   5.083
 5461SOL    HW217283   6.493   1.310   5.154
 5462SOL     OW17284   4.773   4.609   6.157
 5462SOL    HW117285   4.843   4.680   6.166
 5462SOL    HW217286   4.795   4.533   6.218
 5463SOL     OW17287   1.665   2.900   0.012
 5463SOL    HW117288   1.648   2.950   0.097
 5463SOL    HW217289   1.633   2.806   0.023
 5464SOL     OW17290   0.859   5.976   5.905
 5464SOL    HW117291   0.899   5.885   5.898
 5464SOL    HW217292   0.817   5.987   5.995
 5465SOL     OW17293   6.168   6.562   3.516
 5465SOL    HW117294   6.091   6.537   3.573
 5465SOL    HW217295   6.170   6.504   3.435
 5466SOL     OW17296   5.829   2.474   4.981
 5466SOL    HW117297   5.807   2.391   4.931
 5466SOL    HW217298   5.916   2.511   4.948
 5467SOL     OW17299   4.811   2.858   4.300
 5467SOL    HW117300   4.805   2.949   4.342
 5467SOL    HW217301   4.719   2.827   4.276
 5468SOL     OW17302   6.951   1.756   1.322
 5468SOL    HW117303   0.020   1.768   1.278
 5468SOL    HW217304   6.960   1.693   1.399
 5469SOL     OW17305   3.199   0.343   5.409
 5469SOL    HW117306   3.171   0.436   5.432
 5469SOL    HW217307   3.136   0.278   5.454
 5470SOL     OW17308   3.708   5.543   3.187
 5470SOL    HW117309   3.794   5.504   3.222
 5470SOL    HW217310   3.662   5.591   3.261
 5471SOL     OW17311   4.576   0.808   3.261
 5471SOL    HW117312   4.615   0.893   3.225
 5471SOL    HW217313   4.622   0.784   3.346
 5472SOL     OW17314   2.838   2.140   6.642
 5472SOL    HW117315   2.832   2.078   6.565
 5472SOL    HW217316   2.874   2.228   6.612
 5473SOL     OW17317   2.673   4.334   1.631
 5473SOL    HW117318   2.662   4.426   1.669
 5473SOL    HW217319   2.761   4.296   1.660
 5474SOL     OW17320   1.115   5.502   3.378
 5474SOL    HW117321   1.096   5.595   3.345
 5474SOL    HW217322   1.029   5.454   3.395
 5475SOL     OW17323   6.935   1.558   5.357
 5475SOL    HW117324   6.995   1.629   5.394
 5475SOL    HW217325   6.891   1.593   5.274
 5476SOL     OW17326   2.845   6.613   5.796
 5476SOL    HW117327   2.909   6.689   5.810
 5476SOL    HW217328   2.768   6.623   5.858
 5477SOL     OW17329   1.567   4.436   4.221
 5477SOL    HW117330   1.553   4.348   4.266
 5477SOL    HW217331   1.496   4.500   4.250
 5478SOL     OW17332   5.609   4.255   5.303
 5478SOL    HW117333   5.622   4.239   5.401
 5478SOL    HW217334   5.689   4.221   5.253
 5479SOL     OW17335   3.588   1.171   4.959
 5479SOL    HW117336   3.497   1.162   5.000
 5479SOL    HW217337   3.634   1.252   4.995
 5480SOL     OW17338   0.386   3.857   4.074
 5480SOL    HW117339   0.384   3.762   4.105
 5480SOL    HW217340   0.301   3.878   4.025
 5481SOL     OW17341   4.310   0.855   6.595
 5481SOL    HW117342   4.406   0.831   6.612
 5481SOL    HW217343   4.251   0.782   6.629
 5482SOL     OW17344   4.879   3.142   0.657
 5482SOL    HW117345   4.917   3.105   0.742
 5482SOL    HW217346   4.873   3.069   0.589
 5483SOL     OW17347   0.327   3.029   5.159
 5483SOL    HW117348   0.351   2.987   5.247
 5483SOL    HW217349   0.381   3.112   5.146
 5484SOL     OW17350   5.873   6.015   3.900
 5484SOL    HW117351   5.912   5.972   3.818
 5484SOL    HW217352   5.930   6.092   3.927
 5485SOL     OW17353   3.117   6.738   5.630
 5485SOL    HW117354   3.102   6.654   5.579
 5485SOL    HW217355   3.051   6.807   5.600
 5486SOL     OW17356   0.623   0.736   3.479
 5486SOL    HW117357   0.539   0.685   3.462
 5486SOL    HW217358   0.603   0.834   3.480
 5487SOL     OW17359   5.968   4.921   0.258
 5487SOL    HW117360   5.972   4.833   0.210
 5487SOL    HW217361   5.919   4.910   0.344
 5488SOL     OW17362   5.116   1.792   6.441
 5488SOL    HW117363   5.150   1.816   6.532
 5488SOL    HW217364   5.036   1.847   6.419
 5489SOL     OW17365   1.329   4.436   2.945
 5489SOL    HW117366   1.275   4.360   2.909
 5489SOL    HW217367   1.316   4.517   2.887
 5490SOL     OW17368   2.251   1.490   0.842
 5490SOL    HW117369   2.251   1.579   0.888
 5490SOL    HW217370   2.296   1.423   0.901
 5491SOL     OW17371   0.786   4.566   0.718
 5491SOL    HW117372   0.819   4.645   0.668
 5491SOL    HW217373   0.825   4.565   0.810
 5492SOL     OW17374   0.849   1.111   6.377
 5492SOL    HW117375   0.851   1.210   6.363
 5492SOL    HW217376   0.755   1.077   6.363
 5493SOL     OW17377   4.036   3.631   0.084
 5493SOL    HW117378   4.135   3.628   0.095
 5493SOL    HW217379   4.013   3.654   7.009
 5494SOL     OW17380   5.666   2.962   1.320
 5494SOL    HW117381   5.703   2.872   1.341
 5494SOL    HW217382   5.719   3.032   1.368
 5495SOL     OW17383   3.836   3.387   2.600
 5495SOL    HW117384   3.747   3.376   2.645
 5495SOL    HW217385   3.907   3.345   2.657
 5496SOL     OW17386   3.705   6.117   1.629
 5496SOL    HW117387   3.670   6.073   1.546
 5496SOL    HW217388   3.630   6.126   1.696
 5497SOL     OW17389   6.554   0.816   1.583
 5497SOL    HW117390   6.477   0.867   1.623
 5497SOL    HW217391   6.530   0.786   1.491
 5498SOL     OW17392   4.571   1.320   5.399
 5498SOL    HW117393   4.475   1.346   5.400
 5498SOL    HW217394   4.593   1.277   5.311
 5499SOL     OW17395   0.219   1.402   2.930
 5499SOL    HW117396   0.139   1.457   2.907
 5499SOL    HW217397   0.249   1.350   2.849
 5500SOL     OW17398   2.191   5.847   1.357
 5500SOL    HW117399   2.181   5.750   1.338
 5500SOL    HW217400   2.109   5.896   1.328
 5501SOL     OW17401   3.099   0.605   2.141
 5501SOL    HW117402   3.049   0.652   2.068
 5501SOL    HW217403   3.081   0.650   2.228
 5502SOL     OW17404   5.636   3.877   5.644
 5502SOL    HW117405   5.584   3.813   5.700
 5502SOL    HW217406   5.684   3.827   5.572
 5503SOL     OW17407   1.229   5.169   3.415
 5503SOL    HW117408   1.255   5.166   3.319
 5503SOL    HW217409   1.152   5.233   3.427
 5504SOL     OW17410   3.076   1.724   5.045
 5504SOL    HW117411   3.034   1.801   4.998
 5504SOL    HW217412   3.038   1.639   5.009
 5505SOL     OW17413   3.237   5.607   6.061
 5505SOL    HW117414   3.218   5.674   5.989
 5505SOL    HW217415   3.157   5.598   6.120
 5506SOL     OW17416   6.040   0.652   5.709
 5506SOL    HW117417   5.952   0.679   5.671
 5506SOL    HW217418   6.075   0.727   5.766
 5507SOL     OW17419   1.957   6.139   4.013
 5507SOL    HW117420   2.053   6.114   4.022
 5507SOL    HW217421   1.929   6.194   4.091
 5508SOL     OW17422   3.354   0.617   6.411
 5508SOL    HW117423   3.267   0.665   6.420
 5508SOL    HW217424   3.350   0.554   6.334
 5509SOL     OW17425   5.974   6.823   6.439
 5509SOL    HW117426   5.900   6.835   6.505
 5509SOL    HW217427   5.955   6.877   6.357
 5510SOL     OW17428   5.666   0.174   6.194
 5510SOL    HW117429   5.747   0.155   6.137
 5510SOL    HW217430   5.638   0.269   6.180
 5511SOL     OW17431   0.958   0.993   2.438
 5511SOL    HW117432   0.923   1.080   2.402
 5511SOL    HW217433   0.995   1.008   2.530
 5512SOL     OW17434   1.000   0.680   6.751
 5512SOL    HW117435   0.949   0.611   6.802
 5512SOL    HW217436   1.029   0.752   6.814
 5513SOL     OW17437   4.758   4.149   4.546
 5513SOL    HW117438   4.803   4.060   4.558
 5513SOL    HW217439   4.826   4.216   4.515
 5514SOL     OW17440   5.159   4.670   2.013
 5514SOL    HW117441   5.186   4.762   1.986
 5514SOL    HW217442   5.100   4.630   1.943
 5515SOL     OW17443   6.577   2.544   1.999
 5515SOL    HW117444   6.568   2.613   1.928
 5515SOL    HW217445   6.601   2.589   2.086
 5516SOL     OW17446   1.036   3.746   6.681
 5516SOL    HW117447   1.044   3.782   6.588
 5516SOL    HW217448   1.066   3.815   6.747
 5517SOL     OW17449   2.449   1.839   1.771
 5517SOL    HW117450   2.397   1.919   1.801
 5517SOL    HW217451   2.516   1.867   1.702
 5518SOL     OW17452   6.278   5.018   5.277
 5518SOL    HW117453   6.270   4.932   5.327
 5518SOL    HW217454   6.299   4.998   5.181
 5519SOL     OW17455   5.404   3.888   3.803
 5519SOL    HW117456   5.390   3.976   3.849
 5519SOL    HW217457   5.473   3.835   3.853
 5520SOL     OW17458   1.069   4.089   1.922
 5520SOL    HW117459   1.109   4.176   1.892
 5520SOL    HW217460   1.128   4.048   1.992
 5521SOL     OW17461   5.877   5.374   1.569
 5521SOL    HW117462   5.916   5.466   1.562
 5521SOL    HW217463   5.789   5.372   1.520
 5522SOL     OW17464   2.571   3.478   1.701
 5522SOL    HW117465   2.609   3.570   1.692
 5522SOL    HW217466   2.497   3.479   1.768
 5523SOL     OW17467   3.258   0.371   2.551
 5523SOL    HW117468   3.296   0.316   2.477
 5523SOL    HW217469   3.331   0.399   2.613
 5524SOL     OW17470   0.031   4.650   6.109
 5524SOL    HW117471   6.962   4.680   6.145
 5524SOL    HW217472   0.100   4.659   6.180
 5525SOL     OW17473   6.592   5.623   5.584
 5525SOL    HW117474   6.611   5.670   5.670
 5525SOL    HW217475   6.609   5.685   5.507
 5526SOL     OW17476   6.618   3.563   4.215
 5526SOL    HW117477   6.522   3.541   4.232
 5526SOL    HW217478   6.652   3.624   4.287
 5527SOL     OW17479   1.540   3.080   1.580
 5527SOL    HW117480   1.566   2.993   1.621
 5527SOL    HW217481   1.458   3.067   1.524
 5528SOL     OW17482   0.346   3.126   4.408
 5528SOL    HW117483   0.446   3.139   4.405
 5528SOL    HW217484   0.306   3.196   4.468
 5529SOL     OW17485   2.537   1.429   4.762
 5529SOL    HW117486   2.603   1.405   4.691
 5529SOL    HW217487   2.575   1.406   4.852
 5530SOL     OW17488   0.760   2.319   0.202
 5530SOL    HW117489   0.776   2.224   0.229
 5530SOL    HW217490   0.774   2.329   0.104
 5531SOL     OW17491   3.479   2.713   5.645
 5531SOL    HW117492   3.550   2.642   5.648
 5531SOL    HW217493   3.518   2.801   5.671
 5532SOL     OW17494   2.496   1.537   0.599
 5532SOL    HW117495   2.509   1.625   0.553
 5532SOL    HW217496   2.444   1.550   0.683
 5533SOL     OW17497   3.752   0.965   2.034
 5533SOL    HW117498   3.706   0.943   2.121
 5533SOL    HW217499   3.850   0.977   2.051
 5534SOL     OW17500   0.424   3.896   6.489
 5534SOL    HW117501   0.338   3.884   6.540
 5534SOL    HW217502   0.481   3.964   6.536
 5535SOL     OW17503   6.574   3.196   2.668
 5535SOL    HW117504   6.543   3.102   2.686
 5535SOL    HW217505   6.555   3.219   2.572
 5536SOL     OW17506   2.748   1.128   4.295
 5536SOL    HW117507   2.665   1.174   4.264
 5536SOL    HW217508   2.737   1.029   4.285
 5537SOL     OW17509   4.400   0.070   5.176
 5537SOL    HW117510   4.421   0.135   5.249
 5537SOL    HW217511   4.484   0.050   5.125
 5538SOL     OW17512   4.021   1.534   6.739
 5538SOL    HW117513   3.938   1.586   6.759
 5538SOL    HW217514   4.026   1.454   6.799
 5539SOL     OW17515   2.536   0.009   2.052
 5539SOL    HW117516   2.545   6.938   2.010
 5539SOL    HW217517   2.626   0.051   2.059
 5540SOL     OW17518   4.911   2.168   0.022
 5540SOL    HW117519   4.888   2.211   0.109
 5540SOL    HW217520   4.830   2.167   6.982
 5541SOL     OW17521   4.583   3.738   6.297
 5541SOL    HW117522   4.585   3.807   6.369
 5541SOL    HW217523   4.545   3.778   6.213
 5542SOL     OW17524   5.790   4.009   6.311
 5542SOL    HW117525   5.764   4.098   6.348
 5542SOL    HW217526   5.881   4.014   6.272
 5543SOL     OW17527   1.847   0.223   1.291
 5543SOL    HW117528   1.938   0.208   1.252
 5543SOL    HW217529   1.778   0.185   1.229
 5544SOL     OW17530   4.694   5.079   6.194
 5544SOL    HW117531   4.680   5.018   6.116
 5544SOL    HW217532   4.717   5.171   6.162
 5545SOL     OW17533   4.329   0.868   2.891
 5545SOL    HW117534   4.324   0.823   2.980
 5545SOL    HW217535   4.302   0.964   2.901
 5546SOL     OW17536   0.426   6.545   5.359
 5546SOL    HW117537   0.384   6.524   5.448
 5546SOL    HW217538   0.501   6.610   5.372
 5547SOL     OW17539   5.244   1.413   5.907
 5547SOL    HW117540   5.329   1.374   5.945
 5547SOL    HW217541   5.240   1.511   5.929
 5548SOL     OW17542   0.106   3.899   5.136
 5548SOL    HW117543   0.019   3.868   5.175
 5548SOL    HW217544   0.151   3.961   5.200
 5549SOL     OW17545   3.809   3.976   2.014
 5549SOL    HW117546   3.773   3.940   1.928
 5549SOL    HW217547   3.901   3.941   2.029
 5550SOL     OW17548   1.886   4.537   3.220
 5550SOL    HW117549   1.924   4.445   3.224
 5550SOL    HW217550   1.790   4.533   3.192
 5551SOL     OW17551   2.081   5.380   3.338
 5551SOL    HW117552   2.030   5.465   3.321
 5551SOL    HW217553   2.158   5.400   3.398
 5552SOL     OW17554   6.916   6.794   6.131
 5552SOL    HW117555   6.901   6.845   6.216
 5552SOL    HW217556   6.895   6.697   6.147
 5553SOL     OW17557   4.932   0.739   6.655
 5553SOL    HW117558   4.893   0.656   6.615
 5553SOL    HW217559   4.951   0.805   6.582
 5554SOL     OW17560   5.539   3.269   0.729
 5554SOL    HW117561   5.503   3.326   0.655
 5554SOL    HW217562   5.639   3.268   0.725
 5555SOL     OW17563   1.325   4.231   2.528
 5555SOL    HW117564   1.255   4.215   2.598
 5555SOL    HW217565   1.292   4.299   2.463
 5556SOL     OW17566   6.644   0.944   3.935
 5556SOL    HW117567   6.589   0.905   3.860
 5556SOL    HW217568   6.590   1.014   3.981
 5557SOL     OW17569   3.040   5.705   1.769
 5557SOL    HW117570   3.056   5.719   1.671
 5557SOL    HW217571   3.053   5.791   1.818
 5558SOL     OW17572   3.550   4.200   0.412
 5558SOL    HW117573   3.604   4.240   0.486
 5558SOL    HW217574   3.598   4.211   0.325
 5559SOL     OW17575   1.346   0.330   3.113
 5559SOL    HW117576   1.385   0.422   3.113
 5559SOL    HW217577   1.252   0.334   3.079
 5560SOL     OW17578   0.155   5.555   3.058
 5560SOL    HW117579   0.088   5.583   2.991
 5560SOL    HW217580   0.237   5.612   3.050
 5561SOL     OW17581   2.687   1.276   4.580
 5561SOL    HW117582   2.750   1.353   4.569
 5561SOL    HW217583   2.707   1.206   4.512
 5562SOL     OW17584   4.473   4.271   0.242
 5562SOL    HW117585   4.558   4.323   0.250
 5562SOL    HW217586   4.468   4.204   0.317
 5563SOL     OW17587   3.110   5.040   3.082
 5563SOL    HW117588   3.186   5.046   3.146
 5563SOL    HW217589   3.116   5.115   3.016
 5564SOL     OW17590   5.226   6.913   5.972
 5564SOL    HW117591   5.138   6.865   5.978
 5564SOL    HW217592   5.294   6.851   5.932
 5565SOL     OW17593   3.485   3.275   0.610
 5565SOL    HW117594   3.405   3.323   0.573
 5565SOL    HW217595   3.503   3.309   0.702
 5566SOL     OW17596   0.567   3.882   0.232
 5566SOL    HW117597   0.666   3.885   0.245
 5566SOL    HW217598   0.523   3.949   0.293
 5567SOL     OW17599   6.803   3.505   1.796
 5567SOL    HW117600   6.821   3.602   1.813
 5567SOL    HW217601   6.719   3.496   1.743
 5568SOL     OW17602   4.209   6.397   2.927
 5568SOL    HW117603   4.204   6.455   3.009
 5568SOL    HW217604   4.117   6.370   2.900
 5569SOL     OW17605   2.637   1.951   3.582
 5569SOL    HW117606   2.600   1.955   3.489
 5569SOL    HW217607   2.566   1.978   3.647
 5570SOL     OW17608   6.515   3.331   3.578
 5570SOL    HW117609   6.438   3.389   3.605
 5570SOL    HW217610   6.585   3.387   3.536
 5571SOL     OW17611   6.687   5.327   2.079
 5571SOL    HW117612   6.619   5.253   2.085
 5571SOL    HW217613   6.640   5.415   2.071
 5572SOL     OW17614   1.316   3.745   5.220
 5572SOL    HW117615   1.333   3.841   5.197
 5572SOL    HW217616   1.241   3.710   5.164
 5573SOL     OW17617   1.450   5.174   5.487
 5573SOL    HW117618   1.530   5.217   5.445
 5573SOL    HW217619   1.466   5.161   5.585
 5574SOL     OW17620   0.686   2.797   6.466
 5574SOL    HW117621   0.774   2.759   6.438
 5574SOL    HW217622   0.699   2.864   6.539
 5575SOL     OW17623   0.556   0.373   1.724
 5575SOL    HW117624   0.490   0.361   1.798
 5575SOL    HW217625   0.608   0.457   1.738
 5576SOL     OW17626   2.093   4.372   3.462
 5576SOL    HW117627   2.064   4.334   3.374
 5576SOL    HW217628   2.176   4.426   3.449
 5577SOL     OW17629   1.492   3.524   0.067
 5577SOL    HW117630   1.460   3.509   6.993
 5577SOL    HW217631   1.537   3.442   0.101
 5578SOL     OW17632   3.681   3.388   3.017
 5578SOL    HW117633   3.734   3.430   2.944
 5578SOL    HW217634   3.601   3.444   3.037
 5579SOL     OW17635   6.901   3.051   1.018
 5579SOL    HW117636   6.895   3.058   1.118
 5579SOL    HW217637   6.902   2.955   0.992
 5580SOL     OW17638   5.227   1.893   5.807
 5580SOL    HW117639   5.204   1.934   5.895
 5580SOL    HW217640   5.223   1.794   5.814
 5581SOL     OW17641   1.094   2.137   1.412
 5581SOL    HW117642   1.004   2.095   1.419
 5581SOL    HW217643   1.144   2.125   1.498
 5582SOL     OW17644   2.524   3.827   6.787
 5582SOL    HW117645   2.468   3.771   6.726
 5582SOL    HW217646   2.497   3.810   6.881
 5583SOL     OW17647   4.822   0.387   2.420
 5583SOL    HW117648   4.727   0.387   2.449
 5583SOL    HW217649   4.831   0.438   2.335
 5584SOL     OW17650   6.292   4.159   4.515
 5584SOL    HW117651   6.373   4.152   4.457
 5584SOL    HW217652   6.212   4.130   4.463
 5585SOL     OW17653   4.720   4.708   2.964
 5585SOL    HW117654   4.712   4.608   2.959
 5585SOL    HW217655   4.817   4.733   2.966
 5586SOL     OW17656   6.542   3.744   5.669
 5586SOL    HW117657   6.536   3.762   5.571
 5586SOL    HW217658   6.631   3.772   5.703
 5587SOL     OW17659   4.604   0.991   6.816
 5587SOL    HW117660   4.518   1.006   6.865
 5587SOL    HW217661   4.596   0.911   6.756
 5588SOL     OW17662   2.525   6.717   2.779
 5588SOL    HW117663   2.520   6.777   2.859
 5588SOL    HW217664   2.610   6.666   2.782
 5589SOL     OW17665   5.892   4.433   6.475
 5589SOL    HW117666   5.854   4.485   6.399
 5589SOL    HW217667   5.956   4.491   6.526
 5590SOL     OW17668   5.630   6.262   3.977
 5590SOL    HW117669   5.568   6.201   3.929
 5590SOL    HW217670   5.603   6.357   3.960
 5591SOL     OW17671   0.289   1.737   1.823
 5591SOL    HW117672   0.305   1.642   1.795
 5591SOL    HW217673   0.308   1.798   1.746
 5592SOL     OW17674   1.725   4.912   3.122
 5592SOL    HW117675   1.712   4.826   3.073
 5592SOL    HW217676   1.816   4.949   3.101
 5593SOL     OW17677   0.271   2.853   6.591
 5593SOL    HW117678   0.204   2.841   6.664
 5593SOL    HW217679   0.327   2.770   6.584
 5594SOL     OW17680   5.001   0.911   4.920
 5594SOL    HW117681   4.997   0.813   4.939
 5594SOL    HW217682   4.921   0.937   4.865
 5595SOL     OW17683   1.428   2.236   5.050
 5595SOL    HW117684   1.434   2.149   5.002
 5595SOL    HW217685   1.416   2.221   5.148
 5596SOL     OW17686   4.049   6.756   2.845
 5596SOL    HW117687   3.991   6.703   2.783
 5596SOL    HW217688   4.006   6.845   2.863
 5597SOL     OW17689   5.090   2.398   4.464
 5597SOL    HW117690   5.039   2.358   4.388
 5597SOL    HW217691   5.119   2.490   4.439
 5598SOL     OW17692   4.822   3.072   3.892
 5598SOL    HW117693   4.878   3.125   3.956
 5598SOL    HW217694   4.815   3.122   3.805
 5599SOL     OW17695   1.404   0.380   4.546
 5599SOL    HW117696   1.315   0.416   4.572
 5599SOL    HW217697   1.442   0.435   4.471
 5600SOL     OW17698   0.956   2.394   2.785
 5600SOL    HW117699   0.987   2.310   2.742
 5600SOL    HW217700   0.861   2.383   2.815
 5601SOL     OW17701   2.748   0.429   5.899
 5601SOL    HW117702   2.752   0.367   5.977
 5601SOL    HW217703   2.841   0.455   5.872
 5602SOL     OW17704   0.422   1.436   0.798
 5602SOL    HW117705   0.418   1.461   0.895
 5602SOL    HW217706   0.331   1.446   0.758
 5603SOL     OW17707   5.174   2.269   0.047
 5603SOL    HW117708   5.188   2.262   0.145
 5603SOL    HW217709   5.096   2.213   0.021
 5604SOL     OW17710   6.952   2.064   5.795
 5604SOL    HW117711   6.970   2.004   5.717
 5604SOL    HW217712   6.853   2.076   5.805
 5605SOL     OW17713   0.577   1.357   4.539
 5605SOL    HW117714   0.663   1.336   4.585
 5605SOL    HW217715   0.509   1.384   4.607
 5606SOL     OW17716   5.891   6.489   1.196
 5606SOL    HW117717   5.917   6.477   1.292
 5606SOL    HW217718   5.966   6.532   1.146
 5607SOL     OW17719   5.317   0.942   2.302
 5607SOL    HW117720   5.415   0.962   2.310
 5607SOL    HW217721   5.267   0.992   2.372
 5608SOL     OW17722   4.472   0.451   4.693
 5608SOL    HW117723   4.474   0.355   4.721
 5608SOL    HW217724   4.414   0.461   4.612
 5609SOL     OW17725   2.385   5.648   0.525
 5609SOL    HW117726   2.467   5.592   0.515
 5609SOL    HW217727   2.410   5.745   0.516
 5610SOL     OW17728   4.922   6.943   0.535
 5610SOL    HW117729   4.853   6.891   0.585
 5610SOL    HW217730   4.898   0.021   0.538
 5611SOL     OW17731   2.042   4.394   2.480
 5611SOL    HW117732   2.066   4.299   2.462
 5611SOL    HW217733   2.105   4.431   2.549
 5612SOL     OW17734   4.157   2.378   6.190
 5612SOL    HW117735   4.174   2.332   6.102
 5612SOL    HW217736   4.223   2.452   6.202
 5613SOL     OW17737   4.822   4.088   2.619
 5613SOL    HW117738   4.790   4.002   2.580
 5613SOL    HW217739   4.839   4.075   2.717
 5614SOL     OW17740   4.362   2.410   3.737
 5614SOL    HW117741   4.390   2.435   3.830
 5614SOL    HW217742   4.423   2.455   3.671
 5615SOL     OW17743   0.423   0.423   6.322
 5615SOL    HW117744   0.377   0.355   6.265
 5615SOL    HW217745   0.487   0.376   6.384
 5616SOL     OW17746   2.376   0.655   5.316
 5616SOL    HW117747   2.373   0.722   5.391
 5616SOL    HW217748   2.333   0.695   5.235
 5617SOL     OW17749   2.946   0.028   6.171
 5617SOL    HW117750   2.965   6.969   6.230
 5617SOL    HW217751   2.972   0.006   6.077
 5618SOL     OW17752   6.762   3.753   4.370
 5618SOL    HW117753   6.835   3.701   4.414
 5618SOL    HW217754   6.791   3.778   4.277
 5619SOL     OW17755   2.782   3.801   6.769
 5619SOL    HW117756   2.686   3.818   6.790
 5619SOL    HW217757   2.827   3.887   6.747
 5620SOL     OW17758   3.594   3.110   0.422
 5620SOL    HW117759   3.540   3.162   0.489
 5620SOL    HW217760   3.588   3.154   0.333
 5621SOL     OW17761   1.538   1.566   5.876
 5621SOL    HW117762   1.473   1.583   5.950
 5621SOL    HW217763   1.566   1.652   5.835
 5622SOL     OW17764   4.636   6.761   5.759
 5622SOL    HW117765   4.661   6.716   5.844
 5622SOL    HW217766   4.557   6.714   5.718
 5623SOL     OW17767   1.856   6.404   6.301
 5623SOL    HW117768   1.818   6.326   6.351
 5623SOL    HW217769   1.826   6.401   6.206
 5624SOL     OW17770   1.131   4.748   3.095
 5624SOL    HW117771   1.114   4.798   3.010
 5624SOL    HW217772   1.228   4.747   3.115
 5625SOL     OW17773   6.071   2.471   4.406
 5625SOL    HW117774   6.010   2.547   4.429
 5625SOL    HW217775   6.038   2.388   4.451
 5626SOL     OW17776   2.874   6.413   4.868
 5626SOL    HW117777   2.874   6.347   4.943
 5626SOL    HW217778   2.891   6.505   4.904
 5627SOL     OW17779   1.208   5.861   1.126
 5627SOL    HW117780   1.243   5.949   1.095
 5627SOL    HW217781   1.177   5.868   1.221
 5628SOL     OW17782   1.606   2.047   5.993
 5628SOL    HW117783   1.588   2.050   6.092
 5628SOL    HW217784   1.520   2.039   5.944
 5629SOL     OW17785   3.350   3.810   1.727
 5629SOL    HW117786   3.318   3.716   1.730
 5629SOL    HW217787   3.278   3.869   1.690
 5630SOL     OW17788   1.203   5.059   0.880
 5630SOL    HW117789   1.137   5.005   0.932
 5630SOL    HW217790   1.271   5.098   0.942
 5631SOL     OW17791   4.285   1.929   6.669
 5631SOL    HW117792   4.329   1.976   6.746
 5631SOL    HW217793   4.242   1.845   6.703
 5632SOL     OW17794   4.231   3.742   6.260
 5632SOL    HW117795   4.201   3.834   6.284
 5632SOL    HW217796   4.185   3.675   6.318
 5633SOL     OW17797   6.363   2.287   3.583
 5633SOL    HW117798   6.327   2.264   3.493
 5633SOL    HW217799   6.454   2.326   3.574
 5634SOL     OW17800   3.003   5.678   5.680
 5634SOL    HW117801   3.027   5.581   5.679
 5634SOL    HW217802   3.026   5.719   5.591
 5635SOL     OW17803   2.011   3.240   5.003
 5635SOL    HW117804   2.059   3.192   4.930
 5635SOL    HW217805   1.915   3.253   4.976
 5636SOL     OW17806   3.451   6.039   2.285
 5636SOL    HW117807   3.422   6.076   2.197
 5636SOL    HW217808   3.381   5.978   2.321
 5637SOL     OW17809   5.601   6.890   3.982
 5637SOL    HW117810   5.646   6.898   3.893
 5637SOL    HW217811   5.510   6.930   3.978
 5638SOL     OW17812   5.441   3.128   0.964
 5638SOL    HW117813   5.479   3.154   0.875
 5638SOL    HW217814   5.497   3.167   1.037
 5639SOL     OW17815   0.341   1.419   0.343
 5639SOL    HW117816   0.257   1.446   0.294
 5639SOL    HW217817   0.378   1.498   0.391
 5640SOL     OW17818   2.727   0.438   4.088
 5640SOL    HW117819   2.708   0.409   3.995
 5640SOL    HW217820   2.713   0.362   4.151
 5641SOL     OW17821   0.255   4.602   6.381
 5641SOL    HW117822   0.180   4.637   6.438
 5641SOL    HW217823   0.332   4.577   6.439
 5642SOL     OW17824   1.991   0.364   0.037
 5642SOL    HW117825   2.009   0.452   7.012
 5642SOL    HW217826   2.076   0.314   0.047
 5643SOL     OW17827   5.403   1.757   4.582
 5643SOL    HW117828   5.444   1.753   4.673
 5643SOL    HW217829   5.471   1.730   4.514
 5644SOL     OW17830   2.902   6.634   5.028
 5644SOL    HW117831   2.989   6.682   5.013
 5644SOL    HW217832   2.873   6.649   5.123
 5645SOL     OW17833   6.552   3.692   3.638
 5645SOL    HW117834   6.540   3.638   3.721
 5645SOL    HW217835   6.589   3.634   3.566
 5646SOL     OW17836   2.266   4.715   3.170
 5646SOL    HW117837   2.174   4.717   3.210
 5646SOL    HW217838   2.264   4.662   3.086
 5647SOL     OW17839   5.243   6.540   1.688
 5647SOL    HW117840   5.292   6.454   1.683
 5647SOL    HW217841   5.304   6.612   1.722
 5648SOL     OW17842   2.657   5.854   3.064
 5648SOL    HW117843   2.622   5.811   3.148
 5648SOL    HW217844   2.706   5.785   3.010
 5649SOL     OW17845   0.819   6.447   4.197
 5649SOL    HW117846   0.919   6.444   4.203
 5649SOL    HW217847   0.781   6.474   4.285
 5650SOL     OW17848   0.252   4.880   0.557
 5650SOL    HW117849   0.217   4.958   0.505
 5650SOL    HW217850   0.279   4.910   0.648
 5651SOL     OW17851   1.697   0.186   0.954
 5651SOL    HW117852   1.736   0.268   0.995
 5651SOL    HW217853   1.631   0.145   1.017
 5652SOL     OW17854   0.082   5.518   2.233
 5652SOL    HW117855   0.048   5.511   2.327
 5652SOL    HW217856   0.164   5.462   2.223
 5653SOL     OW17857   0.451   6.337   1.091
 5653SOL    HW117858   0.491   6.366   1.005
 5653SOL    HW217859   0.415   6.417   1.139
 5654SOL     OW17860   1.195   6.237   4.949
 5654SOL    HW117861   1.118   6.206   4.894
 5654SOL    HW217862   1.176   6.220   5.046
 5655SOL     OW17863   6.565   3.317   3.893
 5655SOL    HW117864   6.609   3.237   3.934
 5655SOL    HW217865   6.527   3.293   3.804
 5656SOL     OW17866   0.020   3.024   6.534
 5656SOL    HW117867   0.087   2.957   6.566
 5656SOL    HW217868   0.061   3.082   6.464
 5657SOL     OW17869   4.495   4.564   4.346
 5657SOL    HW117870   4.525   4.498   4.415
 5657SOL    HW217871   4.409   4.606   4.375
 5658SOL     OW17872   1.768   2.648   5.940
 5658SOL    HW117873   1.775   2.713   6.016
 5658SOL    HW217874   1.806   2.560   5.968
 5659SOL     OW17875   3.404   3.900   6.472
 5659SOL    HW117876   3.422   3.962   6.396
 5659SOL    HW217877   3.311   3.914   6.506
 5660SOL     OW17878   4.902   6.709   6.549
 5660SOL    HW117879   4.935   6.726   6.456
 5660SOL    HW217880   4.975   6.666   6.603
 5661SOL     OW17881   0.608   5.747   6.026
 5661SOL    HW117882   0.610   5.724   5.929
 5661SOL    HW217883   0.551   5.828   6.040
 5662SOL     OW17884   2.369   6.476   3.316
 5662SOL    HW117885   2.442   6.469   3.249
 5662SOL    HW217886   2.341   6.571   3.326
 5663SOL     OW17887   1.335   2.790   0.883
 5663SOL    HW117888   1.361   2.711   0.828
 5663SOL    HW217889   1.351   2.770   0.980
 5664SOL     OW17890   5.117   4.072   4.250
 5664SOL    HW117891   5.127   4.046   4.154
 5664SOL    HW217892   5.020   4.083   4.271
 5665SOL     OW17893   1.715   6.974   0.552
 5665SOL    HW117894   1.725   0.043   0.597
 5665SOL    HW217895   1.802   6.946   0.512
 5666SOL     OW17896   6.095   1.256   3.840
 5666SOL    HW117897   6.118   1.211   3.754
 5666SOL    HW217898   6.087   1.188   3.913
 5667SOL     OW17899   1.675   4.831   4.653
 5667SOL    HW117900   1.586   4.830   4.607
 5667SOL    HW217901   1.688   4.744   4.700
 5668SOL     OW17902   6.188   2.588   2.745
 5668SOL    HW117903   6.174   2.687   2.741
 5668SOL    HW217904   6.112   2.546   2.794
 5669SOL     OW17905   6.070   4.176   6.768
 5669SOL    HW117906   6.093   4.103   6.833
 5669SOL    HW217907   6.040   4.257   6.819
 5670SOL     OW17908   1.099   3.303   2.595
 5670SOL    HW117909   1.030   3.230   2.601
 5670SOL    HW217910   1.079   3.360   2.515
 5671SOL     OW17911   6.264   6.211   3.709
 5671SOL    HW117912   6.282   6.270   3.630
 5671SOL    HW217913   6.185   6.246   3.759
 5672SOL     OW17914   4.983   3.799   5.124
 5672SOL    HW117915   4.923   3.878   5.137
 5672SOL    HW217916   4.928   3.715   5.119
 5673SOL     OW17917   0.500   0.061   1.688
 5673SOL    HW117918   0.528   0.051   1.592
 5673SOL    HW217919   0.512   0.156   1.716
 5674SOL     OW17920   1.515   4.624   4.791
 5674SOL    HW117921   1.538   4.644   4.887
 5674SOL    HW217922   1.536   4.528   4.772
 5675SOL     OW17923   3.082   1.115   0.285
 5675SOL    HW117924   2.990   1.124   0.247
 5675SOL    HW217925   3.079   1.132   0.383
 5676SOL     OW17926   2.784   2.432   1.650
 5676SOL    HW117927   2.737   2.519   1.663
 5676SOL    HW217928   2.841   2.413   1.730
 5677SOL     OW17929   6.987   0.938   0.815
 5677SOL    HW117930   6.922   0.995   0.763
 5677SOL    HW217931   6.936   0.885   0.883
 5678SOL     OW17932   3.678   1.547   2.167
 5678SOL    HW117933   3.660   1.645   2.164
 5678SOL    HW217934   3.654   1.511   2.257
 5679SOL     OW17935   6.086   2.810   4.713
 5679SOL    HW117936   6.172   2.843   4.752
 5679SOL    HW217937   6.097   2.795   4.615
 5680SOL     OW17938   1.544   5.103   5.764
 5680SOL    HW117939   1.615   5.120   5.832
 5680SOL    HW217940   1.455   5.131   5.800
 5681SOL     OW17941   0.713   3.884   2.916
 5681SOL    HW117942   0.678   3.841   2.999
 5681SOL    HW217943   0.730   3.813   2.847
 5682SOL     OW17944   2.572   4.800   2.435
 5682SOL    HW117945   2.523   4.719   2.404
 5682SOL    HW217946   2.655   4.773   2.483
 5683SOL     OW17947   3.990   2.623   6.412
 5683SOL    HW117948   4.085   2.601   6.436
 5683SOL    HW217949   3.929   2.558   6.458
 5684SOL     OW17950   2.225   3.147   6.020
 5684SOL    HW117951   2.191   3.240   6.005
 5684SOL    HW217952   2.233   3.100   5.932
 5685SOL     OW17953   2.173   2.400   4.008
 5685SOL    HW117954   2.141   2.401   3.913
 5685SOL    HW217955   2.152   2.488   4.051
 5686SOL     OW17956   3.546   0.482   5.891
 5686SOL    HW117957   3.495   0.516   5.812
 5686SOL    HW217958   3.614   0.550   5.919
 5687SOL     OW17959   0.959   5.961   5.346
 5687SOL    HW117960   0.978   5.980   5.442
 5687SOL    HW217961   0.889   5.890   5.339
 5688SOL     OW17962   2.095   3.795   3.425
 5688SOL    HW117963   2.070   3.702   3.451
 5688SOL    HW217964   2.087   3.805   3.326
 5689SOL     OW17965   1.547   0.739   1.135
 5689SOL    HW117966   1.578   0.831   1.108
 5689SOL    HW217967   1.569   0.674   1.063
 5690SOL     OW17968   0.735   5.452   0.014
 5690SOL    HW117969   0.791   5.452   6.950
 5690SOL    HW217970   0.693   5.542   0.025
 5691SOL     OW17971   3.746   1.252   2.427
 5691SOL    HW117972   3.669   1.314   2.409
 5691SOL    HW217973   3.764   1.249   2.526
 5692SOL     OW17974   5.123   5.419   1.064
 5692SOL    HW117975   5.055   5.460   1.004
 5692SOL    HW217976   5.213   5.457   1.044
 5693SOL     OW17977   4.007   0.608   0.360
 5693SOL    HW117978   3.910   0.600   0.381
 5693SOL    HW217979   4.061   0.582   0.441
 5694SOL     OW17980   0.598   0.600   2.791
 5694SOL    HW117981   0.503   0.584   2.762
 5694SOL    HW217982   0.617   0.698   2.790
 5695SOL     OW17983   1.397   0.786   1.752
 5695SOL    HW117984   1.319   0.806   1.812
 5695SOL    HW217985   1.371   0.714   1.687
 5696SOL     OW17986   1.410   0.519   4.300
 5696SOL    HW117987   1.424   0.438   4.243
 5696SOL    HW217988   1.482   0.586   4.281
 5697SOL     OW17989   6.214   2.555   1.465
 5697SOL    HW117990   6.245   2.635   1.413
 5697SOL    HW217991   6.134   2.580   1.519
 5698SOL     OW17992   1.451   3.454   3.318
 5698SOL    HW117993   1.428   3.548   3.296
 5698SOL    HW217994   1.476   3.447   3.415
 5699SOL     OW17995   1.981   2.865   3.486
 5699SOL    HW117996   2.008   2.785   3.540
 5699SOL    HW217997   1.925   2.926   3.543
 5700SOL     OW17998   6.838   0.391   1.820
 5700SOL    HW117999   6.773   0.364   1.892
 5700SOL    HW218000   6.892   0.469   1.852
 5701SOL     OW18001   6.231   1.208   0.845
 5701SOL    HW118002   6.236   1.302   0.811
 5701SOL    HW218003   6.192   1.207   0.937
 5702SOL     OW18004   1.896   6.607   4.149
 5702SOL    HW118005   1.912   6.521   4.198
 5702SOL    HW218006   1.895   6.683   4.213
 5703SOL     OW18007   0.039   3.714   6.052
 5703SOL    HW118008   0.064   3.634   6.106
 5703SOL    HW218009   0.097   3.720   5.971
 5704SOL     OW18010   5.441   3.801   3.545
 5704SOL    HW118011   5.373   3.840   3.482
 5704SOL    HW218012   5.456   3.864   3.621
 5705SOL     OW18013   6.000   6.369   6.008
 5705SOL    HW118014   6.001   6.347   6.106
 5705SOL    HW218015   5.971   6.288   5.957
 5706SOL     OW18016   5.813   2.704   0.280
 5706SOL    HW118017   5.902   2.676   0.243
 5706SOL    HW218018   5.741   2.646   0.241
 5707SOL     OW18019   5.028   6.916   1.514
 5707SOL    HW118020   4.956   6.892   1.449
 5707SOL    HW218021   5.081   6.992   1.478
 5708SOL     OW18022   4.530   5.532   3.589
 5708SOL    HW118023   4.518   5.491   3.680
 5708SOL    HW218024   4.569   5.465   3.527
 5709SOL     OW18025   1.601   1.133   1.894
 5709SOL    HW118026   1.517   1.088   1.924
 5709SOL    HW218027   1.679   1.095   1.944
 5710SOL     OW18028   2.755   2.388   0.720
 5710SOL    HW118029   2.772   2.333   0.802
 5710SOL    HW218030   2.823   2.365   0.650
 5711SOL     OW18031   5.031   0.676   1.533
 5711SOL    HW118032   4.965   0.676   1.608
 5711SOL    HW218033   5.005   0.746   1.466
 5712SOL     OW18034   0.130   6.306   1.096
 5712SOL    HW118035   0.165   6.325   1.005
 5712SOL    HW218036   0.142   6.209   1.117
 5713SOL     OW18037   2.521   5.887   0.699
 5713SOL    HW118038   2.496   5.967   0.753
 5713SOL    HW218039   2.560   5.817   0.758
 5714SOL     OW18040   6.069   5.875   1.341
 5714SOL    HW118041   5.973   5.901   1.333
 5714SOL    HW218042   6.115   5.935   1.407
 5715SOL     OW18043   1.089   6.856   1.077
 5715SOL    HW118044   1.113   6.772   1.126
 5715SOL    HW218045   1.099   6.934   1.138
 5716SOL     OW18046   1.062   4.894   6.097
 5716SOL    HW118047   1.036   4.855   6.186
 5716SOL    HW218048   1.120   4.974   6.112
 5717SOL     OW18049   2.025   4.855   2.790
 5717SOL    HW118050   2.071   4.816   2.709
 5717SOL    HW218051   2.021   4.785   2.862
 5718SOL     OW18052   0.867   2.861   0.533
 5718SOL    HW118053   0.903   2.771   0.511
 5718SOL    HW218054   0.937   2.913   0.583
 5719SOL     OW18055   2.898   3.352   1.468
 5719SOL    HW118056   2.883   3.298   1.385
 5719SOL    HW218057   2.837   3.319   1.540
 5720SOL     OW18058   2.301   5.486   5.960
 5720SOL    HW118059   2.298   5.428   5.878
 5720SOL    HW218060   2.288   5.582   5.934
 5721SOL     OW18061   5.119   3.903   6.653
 5721SOL    HW118062   5.187   3.862   6.592
 5721SOL    HW218063   5.035   3.921   6.602
 5722SOL     OW18064   0.778   1.008   5.356
 5722SOL    HW118065   0.847   0.944   5.322
 5722SOL    HW218066   0.688   0.965   5.355
 5723SOL     OW18067   4.292   3.574   0.188
 5723SOL    HW118068   4.359   3.618   0.248
 5723SOL    HW218069   4.253   3.495   0.235
 5724SOL     OW18070   5.653   2.352   3.096
 5724SOL    HW118071   5.738   2.362   3.147
 5724SOL    HW218072   5.576   2.354   3.160
 5725SOL     OW18073   5.618   5.078   3.046
 5725SOL    HW118074   5.622   5.168   3.004
 5725SOL    HW218075   5.523   5.045   3.046
 5726SOL     OW18076   4.871   3.848   3.310
 5726SOL    HW118077   4.847   3.910   3.236
 5726SOL    HW218078   4.842   3.887   3.398
 5727SOL     OW18079   1.202   2.642   4.656
 5727SOL    HW118080   1.183   2.699   4.736
 5727SOL    HW218081   1.227   2.701   4.579
 5728SOL     OW18082   4.690   5.525   5.239
 5728SOL    HW118083   4.651   5.461   5.305
 5728SOL    HW218084   4.667   5.619   5.265
 5729SOL     OW18085   2.225   1.913   6.017
 5729SOL    HW118086   2.159   1.896   6.090
 5729SOL    HW218087   2.214   2.006   5.983
 5730SOL     OW18088   6.955   4.271   5.837
 5730SOL    HW118089   7.000   4.302   5.921
 5730SOL    HW218090   7.001   4.310   5.758
 5731SOL     OW18091   0.252   6.173   1.532
 5731SOL    HW118092   0.344   6.150   1.501
 5731SOL    HW218093   0.237   6.271   1.523
 5732SOL     OW18094   1.066   6.457   4.434
 5732SOL    HW118095   1.138   6.510   4.389
 5732SOL    HW218096   1.059   6.367   4.391
 5733SOL     OW18097   3.581   0.032   5.084
 5733SOL    HW118098   3.482   0.030   5.067
 5733SOL    HW218099   3.630   0.032   4.997
 5734SOL     OW18100   1.414   5.993   3.525
 5734SOL    HW118101   1.370   6.048   3.596
 5734SOL    HW218102   1.472   6.053   3.469
 5735SOL     OW18103   3.262   1.038   1.738
 5735SOL    HW118104   3.232   1.128   1.706
 5735SOL    HW218105   3.264   0.974   1.662
 5736SOL     OW18106   1.194   5.620   6.664
 5736SOL    HW118107   1.293   5.626   6.667
 5736SOL    HW218108   1.167   5.526   6.641
 5737SOL     OW18109   4.793   4.760   6.546
 5737SOL    HW118110   4.717   4.700   6.523
 5737SOL    HW218111   4.780   4.795   6.639
 5738SOL     OW18112   1.383   3.452   6.862
 5738SOL    HW118113   1.301   3.509   6.872
 5738SOL    HW218114   1.369   3.366   6.911
 5739SOL     OW18115   1.495   1.131   0.891
 5739SOL    HW118116   1.438   1.198   0.938
 5739SOL    HW218117   1.439   1.077   0.828
 5740SOL     OW18118   3.906   5.739   6.366
 5740SOL    HW118119   3.839   5.678   6.323
 5740SOL    HW218120   3.958   5.786   6.295
 5741SOL     OW18121   6.934   5.704   4.780
 5741SOL    HW118122   6.996   5.638   4.822
 5741SOL    HW218123   6.953   5.795   4.815
 5742SOL     OW18124   6.643   6.725   2.923
 5742SOL    HW118125   6.668   6.645   2.978
 5742SOL    HW218126   6.544   6.737   2.924
 5743SOL     OW18127   1.987   6.580   4.787
 5743SOL    HW118128   2.013   6.489   4.820
 5743SOL    HW218129   1.918   6.618   4.847
 5744SOL     OW18130   5.384   0.503   0.054
 5744SOL    HW118131   5.361   0.600   0.063
 5744SOL    HW218132   5.477   0.488   0.085
 5745SOL     OW18133   1.969   2.319   5.006
 5745SOL    HW118134   2.037   2.388   5.033
 5745SOL    HW218135   1.879   2.346   5.040
 5746SOL     OW18136   4.446   2.143   6.543
 5746SOL    HW118137   4.372   2.088   6.582
 5746SOL    HW218138   4.532   2.120   6.587
 5747SOL     OW18139   0.783   5.534   3.267
 5747SOL    HW118140   0.860   5.523   3.205
 5747SOL    HW218141   0.724   5.608   3.235
 5748SOL     OW18142   2.043   6.226   2.351
 5748SOL    HW118143   1.987   6.222   2.434
 5748SOL    HW218144   2.032   6.141   2.299
 5749SOL     OW18145   2.119   2.493   3.123
 5749SOL    HW118146   2.171   2.577   3.116
 5749SOL    HW218147   2.042   2.496   3.059
 5750SOL     OW18148   6.206   5.405   3.123
 5750SOL    HW118149   6.179   5.424   3.218
 5750SOL    HW218150   6.299   5.438   3.108
 5751SOL     OW18151   2.324   3.548   5.513
 5751SOL    HW118152   2.258   3.516   5.581
 5751SOL    HW218153   2.356   3.471   5.458
 5752SOL     OW18154   6.960   6.869   6.404
 5752SOL    HW118155   0.039   6.853   6.401
 5752SOL    HW218156   6.928   6.866   6.499
 5753SOL     OW18157   3.673   2.607   0.339
 5753SOL    HW118158   3.661   2.637   0.244
 5753SOL    HW218159   3.625   2.670   0.400
 5754SOL     OW18160   6.404   4.949   1.659
 5754SOL    HW118161   6.489   4.943   1.606
 5754SOL    HW218162   6.404   4.878   1.729
 5755SOL     OW18163   2.962   4.411   0.118
 5755SOL    HW118164   3.050   4.432   0.161
 5755SOL    HW218165   2.971   4.416   0.019
 5756SOL     OW18166   6.698   5.124   3.869
 5756SOL    HW118167   6.770   5.133   3.938
 5756SOL    HW218168   6.631   5.056   3.900
 5757SOL     OW18169   6.808   5.331   0.470
 5757SOL    HW118170   6.761   5.284   0.396
 5757SOL    HW218171   6.756   5.412   0.496
 5758SOL     OW18172   1.872   2.891   5.596
 5758SOL    HW118173   1.934   2.849   5.530
 5758SOL    HW218174   1.792   2.832   5.610
 5759SOL     OW18175   5.346   1.520   6.224
 5759SOL    HW118176   5.370   1.551   6.316
 5759SOL    HW218177   5.427   1.481   6.180
 5760SOL     OW18178   1.403   5.574   2.247
 5760SOL    HW118179   1.462   5.627   2.186
 5760SOL    HW218180   1.455   5.496   2.283
 5761SOL     OW18181   4.502   0.197   4.529
 5761SOL    HW118182   4.481   0.181   4.626
 5761SOL    HW218183   4.600   0.217   4.520
 5762SOL     OW18184   5.663   6.511   1.692
 5762SOL    HW118185   5.625   6.547   1.606
 5762SOL    HW218186   5.589   6.477   1.750
 5763SOL     OW18187   1.370   0.523   1.382
 5763SOL    HW118188   1.337   0.611   1.347
 5763SOL    HW218189   1.429   0.480   1.314
 5764SOL     OW18190   5.161   3.987   5.698
 5764SOL    HW118191   5.235   3.943   5.750
 5764SOL    HW218192   5.126   3.922   5.630
 5765SOL     OW18193   5.632   4.194   6.744
 5765SOL    HW118194   5.542   4.168   6.779
 5765SOL    HW218195   5.695   4.117   6.752
 5766SOL     OW18196   2.882   2.258   2.635
 5766SOL    HW118197   2.867   2.230   2.540
 5766SOL    HW218198   2.980   2.258   2.655
 5767SOL     OW18199   0.079   6.958   1.362
 5767SOL    HW118200   0.146   6.998   1.299
 5767SOL    HW218201   0.110   6.867   1.390
 5768SOL     OW18202   6.695   1.725   2.349
 5768SOL    HW118203   6.730   1.666   2.421
 5768SOL    HW218204   6.631   1.791   2.388
 5769SOL     OW18205   2.197   6.030   4.329
 5769SOL    HW118206   2.173   6.078   4.413
 5769SOL    HW218207   2.220   5.935   4.350
 5770SOL     OW18208   6.380   0.579   1.541
 5770SOL    HW118209   6.464   0.632   1.534
 5770SOL    HW218210   6.357   0.541   1.451
 5771SOL     OW18211   1.558   1.597   1.034
 5771SOL    HW118212   1.545   1.586   0.936
 5771SOL    HW218213   1.612   1.520   1.069
 5772SOL     OW18214   5.298   3.471   0.166
 5772SOL    HW118215   5.220   3.428   0.120
 5772SOL    HW218216   5.330   3.412   0.240
 5773SOL     OW18217   5.297   5.445   4.629
 5773SOL    HW118218   5.200   5.428   4.650
 5773SOL    HW218219   5.307   5.464   4.531
 5774SOL     OW18220   1.862   5.356   3.869
 5774SOL    HW118221   1.856   5.282   3.802
 5774SOL    HW218222   1.953   5.396   3.867
 5775SOL     OW18223   0.643   6.362   6.051
 5775SOL    HW118224   0.691   6.320   5.974
 5775SOL    HW218225   0.709   6.401   6.115
 5776SOL     OW18226   4.864   0.198   5.974
 5776SOL    HW118227   4.812   0.270   6.020
 5776SOL    HW218228   4.897   0.132   6.041
 5777SOL     OW18229   0.044   0.840   4.285
 5777SOL    HW118230   0.108   0.907   4.246
 5777SOL    HW218231   6.989   0.889   4.331
 5778SOL     OW18232   1.445   6.952   3.605
 5778SOL    HW118233   1.421   6.878   3.668
 5778SOL    HW218234   1.525   7.001   3.640
 5779SOL     OW18235   4.187   0.961   2.125
 5779SOL    HW118236   4.227   1.034   2.071
 5779SOL    HW218237   4.145   1.000   2.208
 5780SOL     OW18238   6.334   3.892   1.895
 5780SOL    HW118239   6.273   3.876   1.818
 5780SOL    HW218240   6.365   3.805   1.933
 5781SOL     OW18241   1.622   5.091   4.895
 5781SOL    HW118242   1.631   5.018   4.963
 5781SOL    HW218243   1.526   5.103   4.871
 5782SOL     OW18244   3.063   1.625   2.569
 5782SOL    HW118245   3.003   1.701   2.594
 5782SOL    HW218246   3.017   1.567   2.501
 5783SOL     OW18247   1.405   0.080   1.421
 5783SOL    HW118248   1.422   0.096   1.518
 5783SOL    HW218249   1.462   0.004   1.389
 5784SOL     OW18250   1.597   6.267   0.451
 5784SOL    HW118251   1.590   6.182   0.504
 5784SOL    HW218252   1.550   6.341   0.500
 5785SOL     OW18253   1.919   1.832   0.116
 5785SOL    HW118254   1.971   1.846   0.032
 5785SOL    HW218255   1.858   1.754   0.104
 5786SOL     OW18256   1.237   3.523   1.762
 5786SOL    HW118257   1.198   3.533   1.854
 5786SOL    HW218258   1.191   3.450   1.713
 5787SOL     OW18259   6.520   3.038   5.018
 5787SOL    HW118260   6.469   3.012   4.936
 5787SOL    HW218261   6.618   3.038   4.998
 5788SOL     OW18262   2.704   1.316   2.228
 5788SOL    HW118263   2.714   1.401   2.176
 5788SOL    HW218264   2.754   1.243   2.183
 5789SOL     OW18265   4.060   4.042   6.457
 5789SOL    HW118266   3.978   3.988   6.477
 5789SOL    HW218267   4.082   4.034   6.359
 5790SOL     OW18268   5.718   5.318   4.321
 5790SOL    HW118269   5.685   5.352   4.409
 5790SOL    HW218270   5.663   5.238   4.294
 5791SOL     OW18271   3.990   1.385   2.791
 5791SOL    HW118272   4.076   1.398   2.743
 5791SOL    HW218273   3.991   1.434   2.878
 5792SOL     OW18274   4.864   3.092   2.740
 5792SOL    HW118275   4.846   3.184   2.773
 5792SOL    HW218276   4.884   3.094   2.642
 5793SOL     OW18277   4.903   2.079   5.755
 5793SOL    HW118278   4.810   2.045   5.772
 5793SOL    HW218279   4.902   2.137   5.674
 5794SOL     OW18280   4.259   0.769   6.918
 5794SOL    HW118281   4.268   0.672   6.896
 5794SOL    HW218282   4.166   0.788   6.949
 5795SOL     OW18283   1.968   5.700   1.766
 5795SOL    HW118284   1.874   5.695   1.801
 5795SOL    HW218285   1.968   5.747   1.678
 5796SOL     OW18286   4.618   2.550   6.367
 5796SOL    HW118287   4.619   2.497   6.451
 5796SOL    HW218288   4.665   2.637   6.382
 5797SOL     OW18289   4.883   2.807   0.821
 5797SOL    HW118290   4.966   2.860   0.837
 5797SOL    HW218291   4.805   2.854   0.863
 5798SOL     OW18292   1.678   3.901   5.662
 5798SOL    HW118293   1.691   3.886   5.564
 5798SOL    HW218294   1.756   3.951   5.699
 5799SOL     OW18295   2.242   6.783   3.491
 5799SOL    HW118296   2.253   6.709   3.557
 5799SOL    HW218297   2.206   6.747   3.405
 5800SOL     OW18298   0.906   0.185   1.080
 5800SOL    HW118299   0.924   0.264   1.139
 5800SOL    HW218300   0.822   0.139   1.111
 5801SOL     OW18301   2.196   1.944   2.809
 5801SOL    HW118302   2.295   1.950   2.798
 5801SOL    HW218303   2.153   1.949   2.719
 5802SOL     OW18304   0.403   1.364   1.814
 5802SOL    HW118305   0.307   1.365   1.842
 5802SOL    HW218306   0.455   1.306   1.877
 5803SOL     OW18307   0.300   5.181   4.175
 5803SOL    HW118308   0.374   5.141   4.121
 5803SOL    HW218309   0.248   5.108   4.220
 5804SOL     OW18310   5.757   1.617   3.841
 5804SOL    HW118311   5.773   1.665   3.755
 5804SOL    HW218312   5.840   1.568   3.868
 5805SOL     OW18313   2.240   2.634   1.937
 5805SOL    HW118314   2.146   2.660   1.961
 5805SOL    HW218315   2.265   2.551   1.987
 5806SOL     OW18316   0.353   4.028   2.175
 5806SOL    HW118317   0.369   4.089   2.252
 5806SOL    HW218318   0.407   3.945   2.187
 5807SOL     OW18319   0.820   0.157   0.808
 5807SOL    HW118320   0.846   0.168   0.904
 5807SOL    HW218321   0.722   0.139   0.802
 5808SOL     OW18322   6.601   6.783   5.524
 5808SOL    HW118323   6.657   6.837   5.587
 5808SOL    HW218324   6.642   6.693   5.510
 5809SOL     OW18325   0.386   2.383   5.346
 5809SOL    HW118326   0.459   2.341   5.293
 5809SOL    HW218327   0.387   2.347   5.439
 5810SOL     OW18328   3.771   6.825   5.690
 5810SOL    HW118329   3.867   6.805   5.670
 5810SOL    HW218330   3.761   6.924   5.706
 5811SOL     OW18331   3.059   3.742   5.986
 5811SOL    HW118332   3.042   3.798   5.905
 5811SOL    HW218333   2.973   3.723   6.033
 5812SOL     OW18334   5.474   2.787   0.334
 5812SOL    HW118335   5.431   2.697   0.323
 5812SOL    HW218336   5.433   2.833   0.413
 5813SOL     OW18337   5.112   6.598   0.864
 5813SOL    HW118338   5.103   6.687   0.820
 5813SOL    HW218339   5.038   6.538   0.833
 5814SOL     OW18340   4.801   2.045   1.499
 5814SOL    HW118341   4.883   2.092   1.466
 5814SOL    HW218342   4.761   1.991   1.424
 5815SOL     OW18343   6.104   1.346   4.405
 5815SOL    HW118344   6.046   1.398   4.342
 5815SOL    HW218345   6.102   1.249   4.381
 5816SOL     OW18346   0.908   3.822   2.441
 5816SOL    HW118347   0.849   3.862   2.511
 5816SOL    HW218348   1.003   3.848   2.459
 5817SOL     OW18349   6.407   3.521   3.041
 5817SOL    HW118350   6.381   3.444   3.100
 5817SOL    HW218351   6.443   3.486   2.955
 5818SOL     OW18352   2.212   6.744   5.446
 5818SOL    HW118353   2.171   6.743   5.537
 5818SOL    HW218354   2.186   6.829   5.399
 5819SOL     OW18355   4.530   5.104   0.311
 5819SOL    HW118356   4.629   5.110   0.319
 5819SOL    HW218357   4.501   5.138   0.221
 5820SOL     OW18358   5.701   5.654   2.338
 5820SOL    HW118359   5.716   5.587   2.264
 5820SOL    HW218360   5.610   5.643   2.375
 5821SOL     OW18361   6.718   0.097   0.696
 5821SOL    HW118362   6.759   0.094   0.787
 5821SOL    HW218363   6.625   0.135   0.703
 5822SOL     OW18364   1.901   3.294   2.632
 5822SOL    HW118365   1.947   3.240   2.702
 5822SOL    HW218366   1.804   3.271   2.631
 5823SOL     OW18367   2.128   5.444   4.006
 5823SOL    HW118368   2.129   5.450   4.105
 5823SOL    HW218369   2.149   5.350   3.978
 5824SOL     OW18370   1.067   0.180   1.958
 5824SOL    HW118371   0.989   0.153   2.015
 5824SOL    HW218372   1.141   0.213   2.017
 5825SOL     OW18373   6.097   0.286   4.263
 5825SOL    HW118374   6.038   0.308   4.185
 5825SOL    HW218375   6.193   0.293   4.236
 5826SOL     OW18376   0.182   0.248   4.812
 5826SOL    HW118377   0.204   0.337   4.851
 5826SOL    HW218378   0.261   0.214   4.761
 5827SOL     OW18379   2.375   4.411   4.806
 5827SOL    HW118380   2.401   4.402   4.710
 5827SOL    HW218381   2.313   4.337   4.831
 5828SOL     OW18382   3.983   6.818   4.554
 5828SOL    HW118383   3.927   6.736   4.562
 5828SOL    HW218384   4.041   6.810   4.473
 5829SOL     OW18385   2.233   1.226   4.189
 5829SOL    HW118386   2.179   1.306   4.212
 5829SOL    HW218387   2.195   1.183   4.107
 5830SOL     OW18388   3.315   5.560   4.787
 5830SOL    HW118389   3.298   5.601   4.877
 5830SOL    HW218390   3.240   5.500   4.762
 5831SOL     OW18391   1.596   2.640   5.369
 5831SOL    HW118392   1.644   2.680   5.291
 5831SOL    HW218393   1.500   2.628   5.347
 5832SOL     OW18394   2.803   5.082   1.366
 5832SOL    HW118395   2.798   5.146   1.443
 5832SOL    HW218396   2.711   5.067   1.330
 5833SOL     OW18397   3.411   4.082   6.272
 5833SOL    HW118398   3.339   4.053   6.209
 5833SOL    HW218399   3.495   4.100   6.221
 5834SOL     OW18400   5.460   3.023   6.253
 5834SOL    HW118401   5.500   3.056   6.339
 5834SOL    HW218402   5.443   2.925   6.260
 5835SOL     OW18403   5.194   1.419   2.241
 5835SOL    HW118404   5.288   1.386   2.251
 5835SOL    HW218405   5.141   1.355   2.185
 5836SOL     OW18406   4.911   6.663   3.190
 5836SOL    HW118407   4.894   6.653   3.092
 5836SOL    HW218408   4.834   6.626   3.241
 5837SOL     OW18409   3.385   4.749   0.320
 5837SOL    HW118410   3.394   4.797   0.232
 5837SOL    HW218411   3.332   4.806   0.383
 5838SOL     OW18412   3.169   1.997   0.968
 5838SOL    HW118413   3.081   1.955   0.993
 5838SOL    HW218414   3.219   1.936   0.908
 5839SOL     OW18415   2.317   1.753   1.219
 5839SOL    HW118416   2.359   1.794   1.301
 5839SOL    HW218417   2.329   1.654   1.222
 5840SOL     OW18418   1.214   3.304   3.197
 5840SOL    HW118419   1.119   3.311   3.226
 5840SOL    HW218420   1.269   3.369   3.250
 5841SOL     OW18421   5.117   2.752   0.317
 5841SOL    HW118422   5.163   2.793   0.396
 5841SOL    HW218423   5.043   2.811   0.287
 5842SOL     OW18424   2.443   1.744   0.875
 5842SOL    HW118425   2.408   1.772   0.964
 5842SOL    HW218426   2.408   1.806   0.804
 5843SOL     OW18427   1.882   3.518   1.390
 5843SOL    HW118428   1.908   3.435   1.339
 5843SOL    HW218429   1.823   3.575   1.333
 5844SOL     OW18430   0.494   0.144   5.326
 5844SOL    HW118431   0.406   0.136   5.373
 5844SOL    HW218432   0.568   0.118   5.388
 5845SOL     OW18433   1.144   6.825   1.888
 5845SOL    HW118434   1.226   6.777   1.920
 5845SOL    HW218435   1.078   6.832   1.963
 5846SOL     OW18436   6.796   3.960   5.611
 5846SOL    HW118437   6.872   3.913   5.654
 5846SOL    HW218438   6.743   4.009   5.680
 5847SOL     OW18439   2.612   3.920   0.684
 5847SOL    HW118440   2.522   3.885   0.659
 5847SOL    HW218441   2.629   4.005   0.634
 5848SOL     OW18442   1.841   5.091   2.169
 5848SOL    HW118443   1.853   5.153   2.247
 5848SOL    HW218444   1.887   5.004   2.188
 5849SOL     OW18445   3.472   5.911   5.344
 5849SOL    HW118446   3.384   5.923   5.298
 5849SOL    HW218447   3.458   5.864   5.432
 5850SOL     OW18448   1.166   1.520   2.192
 5850SOL    HW118449   1.076   1.561   2.203
 5850SOL    HW218450   1.229   1.561   2.259
 5851SOL     OW18451   6.001   4.048   4.566
 5851SOL    HW118452   5.912   4.005   4.578
 5851SOL    HW218453   6.015   4.069   4.469
 5852SOL     OW18454   4.712   4.247   2.436
 5852SOL    HW118455   4.738   4.179   2.505
 5852SOL    HW218456   4.618   4.277   2.451
 5853SOL     OW18457   3.485   4.895   5.600
 5853SOL    HW118458   3.512   4.818   5.657
 5853SOL    HW218459   3.495   4.869   5.504
 5854SOL     OW18460   2.844   4.472   5.696
 5854SOL    HW118461   2.933   4.477   5.739
 5854SOL    HW218462   2.855   4.474   5.596
 5855SOL     OW18463   2.023   3.531   3.578
 5855SOL    HW118464   1.931   3.501   3.553
 5855SOL    HW218465   2.038   3.515   3.676
 5856SOL     OW18466   1.607   6.625   3.317
 5856SOL    HW118467   1.552   6.706   3.336
 5856SOL    HW218468   1.698   6.652   3.287
 5857SOL     OW18469   6.759   4.113   6.276
 5857SOL    HW118470   6.714   4.164   6.203
 5857SOL    HW218471   6.833   4.058   6.237
 5858SOL     OW18472   1.725   0.644   3.734
 5858SOL    HW118473   1.738   0.726   3.678
 5858SOL    HW218474   1.628   0.632   3.754
 5859SOL     OW18475   5.898   0.518   1.717
 5859SOL    HW118476   5.942   0.446   1.663
 5859SOL    HW218477   5.853   0.583   1.656
 5860SOL     OW18478   0.360   4.269   3.352
 5860SOL    HW118479   0.365   4.294   3.449
 5860SOL    HW218480   0.310   4.182   3.343
 5861SOL     OW18481   5.428   0.978   5.971
 5861SOL    HW118482   5.468   0.931   5.892
 5861SOL    HW218483   5.330   0.959   5.976
 5862SOL     OW18484   0.127   5.694   2.531
 5862SOL    HW118485   0.061   5.730   2.465
 5862SOL    HW218486   0.217   5.732   2.513
 5863SOL     OW18487   3.918   0.520   5.536
 5863SOL    HW118488   3.936   0.509   5.438
 5863SOL    HW218489   3.837   0.467   5.561
 5864SOL     OW18490   3.319   4.099   2.540
 5864SOL    HW118491   3.391   4.050   2.590
 5864SOL    HW218492   3.352   4.125   2.450
 5865SOL     OW18493   6.058   1.006   5.821
 5865SOL    HW118494   6.050   0.914   5.858
 5865SOL    HW218495   6.151   1.039   5.833
 5866SOL     OW18496   3.410   2.879   3.428
 5866SOL    HW118497   3.390   2.975   3.445
 5866SOL    HW218498   3.375   2.854   3.337
 5867SOL     OW18499   3.660   1.854   2.163
 5867SOL    HW118500   3.652   1.819   2.256
 5867SOL    HW218501   3.704   1.944   2.165
 5868SOL     OW18502   1.690   1.352   5.763
 5868SOL    HW118503   1.674   1.433   5.819
 5868SOL    HW218504   1.670   1.270   5.817
 5869SOL     OW18505   0.295   5.966   3.949
 5869SOL    HW118506   0.267   5.930   4.038
 5869SOL    HW218507   0.232   5.932   3.878
 5870SOL     OW18508   4.257   4.748   4.371
 5870SOL    HW118509   4.306   4.825   4.413
 5870SOL    HW218510   4.180   4.722   4.429
 5871SOL     OW18511   3.187   3.588   4.124
 5871SOL    HW118512   3.136   3.666   4.086
 5871SOL    HW218513   3.234   3.617   4.207
 5872SOL     OW18514   4.307   5.759   2.055
 5872SOL    HW118515   4.368   5.788   2.129
 5872SOL    HW218516   4.333   5.805   1.970
 5873SOL     OW18517   3.647   5.239   1.990
 5873SOL    HW118518   3.564   5.205   1.946
 5873SOL    HW218519   3.717   5.168   1.989
 5874SOL     OW18520   3.232   4.454   5.654
 5874SOL    HW118521   3.148   4.474   5.603
 5874SOL    HW218522   3.210   4.445   5.752
 5875SOL     OW18523   2.813   1.011   0.573
 5875SOL    HW118524   2.906   1.043   0.558
 5875SOL    HW218525   2.815   0.922   0.619
 5876SOL     OW18526   3.706   3.246   1.788
 5876SOL    HW118527   3.688   3.305   1.710
 5876SOL    HW218528   3.761   3.294   1.856
 5877SOL     OW18529   5.702   4.540   6.985
 5877SOL    HW118530   5.762   4.601   6.934
 5877SOL    HW218531   5.612   4.537   6.942
 5878SOL     OW18532   2.232   4.214   2.416
 5878SOL    HW118533   2.273   4.288   2.468
 5878SOL    HW218534   2.275   4.208   2.326
 5879SOL     OW18535   0.058   3.840   5.578
 5879SOL    HW118536   0.081   3.933   5.608
 5879SOL    HW218537   0.043   3.840   5.479
 5880SOL     OW18538   1.784   6.040   0.908
 5880SOL    HW118539   1.837   5.961   0.939
 5880SOL    HW218540   1.840   6.096   0.847
 5881SOL     OW18541   0.169   5.450   4.207
 5881SOL    HW118542   0.160   5.505   4.125
 5881SOL    HW218543   0.185   5.354   4.182
 5882SOL     OW18544   4.825   1.100   1.440
 5882SOL    HW118545   4.792   1.012   1.407
 5882SOL    HW218546   4.791   1.172   1.379
 5883SOL     OW18547   0.249   3.447   5.892
 5883SOL    HW118548   0.311   3.482   5.962
 5883SOL    HW218549   0.198   3.523   5.851
 5884SOL     OW18550   1.067   1.524   2.892
 5884SOL    HW118551   1.144   1.579   2.925
 5884SOL    HW218552   1.100   1.457   2.826
 5885SOL     OW18553   6.464   6.376   1.199
 5885SOL    HW118554   6.529   6.448   1.224
 5885SOL    HW218555   6.513   6.295   1.168
 5886SOL     OW18556   1.319   1.576   6.036
 5886SOL    HW118557   1.275   1.538   6.118
 5886SOL    HW218558   1.292   1.521   5.956
 5887SOL     OW18559   3.694   0.041   4.367
 5887SOL    HW118560   3.770   0.044   4.302
 5887SOL    HW218561   3.718   0.090   4.450
 5888SOL     OW18562   2.244   0.333   3.791
 5888SOL    HW118563   2.178   0.259   3.777
 5888SOL    HW218564   2.337   0.298   3.778
 5889SOL     OW18565   2.756   1.034   1.172
 5889SOL    HW118566   2.789   1.005   1.262
 5889SOL    HW218567   2.659   1.013   1.163
 5890SOL     OW18568   3.039   5.228   6.054
 5890SOL    HW118569   2.990   5.147   6.020
 5890SOL    HW218570   3.029   5.234   6.153
 5891SOL     OW18571   3.252   3.668   0.126
 5891SOL    HW118572   3.300   3.742   0.173
 5891SOL    HW218573   3.171   3.705   0.079
 5892SOL     OW18574   0.671   0.061   1.467
 5892SOL    HW118575   0.656   0.036   1.371
 5892SOL    HW218576   0.758   0.108   1.476
 5893SOL     OW18577   1.486   1.433   4.096
 5893SOL    HW118578   1.418   1.433   4.023
 5893SOL    HW218579   1.576   1.414   4.057
 5894SOL     OW18580   0.811   3.646   3.445
 5894SOL    HW118581   0.860   3.563   3.472
 5894SOL    HW218582   0.864   3.726   3.472
 5895SOL     OW18583   5.577   3.767   3.984
 5895SOL    HW118584   5.595   3.814   4.071
 5895SOL    HW218585   5.546   3.673   4.003
 5896SOL     OW18586   3.449   2.677   6.576
 5896SOL    HW118587   3.374   2.728   6.535
 5896SOL    HW218588   3.528   2.680   6.515
 5897SOL     OW18589   4.058   0.055   1.130
 5897SOL    HW118590   3.999   0.057   1.049
 5897SOL    HW218591   4.130   0.124   1.120
 5898SOL     OW18592   2.421   0.321   2.492
 5898SOL    HW118593   2.337   0.354   2.450
 5898SOL    HW218594   2.498   0.377   2.463
 5899SOL     OW18595   5.962   6.875   4.514
 5899SOL    HW118596   5.938   6.810   4.442
 5899SOL    HW218597   5.900   6.953   4.510
 5900SOL     OW18598   4.896   4.915   2.618
 5900SOL    HW118599   4.990   4.885   2.635
 5900SOL    HW218600   4.897   5.008   2.580
 5901SOL     OW18601   2.619   6.626   5.920
 5901SOL    HW118602   2.597   6.665   6.009
 5901SOL    HW218603   2.537   6.585   5.880
 5902SOL     OW18604   6.641   1.931   6.847
 5902SOL    HW118605   6.583   1.887   6.779
 5902SOL    HW218606   6.682   2.014   6.808
 5903SOL     OW18607   6.278   3.079   6.521
 5903SOL    HW118608   6.340   3.039   6.453
 5903SOL    HW218609   6.290   3.178   6.522
 5904SOL     OW18610   6.995   3.449   2.427
 5904SOL    HW118611   6.942   3.486   2.351
 5904SOL    HW218612   6.950   3.470   2.514
 5905SOL     OW18613   6.927   5.713   1.957
 5905SOL    HW118614   6.949   5.731   2.052
 5905SOL    HW218615   6.910   5.616   1.944
 5906SOL     OW18616   5.580   1.102   3.405
 5906SOL    HW118617   5.650   1.037   3.375
 5906SOL    HW218618   5.493   1.055   3.417
 5907SOL     OW18619   1.283   5.928   2.210
 5907SOL    HW118620   1.354   5.944   2.278
 5907SOL    HW218621   1.194   5.951   2.248
 5908SOL     OW18622   6.900   3.024   5.065
 5908SOL    HW118623   6.858   2.935   5.049
 5908SOL    HW218624   6.997   3.012   5.084
 5909SOL     OW18625   0.017   5.804   0.694
 5909SOL    HW118626   0.037   5.773   0.787
 5909SOL    HW218627   0.003   5.903   0.695
 5910SOL     OW18628   2.223   2.729   3.168
 5910SOL    HW118629   2.249   2.731   3.264
 5910SOL    HW218630   2.176   2.814   3.144
 5911SOL     OW18631   6.486   6.078   6.188
 5911SOL    HW118632   6.392   6.048   6.169
 5911SOL    HW218633   6.528   6.110   6.104
 5912SOL     OW18634   0.243   1.401   3.590
 5912SOL    HW118635   0.221   1.321   3.534
 5912SOL    HW218636   0.277   1.370   3.679
 5913SOL     OW18637   5.387   2.487   6.723
 5913SOL    HW118638   5.301   2.492   6.773
 5913SOL    HW218639   5.399   2.393   6.688
 5914SOL     OW18640   0.894   6.400   6.979
 5914SOL    HW118641   0.819   6.440   6.925
 5914SOL    HW218642   0.855   6.346   0.034
 5915SOL     OW18643   4.521   1.260   6.627
 5915SOL    HW118644   4.440   1.244   6.683
 5915SOL    HW218645   4.582   1.180   6.633
 5916SOL     OW18646   1.163   6.346   2.647
 5916SOL    HW118647   1.121   6.404   2.577
 5916SOL    HW218648   1.254   6.380   2.668
 5917SOL     OW18649   3.293   4.696   6.858
 5917SOL    HW118650   3.240   4.776   6.831
 5917SOL    HW218651   3.278   4.676   6.955
 5918SOL     OW18652   3.107   6.343   6.131
 5918SOL    HW118653   3.084   6.249   6.153
 5918SOL    HW218654   3.023   6.394   6.112
 5919SOL     OW18655   3.680   2.889   3.318
 5919SOL    HW118656   3.657   2.936   3.233
 5919SOL    HW218657   3.597   2.848   3.358
 5920SOL     OW18658   7.010   0.259   5.899
 5920SOL    HW118659   6.948   0.281   5.974
 5920SOL    HW218660   6.961   0.264   5.812
 5921SOL     OW18661   3.394   5.044   6.608
 5921SOL    HW118662   3.473   5.103   6.626
 5921SOL    HW218663   3.385   5.028   6.510
 5922SOL     OW18664   5.355   3.506   2.975
 5922SOL    HW118665   5.326   3.586   2.922
 5922SOL    HW218666   5.363   3.427   2.914
 5923SOL     OW18667   0.085   0.846   1.411
 5923SOL    HW118668   7.012   0.811   1.402
 5923SOL    HW218669   0.123   0.820   1.500
 5924SOL     OW18670   6.354   0.514   2.916
 5924SOL    HW118671   6.429   0.572   2.947
 5924SOL    HW218672   6.365   0.495   2.819
 5925SOL     OW18673   4.627   5.890   1.364
 5925SOL    HW118674   4.714   5.858   1.328
 5925SOL    HW218675   4.623   5.990   1.360
 5926SOL     OW18676   3.978   5.253   3.486
 5926SOL    HW118677   3.879   5.242   3.490
 5926SOL    HW218678   4.023   5.164   3.491
 5927SOL     OW18679   0.907   4.415   1.733
 5927SOL    HW118680   0.932   4.510   1.749
 5927SOL    HW218681   0.829   4.390   1.790
 5928SOL     OW18682   3.793   0.294   0.736
 5928SOL    HW118683   3.715   0.356   0.733
 5928SOL    HW218684   3.761   0.200   0.722
 5929SOL     OW18685   0.618   0.991   6.278
 5929SOL    HW118686   0.523   0.990   6.311
 5929SOL    HW218687   0.626   0.929   6.199
 5930SOL     OW18688   1.364   3.485   2.437
 5930SOL    HW118689   1.324   3.402   2.397
 5930SOL    HW218690   1.401   3.463   2.527
 5931SOL     OW18691   5.563   6.083   3.046
 5931SOL    HW118692   5.582   6.162   2.988
 5931SOL    HW218693   5.527   6.008   2.989
 5932SOL     OW18694   2.629   1.403   6.914
 5932SOL    HW118695   2.713   1.361   6.881
 5932SOL    HW218696   2.555   1.387   6.848
 5933SOL     OW18697   6.203   5.897   3.579
 5933SOL    HW118698   6.276   5.939   3.633
 5933SOL    HW218699   6.169   5.963   3.512
 5934SOL     OW18700   2.848   3.649   5.683
 5934SOL    HW118701   2.925   3.587   5.696
 5934SOL    HW218702   2.839   3.671   5.586
 5935SOL     OW18703   6.715   6.514   5.119
 5935SOL    HW118704   6.800   6.483   5.162
 5935SOL    HW218705   6.642   6.447   5.136
 5936SOL     OW18706   2.932   3.312   1.980
 5936SOL    HW118707   2.935   3.281   2.075
 5936SOL    HW218708   3.006   3.378   1.965
 5937SOL     OW18709   6.682   3.117   1.564
 5937SOL    HW118710   6.700   3.122   1.663
 5937SOL    HW218711   6.686   3.208   1.525
 5938SOL     OW18712   6.966   4.923   5.170
 5938SOL    HW118713   0.000   4.994   5.124
 5938SOL    HW218714   6.888   4.898   5.112
 5939SOL     OW18715   3.512   0.324   4.546
 5939SOL    HW118716   3.518   0.408   4.600
 5939SOL    HW218717   3.551   0.339   4.456
 5940SOL     OW18718   4.790   6.007   2.717
 5940SOL    HW118719   4.822   6.092   2.760
 5940SOL    HW218720   4.811   6.010   2.619
 5941SOL     OW18721   0.038   1.914   1.560
 5941SOL    HW118722   6.964   1.890   1.588
 5941SOL    HW218723   0.089   1.830   1.543
 5942SOL     OW18724   6.033   3.620   5.716
 5942SOL    HW118725   6.056   3.523   5.723
 5942SOL    HW218726   5.954   3.632   5.657
 5943SOL     OW18727   3.549   3.803   0.916
 5943SOL    HW118728   3.534   3.725   0.854
 5943SOL    HW218729   3.646   3.828   0.914
 5944SOL     OW18730   0.824   3.589   6.288
 5944SOL    HW118731   0.796   3.602   6.383
 5944SOL    HW218732   0.830   3.678   6.242
 5945SOL     OW18733   0.156   5.602   5.448
 5945SOL    HW118734   0.170   5.556   5.360
 5945SOL    HW218735   0.142   5.533   5.519
 5946SOL     OW18736   3.710   4.315   0.616
 5946SOL    HW118737   3.756   4.333   0.702
 5946SOL    HW218738   3.771   4.337   0.540
 5947SOL     OW18739   3.200   3.019   4.983
 5947SOL    HW118740   3.250   2.957   5.043
 5947SOL    HW218741   3.109   3.036   5.021
 5948SOL     OW18742   4.833   3.971   2.057
 5948SOL    HW118743   4.876   3.971   2.147
 5948SOL    HW218744   4.750   4.027   2.060
 5949SOL     OW18745   6.960   4.810   2.232
 5949SOL    HW118746   0.014   4.826   2.298
 5949SOL    HW218747   6.998   4.807   2.139
 5950SOL     OW18748   4.991   1.607   5.716
 5950SOL    HW118749   4.957   1.539   5.782
 5950SOL    HW218750   4.961   1.698   5.744
 5951SOL     OW18751   1.202   4.682   5.990
 5951SOL    HW118752   1.157   4.764   6.025
 5951SOL    HW218753   1.232   4.625   6.066
 5952SOL     OW18754   3.824   4.991   1.249
 5952SOL    HW118755   3.802   4.895   1.228
 5952SOL    HW218756   3.923   5.002   1.256
 5953SOL     OW18757   5.820   2.447   5.266
 5953SOL    HW118758   5.799   2.490   5.179
 5953SOL    HW218759   5.810   2.348   5.257
 5954SOL     OW18760   0.618   6.185   4.752
 5954SOL    HW118761   0.562   6.119   4.702
 5954SOL    HW218762   0.612   6.274   4.707
 5955SOL     OW18763   6.075   4.043   0.725
 5955SOL    HW118764   5.999   3.996   0.681
 5955SOL    HW218765   6.162   4.003   0.695
 5956SOL     OW18766   4.719   2.428   4.189
 5956SOL    HW118767   4.816   2.443   4.209
 5956SOL    HW218768   4.668   2.512   4.208
 5957SOL     OW18769   1.230   1.101   2.389
 5957SOL    HW118770   1.182   1.015   2.373
 5957SOL    HW218771   1.179   1.176   2.347
 5958SOL     OW18772   3.591   6.812   2.820
 5958SOL    HW118773   3.594   6.821   2.920
 5958SOL    HW218774   3.498   6.790   2.792
 5959SOL     OW18775   4.752   2.140   4.571
 5959SOL    HW118776   4.782   2.203   4.643
 5959SOL    HW218777   4.817   2.065   4.563
 5960SOL     OW18778   4.422   0.015   5.803
 5960SOL    HW118779   4.359   0.063   5.743
 5960SOL    HW218780   4.514   0.018   5.764
 5961SOL     OW18781   3.022   1.629   2.993
 5961SOL    HW118782   3.059   1.640   3.085
 5961SOL    HW218783   3.072   1.688   2.930
 5962SOL     OW18784   5.676   6.313   0.450
 5962SOL    HW118785   5.701   6.216   0.442
 5962SOL    HW218786   5.581   6.320   0.483
 5963SOL     OW18787   3.782   4.802   0.269
 5963SOL    HW118788   3.811   4.846   0.354
 5963SOL    HW218789   3.761   4.706   0.287
 5964SOL     OW18790   2.185   6.640   2.452
 5964SOL    HW118791   2.264   6.695   2.478
 5964SOL    HW218792   2.186   6.625   2.354
 5965SOL     OW18793   1.983   6.417   0.006
 5965SOL    HW118794   1.930   6.473   0.070
 5965SOL    HW218795   2.037   6.477   6.966
 5966SOL     OW18796   2.413   0.832   5.531
 5966SOL    HW118797   2.503   0.811   5.568
 5966SOL    HW218798   2.360   0.884   5.598
 5967SOL     OW18799   2.119   1.751   4.788
 5967SOL    HW118800   2.098   1.698   4.871
 5967SOL    HW218801   2.163   1.690   4.721
 5968SOL     OW18802   5.472   2.312   0.680
 5968SOL    HW118803   5.484   2.327   0.582
 5968SOL    HW218804   5.548   2.258   0.715
 5969SOL     OW18805   5.555   0.936   6.926
 5969SOL    HW118806   5.476   0.995   6.947
 5969SOL    HW218807   5.563   0.926   6.827
 5970SOL     OW18808   0.144   2.885   0.765
 5970SOL    HW118809   0.237   2.897   0.800
 5970SOL    HW218810   0.120   2.788   0.765
 5971SOL     OW18811   6.768   6.931   3.371
 5971SOL    HW118812   6.741   0.007   3.374
 5971SOL    HW218813   6.752   6.889   3.460
 5972SOL     OW18814   5.396   5.216   0.824
 5972SOL    HW118815   5.387   5.128   0.776
 5972SOL    HW218816   5.317   5.274   0.803
 5973SOL     OW18817   1.860   2.977   2.982
 5973SOL    HW118818   1.769   2.938   2.994
 5973SOL    HW218819   1.929   2.913   3.014
 5974SOL     OW18820   4.425   1.182   6.114
 5974SOL    HW118821   4.350   1.122   6.141
 5974SOL    HW218822   4.387   1.263   6.069
 5975SOL     OW18823   5.934   4.653   0.139
 5975SOL    HW118824   5.999   4.580   0.160
 5975SOL    HW218825   5.849   4.613   0.104
 5976SOL     OW18826   3.293   3.820   5.695
 5976SOL    HW118827   3.313   3.870   5.779
 5976SOL    HW218828   3.296   3.882   5.617
 5977SOL     OW18829   6.565   4.972   0.520
 5977SOL    HW118830   6.632   4.986   0.592
 5977SOL    HW218831   6.533   4.877   0.521
 5978SOL     OW18832   3.187   5.264   0.143
 5978SOL    HW118833   3.157   5.267   0.238
 5978SOL    HW218834   3.143   5.188   0.095
 5979SOL     OW18835   6.269   0.735   1.176
 5979SOL    HW118836   6.318   0.648   1.179
 5979SOL    HW218837   6.171   0.718   1.170
 5980SOL     OW18838   3.728   2.981   1.765
 5980SOL    HW118839   3.734   3.080   1.763
 5980SOL    HW218840   3.641   2.951   1.724
 5981SOL     OW18841   3.500   2.131   0.175
 5981SOL    HW118842   3.524   2.223   0.206
 5981SOL    HW218843   3.400   2.124   0.167
 5982SOL     OW18844   5.992   2.324   1.689
 5982SOL    HW118845   5.974   2.237   1.733
 5982SOL    HW218846   6.029   2.309   1.597
 5983SOL     OW18847   0.228   0.997   4.161
 5983SOL    HW118848   0.185   0.965   4.076
 5983SOL    HW218849   0.312   1.046   4.140
 5984SOL     OW18850   6.363   6.784   2.935
 5984SOL    HW118851   6.308   6.832   3.004
 5984SOL    HW218852   6.302   6.738   2.870
 5985SOL     OW18853   6.237   2.154   2.802
 5985SOL    HW118854   6.181   2.178   2.882
 5985SOL    HW218855   6.182   2.100   2.738
 5986SOL     OW18856   4.207   3.671   5.370
 5986SOL    HW118857   4.215   3.583   5.323
 5986SOL    HW218858   4.289   3.726   5.354
 5987SOL     OW18859   6.386   0.829   5.137
 5987SOL    HW118860   6.423   0.843   5.229
 5987SOL    HW218861   6.328   0.747   5.136
 5988SOL     OW18862   2.283   1.967   0.278
 5988SOL    HW118863   2.354   1.966   0.348
 5988SOL    HW218864   2.302   1.896   0.210
 5989SOL     OW18865   0.656   5.869   6.806
 5989SOL    HW118866   0.601   5.823   6.736
 5989SOL    HW218867   0.596   5.914   6.872
 5990SOL     OW18868   3.590   4.726   1.375
 5990SOL    HW118869   3.627   4.634   1.362
 5990SOL    HW218870   3.495   4.719   1.405
 5991SOL     OW18871   5.572   6.148   0.981
 5991SOL    HW118872   5.568   6.235   0.931
 5991SOL    HW218873   5.488   6.096   0.964
 5992SOL     OW18874   3.571   0.022   2.139
 5992SOL    HW118875   3.595   6.954   2.097
 5992SOL    HW218876   3.625   0.095   2.097
 5993SOL     OW18877   5.928   2.307   0.239
 5993SOL    HW118878   5.831   2.302   0.260
 5993SOL    HW218879   5.948   2.248   0.160
 5994SOL     OW18880   0.171   2.616   0.312
 5994SOL    HW118881   0.209   2.525   0.296
 5994SOL    HW218882   0.242   2.675   0.352
 5995SOL     OW18883   5.034   3.662   1.604
 5995SOL    HW118884   5.012   3.711   1.689
 5995SOL    HW218885   5.013   3.565   1.615
 5996SOL     OW18886   2.776   5.443   1.494
 5996SOL    HW118887   2.688   5.492   1.492
 5996SOL    HW218888   2.767   5.359   1.547
 5997SOL     OW18889   0.207   6.938   3.683
 5997SOL    HW118890   0.217   6.843   3.656
 5997SOL    HW218891   0.160   6.989   3.611
 5998SOL     OW18892   6.515   0.731   1.322
 5998SOL    HW118893   6.517   0.662   1.250
 5998SOL    HW218894   6.583   0.802   1.302
 5999SOL     OW18895   4.198   2.944   1.255
 5999SOL    HW118896   4.159   2.892   1.178
 5999SOL    HW218897   4.137   2.938   1.334
 6000SOL     OW18898   6.560   4.883   7.001
 6000SOL    HW118899   6.573   4.955   6.933
 6000SOL    HW218900   6.570   4.794   6.958
 6001SOL     OW18901   5.312   6.263   5.331
 6001SOL    HW118902   5.240   6.328   5.357
 6001SOL    HW218903   5.319   6.260   5.231
 6002SOL     OW18904   6.296   6.383   4.702
 6002SOL    HW118905   6.359   6.319   4.746
 6002SOL    HW218906   6.225   6.410   4.768
 6003SOL     OW18907   6.780   2.863   4.160
 6003SOL    HW118908   6.862   2.809   4.142
 6003SOL    HW218909   6.806   2.954   4.193
 6004SOL     OW18910   5.441   2.613   3.745
 6004SOL    HW118911   5.426   2.701   3.700
 6004SOL    HW218912   5.537   2.605   3.769
 6005SOL     OW18913   4.220   4.829   5.865
 6005SOL    HW118914   4.203   4.928   5.864
 6005SOL    HW218915   4.275   4.805   5.945
 6006SOL     OW18916   3.603   5.947   5.699
 6006SOL    HW118917   3.530   5.892   5.657
 6006SOL    HW218918   3.685   5.943   5.641
 6007SOL     OW18919   1.300   4.882   5.414
 6007SOL    HW118920   1.327   4.793   5.450
 6007SOL    HW218921   1.297   4.948   5.489
 6008SOL     OW18922   2.901   5.043   5.929
 6008SOL    HW118923   2.813   4.997   5.942
 6008SOL    HW218924   2.932   5.029   5.835
 6009SOL     OW18925   3.938   5.599   3.646
 6009SOL    HW118926   3.999   5.618   3.723
 6009SOL    HW218927   3.988   5.549   3.575
 6010SOL     OW18928   0.218   4.576   4.984
 6010SOL    HW118929   0.149   4.601   5.052
 6010SOL    HW218930   0.288   4.519   5.028
 6011SOL     OW18931   6.031   1.106   2.266
 6011SOL    HW118932   6.032   1.204   2.285
 6011SOL    HW218933   6.107   1.062   2.314
 6012SOL     OW18934   6.897   0.458   6.088
 6012SOL    HW118935   6.932   0.548   6.116
 6012SOL    HW218936   6.807   0.469   6.046
 6013SOL     OW18937   5.729   0.928   2.774
 6013SOL    HW118938   5.668   0.884   2.708
 6013SOL    HW218939   5.784   0.998   2.728
 6014SOL     OW18940   3.643   3.120   3.985
 6014SOL    HW118941   3.715   3.167   4.036
 6014SOL    HW218942   3.682   3.045   3.932
 6015SOL     OW18943   6.155   1.835   4.670
 6015SOL    HW118944   6.218   1.905   4.636
 6015SOL    HW218945   6.158   1.755   4.610
 6016SOL     OW18946   5.187   1.508   4.760
 6016SOL    HW118947   5.231   1.429   4.804
 6016SOL    HW218948   5.185   1.584   4.824
 6017SOL     OW18949   0.088   3.067   4.730
 6017SOL    HW118950   0.139   3.140   4.684
 6017SOL    HW218951   0.087   3.086   4.829
 6018SOL     OW18952   3.730   1.513   6.199
 6018SOL    HW118953   3.656   1.497   6.265
 6018SOL    HW218954   3.797   1.439   6.206
 6019SOL     OW18955   0.168   3.855   6.562
 6019SOL    HW118956   0.135   3.773   6.607
 6019SOL    HW218957   0.113   3.873   6.481
 6020SOL     OW18958   0.549   4.416   0.412
 6020SOL    HW118959   0.478   4.364   0.460
 6020SOL    HW218960   0.535   4.513   0.428
 6021SOL     OW18961   3.888   0.824   3.287
 6021SOL    HW118962   3.964   0.771   3.324
 6021SOL    HW218963   3.872   0.798   3.192
 6022SOL     OW18964   6.705   1.471   2.234
 6022SOL    HW118965   6.641   1.459   2.158
 6022SOL    HW218966   6.706   1.567   2.261
 6023SOL     OW18967   4.711   0.894   1.279
 6023SOL    HW118968   4.635   0.846   1.324
 6023SOL    HW218969   4.723   0.858   1.186
 6024SOL     OW18970   0.143   5.265   0.220
 6024SOL    HW118971   0.188   5.353   0.203
 6024SOL    HW218972   0.150   5.208   0.139
 6025SOL     OW18973   2.514   1.258   4.258
 6025SOL    HW118974   2.432   1.205   4.235
 6025SOL    HW218975   2.492   1.355   4.256
 6026SOL     OW18976   6.060   4.091   4.301
 6026SOL    HW118977   6.014   4.012   4.259
 6026SOL    HW218978   6.097   4.150   4.229
 6027SOL     OW18979   6.099   3.340   5.764
 6027SOL    HW118980   6.068   3.344   5.669
 6027SOL    HW218981   6.179   3.280   5.770
 6028SOL     OW18982   5.197   4.741   6.531
 6028SOL    HW118983   5.131   4.804   6.490
 6028SOL    HW218984   5.229   4.778   6.618
 6029SOL     OW18985   2.489   0.783   3.505
 6029SOL    HW118986   2.443   0.831   3.430
 6029SOL    HW218987   2.506   0.688   3.479
 6030SOL     OW18988   5.169   3.640   4.719
 6030SOL    HW118989   5.139   3.598   4.633
 6030SOL    HW218990   5.092   3.688   4.760
 6031SOL     OW18991   0.523   5.889   5.297
 6031SOL    HW118992   0.519   5.989   5.301
 6031SOL    HW218993   0.616   5.860   5.277
 6032SOL     OW18994   2.830   6.225   3.731
 6032SOL    HW118995   2.733   6.200   3.724
 6032SOL    HW218996   2.884   6.143   3.746
 6033SOL     OW18997   2.542   1.713   2.706
 6033SOL    HW118998   2.504   1.643   2.767
 6033SOL    HW218999   2.600   1.669   2.637
 6034SOL     OW19000   1.408   0.453   6.853
 6034SOL    HW119001   1.347   0.485   6.925
 6034SOL    HW219002   1.462   0.376   6.886
 6035SOL     OW19003   1.675   1.006   2.560
 6035SOL    HW119004   1.657   1.000   2.462
 6035SOL    HW219005   1.772   1.025   2.575
 6036SOL     OW19006   6.197   3.200   0.402
 6036SOL    HW119007   6.178   3.206   0.304
 6036SOL    HW219008   6.134   3.135   0.444
 6037SOL     OW19009   4.154   2.155   0.475
 6037SOL    HW119010   4.167   2.225   0.545
 6037SOL    HW219011   4.092   2.084   0.509
 6038SOL     OW19012   0.615   2.225   6.286
 6038SOL    HW119013   0.600   2.191   6.193
 6038SOL    HW219014   0.545   2.186   6.347
 6039SOL     OW19015   3.325   4.100   3.881
 6039SOL    HW119016   3.234   4.086   3.843
 6039SOL    HW219017   3.360   4.015   3.919
 6040SOL     OW19018   1.145   1.819   6.684
 6040SOL    HW119019   1.092   1.793   6.603
 6040SOL    HW219020   1.221   1.755   6.696
 6041SOL     OW19021   2.812   2.363   6.018
 6041SOL    HW119022   2.839   2.272   5.986
 6041SOL    HW219023   2.715   2.378   5.997
 6042SOL     OW19024   2.881   5.972   3.610
 6042SOL    HW119025   2.893   5.884   3.655
 6042SOL    HW219026   2.783   5.991   3.598
 6043SOL     OW19027   1.654   0.767   4.040
 6043SOL    HW119028   1.586   0.742   3.970
 6043SOL    HW219029   1.745   0.770   3.998
 6044SOL     OW19030   1.732   2.220   1.616
 6044SOL    HW119031   1.661   2.171   1.566
 6044SOL    HW219032   1.792   2.267   1.552
 6045SOL     OW19033   5.188   2.668   3.382
 6045SOL    HW119034   5.118   2.735   3.359
 6045SOL    HW219035   5.201   2.666   3.481
 6046SOL     OW19036   3.550   3.050   1.965
 6046SOL    HW119037   3.553   2.950   1.965
 6046SOL    HW219038   3.638   3.086   1.934
 6047SOL     OW19039   5.745   1.848   0.896
 6047SOL    HW119040   5.831   1.802   0.875
 6047SOL    HW219041   5.702   1.878   0.811
 6048SOL     OW19042   5.502   6.015   4.516
 6048SOL    HW119043   5.452   6.076   4.578
 6048SOL    HW219044   5.528   5.932   4.564
 6049SOL     OW19045   4.761   4.642   5.467
 6049SOL    HW119046   4.681   4.699   5.453
 6049SOL    HW219047   4.821   4.647   5.386
 6050SOL     OW19048   3.194   5.249   1.311
 6050SOL    HW119049   3.214   5.159   1.349
 6050SOL    HW219050   3.162   5.310   1.384
 6051SOL     OW19051   0.936   1.581   3.114
 6051SOL    HW119052   0.851   1.624   3.083
 6051SOL    HW219053   0.985   1.544   3.035
 6052SOL     OW19054   5.578   6.598   0.374
 6052SOL    HW119055   5.598   6.512   0.327
 6052SOL    HW219056   5.593   6.675   0.312
 6053SOL     OW19057   4.529   2.196   6.022
 6053SOL    HW119058   4.522   2.295   6.029
 6053SOL    HW219059   4.508   2.155   6.111
 6054SOL     OW19060   4.298   4.602   0.851
 6054SOL    HW119061   4.372   4.637   0.910
 6054SOL    HW219062   4.223   4.570   0.908
 6055SOL     OW19063   3.577   4.715   0.580
 6055SOL    HW119064   3.569   4.645   0.509
 6055SOL    HW219065   3.579   4.671   0.670
 6056SOL     OW19066   6.059   4.277   5.134
 6056SOL    HW119067   6.157   4.262   5.152
 6056SOL    HW219068   6.030   4.216   5.060
 6057SOL     OW19069   5.027   0.165   3.185
 6057SOL    HW119070   5.126   0.167   3.171
 6057SOL    HW219071   4.987   0.251   3.150
 6058SOL     OW19072   5.754   2.295   6.697
 6058SOL    HW119073   5.791   2.373   6.647
 6058SOL    HW219074   5.827   2.250   6.749
 6059SOL     OW19075   5.203   4.514   5.763
 6059SOL    HW119076   5.179   4.536   5.669
 6059SOL    HW219077   5.167   4.424   5.787
 6060SOL     OW19078   2.997   3.374   6.761
 6060SOL    HW119079   2.932   3.318   6.812
 6060SOL    HW219080   3.065   3.412   6.823
 6061SOL     OW19081   4.655   5.169   0.745
 6061SOL    HW119082   4.729   5.202   0.686
 6061SOL    HW219083   4.634   5.074   0.721
 6062SOL     OW19084   2.545   2.524   0.591
 6062SOL    HW119085   2.465   2.551   0.644
 6062SOL    HW219086   2.616   2.491   0.654
 6063SOL     OW19087   3.746   4.649   5.865
 6063SOL    HW119088   3.654   4.676   5.834
 6063SOL    HW219089   3.743   4.554   5.896
 6064SOL     OW19090   6.877   0.054   0.954
 6064SOL    HW119091   6.970   0.017   0.949
 6064SOL    HW219092   6.848   0.057   1.050
 6065SOL     OW19093   1.151   5.634   2.383
 6065SOL    HW119094   1.147   5.672   2.475
 6065SOL    HW219095   1.245   5.609   2.361
 6066SOL     OW19096   5.181   0.131   3.466
 6066SOL    HW119097   5.178   0.054   3.403
 6066SOL    HW219098   5.088   0.165   3.481
 6067SOL     OW19099   6.199   0.256   5.682
 6067SOL    HW119100   6.279   0.197   5.698
 6067SOL    HW219101   6.116   0.201   5.689
 6068SOL     OW19102   5.143   1.533   5.482
 6068SOL    HW119103   5.064   1.547   5.542
 6068SOL    HW219104   5.155   1.436   5.465
 6069SOL     OW19105   0.117   3.022   5.846
 6069SOL    HW119106   0.212   3.034   5.819
 6069SOL    HW219107   0.095   3.087   5.919
 6070SOL     OW19108   3.584   1.588   1.322
 6070SOL    HW119109   3.638   1.632   1.394
 6070SOL    HW219110   3.498   1.637   1.310
 6071SOL     OW19111   5.771   6.346   4.983
 6071SOL    HW119112   5.756   6.412   5.057
 6071SOL    HW219113   5.790   6.256   5.023
 6072SOL     OW19114   0.514   2.427   1.183
 6072SOL    HW119115   0.455   2.481   1.124
 6072SOL    HW219116   0.487   2.331   1.180
 6073SOL     OW19117   4.702   2.392   0.752
 6073SOL    HW119118   4.730   2.355   0.841
 6073SOL    HW219119   4.712   2.322   0.682
 6074SOL     OW19120   1.248   6.133   2.481
 6074SOL    HW119121   1.221   6.220   2.523
 6074SOL    HW219122   1.167   6.083   2.452
 6075SOL     OW19123   4.662   6.557   6.506
 6075SOL    HW119124   4.636   6.640   6.457
 6075SOL    HW219125   4.732   6.580   6.574
 6076SOL     OW19126   2.612   5.013   4.140
 6076SOL    HW119127   2.589   5.099   4.093
 6076SOL    HW219128   2.631   4.942   4.072
 6077SOL     OW19129   6.133   6.727   1.533
 6077SOL    HW119130   6.112   6.726   1.631
 6077SOL    HW219131   6.230   6.708   1.519
 6078SOL     OW19132   4.937   4.097   0.088
 6078SOL    HW119133   5.002   4.090   0.164
 6078SOL    HW219134   4.847   4.121   0.124
 6079SOL     OW19135   4.316   4.271   6.057
 6079SOL    HW119136   4.377   4.324   6.117
 6079SOL    HW219137   4.236   4.326   6.034
 6080SOL     OW19138   1.122   4.349   0.711
 6080SOL    HW119139   1.088   4.425   0.655
 6080SOL    HW219140   1.213   4.324   0.680
 6081SOL     OW19141   0.505   3.864   4.571
 6081SOL    HW119142   0.526   3.891   4.477
 6081SOL    HW219143   0.584   3.818   4.611
 6082SOL     OW19144   4.406   0.816   1.056
 6082SOL    HW119145   4.414   0.725   1.015
 6082SOL    HW219146   4.388   0.884   0.985
 6083SOL     OW19147   5.126   6.086   6.625
 6083SOL    HW119148   5.207   6.133   6.662
 6083SOL    HW219149   5.155   6.006   6.572
 6084SOL     OW19150   0.361   6.765   2.442
 6084SOL    HW119151   0.403   6.830   2.505
 6084SOL    HW219152   0.263   6.782   2.436
 6085SOL     OW19153   6.970   6.149   0.350
 6085SOL    HW119154   6.907   6.147   0.428
 6085SOL    HW219155   0.045   6.157   0.384
 6086SOL     OW19156   3.880   3.633   6.768
 6086SOL    HW119157   3.869   3.564   6.696
 6086SOL    HW219158   3.976   3.637   6.795
 6087SOL     OW19159   5.138   6.706   0.470
 6087SOL    HW119160   5.207   6.642   0.504
 6087SOL    HW219161   5.062   6.710   0.535
 6088SOL     OW19162   5.178   6.824   4.253
 6088SOL    HW119163   5.255   6.782   4.206
 6088SOL    HW219164   5.208   6.855   4.344
 6089SOL     OW19165   6.317   2.379   2.646
 6089SOL    HW119166   6.260   2.458   2.667
 6089SOL    HW219167   6.296   2.305   2.711
 6090SOL     OW19168   3.671   5.998   3.855
 6090SOL    HW119169   3.712   5.972   3.942
 6090SOL    HW219170   3.733   5.972   3.780
 6091SOL     OW19171   2.345   1.344   1.447
 6091SOL    HW119172   2.324   1.381   1.537
 6091SOL    HW219173   2.443   1.326   1.441
 6092SOL     OW19174   3.966   6.154   1.942
 6092SOL    HW119175   3.957   6.117   1.850
 6092SOL    HW219176   4.057   6.136   1.977
 6093SOL     OW19177   2.363   1.571   2.270
 6093SOL    HW119178   2.354   1.598   2.366
 6093SOL    HW219179   2.300   1.496   2.250
 6094SOL     OW19180   0.122   6.677   4.649
 6094SOL    HW119181   0.081   6.586   4.651
 6094SOL    HW219182   0.169   6.694   4.735
 6095SOL     OW19183   4.194   6.026   0.152
 6095SOL    HW119184   4.211   6.120   0.180
 6095SOL    HW219185   4.255   6.002   0.077
 6096SOL     OW19186   5.714   6.656   2.159
 6096SOL    HW119187   5.663   6.740   2.181
 6096SOL    HW219188   5.754   6.665   2.068
 6097SOL     OW19189   1.657   6.140   2.611
 6097SOL    HW119190   1.605   6.156   2.527
 6097SOL    HW219191   1.595   6.139   2.689
 6098SOL     OW19192   6.833   1.091   4.571
 6098SOL    HW119193   6.788   1.123   4.654
 6098SOL    HW219194   6.921   1.049   4.595
 6099SOL     OW19195   5.247   5.724   6.217
 6099SOL    HW119196   5.307   5.657   6.261
 6099SOL    HW219197   5.277   5.739   6.123
 6100SOL     OW19198   6.785   5.801   4.092
 6100SOL    HW119199   6.731   5.761   4.167
 6100SOL    HW219200   6.821   5.728   4.034
 6101SOL     OW19201   6.294   2.098   1.299
 6101SOL    HW119202   6.215   2.149   1.333
 6101SOL    HW219203   6.264   2.009   1.264
 6102SOL     OW19204   4.207   6.173   2.166
 6102SOL    HW119205   4.193   6.091   2.223
 6102SOL    HW219206   4.258   6.148   2.084
 6103SOL     OW19207   6.254   1.143   1.167
 6103SOL    HW119208   6.259   1.067   1.102
 6103SOL    HW219209   6.316   1.216   1.137
 6104SOL     OW19210   5.787   1.074   4.458
 6104SOL    HW119211   5.811   0.981   4.484
 6104SOL    HW219212   5.825   1.138   4.525
 6105SOL     OW19213   2.669   6.236   5.905
 6105SOL    HW119214   2.755   6.256   5.859
 6105SOL    HW219215   2.686   6.213   6.001
 6106SOL     OW19216   0.509   3.624   6.628
 6106SOL    HW119217   0.494   3.710   6.579
 6106SOL    HW219218   0.470   3.631   6.720
 6107SOL     OW19219   4.595   4.357   4.528
 6107SOL    HW119220   4.648   4.281   4.566
 6107SOL    HW219221   4.544   4.402   4.601
 6108SOL     OW19222   1.603   0.976   1.571
 6108SOL    HW119223   1.594   0.979   1.670
 6108SOL    HW219224   1.648   0.891   1.544
 6109SOL     OW19225   5.316   6.530   3.277
 6109SOL    HW119226   5.415   6.542   3.278
 6109SOL    HW219227   5.274   6.597   3.338
 6110SOL     OW19228   0.695   2.049   5.480
 6110SOL    HW119229   0.723   2.132   5.432
 6110SOL    HW219230   0.713   1.969   5.423
 6111SOL     OW19231   1.566   3.672   1.452
 6111SOL    HW119232   1.585   3.730   1.532
 6111SOL    HW219233   1.468   3.674   1.432
 6112SOL     OW19234   4.148   0.326   2.421
 6112SOL    HW119235   4.103   0.353   2.506
 6112SOL    HW219236   4.240   0.293   2.441
 6113SOL     OW19237   2.378   5.313   0.183
 6113SOL    HW119238   2.321   5.353   0.254
 6113SOL    HW219239   2.410   5.384   0.121
 6114SOL     OW19240   4.483   1.584   0.999
 6114SOL    HW119241   4.460   1.596   0.902
 6114SOL    HW219242   4.578   1.610   1.014
 6115SOL     OW19243   1.145   1.496   5.477
 6115SOL    HW119244   1.220   1.548   5.517
 6115SOL    HW219245   1.125   1.417   5.535
 6116SOL     OW19246   4.121   2.263   4.750
 6116SOL    HW119247   4.060   2.223   4.818
 6116SOL    HW219248   4.097   2.229   4.659
 6117SOL     OW19249   1.570   2.151   2.912
 6117SOL    HW119250   1.599   2.060   2.941
 6117SOL    HW219251   1.615   2.175   2.826
 6118SOL     OW19252   5.822   1.016   0.284
 6118SOL    HW119253   5.911   1.030   0.241
 6118SOL    HW219254   5.779   0.934   0.244
 6119SOL     OW19255   0.362   2.151   0.640
 6119SOL    HW119256   0.379   2.237   0.592
 6119SOL    HW219257   0.287   2.102   0.596
 6120SOL     OW19258   2.240   6.889   5.847
 6120SOL    HW119259   2.291   6.934   5.774
 6120SOL    HW219260   2.254   6.938   5.933
 6121SOL     OW19261   1.109   3.451   5.284
 6121SOL    HW119262   1.152   3.463   5.374
 6121SOL    HW219263   1.097   3.353   5.267
 6122SOL     OW19264   5.209   6.124   5.580
 6122SOL    HW119265   5.256   6.172   5.506
 6122SOL    HW219266   5.130   6.177   5.609
 6123SOL     OW19267   6.088   1.131   5.430
 6123SOL    HW119268   6.076   1.034   5.407
 6123SOL    HW219269   6.105   1.182   5.346
 6124SOL     OW19270   2.283   0.313   4.828
 6124SOL    HW119271   2.186   0.338   4.819
 6124SOL    HW219272   2.291   0.214   4.835
 6125SOL     OW19273   2.012   3.460   0.034
 6125SOL    HW119274   2.038   3.491   6.962
 6125SOL    HW219275   1.998   3.539   0.094
 6126SOL     OW19276   0.146   2.343   4.423
 6126SOL    HW119277   0.162   2.367   4.519
 6126SOL    HW219278   0.054   2.373   4.396
 6127SOL     OW19279   4.380   1.524   2.061
 6127SOL    HW119280   4.306   1.587   2.085
 6127SOL    HW219281   4.343   1.433   2.047
 6128SOL     OW19282   5.943   5.804   0.880
 6128SOL    HW119283   6.026   5.809   0.936
 6128SOL    HW219284   5.908   5.710   0.881
 6129SOL     OW19285   2.050   4.697   3.356
 6129SOL    HW119286   1.991   4.777   3.368
 6129SOL    HW219287   2.003   4.629   3.299
 6130SOL     OW19288   5.043   3.141   1.529
 6130SOL    HW119289   5.091   3.132   1.442
 6130SOL    HW219290   5.026   3.237   1.548
 6131SOL     OW19291   0.392   1.817   2.410
 6131SOL    HW119292   0.310   1.852   2.365
 6131SOL    HW219293   0.462   1.797   2.342
 6132SOL     OW19294   3.257   1.252   6.770
 6132SOL    HW119295   3.249   1.223   6.865
 6132SOL    HW219296   3.184   1.210   6.716
 6133SOL     OW19297   1.566   2.564   4.027
 6133SOL    HW119298   1.520   2.537   4.112
 6133SOL    HW219299   1.650   2.510   4.016
 6134SOL     OW19300   5.428   5.938   6.362
 6134SOL    HW119301   5.468   6.029   6.348
 6134SOL    HW219302   5.490   5.869   6.326
 6135SOL     OW19303   5.461   0.164   0.182
 6135SOL    HW119304   5.537   0.151   0.245
 6135SOL    HW219305   5.406   0.243   0.211
 6136SOL     OW19306   0.977   2.608   1.926
 6136SOL    HW119307   0.898   2.548   1.939
 6136SOL    HW219308   1.034   2.571   1.852
 6137SOL     OW19309   0.151   4.772   3.231
 6137SOL    HW119310   0.181   4.684   3.268
 6137SOL    HW219311   0.229   4.820   3.191
 6138SOL     OW19312   3.607   0.512   2.173
 6138SOL    HW119313   3.617   0.431   2.231
 6138SOL    HW219314   3.526   0.502   2.116
 6139SOL     OW19315   0.989   6.825   5.556
 6139SOL    HW119316   1.076   6.808   5.601
 6139SOL    HW219317   0.940   6.898   5.605
 6140SOL     OW19318   2.312   0.317   3.066
 6140SOL    HW119319   2.290   0.280   3.157
 6140SOL    HW219320   2.313   0.417   3.069
 6141SOL     OW19321   0.237   0.705   5.488
 6141SOL    HW119322   0.203   0.731   5.398
 6141SOL    HW219323   0.178   0.747   5.558
 6142SOL     OW19324   0.526   1.178   0.733
 6142SOL    HW119325   0.549   1.175   0.636
 6142SOL    HW219326   0.464   1.255   0.749
 6143SOL     OW19327   6.348   3.905   6.266
 6143SOL    HW119328   6.367   3.914   6.168
 6143SOL    HW219329   6.312   3.814   6.285
 6144SOL     OW19330   4.355   4.581   2.745
 6144SOL    HW119331   4.342   4.628   2.658
 6144SOL    HW219332   4.294   4.621   2.814
 6145SOL     OW19333   5.111   3.305   4.023
 6145SOL    HW119334   5.079   3.225   4.073
 6145SOL    HW219335   5.187   3.280   3.964
 6146SOL     OW19336   3.895   0.332   4.408
 6146SOL    HW119337   3.859   0.415   4.451
 6146SOL    HW219338   3.990   0.347   4.380
 6147SOL     OW19339   2.220   2.922   4.370
 6147SOL    HW119340   2.145   2.856   4.366
 6147SOL    HW219341   2.183   3.014   4.372
 6148SOL     OW19342   4.319   5.069   0.635
 6148SOL    HW119343   4.272   5.038   0.552
 6148SOL    HW219344   4.405   5.020   0.645
 6149SOL     OW19345   2.845   0.665   2.340
 6149SOL    HW119346   2.843   0.580   2.287
 6149SOL    HW219347   2.804   0.649   2.430
 6150SOL     OW19348   6.299   3.976   6.514
 6150SOL    HW119349   6.313   3.947   6.420
 6150SOL    HW219350   6.262   4.070   6.515
 6151SOL     OW19351   5.016   4.379   4.224
 6151SOL    HW119352   5.092   4.356   4.286
 6151SOL    HW219353   4.929   4.354   4.267
 6152SOL     OW19354   0.938   5.181   4.246
 6152SOL    HW119355   0.928   5.258   4.309
 6152SOL    HW219356   0.852   5.166   4.197
 6153SOL     OW19357   4.995   5.216   0.752
 6153SOL    HW119358   4.937   5.272   0.811
 6153SOL    HW219359   4.967   5.227   0.657
 6154SOL     OW19360   5.386   2.776   2.094
 6154SOL    HW119361   5.422   2.684   2.111
 6154SOL    HW219362   5.426   2.813   2.011
 6155SOL     OW19363   2.563   1.456   3.431
 6155SOL    HW119364   2.607   1.452   3.342
 6155SOL    HW219365   2.594   1.537   3.480
 6156SOL     OW19366   5.505   4.270   1.448
 6156SOL    HW119367   5.430   4.207   1.465
 6156SOL    HW219368   5.473   4.345   1.390
 6157SOL     OW19369   0.638   2.481   3.077
 6157SOL    HW119370   0.670   2.393   3.111
 6157SOL    HW219371   0.581   2.466   2.995
 6158SOL     OW19372   2.663   2.458   5.695
 6158SOL    HW119373   2.614   2.388   5.643
 6158SOL    HW219374   2.761   2.450   5.678
 6159SOL     OW19375   5.591   2.607   6.898
 6159SOL    HW119376   5.583   2.544   6.821
 6159SOL    HW219377   5.519   2.676   6.892
 6160SOL     OW19378   0.354   6.962   6.853
 6160SOL    HW119379   0.382   6.925   6.764
 6160SOL    HW219380   0.264   7.005   6.844
 6161SOL     OW19381   5.023   2.823   6.627
 6161SOL    HW119382   5.032   2.737   6.576
 6161SOL    HW219383   5.059   2.812   6.719
 6162SOL     OW19384   6.296   6.168   2.074
 6162SOL    HW119385   6.283   6.240   2.006
 6162SOL    HW219386   6.334   6.086   2.030
 6163SOL     OW19387   6.033   6.347   2.786
 6163SOL    HW119388   5.964   6.368   2.717
 6163SOL    HW219389   6.115   6.311   2.742
 6164SOL     OW19390   4.033   3.897   4.371
 6164SOL    HW119391   3.956   3.904   4.308
 6164SOL    HW219392   4.083   3.812   4.354
 6165SOL     OW19393   4.037   2.785   0.265
 6165SOL    HW119394   4.016   2.697   0.224
 6165SOL    HW219395   3.997   2.789   0.357
 6166SOL     OW19396   0.439   2.283   6.876
 6166SOL    HW119397   0.520   2.241   6.836
 6166SOL    HW219398   0.432   2.378   6.846
 6167SOL     OW19399   1.585   4.409   3.475
 6167SOL    HW119400   1.608   4.436   3.381
 6167SOL    HW219401   1.661   4.357   3.514
 6168SOL     OW19402   0.106   2.827   3.958
 6168SOL    HW119403   0.121   2.915   3.914
 6168SOL    HW219404   0.049   2.769   3.899
 6169SOL     OW19405   1.002   0.141   6.820
 6169SOL    HW119406   1.088   0.183   6.849
 6169SOL    HW219407   1.020   0.049   6.786
 6170SOL     OW19408   3.913   4.357   0.428
 6170SOL    HW119409   3.985   4.295   0.398
 6170SOL    HW219410   3.953   4.447   0.447
 6171SOL     OW19411   1.008   4.818   2.277
 6171SOL    HW119412   1.015   4.915   2.303
 6171SOL    HW219413   0.969   4.766   2.353
 6172SOL     OW19414   1.084   0.295   3.049
 6172SOL    HW119415   1.030   0.210   3.044
 6172SOL    HW219416   1.023   0.372   3.070
 6173SOL     OW19417   1.220   4.898   3.469
 6173SOL    HW119418   1.311   4.857   3.456
 6173SOL    HW219419   1.229   4.997   3.469
 6174SOL     OW19420   5.763   4.830   2.488
 6174SOL    HW119421   5.695   4.791   2.425
 6174SOL    HW219422   5.836   4.872   2.436
 6175SOL     OW19423   5.501   6.476   2.337
 6175SOL    HW119424   5.565   6.474   2.261
 6175SOL    HW219425   5.412   6.441   2.307
 6176SOL     OW19426   6.010   3.294   6.375
 6176SOL    HW119427   5.938   3.338   6.430
 6176SOL    HW219428   6.077   3.363   6.347
 6177SOL     OW19429   5.214   1.534   1.949
 6177SOL    HW119430   5.186   1.504   2.040
 6177SOL    HW219431   5.288   1.476   1.916
 6178SOL     OW19432   5.118   4.787   0.867
 6178SOL    HW119433   5.115   4.772   0.965
 6178SOL    HW219434   5.136   4.701   0.820
 6179SOL     OW19435   0.357   3.195   4.750
 6179SOL    HW119436   0.454   3.198   4.725
 6179SOL    HW219437   0.326   3.287   4.775
 6180SOL     OW19438   3.834   6.382   1.077
 6180SOL    HW119439   3.907   6.315   1.062
 6180SOL    HW219440   3.867   6.473   1.052
 6181SOL     OW19441   5.114   6.192   0.151
 6181SOL    HW119442   5.028   6.144   0.172
 6181SOL    HW219443   5.170   6.135   0.091
 6182SOL     OW19444   5.711   5.189   4.824
 6182SOL    HW119445   5.767   5.178   4.907
 6182SOL    HW219446   5.614   5.183   4.848
 6183SOL     OW19447   2.235   0.505   2.697
 6183SOL    HW119448   2.276   0.552   2.775
 6183SOL    HW219449   2.294   0.429   2.669
 6184SOL     OW19450   1.412   6.978   6.903
 6184SOL    HW119451   1.358   6.923   6.968
 6184SOL    HW219452   1.509   6.968   6.923
 6185SOL     OW19453   0.341   3.633   6.837
 6185SOL    HW119454   0.257   3.656   6.788
 6185SOL    HW219455   0.346   3.687   6.921
 6186SOL     OW19456   5.707   6.935   3.737
 6186SOL    HW119457   5.750   0.005   3.727
 6186SOL    HW219458   5.678   6.901   3.647
 6187SOL     OW19459   4.942   4.902   3.569
 6187SOL    HW119460   4.872   4.946   3.514
 6187SOL    HW219461   4.977   4.822   3.521
 6188SOL     OW19462   2.538   6.360   1.546
 6188SOL    HW119463   2.475   6.290   1.514
 6188SOL    HW219464   2.615   6.317   1.593
 6189SOL     OW19465   5.208   4.709   2.468
 6189SOL    HW119466   5.126   4.694   2.414
 6189SOL    HW219467   5.246   4.799   2.448
 6190SOL     OW19468   4.872   3.148   6.157
 6190SOL    HW119469   4.875   3.235   6.108
 6190SOL    HW219470   4.955   3.096   6.136
 6191SOL     OW19471   5.390   2.492   0.906
 6191SOL    HW119472   5.300   2.470   0.866
 6191SOL    HW219473   5.453   2.416   0.890
 6192SOL     OW19474   2.923   3.862   0.508
 6192SOL    HW119475   3.013   3.839   0.545
 6192SOL    HW219476   2.901   3.957   0.530
 6193SOL     OW19477   5.116   0.120   2.005
 6193SOL    HW119478   5.149   0.193   1.944
 6193SOL    HW219479   5.138   0.031   1.965
 6194SOL     OW19480   2.463   0.691   1.197
 6194SOL    HW119481   2.431   0.786   1.193
 6194SOL    HW219482   2.532   0.683   1.268
 6195SOL     OW19483   4.067   5.706   6.114
 6195SOL    HW119484   3.995   5.697   6.046
 6195SOL    HW219485   4.093   5.615   6.147
 6196SOL     OW19486   0.855   2.638   6.045
 6196SOL    HW119487   0.850   2.721   6.100
 6196SOL    HW219488   0.849   2.661   5.948
 6197SOL     OW19489   2.464   4.039   0.985
 6197SOL    HW119490   2.419   4.066   1.070
 6197SOL    HW219491   2.519   3.956   1.001
 6198SOL     OW19492   3.486   5.424   3.092
 6198SOL    HW119493   3.460   5.489   3.020
 6198SOL    HW219494   3.568   5.457   3.139
 6199SOL     OW19495   1.207   0.379   1.083
 6199SOL    HW119496   1.191   0.445   1.156
 6199SOL    HW219497   1.164   0.292   1.107
 6200SOL     OW19498   2.653   1.165   6.376
 6200SOL    HW119499   2.595   1.110   6.436
 6200SOL    HW219500   2.631   1.261   6.387
 6201SOL     OW19501   2.158   4.183   6.084
 6201SOL    HW119502   2.139   4.086   6.073
 6201SOL    HW219503   2.214   4.216   6.008
 6202SOL     OW19504   3.868   1.822   1.352
 6202SOL    HW119505   3.960   1.794   1.380
 6202SOL    HW219506   3.808   1.823   1.431
 6203SOL     OW19507   4.990   0.737   3.689
 6203SOL    HW119508   4.894   0.756   3.671
 6203SOL    HW219509   4.998   0.667   3.759
 6204SOL     OW19510   0.969   5.303   5.373
 6204SOL    HW119511   0.921   5.266   5.452
 6204SOL    HW219512   1.053   5.348   5.403
 6205SOL     OW19513   5.711   5.389   6.886
 6205SOL    HW119514   5.630   5.433   6.847
 6205SOL    HW219515   5.697   5.290   6.889
 6206SOL     OW19516   0.073   0.587   2.119
 6206SOL    HW119517   0.128   0.504   2.117
 6206SOL    HW219518   0.129   0.665   2.092
 6207SOL     OW19519   0.802   4.093   5.131
 6207SOL    HW119520   0.902   4.097   5.123
 6207SOL    HW219521   0.761   4.085   5.040
 6208SOL     OW19522   6.562   0.301   5.788
 6208SOL    HW119523   6.515   0.285   5.700
 6208SOL    HW219524   6.660   0.294   5.774
 6209SOL     OW19525   4.653   5.979   0.263
 6209SOL    HW119526   4.705   5.894   0.257
 6209SOL    HW219527   4.584   5.972   0.335
 6210SOL     OW19528   5.211   3.627   2.759
 6210SOL    HW119529   5.144   3.617   2.832
 6210SOL    HW219530   5.172   3.681   2.684
 6211SOL     OW19531   2.785   0.103   6.383
 6211SOL    HW119532   2.842   0.076   6.306
 6211SOL    HW219533   2.779   0.027   6.448
 6212SOL     OW19534   6.782   5.964   3.645
 6212SOL    HW119535   6.727   5.936   3.567
 6212SOL    HW219536   6.746   5.923   3.729
 6213SOL     OW19537   5.629   0.896   6.681
 6213SOL    HW119538   5.660   0.931   6.592
 6213SOL    HW219539   5.665   0.804   6.694
 6214SOL     OW19540   6.252   5.023   2.864
 6214SOL    HW119541   6.161   4.984   2.849
 6214SOL    HW219542   6.249   5.088   2.940
 6215SOL     OW19543   2.974   1.796   6.903
 6215SOL    HW119544   3.005   1.874   6.848
 6215SOL    HW219545   3.037   1.782   6.979
 6216SOL     OW19546   6.501   1.950   1.568
 6216SOL    HW119547   6.447   2.028   1.533
 6216SOL    HW219548   6.524   1.966   1.664
 6217SOL     OW19549   4.819   2.945   1.489
 6217SOL    HW119550   4.870   3.026   1.518
 6217SOL    HW219551   4.795   2.890   1.569
 6218SOL     OW19552   2.866   5.105   4.692
 6218SOL    HW119553   2.787   5.053   4.724
 6218SOL    HW219554   2.947   5.078   4.743
 6219SOL     OW19555   1.503   2.484   4.956
 6219SOL    HW119556   1.452   2.405   4.991
 6219SOL    HW219557   1.514   2.475   4.857
 6220SOL     OW19558   1.707   4.889   5.973
 6220SOL    HW119559   1.745   4.936   5.894
 6220SOL    HW219560   1.608   4.878   5.962
 6221SOL     OW19561   4.634   5.205   4.796
 6221SOL    HW119562   4.542   5.229   4.765
 6221SOL    HW219563   4.685   5.167   4.719
 6222SOL     OW19564   0.221   0.401   1.303
 6222SOL    HW119565   0.260   0.312   1.323
 6222SOL    HW219566   0.262   0.437   1.218
 6223SOL     OW19567   5.673   3.868   4.283
 6223SOL    HW119568   5.619   3.826   4.356
 6223SOL    HW219569   5.769   3.867   4.308
 6224SOL     OW19570   2.029   1.216   5.971
 6224SOL    HW119571   2.124   1.183   5.970
 6224SOL    HW219572   2.001   1.240   5.878
 6225SOL     OW19573   3.591   3.360   1.252
 6225SOL    HW119574   3.577   3.303   1.171
 6225SOL    HW219575   3.623   3.450   1.224
 6226SOL     OW19576   5.786   1.201   3.559
 6226SOL    HW119577   5.711   1.147   3.520
 6226SOL    HW219578   5.748   1.269   3.622
 6227SOL     OW19579   2.972   4.459   6.182
 6227SOL    HW119580   2.960   4.360   6.192
 6227SOL    HW219581   3.064   4.478   6.148
 6228SOL     OW19582   6.624   1.652   2.712
 6228SOL    HW119583   6.632   1.751   2.723
 6228SOL    HW219584   6.621   1.608   2.802
 6229SOL     OW19585   2.644   1.505   2.881
 6229SOL    HW119586   2.719   1.492   2.817
 6229SOL    HW219587   2.641   1.429   2.945
 6230SOL     OW19588   2.469   1.088   4.634
 6230SOL    HW119589   2.374   1.105   4.608
 6230SOL    HW219590   2.517   1.175   4.644
 6231SOL     OW19591   6.803   4.675   1.062
 6231SOL    HW119592   6.872   4.630   1.005
 6231SOL    HW219593   6.757   4.746   1.008
 6232SOL     OW19594   0.129   1.388   0.151
 6232SOL    HW119595   0.155   1.321   0.081
 6232SOL    HW219596   0.044   1.358   0.195
 6233SOL     OW19597   5.444   2.001   6.801
 6233SOL    HW119598   5.426   2.047   6.887
 6233SOL    HW219599   5.463   2.069   6.730
 6234SOL     OW19600   1.568   1.473   4.685
 6234SOL    HW119601   1.586   1.375   4.685
 6234SOL    HW219602   1.548   1.504   4.592
 6235SOL     OW19603   1.854   6.788   3.309
 6235SOL    HW119604   1.867   6.882   3.342
 6235SOL    HW219605   1.941   6.750   3.281
 6236SOL     OW19606   0.220   4.916   1.228
 6236SOL    HW119607   0.218   4.834   1.171
 6236SOL    HW219608   0.130   4.930   1.271
 6237SOL     OW19609   4.752   5.744   0.868
 6237SOL    HW119610   4.661   5.751   0.909
 6237SOL    HW219611   4.744   5.707   0.775
 6238SOL     OW19612   4.535   5.816   2.239
 6238SOL    HW119613   4.568   5.722   2.235
 6238SOL    HW219614   4.588   5.868   2.306
 6239SOL     OW19615   2.916   6.293   2.476
 6239SOL    HW119616   2.972   6.253   2.549
 6239SOL    HW219617   2.919   6.393   2.482
 6240SOL     OW19618   2.648   2.415   1.072
 6240SOL    HW119619   2.675   2.337   1.128
 6240SOL    HW219620   2.569   2.389   1.015
 6241SOL     OW19621   2.982   0.940   2.218
 6241SOL    HW119622   3.065   0.885   2.223
 6241SOL    HW219623   2.907   0.884   2.182
 6242SOL     OW19624   5.040   1.205   3.382
 6242SOL    HW119625   5.001   1.295   3.365
 6242SOL    HW219626   4.978   1.151   3.439
 6243SOL     OW19627   5.962   6.365   3.406
 6243SOL    HW119628   5.927   6.452   3.371
 6243SOL    HW219629   5.904   6.291   3.373
 6244SOL     OW19630   2.558   2.400   2.427
 6244SOL    HW119631   2.611   2.365   2.504
 6244SOL    HW219632   2.497   2.328   2.394
 6245SOL     OW19633   2.641   4.235   1.077
 6245SOL    HW119634   2.620   4.208   1.171
 6245SOL    HW219635   2.586   4.180   1.014
 6246SOL     OW19636   2.808   2.869   6.762
 6246SOL    HW119637   2.856   2.815   6.693
 6246SOL    HW219638   2.872   2.895   6.834
 6247SOL     OW19639   0.222   6.789   3.997
 6247SOL    HW119640   0.235   6.883   4.027
 6247SOL    HW219641   0.179   6.788   3.907
 6248SOL     OW19642   0.960   4.029   1.087
 6248SOL    HW119643   0.878   3.972   1.097
 6248SOL    HW219644   0.963   4.065   0.993
 6249SOL     OW19645   6.950   4.715   0.536
 6249SOL    HW119646   0.017   4.709   0.586
 6249SOL    HW219647   6.962   4.774   0.456
 6250SOL     OW19648   6.822   6.477   0.671
 6250SOL    HW119649   6.800   6.546   0.603
 6250SOL    HW219650   6.857   6.521   0.754
 6251SOL     OW19651   4.227   0.486   1.617
 6251SOL    HW119652   4.281   0.568   1.635
 6251SOL    HW219653   4.154   0.478   1.685
 6252SOL     OW19654   2.301   5.675   4.919
 6252SOL    HW119655   2.355   5.676   5.003
 6252SOL    HW219656   2.250   5.589   4.913
 6253SOL     OW19657   2.386   4.168   1.808
 6253SOL    HW119658   2.304   4.172   1.866
 6253SOL    HW219659   2.377   4.235   1.734
 6254SOL     OW19660   5.839   0.208   6.903
 6254SOL    HW119661   5.807   0.122   6.864
 6254SOL    HW219662   5.938   0.207   6.910
 6255SOL     OW19663   1.348   1.421   1.740
 6255SOL    HW119664   1.286   1.491   1.776
 6255SOL    HW219665   1.316   1.392   1.650
 6256SOL     OW19666   4.185   5.245   2.386
 6256SOL    HW119667   4.275   5.245   2.429
 6256SOL    HW219668   4.135   5.163   2.414
 6257SOL     OW19669   5.329   2.410   1.279
 6257SOL    HW119670   5.337   2.312   1.263
 6257SOL    HW219671   5.243   2.444   1.240
 6258SOL     OW19672   4.357   1.227   3.200
 6258SOL    HW119673   4.389   1.215   3.106
 6258SOL    HW219674   4.276   1.171   3.215
 6259SOL     OW19675   3.038   1.904   1.391
 6259SOL    HW119676   3.136   1.903   1.411
 6259SOL    HW219677   2.997   1.987   1.429
 6260SOL     OW19678   3.902   3.955   0.488
 6260SOL    HW119679   3.972   3.885   0.499
 6260SOL    HW219680   3.876   3.961   0.391
 6261SOL     OW19681   4.207   0.136   6.626
 6261SOL    HW119682   4.219   0.148   6.528
 6261SOL    HW219683   4.126   0.079   6.643
 6262SOL     OW19684   1.682   4.300   0.331
 6262SOL    HW119685   1.692   4.267   0.425
 6262SOL    HW219686   1.657   4.396   0.331
 6263SOL     OW19687   0.506   6.115   6.477
 6263SOL    HW119688   0.418   6.097   6.520
 6263SOL    HW219689   0.527   6.212   6.482
 6264SOL     OW19690   2.396   1.275   1.010
 6264SOL    HW119691   2.382   1.197   0.949
 6264SOL    HW219692   2.494   1.288   1.025
 6265SOL     OW19693   3.424   4.408   1.340
 6265SOL    HW119694   3.460   4.362   1.421
 6265SOL    HW219695   3.491   4.402   1.266
 6266SOL     OW19696   3.725   0.933   4.089
 6266SOL    HW119697   3.678   0.883   4.016
 6266SOL    HW219698   3.699   0.895   4.178
 6267SOL     OW19699   3.056   0.225   0.358
 6267SOL    HW119700   3.032   0.218   0.261
 6267SOL    HW219701   3.017   0.147   0.408
 6268SOL     OW19702   2.741   5.073   3.114
 6268SOL    HW119703   2.774   4.978   3.106
 6268SOL    HW219704   2.645   5.077   3.087
 6269SOL     OW19705   5.873   6.002   2.166
 6269SOL    HW119706   5.898   5.907   2.188
 6269SOL    HW219707   5.940   6.040   2.102
 6270SOL     OW19708   1.771   0.659   5.874
 6270SOL    HW119709   1.792   0.631   5.781
 6270SOL    HW219710   1.745   0.755   5.876
 6271SOL     OW19711   0.107   2.753   5.544
 6271SOL    HW119712   0.045   2.794   5.478
 6271SOL    HW219713   0.072   2.767   5.637
 6272SOL     OW19714   0.796   3.700   4.360
 6272SOL    HW119715   0.867   3.746   4.413
 6272SOL    HW219716   0.838   3.629   4.302
 6273SOL     OW19717   1.636   0.789   1.876
 6273SOL    HW119718   1.548   0.782   1.829
 6273SOL    HW219719   1.629   0.747   1.967
 6274SOL     OW19720   3.011   5.969   6.732
 6274SOL    HW119721   2.998   5.903   6.805
 6274SOL    HW219722   3.109   5.988   6.721
 6275SOL     OW19723   3.195   6.925   5.259
 6275SOL    HW119724   3.234   6.977   5.183
 6275SOL    HW219725   3.113   6.877   5.228
 6276SOL     OW19726   0.957   5.301   3.499
 6276SOL    HW119727   0.930   5.351   3.582
 6276SOL    HW219728   0.907   5.215   3.494
 6277SOL     OW19729   4.753   2.812   2.713
 6277SOL    HW119730   4.709   2.832   2.626
 6277SOL    HW219731   4.685   2.811   2.786
 6278SOL     OW19732   4.887   0.064   3.859
 6278SOL    HW119733   4.908   6.993   3.895
 6278SOL    HW219734   4.809   0.103   3.909
 6279SOL     OW19735   3.909   1.858   0.784
 6279SOL    HW119736   3.918   1.764   0.818
 6279SOL    HW219737   3.920   1.858   0.684
 6280SOL     OW19738   0.407   3.050   5.768
 6280SOL    HW119739   0.403   3.145   5.736
 6280SOL    HW219740   0.501   3.027   5.792
 6281SOL     OW19741   2.576   0.125   5.384
 6281SOL    HW119742   2.527   0.130   5.471
 6281SOL    HW219743   2.515   0.090   5.313
 6282SOL     OW19744   1.263   6.698   5.230
 6282SOL    HW119745   1.337   6.765   5.230
 6282SOL    HW219746   1.176   6.744   5.245
 6283SOL     OW19747   6.901   2.423   4.963
 6283SOL    HW119748   6.935   2.464   5.048
 6283SOL    HW219749   6.953   2.459   4.886
 6284SOL     OW19750   1.721   5.214   5.367
 6284SOL    HW119751   1.753   5.301   5.330
 6284SOL    HW219752   1.799   5.163   5.404
 6285SOL     OW19753   1.196   3.383   4.225
 6285SOL    HW119754   1.175   3.294   4.185
 6285SOL    HW219755   1.293   3.386   4.251
 6286SOL     OW19756   5.951   1.081   3.377
 6286SOL    HW119757   5.999   1.001   3.412
 6286SOL    HW219758   5.926   1.141   3.454
 6287SOL     OW19759   4.521   4.496   1.745
 6287SOL    HW119760   4.444   4.559   1.759
 6287SOL    HW219761   4.504   4.410   1.793
 6288SOL     OW19762   5.252   4.255   1.209
 6288SOL    HW119763   5.308   4.333   1.233
 6288SOL    HW219764   5.167   4.286   1.166
 6289SOL     OW19765   2.020   2.678   3.674
 6289SOL    HW119766   1.992   2.679   3.770
 6289SOL    HW219767   2.056   2.588   3.650
 6290SOL     OW19768   5.085   3.986   3.969
 6290SOL    HW119769   4.988   3.968   3.981
 6290SOL    HW219770   5.099   4.039   3.885
 6291SOL     OW19771   3.771   3.294   3.617
 6291SOL    HW119772   3.707   3.350   3.670
 6291SOL    HW219773   3.853   3.347   3.597
 6292SOL     OW19774   0.874   2.614   3.411
 6292SOL    HW119775   0.972   2.622   3.432
 6292SOL    HW219776   0.862   2.587   3.316
 6293SOL     OW19777   5.234   6.881   0.096
 6293SOL    HW119778   5.216   6.934   0.178
 6293SOL    HW219779   5.328   6.848   0.097
 6294SOL     OW19780   2.870   5.506   2.606
 6294SOL    HW119781   2.864   5.591   2.553
 6294SOL    HW219782   2.948   5.452   2.573
 6295SOL     OW19783   5.673   5.610   5.317
 6295SOL    HW119784   5.693   5.574   5.408
 6295SOL    HW219785   5.589   5.665   5.320
 6296SOL     OW19786   6.445   0.638   3.453
 6296SOL    HW119787   6.528   0.681   3.415
 6296SOL    HW219788   6.365   0.673   3.405
 6297SOL     OW19789   5.157   6.288   5.916
 6297SOL    HW119790   5.162   6.283   6.016
 6297SOL    HW219791   5.105   6.211   5.881
 6298SOL     OW19792   1.127   3.408   5.802
 6298SOL    HW119793   1.160   3.425   5.709
 6298SOL    HW219794   1.199   3.362   5.855
 6299SOL     OW19795   6.160   2.305   6.687
 6299SOL    HW119796   6.186   2.322   6.782
 6299SOL    HW219797   6.112   2.217   6.681
 6300SOL     OW19798   5.159   0.654   4.356
 6300SOL    HW119799   5.147   0.715   4.434
 6300SOL    HW219800   5.233   0.589   4.376
 6301SOL     OW19801   2.874   6.640   0.879
 6301SOL    HW119802   2.970   6.657   0.902
 6301SOL    HW219803   2.829   6.596   0.956
 6302SOL     OW19804   1.637   1.243   3.842
 6302SOL    HW119805   1.735   1.227   3.833
 6302SOL    HW219806   1.598   1.173   3.902
 6303SOL     OW19807   2.144   0.197   5.303
 6303SOL    HW119808   2.236   0.201   5.262
 6303SOL    HW219809   2.137   0.266   5.375
 6304SOL     OW19810   3.541   0.251   0.954
 6304SOL    HW119811   3.564   0.217   0.864
 6304SOL    HW219812   3.501   0.177   1.009
 6305SOL     OW19813   6.437   6.881   1.220
 6305SOL    HW119814   6.352   6.860   1.269
 6305SOL    HW219815   6.503   6.918   1.285
 6306SOL     OW19816   6.927   3.158   3.948
 6306SOL    HW119817   0.001   3.124   3.958
 6306SOL    HW219818   6.911   3.232   4.014
 6307SOL     OW19819   2.875   5.305   5.527
 6307SOL    HW119820   2.841   5.211   5.516
 6307SOL    HW219821   2.880   5.349   5.437
 6308SOL     OW19822   1.999   1.858   5.255
 6308SOL    HW119823   2.059   1.862   5.175
 6308SOL    HW219824   1.948   1.943   5.263
 6309SOL     OW19825   4.756   2.414   3.920
 6309SOL    HW119826   4.805   2.327   3.910
 6309SOL    HW219827   4.740   2.432   4.017
 6310SOL     OW19828   1.709   4.544   4.497
 6310SOL    HW119829   1.690   4.615   4.430
 6310SOL    HW219830   1.805   4.552   4.527
 6311SOL     OW19831   6.736   0.317   4.655
 6311SOL    HW119832   6.836   0.319   4.661
 6311SOL    HW219833   6.701   0.411   4.656
 6312SOL     OW19834   4.604   5.340   6.518
 6312SOL    HW119835   4.698   5.308   6.504
 6312SOL    HW219836   4.588   5.421   6.463
 6313SOL     OW19837   1.800   5.603   3.532
 6313SOL    HW119838   1.847   5.648   3.456
 6313SOL    HW219839   1.758   5.672   3.590
 6314SOL     OW19840   2.883   5.980   2.166
 6314SOL    HW119841   2.928   6.022   2.245
 6314SOL    HW219842   2.784   5.977   2.182
 6315SOL     OW19843   4.288   3.185   0.197
 6315SOL    HW119844   4.342   3.251   0.248
 6315SOL    HW219845   4.291   3.096   0.244
 6316SOL     OW19846   4.855   2.112   6.037
 6316SOL    HW119847   4.905   2.108   5.950
 6316SOL    HW219848   4.788   2.038   6.041
 6317SOL     OW19849   5.067   6.850   3.024
 6317SOL    HW119850   4.990   6.868   2.964
 6317SOL    HW219851   5.151   6.889   2.985
 6318SOL     OW19852   2.517   2.237   5.921
 6318SOL    HW119853   2.554   2.257   5.830
 6318SOL    HW219854   2.476   2.320   5.959
 6319SOL     OW19855   0.629   3.321   3.339
 6319SOL    HW119856   0.566   3.251   3.371
 6319SOL    HW219857   0.719   3.305   3.379
 6320SOL     OW19858   6.193   3.896   3.304
 6320SOL    HW119859   6.152   3.833   3.238
 6320SOL    HW219860   6.287   3.918   3.276
 6321SOL     OW19861   2.817   5.618   0.550
 6321SOL    HW119862   2.834   5.682   0.625
 6321SOL    HW219863   2.863   5.651   0.468
 6322SOL     OW19864   1.306   1.444   6.528
 6322SOL    HW119865   1.368   1.516   6.560
 6322SOL    HW219866   1.257   1.405   6.606
 6323SOL     OW19867   3.364   2.275   1.766
 6323SOL    HW119868   3.448   2.279   1.820
 6323SOL    HW219869   3.312   2.194   1.791
 6324SOL     OW19870   4.478   0.697   5.489
 6324SOL    HW119871   4.574   0.721   5.506
 6324SOL    HW219872   4.419   0.752   5.548
 6325SOL     OW19873   0.719   3.024   2.049
 6325SOL    HW119874   0.809   3.064   2.067
 6325SOL    HW219875   0.672   3.006   2.136
 6326SOL     OW19876   5.460   5.781   1.034
 6326SOL    HW119877   5.555   5.808   1.015
 6326SOL    HW219878   5.431   5.821   1.121
 6327SOL     OW19879   6.172   6.207   4.939
 6327SOL    HW119880   6.109   6.282   4.919
 6327SOL    HW219881   6.122   6.121   4.939
 6328SOL     OW19882   1.543   4.204   6.910
 6328SOL    HW119883   1.594   4.167   6.988
 6328SOL    HW219884   1.586   4.288   6.878
 6329SOL     OW19885   1.367   1.259   3.511
 6329SOL    HW119886   1.289   1.202   3.537
 6329SOL    HW219887   1.365   1.277   3.413
 6330SOL     OW19888   4.705   0.731   0.488
 6330SOL    HW119889   4.742   0.813   0.445
 6330SOL    HW219890   4.720   0.652   0.428
 6331SOL     OW19891   6.417   2.200   0.703
 6331SOL    HW119892   6.511   2.219   0.734
 6331SOL    HW219893   6.365   2.285   0.705
 6332SOL     OW19894   6.128   5.453   1.776
 6332SOL    HW119895   6.054   5.519   1.771
 6332SOL    HW219896   6.195   5.473   1.704
 6333SOL     OW19897   3.384   5.373   3.738
 6333SOL    HW119898   3.470   5.341   3.699
 6333SOL    HW219899   3.404   5.435   3.814
 6334SOL     OW19900   2.718   0.019   2.760
 6334SOL    HW119901   2.643   0.048   2.701
 6334SOL    HW219902   2.715   0.072   2.845
 6335SOL     OW19903   6.070   1.397   6.826
 6335SOL    HW119904   6.047   1.443   6.740
 6335SOL    HW219905   6.155   1.434   6.862
 6336SOL     OW19906   6.942   2.486   4.342
 6336SOL    HW119907   6.875   2.524   4.406
 6336SOL    HW219908   6.953   2.549   4.265
 6337SOL     OW19909   5.250   3.133   5.736
 6337SOL    HW119910   5.284   3.204   5.797
 6337SOL    HW219911   5.210   3.175   5.655
 6338SOL     OW19912   2.389   1.864   2.228
 6338SOL    HW119913   2.344   1.952   2.213
 6338SOL    HW219914   2.355   1.797   2.163
 6339SOL     OW19915   0.579   2.461   3.734
 6339SOL    HW119916   0.554   2.380   3.787
 6339SOL    HW219917   0.676   2.457   3.711
 6340SOL     OW19918   2.765   5.486   3.829
 6340SOL    HW119919   2.690   5.451   3.773
 6340SOL    HW219920   2.756   5.453   3.923
 6341SOL     OW19921   6.955   5.214   3.748
 6341SOL    HW119922   7.016   5.140   3.775
 6341SOL    HW219923   6.860   5.183   3.757
 6342SOL     OW19924   2.420   2.632   2.371
 6342SOL    HW119925   2.468   2.716   2.395
 6342SOL    HW219926   2.468   2.554   2.412
 6343SOL     OW19927   4.249   2.821   6.485
 6343SOL    HW119928   4.291   2.881   6.417
 6343SOL    HW219929   4.270   2.725   6.461
 6344SOL     OW19930   6.876   3.485   5.060
 6344SOL    HW119931   6.818   3.408   5.031
 6344SOL    HW219932   6.953   3.493   4.997
 6345SOL     OW19933   3.991   1.696   2.747
 6345SOL    HW119934   4.035   1.669   2.832
 6345SOL    HW219935   4.019   1.633   2.674
 6346SOL     OW19936   0.209   3.454   3.147
 6346SOL    HW119937   0.118   3.439   3.186
 6346SOL    HW219938   0.259   3.519   3.204
 6347SOL     OW19939   3.201   0.390   1.464
 6347SOL    HW119940   3.194   0.303   1.512
 6347SOL    HW219941   3.220   0.464   1.529
 6348SOL     OW19942   0.509   3.664   4.861
 6348SOL    HW119943   0.559   3.595   4.914
 6348SOL    HW219944   0.565   3.691   4.782
 6349SOL     OW19945   3.141   0.615   1.623
 6349SOL    HW119946   3.212   0.570   1.677
 6349SOL    HW219947   3.173   0.706   1.595
 6350SOL     OW19948   1.814   5.561   2.800
 6350SOL    HW119949   1.777   5.590   2.888
 6350SOL    HW219950   1.742   5.562   2.731
 6351SOL     OW19951   6.763   2.560   2.586
 6351SOL    HW119952   6.680   2.507   2.602
 6351SOL    HW219953   6.839   2.519   2.636
 6352SOL     OW19954   1.441   5.287   3.575
 6352SOL    HW119955   1.359   5.342   3.590
 6352SOL    HW219956   1.421   5.214   3.511
 6353SOL     OW19957   0.292   0.474   6.641
 6353SOL    HW119958   0.355   0.536   6.687
 6353SOL    HW219959   0.343   0.402   6.595
 6354SOL     OW19960   0.725   6.967   2.531
 6354SOL    HW119961   0.803   6.977   2.593
 6354SOL    HW219962   0.700   6.871   2.525
 6355SOL     OW19963   1.909   3.746   4.054
 6355SOL    HW119964   1.842   3.784   3.990
 6355SOL    HW219965   1.990   3.804   4.056
 6356SOL     OW19966   5.131   4.770   1.136
 6356SOL    HW119967   5.214   4.791   1.187
 6356SOL    HW219968   5.052   4.812   1.181
 6357SOL     OW19969   4.036   3.075   0.522
 6357SOL    HW119970   4.015   3.139   0.448
 6357SOL    HW219971   4.119   3.105   0.569
 6358SOL     OW19972   6.901   2.432   3.978
 6358SOL    HW119973   6.829   2.364   3.998
 6358SOL    HW219974   6.989   2.397   4.011
 6359SOL     OW19975   6.914   0.567   5.708
 6359SOL    HW119976   6.986   0.635   5.694
 6359SOL    HW219977   6.884   0.570   5.803
 6360SOL     OW19978   2.658   4.609   4.290
 6360SOL    HW119979   2.578   4.564   4.331
 6360SOL    HW219980   2.712   4.653   4.362
 6361SOL     OW19981   4.427   5.596   6.430
 6361SOL    HW119982   4.405   5.688   6.400
 6361SOL    HW219983   4.345   5.554   6.470
 6362SOL     OW19984   6.202   4.218   6.542
 6362SOL    HW119985   6.146   4.208   6.623
 6362SOL    HW219986   6.275   4.284   6.560
 6363SOL     OW19987   1.930   6.112   4.582
 6363SOL    HW119988   1.865   6.045   4.547
 6363SOL    HW219989   1.896   6.204   4.565
 6364SOL     OW19990   3.176   2.048   5.432
 6364SOL    HW119991   3.118   2.107   5.488
 6364SOL    HW219992   3.242   2.002   5.491
 6365SOL     OW19993   4.849   6.972   3.295
 6365SOL    HW119994   4.893   0.030   3.250
 6365SOL    HW219995   4.880   6.887   3.253
 6366SOL     OW19996   0.938   5.115   5.186
 6366SOL    HW119997   0.982   5.129   5.097
 6366SOL    HW219998   0.968   5.187   5.249
 6367SOL     OW19999   5.178   0.485   3.423
 6367SOL    HW120000   5.199   0.471   3.520
 6367SOL    HW220001   5.083   0.513   3.413
 6368SOL     OW20002   3.107   0.126   3.997
 6368SOL    HW120003   3.117   0.193   4.071
 6368SOL    HW220004   3.035   0.061   4.021
 6369SOL     OW20005   2.825   5.362   4.496
 6369SOL    HW120006   2.880   5.419   4.556
 6369SOL    HW220007   2.881   5.286   4.462
 6370SOL     OW20008   0.059   1.993   1.836
 6370SOL    HW120009   0.007   1.908   1.835
 6370SOL    HW220010   0.145   1.981   1.788
 6371SOL     OW20011   4.631   2.696   2.958
 6371SOL    HW120012   4.608   2.628   2.888
 6371SOL    HW220013   4.581   2.675   3.042
 6372SOL     OW20014   3.095   6.268   1.833
 6372SOL    HW120015   3.006   6.246   1.874
 6372SOL    HW220016   3.081   6.311   1.744
 6373SOL     OW20017   5.335   4.395   5.197
 6373SOL    HW120018   5.237   4.397   5.216
 6373SOL    HW220019   5.385   4.427   5.278
 6374SOL     OW20020   2.931   3.283   3.620
 6374SOL    HW120021   2.966   3.210   3.680
 6374SOL    HW220022   2.911   3.364   3.675
 6375SOL     OW20023   1.049   0.864   3.181
 6375SOL    HW120024   0.999   0.890   3.264
 6375SOL    HW220025   1.086   0.946   3.138
 6376SOL     OW20026   0.433   1.521   4.355
 6376SOL    HW120027   0.359   1.581   4.384
 6376SOL    HW220028   0.473   1.475   4.435
 6377SOL     OW20029   0.095   0.764   5.262
 6377SOL    HW120030   0.044   0.839   5.304
 6377SOL    HW220031   0.078   0.763   5.163
 6378SOL     OW20032   4.813   4.144   3.829
 6378SOL    HW120033   4.863   4.212   3.881
 6378SOL    HW220034   4.746   4.189   3.770
 6379SOL     OW20035   2.321   4.888   3.772
 6379SOL    HW120036   2.308   4.986   3.791
 6379SOL    HW220037   2.271   4.864   3.689
 6380SOL     OW20038   0.692   0.931   5.779
 6380SOL    HW120039   0.625   0.864   5.811
 6380SOL    HW220040   0.743   0.967   5.858
 6381SOL     OW20041   3.349   3.355   2.541
 6381SOL    HW120042   3.288   3.432   2.526
 6381SOL    HW220043   3.297   3.279   2.581
 6382SOL     OW20044   1.307   2.614   6.105
 6382SOL    HW120045   1.400   2.614   6.142
 6382SOL    HW220046   1.296   2.689   6.041
 6383SOL     OW20047   2.157   2.156   4.167
 6383SOL    HW120048   2.143   2.235   4.108
 6383SOL    HW220049   2.156   2.184   4.262
 6384SOL     OW20050   5.984   4.927   2.344
 6384SOL    HW120051   6.021   5.013   2.310
 6384SOL    HW220052   6.058   4.862   2.361
 6385SOL     OW20053   6.101   5.084   3.871
 6385SOL    HW120054   6.170   5.073   3.942
 6385SOL    HW220055   6.073   4.994   3.837
 6386SOL     OW20056   2.541   5.205   1.063
 6386SOL    HW120057   2.605   5.152   1.007
 6386SOL    HW220058   2.568   5.302   1.063
 6387SOL     OW20059   0.397   2.432   5.982
 6387SOL    HW120060   0.368   2.527   5.992
 6387SOL    HW220061   0.485   2.419   6.027
 6388SOL     OW20062   3.349   4.689   1.480
 6388SOL    HW120063   3.346   4.665   1.577
 6388SOL    HW220064   3.273   4.646   1.432
 6389SOL     OW20065   0.859   5.920   2.650
 6389SOL    HW120066   0.813   5.831   2.652
 6389SOL    HW220067   0.952   5.909   2.615
 6390SOL     OW20068   0.243   2.433   3.457
 6390SOL    HW120069   0.170   2.438   3.388
 6390SOL    HW220070   0.302   2.355   3.437
 6391SOL     OW20071   3.568   1.704   0.182
 6391SOL    HW120072   3.504   1.699   0.259
 6391SOL    HW220073   3.602   1.798   0.172
 6392SOL     OW20074   2.056   6.725   3.965
 6392SOL    HW120075   1.989   6.711   3.893
 6392SOL    HW220076   2.018   6.694   4.053
 6393SOL     OW20077   5.474   6.458   1.149
 6393SOL    HW120078   5.471   6.369   1.194
 6393SOL    HW220079   5.568   6.477   1.120
 6394SOL     OW20080   2.494   5.102   0.730
 6394SOL    HW120081   2.485   5.014   0.778
 6394SOL    HW220082   2.581   5.104   0.681
 6395SOL     OW20083   6.029   1.298   1.103
 6395SOL    HW120084   6.019   1.229   1.175
 6395SOL    HW220085   5.974   1.378   1.125
 6396SOL     OW20086   4.842   2.385   6.035
 6396SOL    HW120087   4.751   2.416   6.062
 6396SOL    HW220088   4.848   2.286   6.048
 6397SOL     OW20089   0.121   2.432   6.739
 6397SOL    HW120090   0.195   2.478   6.787
 6397SOL    HW220091   0.033   2.470   6.768
 6398SOL     OW20092   3.298   0.835   1.503
 6398SOL    HW120093   3.390   0.872   1.508
 6398SOL    HW220094   3.249   0.874   1.425
 6399SOL     OW20095   1.720   5.812   0.191
 6399SOL    HW120096   1.815   5.833   0.170
 6399SOL    HW220097   1.702   5.715   0.172
 6400SOL     OW20098   2.349   5.472   3.755
 6400SOL    HW120099   2.447   5.454   3.741
 6400SOL    HW220100   2.304   5.387   3.782
 6401SOL     OW20101   0.100   4.664   3.595
 6401SOL    HW120102   0.101   4.760   3.569
 6401SOL    HW220103   0.151   4.611   3.528
 6402SOL     OW20104   2.916   0.782   3.262
 6402SOL    HW120105   2.916   0.881   3.253
 6402SOL    HW220106   2.951   0.740   3.178
 6403SOL     OW20107   1.006   4.414   0.148
 6403SOL    HW120108   1.060   4.346   0.197
 6403SOL    HW220109   0.910   4.406   0.176
 6404SOL     OW20110   4.134   1.832   3.434
 6404SOL    HW120111   4.133   1.873   3.525
 6404SOL    HW220112   4.071   1.882   3.374
 6405SOL     OW20113   1.801   1.978   2.595
 6405SOL    HW120114   1.829   1.925   2.515
 6405SOL    HW220115   1.701   1.988   2.595
 6406SOL     OW20116   1.939   1.216   3.826
 6406SOL    HW120117   1.977   1.304   3.796
 6406SOL    HW220118   1.944   1.150   3.751
 6407SOL     OW20119   3.251   6.865   4.263
 6407SOL    HW120120   3.194   6.919   4.201
 6407SOL    HW220121   3.304   6.799   4.210
 6408SOL     OW20122   5.866   1.892   6.882
 6408SOL    HW120123   5.828   1.979   6.914
 6408SOL    HW220124   5.801   1.818   6.903
 6409SOL     OW20125   6.158   3.616   2.649
 6409SOL    HW120126   6.141   3.539   2.588
 6409SOL    HW220127   6.257   3.624   2.666
 6410SOL     OW20128   1.753   1.537   0.336
 6410SOL    HW120129   1.719   1.621   0.294
 6410SOL    HW220130   1.776   1.471   0.264
 6411SOL     OW20131   1.097   1.699   3.314
 6411SOL    HW120132   1.185   1.651   3.308
 6411SOL    HW220133   1.024   1.640   3.278
 6412SOL     OW20134   6.961   2.815   5.336
 6412SOL    HW120135   6.914   2.882   5.393
 6412SOL    HW220136   7.010   2.863   5.263
 6413SOL     OW20137   6.010   4.986   1.772
 6413SOL    HW120138   6.085   5.028   1.822
 6413SOL    HW220139   5.955   4.931   1.835
 6414SOL     OW20140   5.938   0.619   0.946
 6414SOL    HW120141   5.844   0.595   0.926
 6414SOL    HW220142   5.947   0.718   0.952
 6415SOL     OW20143   2.376   2.215   2.345
 6415SOL    HW120144   2.315   2.163   2.285
 6415SOL    HW220145   2.388   2.166   2.431
 6416SOL     OW20146   0.748   6.822   6.887
 6416SOL    HW120147   0.699   6.799   6.971
 6416SOL    HW220148   0.706   6.774   6.809
 6417SOL     OW20149   0.497   0.036   3.443
 6417SOL    HW120150   0.460   6.979   3.390
 6417SOL    HW220151   0.506   0.008   3.539
 6418SOL     OW20152   6.258   5.469   2.362
 6418SOL    HW120153   6.310   5.449   2.279
 6418SOL    HW220154   6.209   5.555   2.351
 6419SOL     OW20155   3.348   5.451   1.930
 6419SOL    HW120156   3.330   5.414   2.021
 6419SOL    HW220157   3.372   5.376   1.868
 6420SOL     OW20158   2.865   3.429   6.524
 6420SOL    HW120159   2.791   3.363   6.507
 6420SOL    HW220160   2.920   3.398   6.602
 6421SOL     OW20161   5.607   0.799   1.059
 6421SOL    HW120162   5.685   0.861   1.065
 6421SOL    HW220163   5.628   0.725   0.994
 6422SOL     OW20164   6.503   0.737   3.002
 6422SOL    HW120165   6.568   0.807   2.972
 6422SOL    HW220166   6.418   0.781   3.031
 6423SOL     OW20167   4.645   3.651   0.781
 6423SOL    HW120168   4.657   3.552   0.794
 6423SOL    HW220169   4.603   3.690   0.863
 6424SOL     OW20170   6.719   4.259   6.044
 6424SOL    HW120171   6.649   4.249   5.973
 6424SOL    HW220172   6.807   4.278   6.001
 6425SOL     OW20173   6.826   4.959   2.733
 6425SOL    HW120174   6.824   4.884   2.667
 6425SOL    HW220175   6.860   4.925   2.821
 6426SOL     OW20176   1.240   3.277   3.833
 6426SOL    HW120177   1.315   3.278   3.898
 6426SOL    HW220178   1.189   3.191   3.841
 6427SOL     OW20179   1.221   3.552   6.575
 6427SOL    HW120180   1.320   3.558   6.586
 6427SOL    HW220181   1.191   3.610   6.499
 6428SOL     OW20182   6.866   3.580   2.225
 6428SOL    HW120183   6.789   3.532   2.181
 6428SOL    HW220184   6.943   3.585   2.162
 6429SOL     OW20185   1.741   0.895   4.805
 6429SOL    HW120186   1.697   0.808   4.827
 6429SOL    HW220187   1.705   0.967   4.864
 6430SOL     OW20188   4.670   1.236   1.962
 6430SOL    HW120189   4.726   1.170   1.911
 6430SOL    HW220190   4.592   1.188   2.003
 6431SOL     OW20191   5.096   6.565   2.996
 6431SOL    HW120192   5.142   6.535   3.079
 6431SOL    HW220193   5.079   6.663   3.001
 6432SOL     OW20194   4.136   3.627   0.722
 6432SOL    HW120195   4.078   3.547   0.708
 6432SOL    HW220196   4.123   3.662   0.815
 6433SOL     OW20197   3.298   4.447   1.037
 6433SOL    HW120198   3.205   4.448   1.000
 6433SOL    HW220199   3.295   4.426   1.135
 6434SOL     OW20200   0.995   3.627   0.931
 6434SOL    HW120201   0.982   3.604   0.835
 6434SOL    HW220202   0.911   3.608   0.982
 6435SOL     OW20203   3.770   5.086   0.484
 6435SOL    HW120204   3.671   5.102   0.489
 6435SOL    HW220205   3.818   5.154   0.540
 6436SOL     OW20206   1.802   3.379   3.500
 6436SOL    HW120207   1.743   3.300   3.522
 6436SOL    HW220208   1.746   3.462   3.501
 6437SOL     OW20209   1.255   0.215   6.880
 6437SOL    HW120210   1.319   0.145   6.912
 6437SOL    HW220211   1.306   0.295   6.851
 6438SOL     OW20212   0.854   4.031   4.727
 6438SOL    HW120213   0.820   4.039   4.633
 6438SOL    HW220214   0.785   4.066   4.790
 6439SOL     OW20215   1.425   0.035   0.814
 6439SOL    HW120216   1.439   6.962   0.778
 6439SOL    HW220217   1.332   0.042   0.850
 6440SOL     OW20218   1.606   1.989   1.892
 6440SOL    HW120219   1.678   1.952   1.833
 6440SOL    HW220220   1.583   2.081   1.863
 6441SOL     OW20221   1.952   1.138   2.645
 6441SOL    HW120222   2.027   1.171   2.703
 6441SOL    HW220223   1.979   1.145   2.549
 6442SOL     OW20224   2.394   1.866   4.696
 6442SOL    HW120225   2.470   1.867   4.762
 6442SOL    HW220226   2.320   1.924   4.731
 6443SOL     OW20227   2.819   2.937   0.366
 6443SOL    HW120228   2.793   3.030   0.339
 6443SOL    HW220229   2.740   2.890   0.405
 6444SOL     OW20230   0.370   1.861   2.853
 6444SOL    HW120231   0.401   1.873   2.947
 6444SOL    HW220232   0.271   1.878   2.849
 6445SOL     OW20233   4.283   2.716   5.378
 6445SOL    HW120234   4.226   2.684   5.303
 6445SOL    HW220235   4.248   2.681   5.465
 6446SOL     OW20236   0.129   1.468   6.357
 6446SOL    HW120237   0.157   1.458   6.261
 6446SOL    HW220238   0.157   1.558   6.390
 6447SOL     OW20239   1.765   6.534   2.766
 6447SOL    HW120240   1.744   6.547   2.669
 6447SOL    HW220241   1.751   6.620   2.815
 6448SOL     OW20242   6.220   3.237   2.460
 6448SOL    HW120243   6.314   3.257   2.432
 6448SOL    HW220244   6.218   3.151   2.511
 6449SOL     OW20245   3.773   3.874   1.457
 6449SOL    HW120246   3.823   3.900   1.539
 6449SOL    HW220247   3.830   3.812   1.402
 6450SOL     OW20248   6.188   2.834   1.470
 6450SOL    HW120249   6.275   2.850   1.518
 6450SOL    HW220250   6.112   2.861   1.529
 6451SOL     OW20251   3.222   6.072   5.294
 6451SOL    HW120252   3.260   6.158   5.328
 6451SOL    HW220253   3.186   6.085   5.201
 6452SOL     OW20254   3.514   6.882   4.699
 6452SOL    HW120255   3.476   6.973   4.682
 6452SOL    HW220256   3.601   6.891   4.747
 6453SOL     OW20257   1.267   6.207   0.419
 6453SOL    HW120258   1.260   6.304   0.397
 6453SOL    HW220259   1.218   6.154   0.351
 6454SOL     OW20260   2.794   1.595   4.305
 6454SOL    HW120261   2.695   1.581   4.298
 6454SOL    HW220262   2.813   1.692   4.317
 6455SOL     OW20263   0.295   2.704   4.577
 6455SOL    HW120264   0.318   2.753   4.661
 6455SOL    HW220265   0.248   2.619   4.601
 6456SOL     OW20266   1.107   0.237   3.592
 6456SOL    HW120267   1.097   0.185   3.507
 6456SOL    HW220268   1.031   0.301   3.601
 6457SOL     OW20269   5.967   2.105   1.830
 6457SOL    HW120270   5.945   2.105   1.928
 6457SOL    HW220271   5.946   2.015   1.791
 6458SOL     OW20272   1.653   5.684   3.073
 6458SOL    HW120273   1.563   5.711   3.039
 6458SOL    HW220274   1.699   5.764   3.112
 6459SOL     OW20275   6.240   5.208   0.437
 6459SOL    HW120276   6.246   5.223   0.536
 6459SOL    HW220277   6.191   5.284   0.394
 6460SOL     OW20278   4.362   4.367   0.011
 6460SOL    HW120279   4.387   4.312   6.951
 6460SOL    HW220280   4.398   4.324   0.094
 6461SOL     OW20281   2.705   5.637   5.734
 6461SOL    HW120282   2.666   5.646   5.825
 6461SOL    HW220283   2.798   5.674   5.733
 6462SOL     OW20284   2.210   3.102   5.254
 6462SOL    HW120285   2.297   3.064   5.222
 6462SOL    HW220286   2.206   3.199   5.230
 6463SOL     OW20287   2.136   4.916   6.613
 6463SOL    HW120288   2.100   4.895   6.704
 6463SOL    HW220289   2.209   4.851   6.591
 6464SOL     OW20290   0.323   5.194   3.647
 6464SOL    HW120291   0.349   5.245   3.565
 6464SOL    HW220292   0.392   5.124   3.665
 6465SOL     OW20293   5.825   1.947   3.927
 6465SOL    HW120294   5.896   1.941   3.857
 6465SOL    HW220295   5.865   1.982   4.012
 6466SOL     OW20296   6.956   2.456   4.695
 6466SOL    HW120297   6.962   2.546   4.652
 6466SOL    HW220298   6.860   2.433   4.712
 6467SOL     OW20299   2.350   1.125   6.606
 6467SOL    HW120300   2.425   1.074   6.564
 6467SOL    HW220301   2.318   1.077   6.687
 6468SOL     OW20302   4.426   6.269   1.728
 6468SOL    HW120303   4.497   6.238   1.665
 6468SOL    HW220304   4.354   6.316   1.677
 6469SOL     OW20305   6.174   1.287   5.190
 6469SOL    HW120306   6.272   1.307   5.181
 6469SOL    HW220307   6.155   1.199   5.145
 6470SOL     OW20308   6.681   6.639   5.787
 6470SOL    HW120309   6.717   6.732   5.778
 6470SOL    HW220310   6.711   6.585   5.708
 6471SOL     OW20311   6.600   5.233   6.025
 6471SOL    HW120312   6.568   5.235   6.119
 6471SOL    HW220313   6.689   5.188   6.021
 6472SOL     OW20314   0.870   6.114   1.571
 6472SOL    HW120315   0.846   6.155   1.659
 6472SOL    HW220316   0.823   6.027   1.561
 6473SOL     OW20317   2.295   1.090   6.036
 6473SOL    HW120318   2.224   1.027   6.067
 6473SOL    HW220319   2.380   1.072   6.085
 6474SOL     OW20320   1.254   3.326   6.296
 6474SOL    HW120321   1.265   3.316   6.197
 6474SOL    HW220322   1.158   3.346   6.317
 6475SOL     OW20323   5.393   6.159   3.604
 6475SOL    HW120324   5.348   6.136   3.690
 6475SOL    HW220325   5.372   6.089   3.536
 6476SOL     OW20326   4.371   4.697   3.131
 6476SOL    HW120327   4.320   4.702   3.045
 6476SOL    HW220328   4.434   4.775   3.137
 6477SOL     OW20329   6.243   5.451   6.258
 6477SOL    HW120330   6.167   5.495   6.306
 6477SOL    HW220331   6.316   5.431   6.323
 6478SOL     OW20332   3.848   5.793   2.102
 6478SOL    HW120333   3.751   5.773   2.119
 6478SOL    HW220334   3.876   5.750   2.017
 6479SOL     OW20335   4.261   4.996   1.973
 6479SOL    HW120336   4.289   5.082   2.015
 6479SOL    HW220337   4.205   5.015   1.892
 6480SOL     OW20338   3.735   3.170   6.014
 6480SOL    HW120339   3.750   3.230   5.935
 6480SOL    HW220340   3.779   3.210   6.095
 6481SOL     OW20341   3.515   1.480   1.708
 6481SOL    HW120342   3.428   1.513   1.671
 6481SOL    HW220343   3.513   1.486   1.807
 6482SOL     OW20344   6.787   0.339   6.760
 6482SOL    HW120345   6.705   0.344   6.703
 6482SOL    HW220346   6.823   0.431   6.777
 6483SOL     OW20347   2.182   6.643   3.017
 6483SOL    HW120348   2.141   6.683   2.935
 6483SOL    HW220349   2.171   6.543   3.014
 6484SOL     OW20350   4.416   0.226   2.444
 6484SOL    HW120351   4.439   0.148   2.385
 6484SOL    HW220352   4.430   0.200   2.540
 6485SOL     OW20353   1.607   3.445   3.863
 6485SOL    HW120354   1.700   3.409   3.855
 6485SOL    HW220355   1.550   3.379   3.911
 6486SOL     OW20356   0.765   4.483   4.512
 6486SOL    HW120357   0.847   4.492   4.455
 6486SOL    HW220358   0.746   4.386   4.527
 6487SOL     OW20359   6.494   6.461   4.057
 6487SOL    HW120360   6.587   6.444   4.089
 6487SOL    HW220361   6.430   6.450   4.133
 6488SOL     OW20362   2.997   6.110   5.912
 6488SOL    HW120363   2.946   6.103   5.826
 6488SOL    HW220364   2.975   6.031   5.970
 6489SOL     OW20365   2.274   2.253   6.716
 6489SOL    HW120366   2.334   2.309   6.773
 6489SOL    HW220367   2.242   2.307   6.638
 6490SOL     OW20368   3.935   2.808   0.514
 6490SOL    HW120369   3.946   2.902   0.547
 6490SOL    HW220370   3.868   2.760   0.571
 6491SOL     OW20371   4.695   1.005   6.475
 6491SOL    HW120372   4.676   1.058   6.393
 6491SOL    HW220373   4.792   1.014   6.500
 6492SOL     OW20374   6.376   6.604   6.901
 6492SOL    HW120375   6.314   6.662   6.954
 6492SOL    HW220376   6.386   6.641   6.809
 6493SOL     OW20377   1.947   6.641   6.153
 6493SOL    HW120378   2.028   6.689   6.185
 6493SOL    HW220379   1.933   6.559   6.208
 6494SOL     OW20380   0.873   0.090   3.765
 6494SOL    HW120381   0.866   0.007   3.711
 6494SOL    HW220382   0.927   0.158   3.715
 6495SOL     OW20383   4.604   5.436   3.008
 6495SOL    HW120384   4.567   5.469   2.921
 6495SOL    HW220385   4.539   5.458   3.082
 6496SOL     OW20386   7.013   6.169   1.714
 6496SOL    HW120387   7.004   6.268   1.725
 6496SOL    HW220388   0.069   6.149   1.652
 6497SOL     OW20389   1.954   3.812   1.186
 6497SOL    HW120390   2.036   3.817   1.243
 6497SOL    HW220391   1.877   3.779   1.241
 6498SOL     OW20392   2.178   4.679   4.306
 6498SOL    HW120393   2.140   4.667   4.214
 6498SOL    HW220394   2.144   4.765   4.344
 6499SOL     OW20395   4.923   0.680   5.030
 6499SOL    HW120396   4.850   0.642   4.972
 6499SOL    HW220397   4.993   0.610   5.046
 6500SOL     OW20398   6.523   4.209   3.792
 6500SOL    HW120399   6.428   4.180   3.796
 6500SOL    HW220400   6.535   4.295   3.841
 6501SOL     OW20401   6.418   3.816   1.180
 6501SOL    HW120402   6.476   3.763   1.242
 6501SOL    HW220403   6.376   3.754   1.113
 6502SOL     OW20404   0.495   4.735   3.783
 6502SOL    HW120405   0.578   4.729   3.839
 6502SOL    HW220406   0.427   4.670   3.816
 6503SOL     OW20407   5.553   6.046   3.318
 6503SOL    HW120408   5.552   6.066   3.221
 6503SOL    HW220409   5.550   6.131   3.371
 6504SOL     OW20410   4.624   0.357   6.790
 6504SOL    HW120411   4.667   0.435   6.745
 6504SOL    HW220412   4.610   0.283   6.724
 6505SOL     OW20413   6.283   4.593   0.796
 6505SOL    HW120414   6.286   4.532   0.875
 6505SOL    HW220415   6.367   4.585   0.744
 6506SOL     OW20416   0.758   2.718   1.058
 6506SOL    HW120417   0.777   2.784   1.131
 6506SOL    HW220418   0.844   2.673   1.031
 6507SOL     OW20419   1.549   5.904   1.599
 6507SOL    HW120420   1.522   5.897   1.503
 6507SOL    HW220421   1.498   5.836   1.653
 6508SOL     OW20422   2.081   2.403   3.742
 6508SOL    HW120423   2.011   2.333   3.729
 6508SOL    HW220424   2.164   2.376   3.694
 6509SOL     OW20425   1.536   2.461   4.676
 6509SOL    HW120426   1.446   2.422   4.659
 6509SOL    HW220427   1.544   2.550   4.632
 6510SOL     OW20428   6.807   5.289   6.437
 6510SOL    HW120429   6.897   5.247   6.445
 6510SOL    HW220430   6.770   5.305   6.529
 6511SOL     OW20431   6.682   0.157   5.467
 6511SOL    HW120432   6.596   0.108   5.463
 6511SOL    HW220433   6.686   0.224   5.393
 6512SOL     OW20434   4.505   6.840   2.772
 6512SOL    HW120435   4.538   6.880   2.858
 6512SOL    HW220436   4.439   6.768   2.792
 6513SOL     OW20437   3.620   6.843   4.203
 6513SOL    HW120438   3.573   6.884   4.125
 6513SOL    HW220439   3.631   6.911   4.276
 6514SOL     OW20440   4.817   0.305   4.352
 6514SOL    HW120441   4.833   0.206   4.353
 6514SOL    HW220442   4.831   0.342   4.444
 6515SOL     OW20443   6.853   5.364   4.161
 6515SOL    HW120444   6.845   5.402   4.069
 6515SOL    HW220445   6.941   5.389   4.200
 6516SOL     OW20446   0.432   1.709   6.690
 6516SOL    HW120447   0.471   1.665   6.772
 6516SOL    HW220448   0.485   1.791   6.669
 6517SOL     OW20449   0.481   1.747   0.496
 6517SOL    HW120450   0.386   1.739   0.528
 6517SOL    HW220451   0.519   1.655   0.484
 6518SOL     OW20452   0.825   6.221   1.027
 6518SOL    HW120453   0.837   6.316   1.057
 6518SOL    HW220454   0.795   6.220   0.932
 6519SOL     OW20455   2.221   1.643   4.391
 6519SOL    HW120456   2.284   1.637   4.468
 6519SOL    HW220457   2.189   1.738   4.381
 6520SOL     OW20458   5.989   5.768   2.145
 6520SOL    HW120459   6.033   5.733   2.228
 6520SOL    HW220460   5.954   5.691   2.091
 6521SOL     OW20461   1.260   1.423   4.582
 6521SOL    HW120462   1.223   1.397   4.493
 6521SOL    HW220463   1.310   1.509   4.573
 6522SOL     OW20464   2.417   5.761   0.036
 6522SOL    HW120465   2.491   5.715   0.086
 6522SOL    HW220466   2.333   5.706   0.043
 6523SOL     OW20467   2.456   1.349   6.721
 6523SOL    HW120468   2.422   1.276   6.663
 6523SOL    HW220469   2.464   1.433   6.668
 6524SOL     OW20470   3.635   3.817   3.920
 6524SOL    HW120471   3.680   3.904   3.900
 6524SOL    HW220472   3.648   3.754   3.844
 6525SOL     OW20473   0.867   2.595   3.150
 6525SOL    HW120474   0.782   2.567   3.105
 6525SOL    HW220475   0.938   2.611   3.082
 6526SOL     OW20476   0.979   6.141   4.809
 6526SOL    HW120477   0.934   6.215   4.759
 6526SOL    HW220478   0.917   6.106   4.880
 6527SOL     OW20479   1.339   0.127   5.062
 6527SOL    HW120480   1.322   0.127   4.963
 6527SOL    HW220481   1.368   0.218   5.091
 6528SOL     OW20482   0.455   1.179   4.159
 6528SOL    HW120483   0.518   1.167   4.082
 6528SOL    HW220484   0.506   1.180   4.245
 6529SOL     OW20485   5.953   1.505   2.386
 6529SOL    HW120486   6.037   1.475   2.432
 6529SOL    HW220487   5.950   1.466   2.294
 6530SOL     OW20488   6.773   2.759   0.190
 6530SOL    HW120489   6.725   2.811   0.119
 6530SOL    HW220490   6.817   2.822   0.254
 6531SOL     OW20491   5.747   2.410   4.186
 6531SOL    HW120492   5.744   2.509   4.199
 6531SOL    HW220493   5.680   2.382   4.118
 6532SOL     OW20494   6.442   1.720   6.739
 6532SOL    HW120495   6.468   1.715   6.643
 6532SOL    HW220496   6.373   1.791   6.751
 6533SOL     OW20497   5.026   6.205   1.028
 6533SOL    HW120498   5.065   6.252   1.107
 6533SOL    HW220499   4.954   6.143   1.058
 6534SOL     OW20500   2.348   3.614   1.491
 6534SOL    HW120501   2.331   3.519   1.465
 6534SOL    HW220502   2.279   3.643   1.557
 6535SOL     OW20503   0.355   3.348   5.011
 6535SOL    HW120504   0.340   3.367   5.109
 6535SOL    HW220505   0.453   3.346   4.993
 6536SOL     OW20506   5.705   2.131   7.013
 6536SOL    HW120507   5.673   2.049   0.041
 6536SOL    HW220508   5.628   2.191   6.994
 6537SOL     OW20509   6.869   6.852   6.648
 6537SOL    HW120510   6.840   6.947   6.665
 6537SOL    HW220511   6.910   6.814   6.730
 6538SOL     OW20512   3.294   3.873   0.301
 6538SOL    HW120513   3.366   3.850   0.367
 6538SOL    HW220514   3.210   3.895   0.350
 6539SOL     OW20515   2.473   1.571   6.554
 6539SOL    HW120516   2.560   1.619   6.562
 6539SOL    HW220517   2.399   1.638   6.550
 6540SOL     OW20518   3.810   1.542   4.131
 6540SOL    HW120519   3.882   1.473   4.133
 6540SOL    HW220520   3.736   1.515   4.192
 6541SOL     OW20521   3.112   2.456   5.436
 6541SOL    HW120522   3.039   2.519   5.409
 6541SOL    HW220523   3.158   2.421   5.354
 6542SOL     OW20524   5.661   4.784   3.567
 6542SOL    HW120525   5.659   4.784   3.467
 6542SOL    HW220526   5.571   4.811   3.601
 6543SOL     OW20527   6.259   5.922   6.823
 6543SOL    HW120528   6.220   5.967   6.903
 6543SOL    HW220529   6.187   5.872   6.774
 6544SOL     OW20530   6.719   6.313   4.249
 6544SOL    HW120531   6.648   6.345   4.312
 6544SOL    HW220532   6.772   6.241   4.292
 6545SOL     OW20533   5.502   1.394   6.014
 6545SOL    HW120534   5.554   1.471   6.051
 6545SOL    HW220535   5.564   1.317   5.998
 6546SOL     OW20536   3.865   4.989   6.000
 6546SOL    HW120537   3.894   4.941   5.917
 6546SOL    HW220538   3.828   4.923   6.066
 6547SOL     OW20539   5.138   2.568   6.564
 6547SOL    HW120540   5.154   2.565   6.465
 6547SOL    HW220541   5.167   2.482   6.606
 6548SOL     OW20542   6.499   4.527   6.002
 6548SOL    HW120543   6.519   4.569   5.913
 6548SOL    HW220544   6.430   4.581   6.050
 6549SOL     OW20545   3.519   2.371   0.874
 6549SOL    HW120546   3.491   2.367   0.969
 6549SOL    HW220547   3.500   2.283   0.830
 6550SOL     OW20548   0.636   5.760   3.208
 6550SOL    HW120549   0.707   5.805   3.262
 6550SOL    HW220550   0.555   5.818   3.204
 6551SOL     OW20551   2.018   4.691   1.790
 6551SOL    HW120552   2.115   4.670   1.793
 6551SOL    HW220553   2.004   4.789   1.810
 6552SOL     OW20554   2.664   5.204   5.889
 6552SOL    HW120555   2.661   5.283   5.827
 6552SOL    HW220556   2.726   5.136   5.852
 6553SOL     OW20557   0.479   3.314   1.613
 6553SOL    HW120558   0.519   3.270   1.694
 6553SOL    HW220559   0.533   3.396   1.591
 6554SOL     OW20560   6.720   1.864   6.106
 6554SOL    HW120561   6.761   1.941   6.155
 6554SOL    HW220562   6.655   1.898   6.038
 6555SOL     OW20563   1.854   1.296   2.150
 6555SOL    HW120564   1.810   1.221   2.100
 6555SOL    HW220565   1.918   1.258   2.217
 6556SOL     OW20566   4.687   4.753   5.106
 6556SOL    HW120567   4.780   4.728   5.133
 6556SOL    HW220568   4.690   4.824   5.036
 6557SOL     OW20569   6.317   5.686   0.541
 6557SOL    HW120570   6.255   5.765   0.534
 6557SOL    HW220571   6.286   5.625   0.614
 6558SOL     OW20572   6.503   6.370   0.803
 6558SOL    HW120573   6.585   6.323   0.836
 6558SOL    HW220574   6.495   6.358   0.704
 6559SOL     OW20575   5.120   3.527   0.990
 6559SOL    HW120576   5.111   3.503   0.893
 6559SOL    HW220577   5.086   3.452   1.047
 6560SOL     OW20578   3.932   3.052   1.160
 6560SOL    HW120579   3.971   3.066   1.251
 6560SOL    HW220580   3.992   3.094   1.091
 6561SOL     OW20581   3.910   3.709   2.524
 6561SOL    HW120582   3.931   3.787   2.465
 6561SOL    HW220583   3.872   3.742   2.611
 6562SOL     OW20584   6.617   4.871   5.931
 6562SOL    HW120585   6.617   4.786   5.877
 6562SOL    HW220586   6.680   4.936   5.888
 6563SOL     OW20587   0.511   5.966   0.037
 6563SOL    HW120588   0.414   5.962   0.062
 6563SOL    HW220589   0.532   6.057   0.001
 6564SOL     OW20590   1.084   3.547   2.014
 6564SOL    HW120591   1.017   3.602   1.964
 6564SOL    HW220592   1.138   3.606   2.074
 6565SOL     OW20593   6.027   2.563   4.826
 6565SOL    HW120594   6.044   2.630   4.754
 6565SOL    HW220595   6.084   2.483   4.812
 6566SOL     OW20596   3.570   0.095   1.354
 6566SOL    HW120597   3.661   0.122   1.322
 6566SOL    HW220598   3.530   0.169   1.408
 6567SOL     OW20599   4.826   2.903   0.548
 6567SOL    HW120600   4.844   2.873   0.641
 6567SOL    HW220601   4.730   2.930   0.539
 6568SOL     OW20602   4.295   4.619   1.865
 6568SOL    HW120603   4.360   4.598   1.938
 6568SOL    HW220604   4.257   4.534   1.829
 6569SOL     OW20605   2.268   5.210   0.848
 6569SOL    HW120606   2.355   5.177   0.813
 6569SOL    HW220607   2.263   5.193   0.947
 6570SOL     OW20608   5.068   0.788   2.191
 6570SOL    HW120609   5.139   0.853   2.219
 6570SOL    HW220610   5.055   0.795   2.092
 6571SOL     OW20611   2.165   5.652   3.690
 6571SOL    HW120612   2.237   5.583   3.701
 6571SOL    HW220613   2.162   5.682   3.595
 6572SOL     OW20614   6.745   3.565   5.301
 6572SOL    HW120615   6.796   3.537   5.220
 6572SOL    HW220616   6.725   3.485   5.357
 6573SOL     OW20617   3.565   1.008   2.747
 6573SOL    HW120618   3.655   0.996   2.706
 6573SOL    HW220619   3.551   1.104   2.772
 6574SOL     OW20620   2.535   5.508   2.227
 6574SOL    HW120621   2.557   5.459   2.143
 6574SOL    HW220622   2.600   5.583   2.241
 6575SOL     OW20623   1.046   1.111   1.679
 6575SOL    HW120624   1.109   1.096   1.603
 6575SOL    HW220625   1.098   1.131   1.762
 6576SOL     OW20626   1.613   5.539   0.189
 6576SOL    HW120627   1.663   5.508   0.108
 6576SOL    HW220628   1.517   5.553   0.166
 6577SOL     OW20629   0.995   1.725   3.588
 6577SOL    HW120630   1.055   1.715   3.668
 6577SOL    HW220631   1.051   1.727   3.505
 6578SOL     OW20632   5.931   5.217   3.509
 6578SOL    HW120633   5.923   5.221   3.409
 6578SOL    HW220634   5.947   5.310   3.544
 6579SOL     OW20635   7.008   4.262   3.303
 6579SOL    HW120636   6.923   4.227   3.343
 6579SOL    HW220637   6.986   4.335   3.238
 6580SOL     OW20638   5.691   0.573   0.880
 6580SOL    HW120639   5.620   0.508   0.905
 6580SOL    HW220640   5.675   0.607   0.787
 6581SOL     OW20641   4.468   1.680   6.383
 6581SOL    HW120642   4.384   1.685   6.437
 6581SOL    HW220643   4.533   1.618   6.428
 6582SOL     OW20644   0.649   6.903   3.117
 6582SOL    HW120645   0.665   6.823   3.059
 6582SOL    HW220646   0.623   6.981   3.060
 6583SOL     OW20647   5.392   1.181   6.364
 6583SOL    HW120648   5.470   1.214   6.418
 6583SOL    HW220649   5.414   1.092   6.325
 6584SOL     OW20650   5.583   1.661   6.152
 6584SOL    HW120651   5.629   1.590   6.205
 6584SOL    HW220652   5.558   1.737   6.213
 6585SOL     OW20653   0.488   1.665   0.098
 6585SOL    HW120654   0.505   1.722   0.178
 6585SOL    HW220655   0.392   1.636   0.097
 6586SOL     OW20656   6.289   2.022   6.150
 6586SOL    HW120657   6.201   2.056   6.182
 6586SOL    HW220658   6.346   1.997   6.229
 6587SOL     OW20659   1.841   5.858   4.074
 6587SOL    HW120660   1.898   5.790   4.028
 6587SOL    HW220661   1.890   5.946   4.076
 6588SOL     OW20662   1.495   3.154   0.432
 6588SOL    HW120663   1.528   3.248   0.419
 6588SOL    HW220664   1.574   3.092   0.439
 6589SOL     OW20665   4.720   0.667   6.012
 6589SOL    HW120666   4.654   0.735   5.980
 6589SOL    HW220667   4.773   0.706   6.088
 6590SOL     OW20668   0.181   1.462   4.542
 6590SOL    HW120669   0.096   1.514   4.549
 6590SOL    HW220670   0.159   1.365   4.532
 6591SOL     OW20671   5.612   6.837   2.476
 6591SOL    HW120672   5.608   6.739   2.494
 6591SOL    HW220673   5.564   6.886   2.549
 6592SOL     OW20674   4.288   0.291   4.990
 6592SOL    HW120675   4.322   0.377   5.028
 6592SOL    HW220676   4.316   0.215   5.048
 6593SOL     OW20677   3.067   2.175   4.198
 6593SOL    HW120678   3.096   2.134   4.284
 6593SOL    HW220679   2.967   2.186   4.198
 6594SOL     OW20680   5.129   0.528   6.638
 6594SOL    HW120681   5.185   0.484   6.708
 6594SOL    HW220682   5.107   0.622   6.666
 6595SOL     OW20683   1.595   3.404   0.427
 6595SOL    HW120684   1.539   3.483   0.403
 6595SOL    HW220685   1.688   3.434   0.449
 6596SOL     OW20686   4.647   0.257   5.790
 6596SOL    HW120687   4.651   0.200   5.708
 6596SOL    HW220688   4.703   0.217   5.862
 6597SOL     OW20689   0.099   6.623   4.206
 6597SOL    HW120690   0.149   6.690   4.152
 6597SOL    HW220691   0.051   6.669   4.281
 6598SOL     OW20692   1.514   5.650   5.112
 6598SOL    HW120693   1.535   5.636   5.208
 6598SOL    HW220694   1.415   5.649   5.099
 6599SOL     OW20695   4.129   5.008   6.111
 6599SOL    HW120696   4.041   5.005   6.063
 6599SOL    HW220697   4.113   5.016   6.210
 6600SOL     OW20698   4.818   5.089   4.604
 6600SOL    HW120699   4.861   4.999   4.610
 6600SOL    HW220700   4.790   5.106   4.509
 6601SOL     OW20701   0.337   1.135   0.376
 6601SOL    HW120702   0.274   1.098   0.445
 6601SOL    HW220703   0.314   1.231   0.358
 6602SOL     OW20704   0.415   2.139   1.259
 6602SOL    HW120705   0.439   2.069   1.191
 6602SOL    HW220706   0.470   2.125   1.341
 6603SOL     OW20707   1.676   3.790   3.054
 6603SOL    HW120708   1.702   3.695   3.034
 6603SOL    HW220709   1.758   3.847   3.054
 6604SOL     OW20710   2.649   5.679   1.949
 6604SOL    HW120711   2.743   5.660   1.977
 6604SOL    HW220712   2.598   5.593   1.947
 6605SOL     OW20713   5.273   5.688   0.292
 6605SOL    HW120714   5.296   5.687   0.390
 6605SOL    HW220715   5.283   5.781   0.257
 6606SOL     OW20716   4.788   0.713   2.557
 6606SOL    HW120717   4.738   0.788   2.600
 6606SOL    HW220718   4.784   0.723   2.458
 6607SOL     OW20719   2.058   1.568   2.560
 6607SOL    HW120720   2.030   1.585   2.466
 6607SOL    HW220721   2.130   1.632   2.586
 6608SOL     OW20722   5.529   3.116   3.263
 6608SOL    HW120723   5.504   3.024   3.294
 6608SOL    HW220724   5.557   3.171   3.342
 6609SOL     OW20725   5.732   1.161   6.999
 6609SOL    HW120726   5.820   1.132   0.017
 6609SOL    HW220727   5.672   1.082   6.991
 6610SOL     OW20728   2.089   0.516   0.616
 6610SOL    HW120729   2.080   0.615   0.631
 6610SOL    HW220730   2.174   0.483   0.658
 6611SOL     OW20731   6.421   2.203   3.007
 6611SOL    HW120732   6.348   2.201   2.938
 6611SOL    HW220733   6.442   2.109   3.035
 6612SOL     OW20734   1.460   5.927   0.066
 6612SOL    HW120735   1.496   5.967   0.150
 6612SOL    HW220736   1.405   5.995   0.018
 6613SOL     OW20737   5.371   5.006   2.977
 6613SOL    HW120738   5.300   5.076   2.965
 6613SOL    HW220739   5.340   4.939   3.045
 6614SOL     OW20740   5.066   5.081   6.255
 6614SOL    HW120741   5.027   5.059   6.166
 6614SOL    HW220742   5.006   5.048   6.328
 6615SOL     OW20743   0.577   3.113   5.051
 6615SOL    HW120744   0.519   3.078   4.977
 6615SOL    HW220745   0.637   3.040   5.083
 6616SOL     OW20746   5.122   1.275   5.530
 6616SOL    HW120747   5.094   1.184   5.499
 6616SOL    HW220748   5.064   1.303   5.606
 6617SOL     OW20749   3.007   6.320   4.056
 6617SOL    HW120750   3.077   6.383   4.090
 6617SOL    HW220751   3.044   6.269   3.977
 6618SOL     OW20752   0.972   4.296   2.131
 6618SOL    HW120753   1.049   4.232   2.132
 6618SOL    HW220754   0.890   4.251   2.167
 6619SOL     OW20755   4.397   0.020   3.414
 6619SOL    HW120756   4.349   0.058   3.334
 6619SOL    HW220757   4.450   6.960   3.387
 6620SOL     OW20758   1.395   3.016   6.173
 6620SOL    HW120759   1.345   2.943   6.127
 6620SOL    HW220760   1.484   3.028   6.129
 6621SOL     OW20761   2.911   4.129   0.534
 6621SOL    HW120762   2.971   4.184   0.475
 6621SOL    HW220763   2.902   4.174   0.622
 6622SOL     OW20764   6.659   6.235   0.345
 6622SOL    HW120765   6.612   6.275   0.266
 6622SOL    HW220766   6.678   6.138   0.326
 6623SOL     OW20767   3.224   2.976   3.147
 6623SOL    HW120768   3.219   2.993   3.245
 6623SOL    HW220769   3.320   2.961   3.121
 6624SOL     OW20770   3.647   5.759   5.184
 6624SOL    HW120771   3.652   5.803   5.094
 6624SOL    HW220772   3.588   5.813   5.244
 6625SOL     OW20773   6.431   1.112   6.187
 6625SOL    HW120774   6.473   1.202   6.200
 6625SOL    HW220775   6.443   1.057   6.270
 6626SOL     OW20776   3.168   5.395   3.086
 6626SOL    HW120777   3.266   5.382   3.069
 6626SOL    HW220778   3.122   5.420   3.000
 6627SOL     OW20779   1.841   0.766   6.158
 6627SOL    HW120780   1.807   0.725   6.074
 6627SOL    HW220781   1.771   0.826   6.197
 6628SOL     OW20782   4.362   4.899   2.708
 6628SOL    HW120783   4.443   4.852   2.743
 6628SOL    HW220784   4.349   4.876   2.611
 6629SOL     OW20785   2.994   5.799   1.480
 6629SOL    HW120786   2.980   5.739   1.401
 6629SOL    HW220787   3.050   5.877   1.453
 6630SOL     OW20788   3.671   1.338   0.320
 6630SOL    HW120789   3.705   1.375   0.234
 6630SOL    HW220790   3.645   1.413   0.381
 6631SOL     OW20791   5.043   0.351   2.199
 6631SOL    HW120792   5.033   0.352   2.298
 6631SOL    HW220793   5.113   0.417   2.171
 6632SOL     OW20794   6.782   1.386   0.438
 6632SOL    HW120795   6.821   1.379   0.529
 6632SOL    HW220796   6.683   1.402   0.444
 6633SOL     OW20797   1.372   6.201   0.059
 6633SOL    HW120798   1.286   6.251   0.067
 6633SOL    HW220799   1.449   6.265   0.059
 6634SOL     OW20800   6.389   3.244   5.819
 6634SOL    HW120801   6.366   3.331   5.862
 6634SOL    HW220802   6.406   3.175   5.889
 6635SOL     OW20803   4.213   5.350   3.531
 6635SOL    HW120804   4.119   5.316   3.539
 6635SOL    HW220805   4.213   5.450   3.533
 6636SOL     OW20806   1.111   3.195   5.137
 6636SOL    HW120807   1.057   3.145   5.070
 6636SOL    HW220808   1.208   3.170   5.128
 6637SOL     OW20809   1.635   0.512   0.654
 6637SOL    HW120810   1.654   0.417   0.675
 6637SOL    HW220811   1.671   0.534   0.564
 6638SOL     OW20812   1.533   5.593   5.372
 6638SOL    HW120813   1.490   5.590   5.462
 6638SOL    HW220814   1.630   5.617   5.382
 6639SOL     OW20815   5.560   4.651   6.442
 6639SOL    HW120816   5.653   4.655   6.406
 6639SOL    HW220817   5.560   4.598   6.528
 6640SOL     OW20818   6.986   2.375   3.697
 6640SOL    HW120819   7.003   2.457   3.751
 6640SOL    HW220820   0.029   2.303   3.726
 6641SOL     OW20821   3.143   3.912   6.485
 6641SOL    HW120822   3.057   3.868   6.512
 6641SOL    HW220823   3.129   4.010   6.476
 6642SOL     OW20824   1.625   4.462   6.858
 6642SOL    HW120825   1.606   4.536   6.923
 6642SOL    HW220826   1.689   4.493   6.789
 6643SOL     OW20827   6.164   4.235   6.042
 6643SOL    HW120828   6.122   4.151   6.009
 6643SOL    HW220829   6.093   4.302   6.065
 6644SOL     OW20830   2.823   4.879   1.893
 6644SOL    HW120831   2.811   4.781   1.911
 6644SOL    HW220832   2.914   4.908   1.922
 6645SOL     OW20833   0.036   5.196   6.506
 6645SOL    HW120834   0.094   5.248   6.442
 6645SOL    HW220835   0.070   5.211   6.599
 6646SOL     OW20836   3.857   5.061   4.548
 6646SOL    HW120837   3.869   5.141   4.607
 6646SOL    HW220838   3.787   5.080   4.479
 6647SOL     OW20839   3.611   0.269   2.325
 6647SOL    HW120840   3.645   0.258   2.231
 6647SOL    HW220841   3.512   0.279   2.323
 6648SOL     OW20842   4.163   5.575   2.728
 6648SOL    HW120843   4.148   5.538   2.636
 6648SOL    HW220844   4.147   5.674   2.727
 6649SOL     OW20845   4.876   1.929   6.350
 6649SOL    HW120846   4.826   1.855   6.396
 6649SOL    HW220847   4.861   1.924   6.251
 6650SOL     OW20848   4.189   1.006   3.270
 6650SOL    HW120849   4.180   0.980   3.367
 6650SOL    HW220850   4.251   0.942   3.225
 6651SOL     OW20851   1.275   1.974   0.184
 6651SOL    HW120852   1.209   1.977   0.109
 6651SOL    HW220853   1.317   2.064   0.194
 6652SOL     OW20854   6.825   5.213   1.241
 6652SOL    HW120855   6.862   5.122   1.257
 6652SOL    HW220856   6.815   5.229   1.143
 6653SOL     OW20857   3.029   3.827   2.860
 6653SOL    HW120858   3.028   3.887   2.780
 6653SOL    HW220859   3.099   3.756   2.848
 6654SOL     OW20860   2.028   2.635   1.059
 6654SOL    HW120861   2.059   2.730   1.059
 6654SOL    HW220862   2.033   2.598   0.966
 6655SOL     OW20863   2.928   6.504   2.053
 6655SOL    HW120864   2.900   6.464   2.140
 6655SOL    HW220865   2.915   6.603   2.056
 6656SOL     OW20866   6.996   1.049   1.639
 6656SOL    HW120867   0.041   1.091   1.574
 6656SOL    HW220868   0.023   1.030   1.725
 6657SOL     OW20869   4.176   0.043   6.366
 6657SOL    HW120870   4.082   0.011   6.362
 6657SOL    HW220871   4.191   0.112   6.295
 6658SOL     OW20872   5.664   0.971   5.021
 6658SOL    HW120873   5.666   0.953   4.922
 6658SOL    HW220874   5.599   0.908   5.064
 6659SOL     OW20875   2.954   3.218   6.996
 6659SOL    HW120876   3.043   3.262   6.987
 6659SOL    HW220877   2.961   3.121   6.973
 6660SOL     OW20878   6.614   6.489   2.240
 6660SOL    HW120879   6.582   6.494   2.145
 6660SOL    HW220880   6.573   6.410   2.285
 6661SOL     OW20881   6.237   5.332   3.402
 6661SOL    HW120882   6.325   5.288   3.383
 6661SOL    HW220883   6.167   5.263   3.418
 6662SOL     OW20884   2.151   0.819   0.248
 6662SOL    HW120885   2.178   0.746   0.310
 6662SOL    HW220886   2.185   0.906   0.283
 6663SOL     OW20887   6.983   5.476   2.503
 6663SOL    HW120888   0.036   5.530   2.545
 6663SOL    HW220889   6.894   5.509   2.533
 6664SOL     OW20890   1.283   0.140   2.353
 6664SOL    HW120891   1.276   0.212   2.284
 6664SOL    HW220892   1.376   0.139   2.391
 6665SOL     OW20893   1.301   6.439   3.003
 6665SOL    HW120894   1.285   6.491   3.087
 6665SOL    HW220895   1.214   6.408   2.965
 6666SOL     OW20896   6.267   1.732   5.171
 6666SOL    HW120897   6.316   1.658   5.217
 6666SOL    HW220898   6.219   1.695   5.091
 6667SOL     OW20899   6.276   5.365   4.319
 6667SOL    HW120900   6.309   5.272   4.308
 6667SOL    HW220901   6.202   5.367   4.387
 6668SOL     OW20902   0.550   4.869   2.337
 6668SOL    HW120903   0.538   4.872   2.436
 6668SOL    HW220904   0.621   4.933   2.310
 6669SOL     OW20905   2.633   5.090   3.774
 6669SOL    HW120906   2.622   5.080   3.675
 6669SOL    HW220907   2.704   5.028   3.806
 6670SOL     OW20908   3.615   5.078   6.899
 6670SOL    HW120909   3.633   4.985   6.933
 6670SOL    HW220910   3.563   5.129   6.968
 6671SOL     OW20911   6.585   4.375   6.290
 6671SOL    HW120912   6.654   4.342   6.227
 6671SOL    HW220913   6.494   4.345   6.259
 6672SOL     OW20914   1.427   0.726   5.728
 6672SOL    HW120915   1.451   0.672   5.647
 6672SOL    HW220916   1.418   0.822   5.701
 6673SOL     OW20917   4.881   4.868   1.955
 6673SOL    HW120918   4.860   4.786   1.903
 6673SOL    HW220919   4.815   4.940   1.932
 6674SOL     OW20920   0.890   5.755   5.661
 6674SOL    HW120921   0.969   5.728   5.606
 6674SOL    HW220922   0.910   5.742   5.758
 6675SOL     OW20923   5.678   4.370   0.203
 6675SOL    HW120924   5.693   4.428   0.123
 6675SOL    HW220925   5.617   4.417   0.267
 6676SOL     OW20926   0.843   3.569   5.463
 6676SOL    HW120927   0.849   3.526   5.553
 6676SOL    HW220928   0.910   3.644   5.458
 6677SOL     OW20929   0.388   3.648   0.497
 6677SOL    HW120930   0.449   3.637   0.419
 6677SOL    HW220931   0.304   3.692   0.468
 6678SOL     OW20932   1.339   2.689   6.523
 6678SOL    HW120933   1.258   2.739   6.552
 6678SOL    HW220934   1.318   2.592   6.515
 6679SOL     OW20935   1.329   2.585   5.341
 6679SOL    HW120936   1.253   2.560   5.280
 6679SOL    HW220937   1.342   2.513   5.409
 6680SOL     OW20938   4.042   6.274   6.093
 6680SOL    HW120939   4.115   6.219   6.053
 6680SOL    HW220940   4.010   6.231   6.177
 6681SOL     OW20941   5.762   5.259   0.203
 6681SOL    HW120942   5.756   5.171   0.155
 6681SOL    HW220943   5.704   5.256   0.284
 6682SOL     OW20944   0.236   5.471   2.679
 6682SOL    HW120945   0.308   5.517   2.730
 6682SOL    HW220946   0.177   5.539   2.635
 6683SOL     OW20947   4.830   1.731   5.091
 6683SOL    HW120948   4.834   1.823   5.131
 6683SOL    HW220949   4.919   1.686   5.104
 6684SOL     OW20950   1.788   6.885   2.164
 6684SOL    HW120951   1.737   6.864   2.248
 6684SOL    HW220952   1.758   6.974   2.129
 6685SOL     OW20953   5.288   2.285   6.333
 6685SOL    HW120954   5.236   2.228   6.269
 6685SOL    HW220955   5.243   2.284   6.422
 6686SOL     OW20956   5.944   3.885   4.184
 6686SOL    HW120957   5.869   3.904   4.122
 6686SOL    HW220958   5.965   3.787   4.182
 6687SOL     OW20959   1.177   1.672   0.793
 6687SOL    HW120960   1.148   1.587   0.750
 6687SOL    HW220961   1.109   1.699   0.862
 6688SOL     OW20962   0.407   4.649   2.951
 6688SOL    HW120963   0.336   4.719   2.945
 6688SOL    HW220964   0.365   4.559   2.948
 6689SOL     OW20965   5.119   3.865   0.559
 6689SOL    HW120966   5.160   3.831   0.474
 6689SOL    HW220967   5.128   3.795   0.630
 6690SOL     OW20968   2.245   2.639   1.653
 6690SOL    HW120969   2.215   2.545   1.642
 6690SOL    HW220970   2.249   2.662   1.751
 6691SOL     OW20971   2.353   6.224   1.418
 6691SOL    HW120972   2.402   6.190   1.337
 6691SOL    HW220973   2.257   6.243   1.393
 6692SOL     OW20974   2.987   4.230   5.222
 6692SOL    HW120975   2.915   4.166   5.250
 6692SOL    HW220976   2.948   4.321   5.210
 6693SOL     OW20977   4.446   3.780   5.299
 6693SOL    HW120978   4.461   3.878   5.303
 6693SOL    HW220979   4.500   3.740   5.225
 6694SOL     OW20980   4.726   6.598   0.890
 6694SOL    HW120981   4.777   6.562   0.812
 6694SOL    HW220982   4.751   6.693   0.906
 6695SOL     OW20983   0.758   1.350   6.576
 6695SOL    HW120984   0.787   1.431   6.526
 6695SOL    HW220985   0.803   1.347   6.665
 6696SOL     OW20986   2.089   2.855   1.564
 6696SOL    HW120987   2.164   2.790   1.577
 6696SOL    HW220988   2.031   2.824   1.489
 6697SOL     OW20989   4.326   1.633   2.789
 6697SOL    HW120990   4.406   1.573   2.796
 6697SOL    HW220991   4.335   1.709   2.853
 6698SOL     OW20992   4.025   3.048   6.810
 6698SOL    HW120993   4.103   3.098   6.847
 6698SOL    HW220994   4.049   2.951   6.802
 6699SOL     OW20995   3.672   4.850   0.006
 6699SOL    HW120996   3.671   4.755   6.996
 6699SOL    HW220997   3.722   4.858   0.092
 6700SOL     OW20998   0.536   5.638   1.407
 6700SOL    HW120999   0.451   5.597   1.441
 6700SOL    HW221000   0.570   5.585   1.329
 6701SOL     OW21001   0.216   1.681   0.561
 6701SOL    HW121002   0.229   1.620   0.639
 6701SOL    HW221003   0.119   1.699   0.548
 6702SOL     OW21004   2.738   1.671   0.931
 6702SOL    HW121005   2.792   1.752   0.913
 6702SOL    HW221006   2.641   1.691   0.918
 6703SOL     OW21007   6.998   1.248   5.985
 6703SOL    HW121008   6.950   1.304   6.051
 6703SOL    HW221009   0.059   1.207   6.028
 6704SOL     OW21010   4.770   2.369   2.359
 6704SOL    HW121011   4.794   2.286   2.311
 6704SOL    HW221012   4.670   2.382   2.356
 6705SOL     OW21013   6.398   2.214   1.681
 6705SOL    HW121014   6.302   2.208   1.708
 6705SOL    HW221015   6.411   2.295   1.623
 6706SOL     OW21016   0.986   3.738   0.170
 6706SOL    HW121017   0.938   3.650   0.163
 6706SOL    HW221018   0.930   3.803   0.221
 6707SOL     OW21019   6.355   5.465   4.053
 6707SOL    HW121020   6.306   5.420   4.127
 6707SOL    HW221021   6.351   5.564   4.067
 6708SOL     OW21022   1.773   5.396   2.074
 6708SOL    HW121023   1.830   5.363   1.999
 6708SOL    HW221024   1.792   5.492   2.091
 6709SOL     OW21025   3.491   6.943   1.803
 6709SOL    HW121026   3.538   6.933   1.715
 6709SOL    HW221027   3.550   6.910   1.876
 6710SOL     OW21028   2.926   2.706   6.554
 6710SOL    HW121029   2.979   2.630   6.516
 6710SOL    HW221030   2.862   2.740   6.485
 6711SOL     OW21031   5.042   3.741   6.396
 6711SOL    HW121032   5.133   3.720   6.433
 6711SOL    HW221033   5.037   3.708   6.301
 6712SOL     OW21034   3.891   5.292   0.592
 6712SOL    HW121035   3.923   5.290   0.686
 6712SOL    HW221036   3.930   5.371   0.545
 6713SOL     OW21037   1.848   2.528   1.522
 6713SOL    HW121038   1.750   2.524   1.501
 6713SOL    HW221039   1.894   2.450   1.481
 6714SOL     OW21040   5.165   0.197   4.461
 6714SOL    HW121041   5.142   0.230   4.370
 6714SOL    HW221042   5.262   0.211   4.479
 6715SOL     OW21043   0.522   2.145   0.865
 6715SOL    HW121044   0.610   2.193   0.855
 6715SOL    HW221045   0.468   2.158   0.783
 6716SOL     OW21046   1.712   6.052   1.181
 6716SOL    HW121047   1.723   6.061   1.082
 6716SOL    HW221048   1.701   6.143   1.222
 6717SOL     OW21049   3.583   2.904   0.764
 6717SOL    HW121050   3.582   2.822   0.707
 6717SOL    HW221051   3.643   2.973   0.723
 6718SOL     OW21052   3.799   0.004   0.171
 6718SOL    HW121053   3.870   0.075   0.160
 6718SOL    HW221054   3.817   6.949   0.108
 6719SOL     OW21055   0.239   6.055   5.492
 6719SOL    HW121056   0.157   6.027   5.541
 6719SOL    HW221057   0.318   6.050   5.553
 6720SOL     OW21058   2.151   5.416   1.712
 6720SOL    HW121059   2.205   5.344   1.668
 6720SOL    HW221060   2.212   5.477   1.762
 6721SOL     OW21061   5.045   6.424   4.129
 6721SOL    HW121062   4.976   6.388   4.066
 6721SOL    HW221063   5.028   6.389   4.221
 6722SOL     OW21064   4.318   3.431   6.827
 6722SOL    HW121065   4.417   3.440   6.831
 6722SOL    HW221066   4.290   3.343   6.866
 6723SOL     OW21067   2.536   6.757   3.499
 6723SOL    HW121068   2.442   6.778   3.526
 6723SOL    HW221069   2.550   6.658   3.504
 6724SOL     OW21070   3.099   4.569   5.411
 6724SOL    HW121071   3.039   4.532   5.340
 6724SOL    HW221072   3.052   4.645   5.458
 6725SOL     OW21073   0.917   5.022   2.584
 6725SOL    HW121074   0.977   5.070   2.520
 6725SOL    HW221075   0.889   5.085   2.657
 6726SOL     OW21076   2.369   2.818   4.186
 6726SOL    HW121077   2.317   2.855   4.264
 6726SOL    HW221078   2.436   2.751   4.219
 6727SOL     OW21079   4.458   3.259   5.800
 6727SOL    HW121080   4.406   3.334   5.841
 6727SOL    HW221081   4.398   3.202   5.745
 6728SOL     OW21082   4.021   1.703   4.199
 6728SOL    HW121083   4.013   1.802   4.188
 6728SOL    HW221084   3.930   1.661   4.190
 6729SOL     OW21085   6.490   0.733   2.545
 6729SOL    HW121086   6.543   0.817   2.551
 6729SOL    HW221087   6.478   0.695   2.637
 6730SOL     OW21088   2.641   0.746   0.044
 6730SOL    HW121089   2.723   0.697   0.075
 6730SOL    HW221090   2.606   0.702   6.981
 6731SOL     OW21091   2.684   4.622   1.346
 6731SOL    HW121092   2.670   4.524   1.336
 6731SOL    HW221093   2.695   4.645   1.443
 6732SOL     OW21094   2.524   6.559   0.818
 6732SOL    HW121095   2.523   6.489   0.746
 6732SOL    HW221096   2.511   6.514   0.907
 6733SOL     OW21097   4.571   5.966   4.982
 6733SOL    HW121098   4.648   5.957   5.045
 6733SOL    HW221099   4.494   6.008   5.029
 6734SOL     OW21100   1.486   3.203   5.642
 6734SOL    HW121101   1.403   3.246   5.605
 6734SOL    HW221102   1.566   3.241   5.595
 6735SOL     OW21103   0.039   4.936   5.459
 6735SOL    HW121104   0.121   4.878   5.459
 6735SOL    HW221105   0.011   4.954   5.365
 6736SOL     OW21106   2.536   2.695   1.652
 6736SOL    HW121107   2.463   2.671   1.588
 6736SOL    HW221108   2.508   2.774   1.707
 6737SOL     OW21109   2.677   1.624   2.488
 6737SOL    HW121110   2.752   1.578   2.440
 6737SOL    HW221111   2.689   1.723   2.482
 6738SOL     OW21112   2.798   1.133   2.702
 6738SOL    HW121113   2.737   1.201   2.661
 6738SOL    HW221114   2.860   1.098   2.633
 6739SOL     OW21115   3.581   6.470   4.908
 6739SOL    HW121116   3.584   6.409   4.828
 6739SOL    HW221117   3.557   6.418   4.989
 6740SOL     OW21118   1.731   1.810   3.890
 6740SOL    HW121119   1.811   1.754   3.870
 6740SOL    HW221120   1.648   1.754   3.884
 6741SOL     OW21121   6.650   0.467   5.974
 6741SOL    HW121122   6.570   0.523   5.996
 6741SOL    HW221123   6.622   0.391   5.915
 6742SOL     OW21124   6.268   6.128   5.338
 6742SOL    HW121125   6.271   6.220   5.376
 6742SOL    HW221126   6.361   6.092   5.333
 6743SOL     OW21127   4.026   3.229   1.517
 6743SOL    HW121128   4.057   3.135   1.507
 6743SOL    HW221129   3.926   3.231   1.522
 6744SOL     OW21130   4.664   4.722   5.784
 6744SOL    HW121131   4.634   4.671   5.703
 6744SOL    HW221132   4.752   4.766   5.765
 6745SOL     OW21133   1.417   4.721   3.521
 6745SOL    HW121134   1.517   4.717   3.528
 6745SOL    HW221135   1.378   4.631   3.535
 6746SOL     OW21136   0.273   2.281   1.080
 6746SOL    HW121137   0.332   2.246   1.008
 6746SOL    HW221138   0.303   2.245   1.168
 6747SOL     OW21139   5.244   5.720   5.028
 6747SOL    HW121140   5.148   5.696   5.011
 6747SOL    HW221141   5.303   5.670   4.965
 6748SOL     OW21142   1.103   0.779   2.621
 6748SOL    HW121143   1.198   0.782   2.591
 6748SOL    HW221144   1.049   0.727   2.555
 6749SOL     OW21145   4.520   0.201   7.009
 6749SOL    HW121146   4.517   0.268   6.935
 6749SOL    HW221147   4.613   0.195   0.026
 6750SOL     OW21148   2.512   2.591   4.821
 6750SOL    HW121149   2.522   2.634   4.910
 6750SOL    HW221150   2.522   2.660   4.749
 6751SOL     OW21151   2.710   2.391   4.406
 6751SOL    HW121152   2.665   2.392   4.495
 6751SOL    HW221153   2.760   2.306   4.394
 6752SOL     OW21154   5.839   3.250   0.765
 6752SOL    HW121155   5.871   3.281   0.675
 6752SOL    HW221156   5.840   3.150   0.768
 6753SOL     OW21157   4.585   2.374   6.572
 6753SOL    HW121158   4.550   2.366   6.665
 6753SOL    HW221159   4.567   2.289   6.522
 6754SOL     OW21160   6.098   1.257   6.490
 6754SOL    HW121161   6.096   1.245   6.391
 6754SOL    HW221162   6.100   1.355   6.511
 6755SOL     OW21163   4.921   2.143   3.913
 6755SOL    HW121164   4.872   2.093   3.984
 6755SOL    HW221165   5.018   2.150   3.937
 6756SOL     OW21166   4.944   5.167   3.926
 6756SOL    HW121167   4.971   5.115   4.007
 6756SOL    HW221168   5.017   5.162   3.858
 6757SOL     OW21169   6.030   6.075   1.908
 6757SOL    HW121170   5.974   6.086   1.826
 6757SOL    HW221171   6.048   6.164   1.949
 6758SOL     OW21172   5.287   2.539   1.852
 6758SOL    HW121173   5.297   2.496   1.763
 6758SOL    HW221174   5.343   2.490   1.919
 6759SOL     OW21175   0.646   5.172   2.963
 6759SOL    HW121176   0.663   5.178   3.061
 6759SOL    HW221177   0.567   5.229   2.940
 6760SOL     OW21178   6.767   4.126   3.808
 6760SOL    HW121179   6.689   4.186   3.790
 6760SOL    HW221180   6.845   4.181   3.838
 6761SOL     OW21181   4.801   2.467   5.584
 6761SOL    HW121182   4.716   2.492   5.536
 6761SOL    HW221183   4.852   2.549   5.608
 6762SOL     OW21184   5.969   4.847   3.305
 6762SOL    HW121185   6.049   4.907   3.310
 6762SOL    HW221186   5.996   4.753   3.326
 6763SOL     OW21187   6.445   6.617   5.952
 6763SOL    HW121188   6.407   6.528   5.929
 6763SOL    HW221189   6.524   6.635   5.895
 6764SOL     OW21190   2.886   4.321   6.620
 6764SOL    HW121191   2.803   4.374   6.604
 6764SOL    HW221192   2.933   4.356   6.701
 6765SOL     OW21193   5.995   4.121   2.080
 6765SOL    HW121194   6.088   4.105   2.114
 6765SOL    HW221195   5.976   4.058   2.005
 6766SOL     OW21196   1.984   0.419   5.915
 6766SOL    HW121197   2.077   0.437   5.884
 6766SOL    HW221198   1.923   0.416   5.836
 6767SOL     OW21199   6.880   2.895   6.846
 6767SOL    HW121200   6.832   2.934   6.767
 6767SOL    HW221201   6.825   2.909   6.929
 6768SOL     OW21202   6.481   0.352   3.697
 6768SOL    HW121203   6.538   0.317   3.771
 6768SOL    HW221204   6.441   0.276   3.646
 6769SOL     OW21205   2.238   2.971   5.497
 6769SOL    HW121206   2.254   3.036   5.422
 6769SOL    HW221207   2.199   2.887   5.461
 6770SOL     OW21208   0.297   1.673   3.093
 6770SOL    HW121209   0.266   1.592   3.044
 6770SOL    HW221210   0.234   1.692   3.169
 6771SOL     OW21211   3.992   2.213   3.424
 6771SOL    HW121212   4.065   2.233   3.489
 6771SOL    HW221213   4.024   2.233   3.331
 6772SOL     OW21214   0.121   1.348   1.829
 6772SOL    HW121215   0.037   1.379   1.784
 6772SOL    HW221216   0.105   1.342   1.927
 6773SOL     OW21217   0.994   6.639   1.476
 6773SOL    HW121218   1.025   6.560   1.529
 6773SOL    HW221219   1.037   6.722   1.512
 6774SOL     OW21220   1.880   2.271   5.557
 6774SOL    HW121221   1.970   2.313   5.558
 6774SOL    HW221222   1.889   2.172   5.544
 6775SOL     OW21223   0.753   2.119   4.948
 6775SOL    HW121224   0.668   2.154   4.987
 6775SOL    HW221225   0.755   2.020   4.956
 6776SOL     OW21226   3.195   4.087   2.810
 6776SOL    HW121227   3.275   4.116   2.759
 6776SOL    HW221228   3.135   4.034   2.749
 6777SOL     OW21229   5.952   5.252   6.560
 6777SOL    HW121230   5.860   5.278   6.531
 6777SOL    HW221231   6.000   5.333   6.594
 6778SOL     OW21232   6.378   4.822   3.015
 6778SOL    HW121233   6.366   4.904   2.959
 6778SOL    HW221234   6.407   4.746   2.957
 6779SOL     OW21235   5.308   3.515   5.740
 6779SOL    HW121236   5.324   3.442   5.807
 6779SOL    HW221237   5.210   3.537   5.738
 6780SOL     OW21238   2.863   2.264   3.190
 6780SOL    HW121239   2.901   2.260   3.282
 6780SOL    HW221240   2.932   2.234   3.124
 6781SOL     OW21241   0.061   1.618   3.278
 6781SOL    HW121242   0.047   1.566   3.361
 6781SOL    HW221243   0.019   1.709   3.287
 6782SOL     OW21244   6.903   1.122   2.624
 6782SOL    HW121245   6.979   1.102   2.686
 6782SOL    HW221246   6.938   1.153   2.536
 6783SOL     OW21247   1.854   4.895   5.253
 6783SOL    HW121248   1.896   4.879   5.343
 6783SOL    HW221249   1.895   4.977   5.212
 6784SOL     OW21250   2.187   3.658   1.695
 6784SOL    HW121251   2.102   3.692   1.735
 6784SOL    HW221252   2.245   3.619   1.767
 6785SOL     OW21253   5.441   5.892   4.966
 6785SOL    HW121254   5.490   5.906   5.053
 6785SOL    HW221255   5.364   5.830   4.981
 6786SOL     OW21256   5.905   2.007   6.372
 6786SOL    HW121257   5.952   1.922   6.350
 6786SOL    HW221258   5.957   2.085   6.335
 6787SOL     OW21259   3.885   2.323   6.136
 6787SOL    HW121260   3.834   2.384   6.196
 6787SOL    HW221261   3.982   2.325   6.159
 6788SOL     OW21262   6.763   4.010   3.027
 6788SOL    HW121263   6.733   4.093   2.980
 6788SOL    HW221264   6.787   3.940   2.960
 6789SOL     OW21265   6.025   4.181   3.654
 6789SOL    HW121266   5.934   4.143   3.636
 6789SOL    HW221267   6.018   4.257   3.718
 6790SOL     OW21268   0.531   5.126   6.120
 6790SOL    HW121269   0.604   5.073   6.166
 6790SOL    HW221270   0.466   5.063   6.079
 6791SOL     OW21271   3.485   0.769   3.210
 6791SOL    HW121272   3.512   0.761   3.115
 6791SOL    HW221273   3.388   0.795   3.216
 6792SOL     OW21274   3.967   0.081   4.975
 6792SOL    HW121275   3.931   0.170   5.001
 6792SOL    HW221276   3.900   0.033   4.918
 6793SOL     OW21277   1.758   3.871   6.984
 6793SOL    HW121278   1.749   3.958   0.012
 6793SOL    HW221279   1.675   3.816   6.998
 6794SOL     OW21280   4.875   1.963   5.240
 6794SOL    HW121281   4.964   1.938   5.276
 6794SOL    HW221282   4.809   1.969   5.315
 6795SOL     OW21283   1.031   0.625   0.912
 6795SOL    HW121284   1.056   0.664   0.824
 6795SOL    HW221285   1.098   0.556   0.939
 6796SOL     OW21286   5.857   1.125   2.481
 6796SOL    HW121287   5.765   1.085   2.476
 6796SOL    HW221288   5.911   1.091   2.404
 6797SOL     OW21289   1.007   2.423   1.398
 6797SOL    HW121290   1.067   2.347   1.376
 6797SOL    HW221291   0.912   2.398   1.377
 6798SOL     OW21292   5.860   7.006   1.392
 6798SOL    HW121293   5.850   6.914   1.429
 6798SOL    HW221294   5.886   7.001   1.295
 6799SOL     OW21295   6.546   0.993   3.293
 6799SOL    HW121296   6.592   0.908   3.318
 6799SOL    HW221297   6.568   1.064   3.360
 6800SOL     OW21298   6.766   2.168   1.394
 6800SOL    HW121299   6.852   2.188   1.346
 6800SOL    HW221300   6.779   2.184   1.492
 6801SOL     OW21301   1.153   5.880   6.004
 6801SOL    HW121302   1.102   5.939   6.066
 6801SOL    HW221303   1.178   5.932   5.922
 6802SOL     OW21304   3.389   4.904   1.854
 6802SOL    HW121305   3.331   4.893   1.935
 6802SOL    HW221306   3.444   4.822   1.842
 6803SOL     OW21307   5.579   4.839   5.774
 6803SOL    HW121308   5.592   4.905   5.847
 6803SOL    HW221309   5.483   4.814   5.768
 6804SOL     OW21310   3.434   4.911   2.950
 6804SOL    HW121311   3.441   5.000   2.905
 6804SOL    HW221312   3.426   4.924   3.049
 6805SOL     OW21313   0.093   4.266   4.945
 6805SOL    HW121314   0.026   4.201   4.907
 6805SOL    HW221315   0.155   4.295   4.873
 6806SOL     OW21316   6.901   1.749   2.108
 6806SOL    HW121317   6.999   1.772   2.112
 6806SOL    HW221318   6.861   1.759   2.200
 6807SOL     OW21319   3.064   4.024   1.831
 6807SOL    HW121320   3.013   3.945   1.863
 6807SOL    HW221321   3.118   4.061   1.907
 6808SOL     OW21322   3.364   1.658   4.292
 6808SOL    HW121323   3.318   1.570   4.306
 6808SOL    HW221324   3.353   1.715   4.373
 6809SOL     OW21325   5.520   3.431   0.498
 6809SOL    HW121326   5.494   3.526   0.518
 6809SOL    HW221327   5.440   3.379   0.470
 6810SOL     OW21328   2.614   0.617   4.577
 6810SOL    HW121329   2.579   0.711   4.575
 6810SOL    HW221330   2.540   0.554   4.601
 6811SOL     OW21331   6.353   1.517   0.682
 6811SOL    HW121332   6.409   1.539   0.602
 6811SOL    HW221333   6.413   1.489   0.757
 6812SOL     OW21334   3.794   4.289   5.288
 6812SOL    HW121335   3.745   4.208   5.318
 6812SOL    HW221336   3.821   4.279   5.192
 6813SOL     OW21337   6.094   3.573   1.632
 6813SOL    HW121338   6.109   3.544   1.727
 6813SOL    HW221339   6.010   3.626   1.626
 6814SOL     OW21340   5.215   1.365   6.410
 6814SOL    HW121341   5.262   1.449   6.437
 6814SOL    HW221342   5.283   1.295   6.387
 6815SOL     OW21343   1.677   4.890   5.681
 6815SOL    HW121344   1.610   4.816   5.682
 6815SOL    HW221345   1.631   4.978   5.696
 6816SOL     OW21346   0.220   0.928   3.043
 6816SOL    HW121347   0.262   0.837   3.043
 6816SOL    HW221348   0.201   0.956   2.949
 6817SOL     OW21349   4.173   2.236   1.956
 6817SOL    HW121350   4.090   2.184   1.932
 6817SOL    HW221351   4.196   2.297   1.880
 6818SOL     OW21352   1.651   0.010   5.498
 6818SOL    HW121353   1.741   6.993   5.520
 6818SOL    HW221354   1.649   0.041   5.403
 6819SOL     OW21355   4.766   4.656   1.783
 6819SOL    HW121356   4.688   4.592   1.788
 6819SOL    HW221357   4.758   4.711   1.700
 6820SOL     OW21358   2.972   5.729   2.052
 6820SOL    HW121359   3.003   5.737   1.957
 6820SOL    HW221360   2.980   5.817   2.098
 6821SOL     OW21361   3.874   2.678   5.333
 6821SOL    HW121362   3.960   2.686   5.282
 6821SOL    HW221363   3.820   2.603   5.295
 6822SOL     OW21364   6.632   2.680   6.338
 6822SOL    HW121365   6.710   2.699   6.398
 6822SOL    HW221366   6.664   2.673   6.243
 6823SOL     OW21367   5.800   2.517   5.532
 6823SOL    HW121368   5.706   2.520   5.568
 6823SOL    HW221369   5.802   2.467   5.446
 6824SOL     OW21370   1.131   0.383   6.050
 6824SOL    HW121371   1.229   0.365   6.048
 6824SOL    HW221372   1.107   0.426   6.138
 6825SOL     OW21373   5.652   4.786   1.052
 6825SOL    HW121374   5.680   4.862   1.110
 6825SOL    HW221375   5.722   4.768   0.983
 6826SOL     OW21376   6.412   4.725   4.076
 6826SOL    HW121377   6.353   4.741   4.155
 6826SOL    HW221378   6.356   4.707   3.996
 6827SOL     OW21379   4.304   5.899   4.739
 6827SOL    HW121380   4.212   5.870   4.765
 6827SOL    HW221381   4.372   5.844   4.789
 6828SOL     OW21382   2.650   2.322   2.769
 6828SOL    HW121383   2.741   2.301   2.734
 6828SOL    HW221384   2.655   2.345   2.866
 6829SOL     OW21385   3.723   6.596   3.793
 6829SOL    HW121386   3.625   6.584   3.777
 6829SOL    HW221387   3.762   6.510   3.827
 6830SOL     OW21388   4.821   6.352   3.343
 6830SOL    HW121389   4.746   6.354   3.276
 6830SOL    HW221390   4.906   6.380   3.299
 6831SOL     OW21391   1.789   1.607   5.990
 6831SOL    HW121392   1.856   1.551   6.039
 6831SOL    HW221393   1.699   1.564   5.995
 6832SOL     OW21394   3.175   2.424   0.271
 6832SOL    HW121395   3.076   2.435   0.271
 6832SOL    HW221396   3.200   2.344   0.217
 6833SOL     OW21397   3.436   5.099   5.900
 6833SOL    HW121398   3.453   5.028   5.968
 6833SOL    HW221399   3.518   5.110   5.842
 6834SOL     OW21400   5.551   6.351   0.796
 6834SOL    HW121401   5.583   6.443   0.820
 6834SOL    HW221402   5.453   6.354   0.777
 6835SOL     OW21403   2.760   1.866   5.229
 6835SOL    HW121404   2.859   1.879   5.234
 6835SOL    HW221405   2.731   1.800   5.299
 6836SOL     OW21406   2.406   4.420   6.246
 6836SOL    HW121407   2.491   4.466   6.271
 6836SOL    HW221408   2.427   4.338   6.192
 6837SOL     OW21409   0.444   0.594   1.437
 6837SOL    HW121410   0.382   0.602   1.359
 6837SOL    HW221411   0.502   0.514   1.427
 6838SOL     OW21412   2.940   3.784   5.099
 6838SOL    HW121413   2.859   3.817   5.148
 6838SOL    HW221414   2.912   3.736   5.016
 6839SOL     OW21415   5.857   3.135   4.791
 6839SOL    HW121416   5.899   3.206   4.734
 6839SOL    HW221417   5.808   3.071   4.732
 6840SOL     OW21418   2.336   6.687   4.972
 6840SOL    HW121419   2.407   6.694   4.901
 6840SOL    HW221420   2.260   6.747   4.949
 6841SOL     OW21421   4.304   6.389   0.899
 6841SOL    HW121422   4.397   6.417   0.923
 6841SOL    HW221423   4.268   6.328   0.970
 6842SOL     OW21424   0.558   3.379   5.473
 6842SOL    HW121425   0.459   3.392   5.474
 6842SOL    HW221426   0.587   3.331   5.555
 6843SOL     OW21427   3.802   2.086   2.209
 6843SOL    HW121428   3.755   2.138   2.138
 6843SOL    HW221429   3.767   2.112   2.299
 6844SOL     OW21430   4.200   4.957   4.044
 6844SOL    HW121431   4.282   4.945   3.987
 6844SOL    HW221432   4.160   4.867   4.064
 6845SOL     OW21433   4.454   4.979   1.522
 6845SOL    HW121434   4.367   4.949   1.559
 6845SOL    HW221435   4.495   4.906   1.468
 6846SOL     OW21436   3.075   3.085   2.942
 6846SOL    HW121437   3.003   3.152   2.963
 6846SOL    HW221438   3.089   3.026   3.021
 6847SOL     OW21439   5.771   3.435   1.774
 6847SOL    HW121440   5.806   3.493   1.701
 6847SOL    HW221441   5.673   3.453   1.787
 6848SOL     OW21442   0.882   6.639   3.216
 6848SOL    HW121443   0.863   6.580   3.295
 6848SOL    HW221444   0.797   6.658   3.168
 6849SOL     OW21445   3.508   6.451   3.996
 6849SOL    HW121446   3.439   6.379   3.998
 6849SOL    HW221447   3.510   6.493   3.905
 6850SOL     OW21448   5.467   2.780   2.591
 6850SOL    HW121449   5.455   2.840   2.511
 6850SOL    HW221450   5.404   2.703   2.585
 6851SOL     OW21451   1.214   5.355   5.556
 6851SOL    HW121452   1.269   5.283   5.514
 6851SOL    HW221453   1.267   5.440   5.561
 6852SOL     OW21454   6.751   4.504   2.481
 6852SOL    HW121455   6.761   4.409   2.450
 6852SOL    HW221456   6.761   4.566   2.404
 6853SOL     OW21457   1.006   3.604   5.961
 6853SOL    HW121458   0.933   3.557   6.010
 6853SOL    HW221459   1.060   3.537   5.909
 6854SOL     OW21460   6.374   1.930   6.382
 6854SOL    HW121461   6.473   1.921   6.388
 6854SOL    HW221462   6.344   2.006   6.440
 6855SOL     OW21463   2.956   6.447   1.253
 6855SOL    HW121464   3.032   6.490   1.204
 6855SOL    HW221465   2.957   6.477   1.348
 6856SOL     OW21466   6.453   3.324   4.964
 6856SOL    HW121467   6.401   3.367   5.037
 6856SOL    HW221468   6.484   3.234   4.994
 6857SOL     OW21469   4.087   1.647   5.468
 6857SOL    HW121470   4.125   1.684   5.553
 6857SOL    HW221471   4.010   1.703   5.438
 6858SOL     OW21472   3.916   3.259   4.563
 6858SOL    HW121473   3.843   3.310   4.519
 6858SOL    HW221474   3.949   3.310   4.642
 6859SOL     OW21475   4.002   0.438   0.632
 6859SOL    HW121476   3.967   0.529   0.656
 6859SOL    HW221477   3.958   0.369   0.690
 6860SOL     OW21478   5.120   3.074   6.526
 6860SOL    HW121479   5.208   3.078   6.573
 6860SOL    HW221480   5.062   3.005   6.569
 6861SOL     OW21481   6.368   5.111   0.049
 6861SOL    HW121482   6.428   5.053   7.013
 6861SOL    HW221483   6.395   5.104   0.145
 6862SOL     OW21484   3.200   5.616   4.085
 6862SOL    HW121485   3.173   5.710   4.106
 6862SOL    HW221486   3.119   5.557   4.088
 6863SOL     OW21487   5.688   2.568   3.858
 6863SOL    HW121488   5.716   2.620   3.939
 6863SOL    HW221489   5.767   2.555   3.798
 6864SOL     OW21490   3.738   6.111   4.970
 6864SOL    HW121491   3.743   6.014   4.947
 6864SOL    HW221492   3.775   6.125   5.062
 6865SOL     OW21493   6.559   4.919   3.667
 6865SOL    HW121494   6.638   4.858   3.664
 6865SOL    HW221495   6.479   4.871   3.628
 6866SOL     OW21496   6.945   2.920   2.408
 6866SOL    HW121497   0.010   2.882   2.447
 6866SOL    HW221498   6.943   3.019   2.423
 6867SOL     OW21499   2.047   4.249   2.764
 6867SOL    HW121500   1.966   4.242   2.822
 6867SOL    HW221501   2.045   4.336   2.715
 6868SOL     OW21502   1.960   5.610   4.974
 6868SOL    HW121503   1.942   5.687   5.035
 6868SOL    HW221504   1.899   5.534   4.997
 6869SOL     OW21505   5.820   3.406   5.497
 6869SOL    HW121506   5.813   3.446   5.405
 6869SOL    HW221507   5.789   3.311   5.494
 6870SOL     OW21508   5.796   3.490   2.612
 6870SOL    HW121509   5.785   3.531   2.702
 6870SOL    HW221510   5.818   3.393   2.622
 6871SOL     OW21511   5.202   5.673   1.250
 6871SOL    HW121512   5.156   5.642   1.333
 6871SOL    HW221513   5.138   5.669   1.173
 6872SOL     OW21514   2.197   3.133   6.527
 6872SOL    HW121515   2.194   3.188   6.444
 6872SOL    HW221516   2.167   3.188   6.605
 6873SOL     OW21517   5.669   3.559   5.726
 6873SOL    HW121518   5.708   3.481   5.678
 6873SOL    HW221519   5.572   3.568   5.701
 6874SOL     OW21520   0.659   2.584   5.424
 6874SOL    HW121521   0.568   2.622   5.443
 6874SOL    HW221522   0.653   2.520   5.347
 6875SOL     OW21523   2.429   1.765   3.988
 6875SOL    HW121524   2.410   1.730   3.896
 6875SOL    HW221525   2.356   1.827   4.016
 6876SOL     OW21526   4.165   6.176   6.816
 6876SOL    HW121527   4.230   6.221   6.878
 6876SOL    HW221528   4.072   6.209   6.835
 6877SOL     OW21529   2.411   4.207   6.929
 6877SOL    HW121530   2.457   4.182   6.844
 6877SOL    HW221531   2.329   4.260   6.909
 6878SOL     OW21532   1.619   1.656   5.307
 6878SOL    HW121533   1.563   1.733   5.276
 6878SOL    HW221534   1.677   1.685   5.383
 6879SOL     OW21535   1.593   2.617   6.443
 6879SOL    HW121536   1.592   2.605   6.344
 6879SOL    HW221537   1.500   2.637   6.474
 6880SOL     OW21538   2.155   4.200   5.191
 6880SOL    HW121539   2.213   4.135   5.141
 6880SOL    HW221540   2.085   4.237   5.130
 6881SOL     OW21541   0.068   4.256   1.833
 6881SOL    HW121542   0.018   4.286   1.752
 6881SOL    HW221543   0.155   4.215   1.805
 6882SOL     OW21544   2.156   0.347   5.536
 6882SOL    HW121545   2.201   0.421   5.586
 6882SOL    HW221546   2.058   0.352   5.551
 6883SOL     OW21547   4.027   0.081   1.402
 6883SOL    HW121548   4.041   0.041   1.311
 6883SOL    HW221549   4.057   0.016   1.472
 6884SOL     OW21550   1.744   4.850   4.117
 6884SOL    HW121551   1.715   4.941   4.088
 6884SOL    HW221552   1.833   4.855   4.161
 6885SOL     OW21553   2.939   5.565   4.642
 6885SOL    HW121554   2.886   5.650   4.635
 6885SOL    HW221555   2.960   5.547   4.738
 6886SOL     OW21556   6.019   1.197   2.676
 6886SOL    HW121557   5.956   1.186   2.599
 6886SOL    HW221558   6.038   1.108   2.717
 6887SOL     OW21559   5.911   0.806   4.414
 6887SOL    HW121560   5.917   0.806   4.315
 6887SOL    HW221561   5.821   0.772   4.442
 6888SOL     OW21562   5.522   6.528   4.785
 6888SOL    HW121563   5.510   6.497   4.880
 6888SOL    HW221564   5.490   6.457   4.723
 6889SOL     OW21565   1.723   4.419   5.908
 6889SOL    HW121566   1.791   4.491   5.901
 6889SOL    HW221567   1.704   4.381   5.817
 6890SOL     OW21568   2.094   0.027   1.392
 6890SOL    HW121569   2.084   0.062   1.299
 6890SOL    HW221570   2.092   0.103   1.457
 6891SOL     OW21571   1.241   4.343   3.762
 6891SOL    HW121572   1.302   4.265   3.746
 6891SOL    HW221573   1.170   4.316   3.826
 6892SOL     OW21574   3.294   0.919   4.059
 6892SOL    HW121575   3.230   0.876   4.122
 6892SOL    HW221576   3.305   1.016   4.083
 6893SOL     OW21577   4.424   5.560   2.823
 6893SOL    HW121578   4.455   5.607   2.740
 6893SOL    HW221579   4.325   5.553   2.823
 6894SOL     OW21580   6.868   4.786   6.749
 6894SOL    HW121581   6.918   4.738   6.678
 6894SOL    HW221582   6.771   4.765   6.742
 6895SOL     OW21583   3.316   5.285   6.862
 6895SOL    HW121584   3.219   5.308   6.866
 6895SOL    HW221585   3.361   5.337   6.789
 6896SOL     OW21586   3.787   0.397   3.393
 6896SOL    HW121587   3.707   0.453   3.372
 6896SOL    HW221588   3.771   0.348   3.479
 6897SOL     OW21589   3.138   3.525   0.319
 6897SOL    HW121590   3.070   3.476   0.265
 6897SOL    HW221591   3.190   3.587   0.260
 6898SOL     OW21592   4.275   2.299   2.227
 6898SOL    HW121593   4.249   2.290   2.131
 6898SOL    HW221594   4.193   2.295   2.284
 6899SOL     OW21595   4.979   5.889   6.760
 6899SOL    HW121596   4.996   5.796   6.727
 6899SOL    HW221597   5.037   5.953   6.710
 6900SOL     OW21598   4.946   0.333   6.265
 6900SOL    HW121599   5.030   0.347   6.317
 6900SOL    HW221600   4.936   0.406   6.196
 6901SOL     OW21601   1.426   0.416   6.472
 6901SOL    HW121602   1.471   0.459   6.394
 6901SOL    HW221603   1.399   0.487   6.538
 6902SOL     OW21604   6.726   5.998   0.742
 6902SOL    HW121605   6.636   5.968   0.713
 6902SOL    HW221606   6.765   6.059   0.672
 6903SOL     OW21607   4.584   4.290   0.778
 6903SOL    HW121608   4.655   4.356   0.803
 6903SOL    HW221609   4.542   4.318   0.692
 6904SOL     OW21610   6.755   1.376   3.142
 6904SOL    HW121611   6.735   1.279   3.130
 6904SOL    HW221612   6.753   1.398   3.239
 6905SOL     OW21613   5.998   6.131   1.146
 6905SOL    HW121614   5.914   6.178   1.172
 6905SOL    HW221615   5.997   6.038   1.183
 6906SOL     OW21616   4.122   0.740   3.391
 6906SOL    HW121617   4.124   0.651   3.436
 6906SOL    HW221618   4.162   0.809   3.451
 6907SOL     OW21619   3.662   1.215   1.981
 6907SOL    HW121620   3.694   1.123   2.004
 6907SOL    HW221621   3.655   1.225   1.882
 6908SOL     OW21622   1.702   6.795   5.784
 6908SOL    HW121623   1.728   6.892   5.781
 6908SOL    HW221624   1.775   6.743   5.829
 6909SOL     OW21625   4.532   3.844   6.564
 6909SOL    HW121626   4.461   3.905   6.599
 6909SOL    HW221627   4.584   3.806   6.640
 6910SOL     OW21628   6.242   1.316   1.593
 6910SOL    HW121629   6.197   1.368   1.666
 6910SOL    HW221630   6.279   1.231   1.631
 6911SOL     OW21631   3.855   1.164   4.823
 6911SOL    HW121632   3.922   1.155   4.896
 6911SOL    HW221633   3.767   1.190   4.861
 6912SOL     OW21634   5.384   5.044   0.406
 6912SOL    HW121635   5.399   5.050   0.307
 6912SOL    HW221636   5.324   4.967   0.425
 6913SOL     OW21637   5.509   4.933   4.647
 6913SOL    HW121638   5.512   4.879   4.731
 6913SOL    HW221639   5.602   4.961   4.622
 6914SOL     OW21640   6.291   5.148   0.757
 6914SOL    HW121641   6.199   5.188   0.765
 6914SOL    HW221642   6.283   5.049   0.746
 6915SOL     OW21643   0.425   5.327   2.931
 6915SOL    HW121644   0.402   5.413   2.886
 6915SOL    HW221645   0.364   5.314   3.010
 6916SOL     OW21646   6.152   2.357   6.965
 6916SOL    HW121647   6.087   2.290   7.000
 6916SOL    HW221648   6.116   2.449   6.977
 6917SOL     OW21649   4.855   5.623   6.029
 6917SOL    HW121650   4.900   5.700   6.075
 6917SOL    HW221651   4.891   5.613   5.936
 6918SOL     OW21652   0.154   3.491   3.576
 6918SOL    HW121653   0.089   3.422   3.605
 6918SOL    HW221654   0.146   3.504   3.477
 6919SOL     OW21655   2.061   6.234   3.327
 6919SOL    HW121656   1.992   6.303   3.307
 6919SOL    HW221657   2.133   6.236   3.256
 6920SOL     OW21658   4.821   6.208   4.535
 6920SOL    HW121659   4.747   6.213   4.468
 6920SOL    HW221660   4.809   6.280   4.604
 6921SOL     OW21661   0.595   1.099   3.558
 6921SOL    HW121662   0.592   1.186   3.509
 6921SOL    HW221663   0.504   1.077   3.593
 6922SOL     OW21664   2.344   6.518   0.420
 6922SOL    HW121665   2.426   6.569   0.394
 6922SOL    HW221666   2.280   6.579   0.466
 6923SOL     OW21667   4.969   0.491   3.893
 6923SOL    HW121668   4.980   0.562   3.962
 6923SOL    HW221669   4.873   0.464   3.887
 6924SOL     OW21670   0.334   5.317   1.666
 6924SOL    HW121671   0.377   5.244   1.614
 6924SOL    HW221672   0.340   5.403   1.615
 6925SOL     OW21673   4.308   5.753   3.331
 6925SOL    HW121674   4.219   5.794   3.307
 6925SOL    HW221675   4.374   5.826   3.349
 6926SOL     OW21676   3.203   3.086   4.564
 6926SOL    HW121677   3.259   3.004   4.578
 6926SOL    HW221678   3.139   3.097   4.639
 6927SOL     OW21679   4.624   4.116   5.772
 6927SOL    HW121680   4.590   4.113   5.866
 6927SOL    HW221681   4.554   4.080   5.711
 6928SOL     OW21682   5.417   0.742   6.456
 6928SOL    HW121683   5.435   0.660   6.512
 6928SOL    HW221684   5.370   0.810   6.512
 6929SOL     OW21685   4.245   5.368   0.308
 6929SOL    HW121686   4.287   5.420   0.234
 6929SOL    HW221687   4.314   5.346   0.377
 6930SOL     OW21688   0.509   0.190   3.877
 6930SOL    HW121689   0.475   0.284   3.883
 6930SOL    HW221690   0.585   0.178   3.941
 6931SOL     OW21691   1.863   1.106   1.708
 6931SOL    HW121692   1.766   1.131   1.709
 6931SOL    HW221693   1.887   1.067   1.619
 6932SOL     OW21694   3.274   1.822   0.763
 6932SOL    HW121695   3.373   1.828   0.768
 6932SOL    HW221696   3.247   1.728   0.744
 6933SOL     OW21697   4.480   5.617   5.694
 6933SOL    HW121698   4.452   5.624   5.789
 6933SOL    HW221699   4.575   5.588   5.689
 6934SOL     OW21700   4.993   3.064   0.012
 6934SOL    HW121701   5.036   3.136   0.066
 6934SOL    HW221702   4.954   3.105   6.948
 6935SOL     OW21703   4.266   5.622   3.569
 6935SOL    HW121704   4.362   5.597   3.583
 6935SOL    HW221705   4.259   5.679   3.487
 6936SOL     OW21706   1.107   3.955   1.286
 6936SOL    HW121707   1.057   3.975   1.202
 6936SOL    HW221708   1.197   3.916   1.263
 6937SOL     OW21709   4.216   6.962   5.342
 6937SOL    HW121710   4.177   0.023   5.385
 6937SOL    HW221711   4.288   6.990   5.278
 6938SOL     OW21712   5.209   2.876   5.223
 6938SOL    HW121713   5.158   2.799   5.183
 6938SOL    HW221714   5.152   2.921   5.291
 6939SOL     OW21715   6.818   4.257   2.714
 6939SOL    HW121716   6.912   4.259   2.747
 6939SOL    HW221717   6.815   4.216   2.623
 6940SOL     OW21718   5.403   0.589   5.749
 6940SOL    HW121719   5.315   0.567   5.791
 6940SOL    HW221720   5.412   0.538   5.663
 6941SOL     OW21721   3.983   3.784   3.683
 6941SOL    HW121722   3.941   3.701   3.720
 6941SOL    HW221723   3.951   3.864   3.735
 6942SOL     OW21724   6.625   2.254   6.990
 6942SOL    HW121725   6.691   2.220   6.923
 6942SOL    HW221726   6.622   2.192   0.049
 6943SOL     OW21727   5.278   5.580   6.629
 6943SOL    HW121728   5.375   5.556   6.634
 6943SOL    HW221729   5.264   5.651   6.559
 6944SOL     OW21730   1.261   5.391   6.095
 6944SOL    HW121731   1.212   5.477   6.114
 6944SOL    HW221732   1.359   5.406   6.104
 6945SOL     OW21733   6.495   2.837   5.829
 6945SOL    HW121734   6.594   2.852   5.819
 6945SOL    HW221735   6.467   2.761   5.770
 6946SOL     OW21736   5.643   3.624   2.455
 6946SOL    HW121737   5.697   3.558   2.508
 6946SOL    HW221738   5.587   3.678   2.516
 6947SOL     OW21739   3.768   6.658   3.241
 6947SOL    HW121740   3.735   6.571   3.278
 6947SOL    HW221741   3.867   6.654   3.230
 6948SOL     OW21742   4.951   0.867   5.754
 6948SOL    HW121743   5.007   0.902   5.828
 6948SOL    HW221744   4.856   0.897   5.766
 6949SOL     OW21745   4.906   6.897   2.799
 6949SOL    HW121746   4.952   6.872   2.714
 6949SOL    HW221747   4.820   6.944   2.778
 6950SOL     OW21748   2.341   1.049   3.027
 6950SOL    HW121749   2.380   1.024   3.116
 6950SOL    HW221750   2.385   0.995   2.955
 6951SOL     OW21751   6.464   5.679   5.870
 6951SOL    HW121752   6.449   5.583   5.850
 6951SOL    HW221753   6.552   5.691   5.916
 6952SOL     OW21754   0.611   5.196   5.390
 6952SOL    HW121755   0.583   5.283   5.350
 6952SOL    HW221756   0.616   5.126   5.319
 6953SOL     OW21757   4.815   1.151   5.489
 6953SOL    HW121758   4.777   1.191   5.572
 6953SOL    HW221759   4.769   1.189   5.409
 6954SOL     OW21760   6.660   3.528   3.455
 6954SOL    HW121761   6.750   3.565   3.432
 6954SOL    HW221762   6.615   3.497   3.371
 6955SOL     OW21763   6.697   5.537   1.784
 6955SOL    HW121764   6.780   5.582   1.751
 6955SOL    HW221765   6.705   5.438   1.770
 6956SOL     OW21766   4.092   5.030   1.222
 6956SOL    HW121767   4.126   5.085   1.298
 6956SOL    HW221768   4.170   4.996   1.168
 6957SOL     OW21769   0.060   4.961   1.658
 6957SOL    HW121770   0.025   4.869   1.675
 6957SOL    HW221771   0.149   4.972   1.702
 6958SOL     OW21772   3.049   2.731   6.013
 6958SOL    HW121773   3.099   2.790   5.949
 6958SOL    HW221774   3.079   2.636   6.001
 6959SOL     OW21775   3.335   1.814   4.503
 6959SOL    HW121776   3.255   1.789   4.557
 6959SOL    HW221777   3.395   1.873   4.557
 6960SOL     OW21778   0.945   4.822   6.367
 6960SOL    HW121779   0.935   4.735   6.320
 6960SOL    HW221780   0.860   4.843   6.416
 6961SOL     OW21781   0.972   0.928   3.479
 6961SOL    HW121782   0.925   0.980   3.408
 6961SOL    HW221783   0.918   0.927   3.562
 6962SOL     OW21784   4.870   4.587   1.421
 6962SOL    HW121785   4.949   4.526   1.431
 6962SOL    HW221786   4.787   4.538   1.448
 6963SOL     OW21787   6.653   4.823   1.766
 6963SOL    HW121788   6.713   4.903   1.756
 6963SOL    HW221789   6.707   4.744   1.795
 6964SOL     OW21790   4.285   5.552   4.847
 6964SOL    HW121791   4.253   5.459   4.866
 6964SOL    HW221792   4.384   5.556   4.859
 6965SOL     OW21793   6.827   2.953   6.004
 6965SOL    HW121794   6.868   3.042   5.984
 6965SOL    HW221795   6.742   2.944   5.953
 6966SOL     OW21796   4.693   2.243   3.019
 6966SOL    HW121797   4.667   2.165   3.077
 6966SOL    HW221798   4.639   2.240   2.935
 6967SOL     OW21799   1.188   1.349   5.919
 6967SOL    HW121800   1.126   1.306   5.984
 6967SOL    HW221801   1.279   1.309   5.927
 6968SOL     OW21802   5.164   5.868   1.936
 6968SOL    HW121803   5.264   5.865   1.938
 6968SOL    HW221804   5.133   5.959   1.961
 6969SOL     OW21805   3.558   1.942   0.386
 6969SOL    HW121806   3.582   2.020   0.327
 6969SOL    HW221807   3.475   1.964   0.438
 6970SOL     OW21808   5.099   4.018   0.319
 6970SOL    HW121809   5.072   3.953   0.390
 6970SOL    HW221810   5.190   3.994   0.284
 6971SOL     OW21811   5.241   1.397   1.212
 6971SOL    HW121812   5.270   1.316   1.263
 6971SOL    HW221813   5.318   1.460   1.202
 6972SOL     OW21814   5.099   5.116   3.695
 6972SOL    HW121815   5.047   5.060   3.630
 6972SOL    HW221816   5.190   5.076   3.707
 6973SOL     OW21817   2.040   4.304   3.719
 6973SOL    HW121818   2.067   4.320   3.624
 6973SOL    HW221819   2.034   4.392   3.767
 6974SOL     OW21820   3.331   3.650   4.349
 6974SOL    HW121821   3.411   3.682   4.299
 6974SOL    HW221822   3.334   3.686   4.443
 6975SOL     OW21823   4.139   0.652   5.712
 6975SOL    HW121824   4.041   0.666   5.725
 6975SOL    HW221825   4.155   0.605   5.625
 6976SOL     OW21826   2.077   4.853   6.884
 6976SOL    HW121827   2.003   4.786   6.883
 6976SOL    HW221828   2.067   4.913   6.963
 6977SOL     OW21829   3.409   1.822   2.863
 6977SOL    HW121830   3.396   1.836   2.962
 6977SOL    HW221831   3.437   1.728   2.846
 6978SOL     OW21832   0.354   0.572   1.989
 6978SOL    HW121833   0.374   0.588   1.892
 6978SOL    HW221834   0.435   0.593   2.043
 6979SOL     OW21835   0.550   4.899   2.961
 6979SOL    HW121836   0.540   4.998   2.969
 6979SOL    HW221837   0.642   4.877   2.930
 6980SOL     OW21838   2.232   1.136   4.450
 6980SOL    HW121839   2.150   1.079   4.458
 6980SOL    HW221840   2.244   1.163   4.354
 6981SOL     OW21841   1.892   5.633   0.353
 6981SOL    HW121842   1.961   5.657   0.421
 6981SOL    HW221843   1.825   5.706   0.346
 6982SOL     OW21844   0.422   0.156   4.689
 6982SOL    HW121845   0.472   0.239   4.664
 6982SOL    HW221846   0.486   0.080   4.695
 6983SOL     OW21847   6.715   0.120   4.095
 6983SOL    HW121848   6.703   0.181   4.017
 6983SOL    HW221849   6.636   0.059   4.102
 6984SOL     OW21850   2.076   1.584   6.293
 6984SOL    HW121851   2.139   1.587   6.216
 6984SOL    HW221852   1.998   1.527   6.270
 6985SOL     OW21853   4.904   5.809   2.517
 6985SOL    HW121854   4.951   5.747   2.455
 6985SOL    HW221855   4.968   5.840   2.587
 6986SOL     OW21856   2.099   6.521   6.411
 6986SOL    HW121857   2.013   6.470   6.409
 6986SOL    HW221858   2.084   6.610   6.455
 6987SOL     OW21859   0.402   3.405   6.517
 6987SOL    HW121860   0.449   3.492   6.536
 6987SOL    HW221861   0.470   3.337   6.491
 6988SOL     OW21862   5.421   1.424   3.631
 6988SOL    HW121863   5.388   1.381   3.547
 6988SOL    HW221864   5.403   1.522   3.627
 6989SOL     OW21865   1.351   1.801   3.230
 6989SOL    HW121866   1.430   1.744   3.208
 6989SOL    HW221867   1.305   1.764   3.311
 6990SOL     OW21868   3.517   2.865   0.337
 6990SOL    HW121869   3.525   2.793   0.406
 6990SOL    HW221870   3.561   2.949   0.371
 6991SOL     OW21871   3.100   4.813   6.012
 6991SOL    HW121872   3.058   4.885   5.957
 6991SOL    HW221873   3.059   4.813   6.103
 6992SOL     OW21874   5.386   6.684   4.078
 6992SOL    HW121875   5.379   6.587   4.098
 6992SOL    HW221876   5.476   6.703   4.038
 6993SOL     OW21877   0.278   6.997   3.141
 6993SOL    HW121878   0.329   6.959   3.064
 6993SOL    HW221879   0.263   0.075   3.126
 6994SOL     OW21880   1.886   3.095   6.292
 6994SOL    HW121881   1.900   3.105   6.194
 6994SOL    HW221882   1.958   3.144   6.341
 6995SOL     OW21883   5.478   5.454   3.254
 6995SOL    HW121884   5.481   5.551   3.279
 6995SOL    HW221885   5.570   5.414   3.262
 6996SOL     OW21886   2.564   0.523   5.720
 6996SOL    HW121887   2.617   0.464   5.781
 6996SOL    HW221888   2.526   0.468   5.646
 6997SOL     OW21889   4.663   6.725   4.676
 6997SOL    HW121890   4.672   6.625   4.679
 6997SOL    HW221891   4.571   6.749   4.645
 6998SOL     OW21892   1.345   3.262   2.726
 6998SOL    HW121893   1.251   3.286   2.701
 6998SOL    HW221894   1.369   3.307   2.812
 6999SOL     OW21895   3.105   1.489   5.645
 6999SOL    HW121896   3.197   1.490   5.682
 6999SOL    HW221897   3.038   1.496   5.719
 7000SOL     OW21898   0.944   6.386   2.171
 7000SOL    HW121899   1.036   6.374   2.135
 7000SOL    HW221900   0.894   6.453   2.115
 7001SOL     OW21901   2.628   3.014   5.817
 7001SOL    HW121902   2.717   3.058   5.828
 7001SOL    HW221903   2.596   3.025   5.723
 7002SOL     OW21904   0.837   5.202   3.170
 7002SOL    HW121905   0.911   5.245   3.118
 7002SOL    HW221906   0.872   5.122   3.218
 7003SOL     OW21907   3.030   6.243   0.690
 7003SOL    HW121908   3.061   6.218   0.599
 7003SOL    HW221909   2.945   6.295   0.684
 7004SOL     OW21910   1.338   3.846   1.161
 7004SOL    HW121911   1.332   3.804   1.070
 7004SOL    HW221912   1.434   3.865   1.182
 7005SOL     OW21913   5.425   5.925   6.670
 7005SOL    HW121914   5.413   6.024   6.669
 7005SOL    HW221915   5.415   5.889   6.577
 7006SOL     OW21916   4.548   4.489   4.758
 7006SOL    HW121917   4.564   4.580   4.719
 7006SOL    HW221918   4.464   4.490   4.812
 7007SOL     OW21919   4.317   6.256   3.316
 7007SOL    HW121920   4.358   6.315   3.385
 7007SOL    HW221921   4.227   6.227   3.347
 7008SOL     OW21922   1.605   5.099   4.040
 7008SOL    HW121923   1.531   5.054   3.990
 7008SOL    HW221924   1.572   5.126   4.131
 7009SOL     OW21925   0.141   4.869   2.414
 7009SOL    HW121926   0.192   4.786   2.436
 7009SOL    HW221927   0.128   4.923   2.497
 7010SOL     OW21928   3.778   5.169   6.529
 7010SOL    HW121929   3.842   5.231   6.484
 7010SOL    HW221930   3.828   5.098   6.578
 7011SOL     OW21931   2.960   0.194   5.929
 7011SOL    HW121932   2.889   0.222   5.993
 7011SOL    HW221933   2.986   0.271   5.871
 7012SOL     OW21934   1.765   0.467   1.870
 7012SOL    HW121935   1.799   0.459   1.776
 7012SOL    HW221936   1.842   0.487   1.931
 7013SOL     OW21937   1.172   0.605   1.698
 7013SOL    HW121938   1.091   0.546   1.702
 7013SOL    HW221939   1.253   0.550   1.679
 7014SOL     OW21940   2.910   4.211   1.026
 7014SOL    HW121941   2.816   4.222   1.061
 7014SOL    HW221942   2.957   4.141   1.079
 7015SOL     OW21943   5.276   2.562   2.305
 7015SOL    HW121944   5.357   2.545   2.249
 7015SOL    HW221945   5.296   2.540   2.400
 7016SOL     OW21946   4.313   4.737   1.321
 7016SOL    HW121947   4.352   4.806   1.260
 7016SOL    HW221948   4.260   4.782   1.393
 7017SOL     OW21949   2.886   1.855   3.590
 7017SOL    HW121950   2.942   1.858   3.673
 7017SOL    HW221951   2.809   1.918   3.600
 7018SOL     OW21952   0.577   4.398   4.817
 7018SOL    HW121953   0.579   4.433   4.911
 7018SOL    HW221954   0.626   4.461   4.757
 7019SOL     OW21955   2.628   5.542   6.903
 7019SOL    HW121956   2.683   5.460   6.885
 7019SOL    HW221957   2.637   5.567   7.000
 7020SOL     OW21958   6.401   6.920   6.471
 7020SOL    HW121959   6.407   6.849   6.541
 7020SOL    HW221960   6.324   6.901   6.411
 7021SOL     OW21961   2.439   0.836   6.072
 7021SOL    HW121962   2.499   0.913   6.093
 7021SOL    HW221963   2.384   0.814   6.153
 7022SOL     OW21964   5.226   3.727   6.877
 7022SOL    HW121965   5.322   3.733   6.904
 7022SOL    HW221966   5.215   3.763   6.785
 7023SOL     OW21967   6.229   3.156   1.750
 7023SOL    HW121968   6.188   3.139   1.661
 7023SOL    HW221969   6.157   3.171   1.818
 7024SOL     OW21970   1.327   5.834   0.427
 7024SOL    HW121971   1.299   5.898   0.356
 7024SOL    HW221972   1.425   5.816   0.419
 7025SOL     OW21973   3.132   2.377   6.772
 7025SOL    HW121974   3.063   2.427   6.824
 7025SOL    HW221975   3.176   2.438   6.706
 7026SOL     OW21976   3.926   1.752   1.097
 7026SOL    HW121977   4.000   1.819   1.091
 7026SOL    HW221978   3.884   1.756   1.187
 7027SOL     OW21979   3.776   5.941   4.114
 7027SOL    HW121980   3.868   5.923   4.079
 7027SOL    HW221981   3.776   5.933   4.214
 7028SOL     OW21982   4.618   6.348   3.741
 7028SOL    HW121983   4.540   6.286   3.728
 7028SOL    HW221984   4.697   6.312   3.690
 7029SOL     OW21985   3.674   6.729   7.012
 7029SOL    HW121986   3.612   6.696   6.941
 7029SOL    HW221987   3.708   6.652   0.046
 7030SOL     OW21988   0.308   3.560   4.702
 7030SOL    HW121989   0.260   3.619   4.636
 7030SOL    HW221990   0.378   3.613   4.750
 7031SOL     OW21991   1.711   5.735   4.318
 7031SOL    HW121992   1.720   5.766   4.223
 7031SOL    HW221993   1.745   5.642   4.326
 7032SOL     OW21994   6.207   0.842   2.584
 7032SOL    HW121995   6.288   0.792   2.553
 7032SOL    HW221996   6.173   0.800   2.669
 7033SOL     OW21997   6.944   1.297   3.451
 7033SOL    HW121998   6.936   1.227   3.521
 7033SOL    HW221999   0.013   1.288   3.404
 7034SOL     OW22000   6.719   0.507   2.778
 7034SOL    HW122001   6.711   0.493   2.680
 7034SOL    HW222002   6.736   0.419   2.823
 7035SOL     OW22003   6.679   5.689   2.424
 7035SOL    HW122004   6.611   5.630   2.466
 7035SOL    HW222005   6.642   5.729   2.341
 7036SOL     OW22006   6.880   5.140   2.241
 7036SOL    HW122007   6.887   5.137   2.341
 7036SOL    HW222008   6.804   5.199   2.215
 7037SOL     OW22009   1.462   6.313   6.137
 7037SOL    HW122010   1.387   6.352   6.083
 7037SOL    HW222011   1.430   6.293   6.230
 7038SOL     OW22012   0.687   4.812   3.978
 7038SOL    HW122013   0.682   4.890   3.915
 7038SOL    HW222014   0.700   4.845   4.072
 7039SOL     OW22015   3.722   1.116   5.958
 7039SOL    HW122016   3.813   1.156   5.954
 7039SOL    HW222017   3.710   1.053   5.881
 7040SOL     OW22018   5.163   2.278   6.573
 7040SOL    HW122019   5.074   2.270   6.530
 7040SOL    HW222020   5.174   2.204   6.640
 7041SOL     OW22021   1.678   1.882   2.995
 7041SOL    HW122022   1.657   1.823   3.072
 7041SOL    HW222023   1.757   1.939   3.017
 7042SOL     OW22024   3.718   5.956   6.334
 7042SOL    HW122025   3.736   5.859   6.315
 7042SOL    HW222026   3.620   5.969   6.348
 7043SOL     OW22027   2.292   2.112   3.197
 7043SOL    HW122028   2.253   2.123   3.106
 7043SOL    HW222029   2.377   2.060   3.191
 7044SOL     OW22030   4.642   4.872   2.756
 7044SOL    HW122031   4.644   4.799   2.824
 7044SOL    HW222032   4.731   4.877   2.710
 7045SOL     OW22033   5.692   5.897   0.989
 7045SOL    HW122034   5.666   5.992   0.974
 7045SOL    HW222035   5.781   5.879   0.947
 7046SOL     OW22036   4.339   0.534   4.461
 7046SOL    HW122037   4.312   0.629   4.450
 7046SOL    HW222038   4.294   0.478   4.392
 7047SOL     OW22039   0.825   1.011   4.471
 7047SOL    HW122040   0.911   0.961   4.465
 7047SOL    HW222041   0.780   1.012   4.381
 7048SOL     OW22042   6.532   5.962   0.448
 7048SOL    HW122043   6.599   5.892   0.422
 7048SOL    HW222044   6.503   6.012   0.366
 7049SOL     OW22045   2.605   1.082   0.421
 7049SOL    HW122046   2.583   1.178   0.403
 7049SOL    HW222047   2.691   1.077   0.471
 7050SOL     OW22048   3.033   3.864   4.761
 7050SOL    HW122049   3.032   3.928   4.838
 7050SOL    HW222050   2.984   3.781   4.786
 7051SOL     OW22051   0.190   0.262   1.682
 7051SOL    HW122052   0.146   0.174   1.699
 7051SOL    HW222053   0.269   0.272   1.743
 7052SOL     OW22054   0.150   2.106   4.114
 7052SOL    HW122055   0.165   2.188   4.059
 7052SOL    HW222056   0.091   2.128   4.192
 7053SOL     OW22057   0.727   3.980   6.847
 7053SOL    HW122058   0.724   4.016   6.940
 7053SOL    HW222059   0.732   3.880   6.850
 7054SOL     OW22060   6.267   6.671   1.828
 7054SOL    HW122061   6.311   6.592   1.872
 7054SOL    HW222062   6.293   6.675   1.732
 7055SOL     OW22063   4.563   0.682   4.394
 7055SOL    HW122064   4.567   0.775   4.431
 7055SOL    HW222065   4.495   0.629   4.444
 7056SOL     OW22066   5.416   5.051   3.379
 7056SOL    HW122067   5.508   5.089   3.384
 7056SOL    HW222068   5.349   5.122   3.404
 7057SOL     OW22069   6.947   5.324   3.493
 7057SOL    HW122070   6.960   5.300   3.589
 7057SOL    HW222071   6.864   5.379   3.483
 7058SOL     OW22072   0.747   5.090   5.833
 7058SOL    HW122073   0.794   5.139   5.905
 7058SOL    HW222074   0.770   4.993   5.837
 7059SOL     OW22075   1.215   0.325   2.586
 7059SOL    HW122076   1.131   0.332   2.639
 7059SOL    HW222077   1.228   0.230   2.556
 7060SOL     OW22078   3.454   6.433   1.611
 7060SOL    HW122079   3.457   6.503   1.539
 7060SOL    HW222080   3.396   6.357   1.581
 7061SOL     OW22081   0.610   0.946   3.155
 7061SOL    HW122082   0.659   0.971   3.071
 7061SOL    HW222083   0.530   1.006   3.165
 7062SOL     OW22084   5.638   1.976   5.055
 7062SOL    HW122085   5.559   2.026   5.021
 7062SOL    HW222086   5.618   1.940   5.146
 7063SOL     OW22087   2.194   6.701   1.261
 7063SOL    HW122088   2.246   6.640   1.321
 7063SOL    HW222089   2.109   6.727   1.306
 7064SOL     OW22090   3.962   2.313   1.610
 7064SOL    HW122091   3.954   2.409   1.584
 7064SOL    HW222092   3.872   2.278   1.636
 7065SOL     OW22093   4.294   3.969   1.505
 7065SOL    HW122094   4.313   3.928   1.416
 7065SOL    HW222095   4.347   4.053   1.515
 7066SOL     OW22096   4.229   6.739   0.144
 7066SOL    HW122097   4.298   6.668   0.160
 7066SOL    HW222098   4.271   6.817   0.097
 7067SOL     OW22099   0.662   3.761   5.807
 7067SOL    HW122100   0.647   3.745   5.709
 7067SOL    HW222101   0.756   3.791   5.822
 7068SOL     OW22102   1.370   1.422   3.184
 7068SOL    HW122103   1.284   1.371   3.183
 7068SOL    HW222104   1.404   1.432   3.091
 7069SOL     OW22105   0.624   4.527   5.832
 7069SOL    HW122106   0.601   4.624   5.821
 7069SOL    HW222107   0.562   4.485   5.898
 7070SOL     OW22108   6.607   4.645   4.961
 7070SOL    HW122109   6.642   4.552   4.974
 7070SOL    HW222110   6.509   4.648   4.981
 7071SOL     OW22111   1.577   5.926   5.380
 7071SOL    HW122112   1.641   5.861   5.338
 7071SOL    HW222113   1.493   5.878   5.405
 7072SOL     OW22114   0.042   6.523   6.537
 7072SOL    HW122115   0.067   6.548   6.444
 7072SOL    HW222116   6.963   6.510   6.543
 7073SOL     OW22117   0.507   0.955   5.350
 7073SOL    HW122118   0.479   0.867   5.309
 7073SOL    HW222119   0.478   0.957   5.446
 7074SOL     OW22120   3.363   1.779   1.894
 7074SOL    HW122121   3.310   1.777   1.978
 7074SOL    HW222122   3.459   1.758   1.914
 7075SOL     OW22123   1.733   5.944   4.502
 7075SOL    HW122124   1.681   5.890   4.568
 7075SOL    HW222125   1.754   5.888   4.422
 7076SOL     OW22126   3.904   1.719   6.301
 7076SOL    HW122127   3.858   1.789   6.357
 7076SOL    HW222128   3.835   1.656   6.264
 7077SOL     OW22129   2.258   5.556   5.547
 7077SOL    HW122130   2.328   5.522   5.483
 7077SOL    HW222131   2.228   5.482   5.606
 7078SOL     OW22132   6.035   6.983   3.474
 7078SOL    HW122133   6.096   6.978   3.553
 7078SOL    HW222134   6.009   0.058   3.457
 7079SOL     OW22135   6.360   6.487   6.357
 7079SOL    HW122136   6.277   6.512   6.407
 7079SOL    HW222137   6.396   6.568   6.310
 7080SOL     OW22138   4.041   2.216   3.840
 7080SOL    HW122139   4.067   2.219   3.744
 7080SOL    HW222140   4.122   2.233   3.897
 7081SOL     OW22141   2.963   1.078   5.749
 7081SOL    HW122142   3.035   1.112   5.810
 7081SOL    HW222143   2.943   1.147   5.679
 7082SOL     OW22144   5.712   1.581   6.728
 7082SOL    HW122145   5.613   1.592   6.721
 7082SOL    HW222146   5.737   1.554   6.821
 7083SOL     OW22147   3.689   0.342   5.526
 7083SOL    HW122148   3.682   0.439   5.506
 7083SOL    HW222149   3.601   0.298   5.509
 7084SOL     OW22150   6.718   6.317   5.655
 7084SOL    HW122151   6.759   6.317   5.746
 7084SOL    HW222152   6.763   6.247   5.599
 7085SOL     OW22153   2.008   2.442   2.866
 7085SOL    HW122154   2.080   2.432   2.797
 7085SOL    HW222155   1.923   2.471   2.821
 7086SOL     OW22156   5.278   0.937   6.608
 7086SOL    HW122157   5.313   0.883   6.685
 7086SOL    HW222158   5.286   1.035   6.630
 7087SOL     OW22159   0.609   3.915   4.306
 7087SOL    HW122160   0.665   3.834   4.322
 7087SOL    HW222161   0.541   3.896   4.235
 7088SOL     OW22162   5.225   2.694   4.292
 7088SOL    HW122163   5.135   2.715   4.332
 7088SOL    HW222164   5.222   2.713   4.194
 7089SOL     OW22165   3.519   2.341   5.885
 7089SOL    HW122166   3.512   2.353   5.786
 7089SOL    HW222167   3.520   2.431   5.930
 7090SOL     OW22168   1.776   2.071   5.340
 7090SOL    HW122169   1.742   2.043   5.250
 7090SOL    HW222170   1.804   2.167   5.337
 7091SOL     OW22171   0.148   1.127   0.604
 7091SOL    HW122172   0.058   1.084   0.598
 7091SOL    HW222173   0.189   1.106   0.692
 7092SOL     OW22174   3.670   4.334   0.898
 7092SOL    HW122175   3.753   4.278   0.891
 7092SOL    HW222176   3.602   4.287   0.955
 7093SOL     OW22177   3.568   4.112   4.684
 7093SOL    HW122178   3.486   4.069   4.722
 7093SOL    HW222179   3.645   4.099   4.746
 7094SOL     OW22180   0.937   6.533   5.869
 7094SOL    HW122181   1.014   6.580   5.824
 7094SOL    HW222182   0.854   6.587   5.857
 7095SOL     OW22183   1.188   3.021   6.467
 7095SOL    HW122184   1.231   3.057   6.384
 7095SOL    HW222185   1.175   3.096   6.532
 7096SOL     OW22186   4.255   2.218   4.023
 7096SOL    HW122187   4.305   2.132   4.036
 7096SOL    HW222188   4.320   2.292   4.006
 7097SOL     OW22189   0.646   1.103   1.833
 7097SOL    HW122190   0.648   1.056   1.922
 7097SOL    HW222191   0.569   1.069   1.779
 7098SOL     OW22192   1.686   5.604   6.244
 7098SOL    HW122193   1.770   5.586   6.193
 7098SOL    HW222194   1.691   5.559   6.333
 7099SOL     OW22195   1.074   1.245   5.022
 7099SOL    HW122196   1.052   1.261   5.118
 7099SOL    HW222197   1.036   1.319   4.966
 7100SOL     OW22198   5.009   3.867   1.120
 7100SOL    HW122199   5.102   3.870   1.083
 7100SOL    HW222200   4.987   3.954   1.164
 7101SOL     OW22201   3.120   0.539   4.987
 7101SOL    HW122202   3.111   0.603   5.063
 7101SOL    HW222203   3.093   0.584   4.902
 7102SOL     OW22204   4.127   1.238   0.788
 7102SOL    HW122205   4.218   1.279   0.792
 7102SOL    HW222206   4.103   1.220   0.693
 7103SOL     OW22207   3.315   6.482   0.064
 7103SOL    HW122208   3.330   6.391   0.025
 7103SOL    HW222209   3.395   6.508   0.118
 7104SOL     OW22210   1.599   2.713   3.293
 7104SOL    HW122211   1.546   2.739   3.373
 7104SOL    HW222212   1.697   2.713   3.317
 7105SOL     OW22213   3.259   3.388   4.380
 7105SOL    HW122214   3.287   3.481   4.357
 7105SOL    HW222215   3.159   3.382   4.377
 7106SOL     OW22216   3.419   3.182   4.790
 7106SOL    HW122217   3.515   3.207   4.804
 7106SOL    HW222218   3.413   3.086   4.766
 7107SOL     OW22219   3.135   1.013   0.810
 7107SOL    HW122220   3.047   1.004   0.856
 7107SOL    HW222221   3.206   0.967   0.863
 7108SOL     OW22222   4.816   5.996   1.058
 7108SOL    HW122223   4.862   5.908   1.047
 7108SOL    HW222224   4.730   5.996   1.007
 7109SOL     OW22225   3.403   0.491   6.137
 7109SOL    HW122226   3.321   0.436   6.148
 7109SOL    HW222227   3.484   0.432   6.137
 7110SOL     OW22228   4.615   5.006   4.308
 7110SOL    HW122229   4.699   5.059   4.312
 7110SOL    HW222230   4.626   4.931   4.243
 7111SOL     OW22231   2.168   3.195   4.374
 7111SOL    HW122232   2.178   3.274   4.313
 7111SOL    HW222233   2.216   3.212   4.460
 7112SOL     OW22234   0.413   6.160   4.081
 7112SOL    HW122235   0.513   6.154   4.087
 7112SOL    HW222236   0.378   6.083   4.030
 7113SOL     OW22237   3.893   4.047   4.542
 7113SOL    HW122238   3.973   4.016   4.491
 7113SOL    HW222239   3.868   4.139   4.514
 7114SOL     OW22240   4.415   1.165   2.050
 7114SOL    HW122241   4.440   1.161   2.147
 7114SOL    HW222242   4.324   1.206   2.040
 7115SOL     OW22243   4.433   1.823   1.408
 7115SOL    HW122244   4.495   1.866   1.343
 7115SOL    HW222245   4.451   1.724   1.411
 7116SOL     OW22246   5.579   3.701   3.248
 7116SOL    HW122247   5.542   3.769   3.311
 7116SOL    HW222248   5.508   3.669   3.186
 7117SOL     OW22249   6.208   5.881   2.352
 7117SOL    HW122250   6.181   5.818   2.425
 7117SOL    HW222251   6.301   5.914   2.368
 7118SOL     OW22252   5.379   3.876   0.797
 7118SOL    HW122253   5.448   3.944   0.820
 7118SOL    HW222254   5.339   3.839   0.881
 7119SOL     OW22255   6.147   1.376   2.529
 7119SOL    HW122256   6.103   1.301   2.578
 7119SOL    HW222257   6.245   1.358   2.520
 7120SOL     OW22258   5.044   1.555   3.753
 7120SOL    HW122259   5.102   1.482   3.789
 7120SOL    HW222260   4.951   1.520   3.740
 7121SOL     OW22261   2.096   0.113   3.759
 7121SOL    HW122262   2.138   0.049   3.824
 7121SOL    HW222263   2.007   0.140   3.794
 7122SOL     OW22264   6.655   0.904   6.921
 7122SOL    HW122265   6.582   0.950   6.972
 7122SOL    HW222266   6.744   0.931   6.958
 7123SOL     OW22267   2.926   5.702   1.221
 7123SOL    HW122268   2.895   5.606   1.224
 7123SOL    HW222269   3.019   5.705   1.185
 7124SOL     OW22270   0.115   5.196   6.760
 7124SOL    HW122271   0.035   5.251   6.780
 7124SOL    HW222272   0.164   5.175   6.845
 7125SOL     OW22273   6.523   6.653   2.440
 7125SOL    HW122274   6.470   6.733   2.410
 7125SOL    HW222275   6.536   6.592   2.363
 7126SOL     OW22276   2.016   4.005   0.437
 7126SOL    HW122277   2.094   4.003   0.499
 7126SOL    HW222278   1.935   3.968   0.483
 7127SOL     OW22279   2.970   5.910   4.217
 7127SOL    HW122280   2.931   5.923   4.126
 7127SOL    HW222281   3.068   5.894   4.209
 7128SOL     OW22282   3.431   4.387   0.608
 7128SOL    HW122283   3.526   4.376   0.638
 7128SOL    HW222284   3.425   4.376   0.509
 7129SOL     OW22285   3.312   0.671   1.045
 7129SOL    HW122286   3.278   0.624   1.126
 7129SOL    HW222287   3.306   0.610   0.966
 7130SOL     OW22288   2.865   4.962   3.872
 7130SOL    HW122289   2.872   4.878   3.818
 7130SOL    HW222290   2.900   4.946   3.964
 7131SOL     OW22291   3.054   1.390   2.194
 7131SOL    HW122292   3.058   1.482   2.154
 7131SOL    HW222293   2.994   1.392   2.274
 7132SOL     OW22294   3.976   3.834   2.796
 7132SOL    HW122295   3.955   3.791   2.884
 7132SOL    HW222296   4.075   3.830   2.780
 7133SOL     OW22297   4.448   5.521   3.218
 7133SOL    HW122298   4.423   5.614   3.243
 7133SOL    HW222299   4.510   5.483   3.287
 7134SOL     OW22300   5.886   5.875   3.664
 7134SOL    HW122301   5.812   5.898   3.601
 7134SOL    HW222302   5.974   5.897   3.622
 7135SOL     OW22303   1.517   1.092   4.445
 7135SOL    HW122304   1.501   1.132   4.535
 7135SOL    HW222305   1.526   0.993   4.454
 7136SOL     OW22306   1.705   0.967   0.731
 7136SOL    HW122307   1.709   1.035   0.805
 7136SOL    HW222308   1.675   1.013   0.647
 7137SOL     OW22309   4.572   0.925   4.497
 7137SOL    HW122310   4.519   1.009   4.512
 7137SOL    HW222311   4.649   0.923   4.561
 7138SOL     OW22312   2.832   3.593   1.375
 7138SOL    HW122313   2.770   3.560   1.304
 7138SOL    HW222314   2.880   3.515   1.416
 7139SOL     OW22315   4.529   3.190   1.611
 7139SOL    HW122316   4.475   3.123   1.561
 7139SOL    HW222317   4.561   3.150   1.697
 7140SOL     OW22318   6.301   4.747   4.945
 7140SOL    HW122319   6.292   4.682   5.021
 7140SOL    HW222320   6.309   4.840   4.983
 7141SOL     OW22321   2.886   0.158   1.037
 7141SOL    HW122322   2.811   0.156   1.103
 7141SOL    HW222323   2.961   0.102   1.070
 7142SOL     OW22324   4.052   5.928   4.056
 7142SOL    HW122325   4.079   6.023   4.071
 7142SOL    HW222326   4.094   5.870   4.125
 7143SOL     OW22327   1.751   3.899   6.093
 7143SOL    HW122328   1.761   3.998   6.081
 7143SOL    HW222329   1.775   3.874   6.187
 7144SOL     OW22330   0.915   2.011   2.866
 7144SOL    HW122331   0.833   1.965   2.902
 7144SOL    HW222332   0.974   2.037   2.942
 7145SOL     OW22333   4.718   6.886   6.639
 7145SOL    HW122334   4.783   6.822   6.597
 7145SOL    HW222335   4.625   6.861   6.611
 7146SOL     OW22336   2.901   6.758   0.619
 7146SOL    HW122337   2.954   6.721   0.543
 7146SOL    HW222338   2.915   6.701   0.700
 7147SOL     OW22339   6.825   0.838   3.104
 7147SOL    HW122340   6.801   0.924   3.057
 7147SOL    HW222341   6.896   0.856   3.171
 7148SOL     OW22342   1.507   6.334   1.646
 7148SOL    HW122343   1.518   6.433   1.650
 7148SOL    HW222344   1.512   6.303   1.551
 7149SOL     OW22345   6.600   1.148   3.063
 7149SOL    HW122346   6.536   1.224   3.056
 7149SOL    HW222347   6.559   1.074   3.117
 7150SOL     OW22348   5.458   2.957   0.117
 7150SOL    HW122349   5.486   2.900   0.194
 7150SOL    HW222350   5.409   3.037   0.151
 7151SOL     OW22351   1.860   5.793   1.503
 7151SOL    HW122352   1.764   5.807   1.526
 7151SOL    HW222353   1.894   5.871   1.449
 7152SOL     OW22354   0.760   3.247   4.878
 7152SOL    HW122355   0.694   3.204   4.817
 7152SOL    HW222356   0.722   3.251   4.971
 7153SOL     OW22357   4.533   0.608   5.093
 7153SOL    HW122358   4.562   0.694   5.134
 7153SOL    HW222359   4.435   0.596   5.108
 7154SOL     OW22360   3.806   5.837   4.377
 7154SOL    HW122361   3.839   5.775   4.306
 7154SOL    HW222362   3.723   5.799   4.419
 7155SOL     OW22363   0.971   6.840   2.157
 7155SOL    HW122364   0.975   6.921   2.216
 7155SOL    HW222365   1.022   6.765   2.198
 7156SOL     OW22366   6.633   5.363   5.203
 7156SOL    HW122367   6.598   5.270   5.189
 7156SOL    HW222368   6.722   5.372   5.159
 7157SOL     OW22369   5.829   5.512   0.304
 7157SOL    HW122370   5.767   5.576   0.259
 7157SOL    HW222371   5.810   5.419   0.271
 7158SOL     OW22372   0.138   6.734   3.449
 7158SOL    HW122373   0.178   6.691   3.369
 7158SOL    HW222374   0.098   6.822   3.424
 7159SOL     OW22375   0.453   5.217   0.478
 7159SOL    HW122376   0.361   5.235   0.512
 7159SOL    HW222377   0.507   5.171   0.549
 7160SOL     OW22378   6.189   0.279   2.156
 7160SOL    HW122379   6.194   0.206   2.087
 7160SOL    HW222380   6.279   0.320   2.168
 7161SOL     OW22381   3.543   2.981   4.198
 7161SOL    HW122382   3.580   3.015   4.112
 7161SOL    HW222383   3.461   2.926   4.180
 7162SOL     OW22384   3.745   4.972   3.984
 7162SOL    HW122385   3.785   4.920   4.059
 7162SOL    HW222386   3.806   5.046   3.957
 7163SOL     OW22387   3.359   0.127   3.746
 7163SOL    HW122388   3.262   0.117   3.725
 7163SOL    HW222389   3.413   0.081   3.675
 7164SOL     OW22390   2.104   1.424   3.760
 7164SOL    HW122391   2.192   1.407   3.804
 7164SOL    HW222392   2.113   1.408   3.661
 7165SOL     OW22393   5.496   1.366   0.987
 7165SOL    HW122394   5.564   1.426   0.945
 7165SOL    HW222395   5.451   1.312   0.915
 7166SOL     OW22396   4.789   4.832   0.534
 7166SOL    HW122397   4.848   4.751   0.539
 7166SOL    HW222398   4.835   4.908   0.580
 7167SOL     OW22399   4.722   3.716   5.413
 7167SOL    HW122400   4.709   3.648   5.341
 7167SOL    HW222401   4.636   3.765   5.429
 7168SOL     OW22402   1.252   0.910   4.295
 7168SOL    HW122403   1.329   0.970   4.316
 7168SOL    HW222404   1.237   0.908   4.196
 7169SOL     OW22405   1.514   3.248   6.411
 7169SOL    HW122406   1.510   3.302   6.494
 7169SOL    HW222407   1.422   3.243   6.370
 7170SOL     OW22408   5.242   4.629   3.551
 7170SOL    HW122409   5.165   4.628   3.615
 7170SOL    HW222410   5.301   4.707   3.571
 7171SOL     OW22411   4.124   2.952   5.400
 7171SOL    HW122412   4.164   2.868   5.362
 7171SOL    HW222413   4.157   2.965   5.493
 7172SOL     OW22414   1.827   6.724   0.548
 7172SOL    HW122415   1.797   6.631   0.571
 7172SOL    HW222416   1.762   6.790   0.587
 7173SOL     OW22417   0.097   5.947   4.426
 7173SOL    HW122418   0.056   6.035   4.450
 7173SOL    HW222419   0.155   5.915   4.501
 7174SOL     OW22420   1.876   5.373   0.246
 7174SOL    HW122421   1.854   5.454   0.301
 7174SOL    HW222422   1.957   5.328   0.284
 7175SOL     OW22423   5.366   3.978   0.195
 7175SOL    HW122424   5.457   4.014   0.214
 7175SOL    HW222425   5.375   3.892   0.144
 7176SOL     OW22426   6.540   4.361   1.852
 7176SOL    HW122427   6.460   4.393   1.802
 7176SOL    HW222428   6.511   4.318   1.938
 7177SOL     OW22429   0.788   5.986   3.621
 7177SOL    HW122430   0.853   5.974   3.697
 7177SOL    HW222431   0.696   5.996   3.658
 7178SOL     OW22432   1.138   2.819   4.849
 7178SOL    HW122433   1.191   2.795   4.931
 7178SOL    HW222434   1.048   2.853   4.877
 7179SOL     OW22435   2.914   3.762   5.426
 7179SOL    HW122436   2.837   3.758   5.362
 7179SOL    HW222437   2.989   3.706   5.391
 7180SOL     OW22438   0.596   6.129   1.157
 7180SOL    HW122439   0.685   6.172   1.143
 7180SOL    HW222440   0.524   6.197   1.146
 7181SOL     OW22441   4.305   0.961   1.455
 7181SOL    HW122442   4.317   0.878   1.400
 7181SOL    HW222443   4.224   0.952   1.512
 7182SOL     OW22444   2.690   4.730   5.756
 7182SOL    HW122445   2.721   4.635   5.761
 7182SOL    HW222446   2.677   4.756   5.660
 7183SOL     OW22447   1.957   5.000   3.037
 7183SOL    HW122448   2.039   5.033   3.084
 7183SOL    HW222449   1.983   4.949   2.955
 7184SOL     OW22450   1.464   6.677   4.154
 7184SOL    HW122451   1.523   6.757   4.145
 7184SOL    HW222452   1.420   6.678   4.244
 7185SOL     OW22453   4.644   2.923   6.967
 7185SOL    HW122454   4.580   2.905   6.892
 7185SOL    HW222455   4.691   2.838   6.992
 7186SOL     OW22456   6.544   6.062   5.389
 7186SOL    HW122457   6.605   6.140   5.376
 7186SOL    HW222458   6.548   6.032   5.485
 7187SOL     OW22459   1.610   3.792   1.698
 7187SOL    HW122460   1.579   3.745   1.781
 7187SOL    HW222461   1.554   3.873   1.683
 7188SOL     OW22462   4.787   0.332   2.013
 7188SOL    HW122463   4.861   0.362   2.073
 7188SOL    HW222464   4.754   0.409   1.959
 7189SOL     OW22465   6.947   1.346   5.529
 7189SOL    HW122466   6.929   1.355   5.627
 7189SOL    HW222467   6.939   1.435   5.485
 7190SOL     OW22468   5.722   3.870   3.071
 7190SOL    HW122469   5.667   3.954   3.069
 7190SOL    HW222470   5.696   3.816   3.151
 7191SOL     OW22471   1.302   3.754   2.594
 7191SOL    HW122472   1.352   3.703   2.524
 7191SOL    HW222473   1.365   3.779   2.668
 7192SOL     OW22474   2.281   5.098   6.197
 7192SOL    HW122475   2.344   5.073   6.271
 7192SOL    HW222476   2.237   5.185   6.219
 7193SOL     OW22477   3.790   1.394   4.532
 7193SOL    HW122478   3.765   1.392   4.435
 7193SOL    HW222479   3.734   1.329   4.582
 7194SOL     OW22480   2.251   2.029   1.803
 7194SOL    HW122481   2.240   2.088   1.883
 7194SOL    HW222482   2.227   2.081   1.720
 7195SOL     OW22483   0.221   5.585   0.533
 7195SOL    HW122484   0.177   5.627   0.612
 7195SOL    HW222485   0.151   5.555   0.468
 7196SOL     OW22486   2.888   3.607   2.977
 7196SOL    HW122487   2.921   3.700   2.960
 7196SOL    HW222488   2.858   3.565   2.892
 7197SOL     OW22489   6.797   1.699   4.817
 7197SOL    HW122490   6.762   1.791   4.797
 7197SOL    HW222491   6.724   1.644   4.857
 7198SOL     OW22492   1.467   6.791   6.227
 7198SOL    HW122493   1.436   6.886   6.234
 7198SOL    HW222494   1.564   6.789   6.205
 7199SOL     OW22495   0.131   0.228   2.595
 7199SOL    HW122496   0.089   0.247   2.506
 7199SOL    HW222497   0.212   0.171   2.582
 7200SOL     OW22498   2.436   1.023   1.262
 7200SOL    HW122499   2.346   0.986   1.238
 7200SOL    HW222500   2.451   1.110   1.215
 7201SOL     OW22501   1.432   4.520   3.894
 7201SOL    HW122502   1.396   4.427   3.884
 7201SOL    HW222503   1.523   4.525   3.853
 7202SOL     OW22504   4.136   0.256   6.190
 7202SOL    HW122505   4.054   0.312   6.188
 7202SOL    HW222506   4.210   0.303   6.141
 7203SOL     OW22507   5.635   0.462   0.134
 7203SOL    HW122508   5.687   0.482   0.050
 7203SOL    HW222509   5.625   0.363   0.144
 7204SOL     OW22510   5.999   0.828   3.081
 7204SOL    HW122511   6.059   0.752   3.056
 7204SOL    HW222512   6.044   0.886   3.148
 7205SOL     OW22513   1.841   5.263   3.311
 7205SOL    HW122514   1.783   5.289   3.389
 7205SOL    HW222515   1.935   5.250   3.342
 7206SOL     OW22516   6.517   1.315   0.822
 7206SOL    HW122517   6.594   1.256   0.845
 7206SOL    HW222518   6.444   1.302   0.889
 7207SOL     OW22519   3.320   6.454   1.302
 7207SOL    HW122520   3.288   6.414   1.216
 7207SOL    HW222521   3.251   6.440   1.373
 7208SOL     OW22522   3.446   0.255   5.420
 7208SOL    HW122523   3.352   0.286   5.435
 7208SOL    HW222524   3.453   0.157   5.439
 7209SOL     OW22525   3.881   3.568   3.849
 7209SOL    HW122526   3.935   3.525   3.777
 7209SOL    HW222527   3.784   3.559   3.828
 7210SOL     OW22528   4.286   1.099   4.070
 7210SOL    HW122529   4.209   1.044   4.039
 7210SOL    HW222530   4.263   1.196   4.061
 7211SOL     OW22531   1.129   5.615   4.245
 7211SOL    HW122532   1.214   5.667   4.249
 7211SOL    HW222533   1.061   5.657   4.306
 7212SOL     OW22534   6.326   5.725   4.525
 7212SOL    HW122535   6.252   5.736   4.459
 7212SOL    HW222536   6.369   5.635   4.512
 7213SOL     OW22537   5.831   0.758   5.570
 7213SOL    HW122538   5.757   0.721   5.513
 7213SOL    HW222539   5.803   0.848   5.605
 7214SOL     OW22540   2.181   5.450   4.963
 7214SOL    HW122541   2.221   5.418   5.049
 7214SOL    HW222542   2.104   5.510   4.982
 7215SOL     OW22543   0.566   4.089   4.008
 7215SOL    HW122544   0.481   4.137   3.985
 7215SOL    HW222545   0.547   3.992   4.023
 7216SOL     OW22546   2.440   0.434   0.079
 7216SOL    HW122547   2.521   0.429   0.138
 7216SOL    HW222548   2.468   0.458   7.006
 7217SOL     OW22549   0.975   3.504   2.376
 7217SOL    HW122550   0.988   3.557   2.292
 7217SOL    HW222551   0.986   3.565   2.455
 7218SOL     OW22552   4.647   2.055   5.802
 7218SOL    HW122553   4.665   2.121   5.729
 7218SOL    HW222554   4.619   2.104   5.885
 7219SOL     OW22555   4.467   6.464   3.453
 7219SOL    HW122556   4.434   6.554   3.481
 7219SOL    HW222557   4.548   6.440   3.508
 7220SOL     OW22558   6.774   1.172   2.319
 7220SOL    HW122559   6.741   1.242   2.255
 7220SOL    HW222560   6.854   1.127   2.280
 7221SOL     OW22561   5.356   3.773   5.783
 7221SOL    HW122562   5.367   3.794   5.880
 7221SOL    HW222563   5.345   3.674   5.772
 7222SOL     OW22564   6.756   5.845   1.386
 7222SOL    HW122565   6.708   5.810   1.305
 7222SOL    HW222566   6.779   5.768   1.446
 7223SOL     OW22567   3.382   1.670   6.124
 7223SOL    HW122568   3.374   1.768   6.107
 7223SOL    HW222569   3.438   1.628   6.053
 7224SOL     OW22570   5.383   0.604   4.658
 7224SOL    HW122571   5.456   0.556   4.706
 7224SOL    HW222572   5.366   0.558   4.570
 7225SOL     OW22573   2.014   5.809   0.152
 7225SOL    HW122574   2.069   5.731   0.120
 7225SOL    HW222575   2.051   5.841   0.239
 7226SOL     OW22576   0.298   0.049   0.235
 7226SOL    HW122577   0.294   0.124   0.169
 7226SOL    HW222578   0.253   0.077   0.320
 7227SOL     OW22579   0.736   2.986   6.256
 7227SOL    HW122580   0.705   3.045   6.182
 7227SOL    HW222581   0.677   2.905   6.261
 7228SOL     OW22582   7.003   0.251   2.368
 7228SOL    HW122583   6.908   0.266   2.395
 7228SOL    HW222584   7.017   0.154   2.348
 7229SOL     OW22585   1.463   0.124   4.398
 7229SOL    HW122586   1.441   0.200   4.459
 7229SOL    HW222587   1.387   0.111   4.334
 7230SOL     OW22588   4.526   5.109   3.335
 7230SOL    HW122589   4.485   5.028   3.377
 7230SOL    HW222590   4.625   5.109   3.352
 7231SOL     OW22591   6.039   1.278   5.816
 7231SOL    HW122592   6.044   1.314   5.722
 7231SOL    HW222593   6.062   1.181   5.816
 7232SOL     OW22594   3.845   4.827   2.279
 7232SOL    HW122595   3.927   4.812   2.225
 7232SOL    HW222596   3.795   4.741   2.288
 7233SOL     OW22597   0.408   2.952   5.432
 7233SOL    HW122598   0.348   2.974   5.509
 7233SOL    HW222599   0.442   2.858   5.443
 7234SOL     OW22600   6.350   1.743   1.782
 7234SOL    HW122601   6.307   1.683   1.850
 7234SOL    HW222602   6.408   1.810   1.828
 7235SOL     OW22603   5.522   3.604   5.390
 7235SOL    HW122604   5.529   3.574   5.296
 7235SOL    HW222605   5.496   3.527   5.448
 7236SOL     OW22606   3.693   1.025   3.263
 7236SOL    HW122607   3.766   0.966   3.296
 7236SOL    HW222608   3.607   0.975   3.264
 7237SOL     OW22609   5.738   6.103   5.928
 7237SOL    HW122610   5.808   6.115   5.857
 7237SOL    HW222611   5.782   6.102   6.018
 7238SOL     OW22612   2.718   1.895   2.459
 7238SOL    HW122613   2.751   1.931   2.371
 7238SOL    HW222614   2.656   1.962   2.501
 7239SOL     OW22615   2.682   1.738   2.141
 7239SOL    HW122616   2.588   1.732   2.172
 7239SOL    HW222617   2.723   1.823   2.175
 7240SOL     OW22618   2.808   4.714   0.373
 7240SOL    HW122619   2.775   4.637   0.319
 7240SOL    HW222620   2.818   4.687   0.468
 7241SOL     OW22621   3.283   0.048   5.045
 7241SOL    HW122622   3.307   0.135   5.087
 7241SOL    HW222623   3.199   0.058   4.991
 7242SOL     OW22624   6.321   4.320   6.246
 7242SOL    HW122625   6.250   4.280   6.189
 7242SOL    HW222626   6.301   4.301   6.342
 7243SOL     OW22627   0.599   5.862   0.396
 7243SOL    HW122628   0.629   5.857   0.492
 7243SOL    HW222629   0.675   5.836   0.337
 7244SOL     OW22630   5.623   1.815   1.247
 7244SOL    HW122631   5.705   1.870   1.230
 7244SOL    HW222632   5.584   1.840   1.336
 7245SOL     OW22633   0.002   1.665   4.198
 7245SOL    HW122634   0.084   1.611   4.174
 7245SOL    HW222635   6.946   1.638   4.138
 7246SOL     OW22636   6.748   0.006   5.240
 7246SOL    HW122637   6.724   6.930   5.223
 7246SOL    HW222638   6.719   0.032   5.333
 7247SOL     OW22639   2.605   5.998   2.258
 7247SOL    HW122640   2.520   6.005   2.206
 7247SOL    HW222641   2.584   5.986   2.355
 7248SOL     OW22642   4.005   1.165   4.598
 7248SOL    HW122643   3.953   1.184   4.681
 7248SOL    HW222644   3.953   1.102   4.541
 7249SOL     OW22645   6.156   5.053   6.671
 7249SOL    HW122646   6.066   5.092   6.651
 7249SOL    HW222647   6.169   5.050   6.770
 7250SOL     OW22648   2.831   4.625   6.456
 7250SOL    HW122649   2.788   4.685   6.523
 7250SOL    HW222650   2.762   4.566   6.414
 7251SOL     OW22651   6.438   6.956   5.062
 7251SOL    HW122652   6.520   7.005   5.092
 7251SOL    HW222653   6.452   6.919   4.970
 7252SOL     OW22654   3.445   2.828   4.927
 7252SOL    HW122655   3.455   2.728   4.928
 7252SOL    HW222656   3.365   2.854   4.981
 7253SOL     OW22657   3.909   6.169   1.317
 7253SOL    HW122658   3.992   6.207   1.275
 7253SOL    HW222659   3.889   6.220   1.401
 7254SOL     OW22660   4.205   6.096   4.335
 7254SOL    HW122661   4.198   6.140   4.425
 7254SOL    HW222662   4.224   6.165   4.265
 7255SOL     OW22663   3.083   3.472   2.485
 7255SOL    HW122664   3.126   3.489   2.397
 7255SOL    HW222665   3.014   3.399   2.476
 7256SOL     OW22666   4.195   4.700   3.818
 7256SOL    HW122667   4.108   4.742   3.793
 7256SOL    HW222668   4.199   4.688   3.917
 7257SOL     OW22669   6.276   2.910   3.343
 7257SOL    HW122670   6.287   2.911   3.244
 7257SOL    HW222671   6.319   2.991   3.383
 7258SOL     OW22672   3.377   0.089   4.636
 7258SOL    HW122673   3.290   0.077   4.590
 7258SOL    HW222674   3.435   0.151   4.583
 7259SOL     OW22675   2.196   4.374   6.892
 7259SOL    HW122676   2.217   4.469   6.871
 7259SOL    HW222677   2.106   4.368   6.936
 7260SOL     OW22678   3.430   1.994   3.104
 7260SOL    HW122679   3.441   2.018   3.007
 7260SOL    HW222680   3.381   2.068   3.151
 7261SOL     OW22681   1.960   3.731   1.825
 7261SOL    HW122682   1.900   3.797   1.870
 7261SOL    HW222683   2.000   3.670   1.894
 7262SOL     OW22684   5.741   1.543   4.855
 7262SOL    HW122685   5.699   1.457   4.827
 7262SOL    HW222686   5.801   1.527   4.934
 7263SOL     OW22687   2.081   5.837   1.972
 7263SOL    HW122688   2.108   5.928   1.938
 7263SOL    HW222689   2.045   5.783   1.896
 7264SOL     OW22690   0.532   0.272   5.823
 7264SOL    HW122691   0.437   0.301   5.806
 7264SOL    HW222692   0.593   0.318   5.760
 7265SOL     OW22693   4.384   4.684   5.639
 7265SOL    HW122694   4.352   4.744   5.713
 7265SOL    HW222695   4.406   4.594   5.676
 7266SOL     OW22696   4.828   0.562   1.685
 7266SOL    HW122697   4.779   0.634   1.636
 7266SOL    HW222698   4.847   0.486   1.622
 7267SOL     OW22699   0.174   3.969   3.963
 7267SOL    HW122700   0.174   3.966   3.863
 7267SOL    HW222701   0.080   3.965   3.997
 7268SOL     OW22702   3.618   6.927   1.547
 7268SOL    HW122703   3.598   6.833   1.521
 7268SOL    HW222704   3.602   6.987   1.468
 7269SOL     OW22705   1.498   5.754   2.091
 7269SOL    HW122706   1.545   5.821   2.033
 7269SOL    HW222707   1.421   5.798   2.137
 7270SOL     OW22708   2.872   0.867   2.839
 7270SOL    HW122709   2.960   0.838   2.804
 7270SOL    HW222710   2.868   0.967   2.841
 7271SOL     OW22711   0.287   3.263   3.349
 7271SOL    HW122712   0.263   3.307   3.263
 7271SOL    HW222713   0.203   3.232   3.395
 7272SOL     OW22714   6.144   2.121   2.310
 7272SOL    HW122715   6.095   2.205   2.284
 7272SOL    HW222716   6.145   2.114   2.410
 7273SOL     OW22717   5.429   4.526   6.950
 7273SOL    HW122718   5.385   4.446   6.990
 7273SOL    HW222719   5.439   4.597   0.000
 7274SOL     OW22720   6.372   4.756   5.301
 7274SOL    HW122721   6.471   4.752   5.289
 7274SOL    HW222722   6.329   4.683   5.247
 7275SOL     OW22723   6.781   0.165   0.449
 7275SOL    HW122724   6.746   0.126   0.534
 7275SOL    HW222725   6.875   0.136   0.435
 7276SOL     OW22726   2.284   2.834   3.658
 7276SOL    HW122727   2.190   2.799   3.662
 7276SOL    HW222728   2.297   2.900   3.732
 7277SOL     OW22729   4.806   2.258   4.818
 7277SOL    HW122730   4.890   2.304   4.848
 7277SOL    HW222731   4.798   2.170   4.866
 7278SOL     OW22732   3.088   1.327   2.631
 7278SOL    HW122733   3.164   1.388   2.608
 7278SOL    HW222734   3.118   1.232   2.624
 7279SOL     OW22735   5.738   4.980   1.201
 7279SOL    HW122736   5.833   5.001   1.177
 7279SOL    HW222737   5.714   5.029   1.285
 7280SOL     OW22738   6.207   2.706   5.325
 7280SOL    HW122739   6.203   2.662   5.236
 7280SOL    HW222740   6.147   2.786   5.326
 7281SOL     OW22741   3.899   6.123   2.400
 7281SOL    HW122742   3.973   6.068   2.362
 7281SOL    HW222743   3.832   6.142   2.328
 7282SOL     OW22744   6.901   4.708   2.629
 7282SOL    HW122745   6.978   4.714   2.691
 7282SOL    HW222746   6.890   4.613   2.598
 7283SOL     OW22747   3.994   4.803   3.023
 7283SOL    HW122748   3.927   4.768   2.957
 7283SOL    HW222749   3.967   4.894   3.054
 7284SOL     OW22750   6.568   1.905   3.303
 7284SOL    HW122751   6.508   1.898   3.223
 7284SOL    HW222752   6.628   1.983   3.292
 7285SOL     OW22753   4.964   2.865   1.928
 7285SOL    HW122754   4.883   2.915   1.960
 7285SOL    HW222755   5.032   2.930   1.896
 7286SOL     OW22756   0.591   1.392   1.631
 7286SOL    HW122757   0.530   1.369   1.707
 7286SOL    HW222758   0.647   1.312   1.608
 7287SOL     OW22759   1.439   2.687   3.826
 7287SOL    HW122760   1.502   2.645   3.891
 7287SOL    HW222761   1.376   2.618   3.791
 7288SOL     OW22762   2.645   2.368   3.022
 7288SOL    HW122763   2.566   2.362   3.083
 7288SOL    HW222764   2.727   2.389   3.075
 7289SOL     OW22765   5.706   2.187   0.784
 7289SOL    HW122766   5.735   2.199   0.879
 7289SOL    HW222767   5.787   2.175   0.726
 7290SOL     OW22768   3.375   1.590   5.595
 7290SOL    HW122769   3.356   1.590   5.497
 7290SOL    HW222770   3.440   1.518   5.617
 7291SOL     OW22771   4.382   1.253   0.232
 7291SOL    HW122772   4.342   1.221   0.318
 7291SOL    HW222773   4.412   1.348   0.242
 7292SOL     OW22774   2.676   0.427   2.414
 7292SOL    HW122775   2.678   0.503   2.348
 7292SOL    HW222776   2.728   0.350   2.377
 7293SOL     OW22777   1.175   0.403   5.160
 7293SOL    HW122778   1.082   0.437   5.176
 7293SOL    HW222779   1.187   0.315   5.206
 7294SOL     OW22780   2.370   6.043   2.083
 7294SOL    HW122781   2.313   6.019   2.162
 7294SOL    HW222782   2.312   6.061   2.004
 7295SOL     OW22783   6.031   5.644   2.417
 7295SOL    HW122784   6.088   5.680   2.491
 7295SOL    HW222785   5.953   5.596   2.455
 7296SOL     OW22786   4.977   4.374   2.054
 7296SOL    HW122787   4.907   4.400   2.121
 7296SOL    HW222788   4.967   4.431   1.972
 7297SOL     OW22789   4.201   6.346   1.608
 7297SOL    HW122790   4.213   6.371   1.512
 7297SOL    HW222791   4.103   6.335   1.628
 7298SOL     OW22792   4.519   5.460   0.137
 7298SOL    HW122793   4.488   5.527   0.069
 7298SOL    HW222794   4.494   5.368   0.106
 7299SOL     OW22795   1.786   2.645   6.644
 7299SOL    HW122796   1.696   2.636   6.601
 7299SOL    HW222797   1.811   2.742   6.649
 7300SOL     OW22798   0.450   5.472   2.213
 7300SOL    HW122799   0.493   5.383   2.194
 7300SOL    HW222800   0.514   5.545   2.189
 7301SOL     OW22801   5.181   0.360   5.723
 7301SOL    HW122802   5.094   0.317   5.700
 7301SOL    HW222803   5.202   0.344   5.819
 7302SOL     OW22804   5.069   0.988   5.975
 7302SOL    HW122805   5.058   1.080   5.938
 7302SOL    HW222806   5.130   0.992   6.055
 7303SOL     OW22807   2.287   1.492   1.723
 7303SOL    HW122808   2.243   1.581   1.711
 7303SOL    HW222809   2.263   1.455   1.812
 7304SOL     OW22810   2.463   6.106   1.727
 7304SOL    HW122811   2.397   6.054   1.673
 7304SOL    HW222812   2.525   6.042   1.774
 7305SOL     OW22813   6.547   1.962   0.378
 7305SOL    HW122814   6.514   1.971   0.284
 7305SOL    HW222815   6.473   1.929   0.436
 7306SOL     OW22816   1.968   2.422   1.814
 7306SOL    HW122817   1.942   2.482   1.889
 7306SOL    HW222818   1.944   2.464   1.727
 7307SOL     OW22819   2.152   0.351   1.826
 7307SOL    HW122820   2.250   0.334   1.830
 7307SOL    HW222821   2.135   0.437   1.777
 7308SOL     OW22822   5.171   1.033   3.225
 7308SOL    HW122823   5.244   0.991   3.280
 7308SOL    HW222824   5.120   1.098   3.281
 7309SOL     OW22825   2.076   5.457   2.890
 7309SOL    HW122826   2.043   5.386   2.952
 7309SOL    HW222827   1.999   5.507   2.852
 7310SOL     OW22828   2.497   2.606   6.274
 7310SOL    HW122829   2.478   2.596   6.372
 7310SOL    HW222830   2.433   2.671   6.234
 7311SOL     OW22831   0.188   6.542   6.776
 7311SOL    HW122832   0.245   6.624   6.771
 7311SOL    HW222833   0.148   6.525   6.686
 7312SOL     OW22834   6.763   2.183   4.049
 7312SOL    HW122835   6.675   2.166   4.005
 7312SOL    HW222836   6.827   2.110   4.023
 7313SOL     OW22837   3.074   0.989   1.928
 7313SOL    HW122838   3.148   1.019   1.868
 7313SOL    HW222839   2.999   1.056   1.923
 7314SOL     OW22840   0.715   3.883   6.452
 7314SOL    HW122841   0.761   3.941   6.519
 7314SOL    HW222842   0.624   3.921   6.432
 7315SOL     OW22843   1.483   4.314   2.193
 7315SOL    HW122844   1.483   4.366   2.107
 7315SOL    HW222845   1.558   4.248   2.191
 7316SOL     OW22846   3.396   1.777   1.088
 7316SOL    HW122847   3.450   1.724   1.023
 7316SOL    HW222848   3.300   1.752   1.080
 7317SOL     OW22849   3.886   1.253   1.236
 7317SOL    HW122850   3.933   1.177   1.280
 7317SOL    HW222851   3.952   1.313   1.192
 7318SOL     OW22852   4.363   6.486   0.261
 7318SOL    HW122853   4.428   6.410   0.266
 7318SOL    HW222854   4.334   6.511   0.353
 7319SOL     OW22855   5.903   4.765   6.592
 7319SOL    HW122856   6.001   4.779   6.579
 7319SOL    HW222857   5.857   4.767   6.503
 7320SOL     OW22858   6.674   2.871   1.929
 7320SOL    HW122859   6.580   2.842   1.913
 7320SOL    HW222860   6.691   2.874   2.028
 7321SOL     OW22861   1.866   0.247   6.848
 7321SOL    HW122862   1.921   0.302   6.910
 7321SOL    HW222863   1.772   0.243   6.882
 7322SOL     OW22864   0.836   2.761   2.757
 7322SOL    HW122865   0.754   2.771   2.813
 7322SOL    HW222866   0.826   2.681   2.697
 7323SOL     OW22867   1.165   2.607   1.271
 7323SOL    HW122868   1.098   2.541   1.306
 7323SOL    HW222869   1.208   2.654   1.348
 7324SOL     OW22870   5.350   4.843   3.225
 7324SOL    HW122871   5.376   4.911   3.293
 7324SOL    HW222872   5.433   4.801   3.187
 7325SOL     OW22873   4.518   1.157   5.824
 7325SOL    HW122874   4.521   1.058   5.813
 7325SOL    HW222875   4.423   1.188   5.831
 7326SOL     OW22876   3.577   0.272   0.440
 7326SOL    HW122877   3.596   0.174   0.440
 7326SOL    HW222878   3.549   0.300   0.532
 7327SOL     OW22879   0.558   3.560   3.443
 7327SOL    HW122880   0.552   3.466   3.410
 7327SOL    HW222881   0.654   3.585   3.454
 7328SOL     OW22882   4.352   4.772   4.834
 7328SOL    HW122883   4.349   4.690   4.892
 7328SOL    HW222884   4.435   4.770   4.778
 7329SOL     OW22885   2.884   3.250   1.214
 7329SOL    HW122886   2.978   3.231   1.244
 7329SOL    HW222887   2.834   3.164   1.203
 7330SOL     OW22888   2.685   3.203   1.627
 7330SOL    HW122889   2.756   3.176   1.691
 7330SOL    HW222890   2.643   3.288   1.657
 7331SOL     OW22891   4.904   0.403   3.131
 7331SOL    HW122892   4.929   0.498   3.147
 7331SOL    HW222893   4.806   0.396   3.116
 7332SOL     OW22894   3.395   5.028   6.356
 7332SOL    HW122895   3.360   5.081   6.279
 7332SOL    HW222896   3.356   4.936   6.354
 7333SOL     OW22897   0.008   2.217   1.031
 7333SOL    HW122898   6.993   2.221   1.124
 7333SOL    HW222899   0.102   2.249   1.028
 7334SOL     OW22900   2.612   0.143   4.677
 7334SOL    HW122901   2.565   0.069   4.726
 7334SOL    HW222902   2.680   0.185   4.738
 7335SOL     OW22903   6.362   2.988   2.083
 7335SOL    HW122904   6.313   3.075   2.096
 7335SOL    HW222905   6.423   2.996   2.004
 7336SOL     OW22906   1.453   7.014   2.029
 7336SOL    HW122907   1.463   6.941   1.961
 7336SOL    HW222908   1.404   0.071   1.989
 7337SOL     OW22909   1.973   2.098   3.455
 7337SOL    HW122910   1.972   2.153   3.372
 7337SOL    HW222911   1.933   2.151   3.530
 7338SOL     OW22912   5.209   3.147   1.287
 7338SOL    HW122913   5.241   3.066   1.237
 7338SOL    HW222914   5.289   3.198   1.320
 7339SOL     OW22915   6.406   5.122   4.353
 7339SOL    HW122916   6.493   5.102   4.307
 7339SOL    HW222917   6.351   5.038   4.357
 7340SOL     OW22918   2.703   0.441   0.533
 7340SOL    HW122919   2.798   0.445   0.566
 7340SOL    HW222920   2.641   0.457   0.609
 7341SOL     OW22921   6.121   5.018   4.302
 7341SOL    HW122922   6.072   5.077   4.238
 7341SOL    HW222923   6.097   5.043   4.396
 7342SOL     OW22924   0.162   6.469   0.346
 7342SOL    HW122925   0.201   6.399   0.287
 7342SOL    HW222926   0.219   6.551   0.343
 7343SOL     OW22927   5.860   3.513   2.288
 7343SOL    HW122928   5.796   3.477   2.220
 7343SOL    HW222929   5.810   3.535   2.371
 7344SOL     OW22930   1.780   6.714   0.207
 7344SOL    HW122931   1.767   6.681   0.114
 7344SOL    HW222932   1.849   6.658   0.253
 7345SOL     OW22933   3.698   5.678   6.660
 7345SOL    HW122934   3.685   5.765   6.708
 7345SOL    HW222935   3.614   5.653   6.611
 7346SOL     OW22936   3.969   4.727   1.825
 7346SOL    HW122937   4.016   4.676   1.754
 7346SOL    HW222938   4.026   4.732   1.907
 7347SOL     OW22939   6.219   1.336   2.822
 7347SOL    HW122940   6.302   1.336   2.767
 7347SOL    HW222941   6.139   1.328   2.763
 7348SOL     OW22942   1.303   2.055   3.024
 7348SOL    HW122943   1.363   2.072   2.945
 7348SOL    HW222944   1.354   2.005   3.094
 7349SOL     OW22945   3.681   1.208   1.053
 7349SOL    HW122946   3.606   1.213   1.119
 7349SOL    HW222947   3.763   1.248   1.094
 7350SOL     OW22948   2.338   1.730   3.124
 7350SOL    HW122949   2.348   1.663   3.197
 7350SOL    HW222950   2.242   1.755   3.113
 7351SOL     OW22951   4.366   4.380   6.516
 7351SOL    HW122952   4.270   4.362   6.538
 7351SOL    HW222953   4.372   4.456   6.451
 7352SOL     OW22954   0.715   1.461   2.315
 7352SOL    HW122955   0.720   1.545   2.368
 7352SOL    HW222956   0.795   1.454   2.255
 7353SOL     OW22957   5.159   2.162   4.921
 7353SOL    HW122958   5.106   2.226   4.977
 7353SOL    HW222959   5.141   2.180   4.825
 7354SOL     OW22960   6.012   4.865   5.583
 7354SOL    HW122961   6.083   4.839   5.648
 7354SOL    HW222962   5.965   4.947   5.615
 7355SOL     OW22963   1.974   5.356   1.904
 7355SOL    HW122964   2.026   5.380   1.822
 7355SOL    HW222965   2.030   5.298   1.963
 7356SOL     OW22966   5.801   1.477   5.720
 7356SOL    HW122967   5.885   1.425   5.736
 7356SOL    HW222968   5.821   1.575   5.731
 7357SOL     OW22969   6.022   1.677   0.233
 7357SOL    HW122970   5.926   1.690   0.208
 7357SOL    HW222971   6.065   1.765   0.249
 7358SOL     OW22972   3.048   1.218   3.956
 7358SOL    HW122973   3.142   1.216   3.991
 7358SOL    HW222974   2.991   1.154   4.007
 7359SOL     OW22975   4.123   3.279   3.658
 7359SOL    HW122976   4.099   3.324   3.572
 7359SOL    HW222977   4.113   3.180   3.648
 7360SOL     OW22978   0.606   2.607   4.796
 7360SOL    HW122979   0.539   2.679   4.811
 7360SOL    HW222980   0.614   2.590   4.697
 7361SOL     OW22981   5.212   6.144   2.309
 7361SOL    HW122982   5.237   6.222   2.252
 7361SOL    HW222983   5.285   6.127   2.375
 7362SOL     OW22984   2.166   5.933   6.062
 7362SOL    HW122985   2.090   5.873   6.036
 7362SOL    HW222986   2.171   5.938   6.162
 7363SOL     OW22987   4.821   3.345   6.411
 7363SOL    HW122988   4.776   3.261   6.378
 7363SOL    HW222989   4.776   3.376   6.494
 7364SOL     OW22990   4.319   6.736   1.731
 7364SOL    HW122991   4.410   6.705   1.705
 7364SOL    HW222992   4.276   6.666   1.789
 7365SOL     OW22993   3.059   0.205   2.687
 7365SOL    HW122994   3.135   0.248   2.638
 7365SOL    HW222995   3.094   0.162   2.770
 7366SOL     OW22996   0.621   5.130   6.533
 7366SOL    HW122997   0.555   5.098   6.601
 7366SOL    HW222998   0.668   5.051   6.493
 7367SOL     OW22999   4.933   4.124   1.228
 7367SOL    HW123000   4.979   4.199   1.179
 7367SOL    HW223001   4.903   4.156   1.318
 7368SOL     OW23002   3.311   3.550   4.824
 7368SOL    HW123003   3.303   3.613   4.747
 7368SOL    HW223004   3.236   3.567   4.888
 7369SOL     OW23005   4.850   3.959   0.539
 7369SOL    HW123006   4.907   3.877   0.539
 7369SOL    HW223007   4.766   3.943   0.590
 7370SOL     OW23008   2.387   6.817   0.728
 7370SOL    HW123009   2.473   6.868   0.729
 7370SOL    HW223010   2.401   6.727   0.768
 7371SOL     OW23011   2.531   5.120   4.714
 7371SOL    HW123012   2.511   5.218   4.715
 7371SOL    HW223013   2.573   5.096   4.626
 7372SOL     OW23014   3.556   0.235   6.034
 7372SOL    HW123015   3.563   0.316   5.975
 7372SOL    HW223016   3.538   0.155   5.978
 7373SOL     OW23017   4.192   0.596   2.255
 7373SOL    HW123018   4.094   0.576   2.259
 7373SOL    HW223019   4.243   0.515   2.282
 7374SOL     OW23020   1.643   3.012   6.392
 7374SOL    HW123021   1.578   3.085   6.377
 7374SOL    HW223022   1.731   3.036   6.351
 7375SOL     OW23023   1.149   0.654   4.307
 7375SOL    HW123024   1.222   0.604   4.354
 7375SOL    HW223025   1.173   0.751   4.303
 7376SOL     OW23026   2.092   3.521   6.800
 7376SOL    HW123027   2.010   3.549   6.749
 7376SOL    HW223028   2.162   3.593   6.792
 7377SOL     OW23029   4.656   4.461   1.510
 7377SOL    HW123030   4.588   4.500   1.448
 7377SOL    HW223031   4.621   4.461   1.603
 7378SOL     OW23032   6.971   1.113   5.019
 7378SOL    HW123033   6.932   1.052   4.951
 7378SOL    HW223034   6.912   1.193   5.031
 7379SOL     OW23035   4.055   1.089   2.331
 7379SOL    HW123036   3.996   1.018   2.369
 7379SOL    HW223037   4.004   1.175   2.325
 7380SOL     OW23038   0.108   3.497   6.196
 7380SOL    HW123039   0.070   3.407   6.216
 7380SOL    HW223040   0.204   3.487   6.168
 7381SOL     OW23041   5.246   1.827   1.549
 7381SOL    HW123042   5.170   1.808   1.611
 7381SOL    HW223043   5.211   1.859   1.461
 7382SOL     OW23044   6.576   5.682   4.236
 7382SOL    HW123045   6.505   5.717   4.173
 7382SOL    HW223046   6.532   5.630   4.309
 7383SOL     OW23047   6.599   5.834   3.457
 7383SOL    HW123048   6.559   5.876   3.376
 7383SOL    HW223049   6.544   5.757   3.487
 7384SOL     OW23050   5.254   0.146   2.282
 7384SOL    HW123051   5.172   0.195   2.251
 7384SOL    HW223052   5.253   0.142   2.382
 7385SOL     OW23053   4.813   6.128   1.295
 7385SOL    HW123054   4.877   6.092   1.364
 7385SOL    HW223055   4.822   6.075   1.211
 7386SOL     OW23056   0.822   2.236   5.314
 7386SOL    HW123057   0.912   2.232   5.359
 7386SOL    HW223058   0.825   2.183   5.229
 7387SOL     OW23059   3.549   5.648   3.382
 7387SOL    HW123060   3.499   5.569   3.417
 7387SOL    HW223061   3.512   5.731   3.424
 7388SOL     OW23062   6.212   4.978   3.296
 7388SOL    HW123063   6.306   4.945   3.306
 7388SOL    HW223064   6.204   5.028   3.210
 7389SOL     OW23065   1.745   4.163   6.081
 7389SOL    HW123066   1.766   4.241   6.022
 7389SOL    HW223067   1.671   4.187   6.143
 7390SOL     OW23068   1.270   0.299   5.491
 7390SOL    HW123069   1.225   0.228   5.437
 7390SOL    HW223070   1.294   0.263   5.581
 7391SOL     OW23071   6.126   3.174   6.155
 7391SOL    HW123072   6.059   3.179   6.081
 7391SOL    HW223073   6.079   3.189   6.243
 7392SOL     OW23074   1.352   4.670   4.142
 7392SOL    HW123075   1.376   4.601   4.074
 7392SOL    HW223076   1.291   4.738   4.101
 7393SOL     OW23077   0.528   4.489   2.548
 7393SOL    HW123078   0.535   4.502   2.647
 7393SOL    HW223079   0.584   4.411   2.520
 7394SOL     OW23080   4.133   3.613   6.854
 7394SOL    HW123081   4.199   3.539   6.842
 7394SOL    HW223082   4.174   3.699   6.825
 7395SOL     OW23083   1.111   0.285   0.405
 7395SOL    HW123084   1.137   0.273   0.309
 7395SOL    HW223085   1.025   0.236   0.421
 7396SOL     OW23086   0.871   0.067   6.297
 7396SOL    HW123087   0.928   7.006   6.307
 7396SOL    HW223088   0.909   0.127   6.227
 7397SOL     OW23089   6.389   4.729   5.581
 7397SOL    HW123090   6.366   4.744   5.485
 7397SOL    HW223091   6.465   4.664   5.588
 7398SOL     OW23092   4.541   4.398   3.679
 7398SOL    HW123093   4.604   4.398   3.758
 7398SOL    HW223094   4.551   4.313   3.629
 7399SOL     OW23095   4.880   3.915   6.077
 7399SOL    HW123096   4.812   3.866   6.023
 7399SOL    HW223097   4.964   3.860   6.081
 7400SOL     OW23098   2.932   5.502   6.689
 7400SOL    HW123099   2.854   5.563   6.676
 7400SOL    HW223100   2.958   5.461   6.602
 7401SOL     OW23101   6.942   1.982   3.995
 7401SOL    HW123102   7.009   2.004   4.066
 7401SOL    HW223103   6.960   1.891   3.958
 7402SOL     OW23104   2.693   0.394   3.784
 7402SOL    HW123105   2.787   0.421   3.766
 7402SOL    HW223106   2.692   0.312   3.842
 7403SOL     OW23107   1.493   3.984   3.070
 7403SOL    HW123108   1.567   3.916   3.070
 7403SOL    HW223109   1.428   3.963   3.143
 7404SOL     OW23110   1.396   0.438   1.666
 7404SOL    HW123111   1.434   0.347   1.685
 7404SOL    HW223112   1.387   0.450   1.567
 7405SOL     OW23113   3.364   5.250   6.149
 7405SOL    HW123114   3.272   5.285   6.129
 7405SOL    HW223115   3.399   5.200   6.070
 7406SOL     OW23116   0.720   4.518   1.925
 7406SOL    HW123117   0.621   4.534   1.925
 7406SOL    HW223118   0.768   4.605   1.924
 7407SOL     OW23119   1.371   6.260   6.392
 7407SOL    HW123120   1.329   6.171   6.411
 7407SOL    HW223121   1.361   6.319   6.472
 7408SOL     OW23122   1.955   4.602   5.848
 7408SOL    HW123123   2.040   4.623   5.897
 7408SOL    HW223124   1.963   4.633   5.754
 7409SOL     OW23125   2.080   6.050   5.188
 7409SOL    HW123126   2.180   6.053   5.193
 7409SOL    HW223127   2.043   6.041   5.281
 7410SOL     OW23128   0.134   5.353   1.338
 7410SOL    HW123129   0.105   5.341   1.243
 7410SOL    HW223130   0.151   5.263   1.379
 7411SOL     OW23131   3.159   6.195   5.031
 7411SOL    HW123132   3.241   6.243   5.000
 7411SOL    HW223133   3.110   6.158   4.952
 7412SOL     OW23134   1.083   1.835   0.353
 7412SOL    HW123135   1.160   1.872   0.301
 7412SOL    HW223136   1.070   1.890   0.436
 7413SOL     OW23137   6.018   4.064   4.951
 7413SOL    HW123138   6.025   3.980   5.005
 7413SOL    HW223139   6.099   4.074   4.894
 7414SOL     OW23140   6.723   6.781   2.289
 7414SOL    HW123141   6.722   6.809   2.193
 7414SOL    HW223142   6.667   6.700   2.301
 7415SOL     OW23143   1.691   3.106   3.867
 7415SOL    HW123144   1.603   3.134   3.905
 7415SOL    HW223145   1.726   3.028   3.920
 7416SOL     OW23146   3.535   1.227   4.242
 7416SOL    HW123147   3.585   1.202   4.159
 7416SOL    HW223148   3.520   1.145   4.298
 7417SOL     OW23149   1.216   6.534   0.474
 7417SOL    HW123150   1.176   6.574   0.392
 7417SOL    HW223151   1.226   6.605   0.544
 7418SOL     OW23152   1.713   3.369   0.906
 7418SOL    HW123153   1.806   3.343   0.931
 7418SOL    HW223154   1.715   3.422   0.821
 7419SOL     OW23155   6.107   1.067   5.033
 7419SOL    HW123156   6.040   1.014   5.085
 7419SOL    HW223157   6.122   1.025   4.944
 7420SOL     OW23158   6.689   5.855   1.856
 7420SOL    HW123159   6.743   5.775   1.881
 7420SOL    HW223160   6.636   5.835   1.774
 7421SOL     OW23161   3.947   3.678   1.357
 7421SOL    HW123162   4.007   3.730   1.418
 7421SOL    HW223163   3.980   3.584   1.350
 7422SOL     OW23164   6.935   2.927   0.310
 7422SOL    HW123165   7.005   2.933   0.381
 7422SOL    HW223166   6.942   3.006   0.250
 7423SOL     OW23167   1.664   5.036   6.463
 7423SOL    HW123168   1.633   5.076   6.550
 7423SOL    HW223169   1.763   5.021   6.468
 7424SOL     OW23170   5.422   0.607   4.151
 7424SOL    HW123171   5.405   0.706   4.145
 7424SOL    HW223172   5.414   0.567   4.059
 7425SOL     OW23173   3.743   5.339   6.136
 7425SOL    HW123174   3.737   5.307   6.041
 7425SOL    HW223175   3.698   5.273   6.196
 7426SOL     OW23176   1.066   1.055   6.526
 7426SOL    HW123177   1.092   1.147   6.555
 7426SOL    HW223178   0.986   1.060   6.467
 7427SOL     OW23179   4.159   5.259   4.901
 7427SOL    HW123180   4.081   5.270   4.839
 7427SOL    HW223181   4.136   5.297   4.991
 7428SOL     OW23182   3.181   2.284   5.834
 7428SOL    HW123183   3.222   2.281   5.925
 7428SOL    HW223184   3.240   2.338   5.773
 7429SOL     OW23185   0.392   0.414   2.951
 7429SOL    HW123186   0.372   0.505   2.989
 7429SOL    HW223187   0.485   0.415   2.912
 7430SOL     OW23188   6.241   4.008   5.293
 7430SOL    HW123189   6.150   3.975   5.319
 7430SOL    HW223190   6.252   4.002   5.194
 7431SOL     OW23191   0.428   4.208   1.996
 7431SOL    HW123192   0.399   4.130   2.051
 7431SOL    HW223193   0.473   4.176   1.913
 7432SOL     OW23194   6.907   6.554   4.491
 7432SOL    HW123195   6.885   6.493   4.415
 7432SOL    HW223196   6.878   6.647   4.468
 7433SOL     OW23197   6.313   5.478   0.809
 7433SOL    HW123198   6.250   5.405   0.837
 7433SOL    HW223199   6.325   5.543   0.884
 7434SOL     OW23200   3.552   1.211   6.243
 7434SOL    HW123201   3.645   1.190   6.272
 7434SOL    HW223202   3.526   1.150   6.168
 7435SOL     OW23203   2.717   6.422   0.237
 7435SOL    HW123204   2.643   6.427   0.170
 7435SOL    HW223205   2.725   6.510   0.283
 7436SOL     OW23206   4.879   3.253   0.223
 7436SOL    HW123207   4.793   3.205   0.211
 7436SOL    HW223208   4.861   3.347   0.252
 7437SOL     OW23209   0.937   5.710   5.934
 7437SOL    HW123210   1.022   5.746   5.972
 7437SOL    HW223211   0.911   5.627   5.984
 7438SOL     OW23212   6.756   4.578   1.846
 7438SOL    HW123213   6.826   4.580   1.917
 7438SOL    HW223214   6.730   4.484   1.827
 7439SOL     OW23215   1.916   6.933   3.620
 7439SOL    HW123216   1.995   6.967   3.672
 7439SOL    HW223217   1.925   6.959   3.524
 7440SOL     OW23218   1.203   2.506   4.377
 7440SOL    HW123219   1.145   2.561   4.316
 7440SOL    HW223220   1.170   2.411   4.376
 7441SOL     OW23221   5.706   1.196   4.041
 7441SOL    HW123222   5.688   1.267   3.974
 7441SOL    HW223223   5.684   1.230   4.133
 7442SOL     OW23224   0.955   0.751   6.488
 7442SOL    HW123225   0.862   0.745   6.454
 7442SOL    HW223226   0.961   0.704   6.577
 7443SOL     OW23227   0.554   1.139   6.713
 7443SOL    HW123228   0.607   1.170   6.633
 7443SOL    HW223229   0.506   1.217   6.753
 7444SOL     OW23230   0.847   3.191   6.509
 7444SOL    HW123231   0.841   3.092   6.514
 7444SOL    HW223232   0.788   3.232   6.579
 7445SOL     OW23233   5.222   1.839   1.948
 7445SOL    HW123234   5.199   1.745   1.922
 7445SOL    HW223235   5.139   1.893   1.955
 7446SOL     OW23236   6.584   4.023   1.432
 7446SOL    HW123237   6.528   4.081   1.374
 7446SOL    HW223238   6.530   3.992   1.510
 7447SOL     OW23239   1.473   3.845   6.321
 7447SOL    HW123240   1.382   3.879   6.345
 7447SOL    HW223241   1.467   3.750   6.291
 7448SOL     OW23242   6.401   0.217   5.999
 7448SOL    HW123243   6.444   0.127   6.004
 7448SOL    HW223244   6.425   0.260   5.912
 7449SOL     OW23245   5.830   2.137   2.079
 7449SOL    HW123246   5.801   2.229   2.054
 7449SOL    HW223247   5.780   2.070   2.024
 7450SOL     OW23248   4.663   2.016   2.510
 7450SOL    HW123249   4.724   2.081   2.555
 7450SOL    HW223250   4.570   2.053   2.509
 7451SOL     OW23251   2.015   0.807   4.930
 7451SOL    HW123252   1.922   0.844   4.925
 7451SOL    HW223253   2.014   0.712   4.898
 7452SOL     OW23254   1.763   6.714   4.848
 7452SOL    HW123255   1.727   6.691   4.758
 7452SOL    HW223256   1.693   6.699   4.917
 7453SOL     OW23257   5.508   6.159   4.291
 7453SOL    HW123258   5.507   6.098   4.370
 7453SOL    HW223259   5.477   6.250   4.318
 7454SOL     OW23260   0.861   3.511   1.595
 7454SOL    HW123261   0.864   3.586   1.661
 7454SOL    HW223262   0.783   3.524   1.534
 7455SOL     OW23263   4.750   2.619   0.311
 7455SOL    HW123264   4.667   2.669   0.285
 7455SOL    HW223265   4.768   2.634   0.408
 7456SOL     OW23266   1.798   3.621   4.722
 7456SOL    HW123267   1.785   3.716   4.691
 7456SOL    HW223268   1.712   3.571   4.710
 7457SOL     OW23269   6.242   0.621   5.356
 7457SOL    HW123270   6.220   0.597   5.450
 7457SOL    HW223271   6.301   0.551   5.316
 7458SOL     OW23272   2.836   0.697   0.504
 7458SOL    HW123273   2.900   0.681   0.429
 7458SOL    HW223274   2.746   0.661   0.479
 7459SOL     OW23275   4.652   0.583   4.848
 7459SOL    HW123276   4.589   0.530   4.792
 7459SOL    HW223277   4.610   0.603   4.936
 7460SOL     OW23278   0.289   4.196   0.397
 7460SOL    HW123279   0.257   4.245   0.478
 7460SOL    HW223280   0.214   4.143   0.358
 7461SOL     OW23281   5.370   1.033   4.887
 7461SOL    HW123282   5.344   0.977   4.966
 7461SOL    HW223283   5.466   1.014   4.864
 7462SOL     OW23284   2.154   1.974   2.523
 7462SOL    HW123285   2.230   1.910   2.537
 7462SOL    HW223286   2.098   1.943   2.446
 7463SOL     OW23287   4.060   3.882   2.137
 7463SOL    HW123288   4.148   3.929   2.150
 7463SOL    HW223289   3.998   3.905   2.212
 7464SOL     OW23290   5.154   5.893   0.824
 7464SOL    HW123291   5.133   5.838   0.743
 7464SOL    HW223292   5.157   5.990   0.798
 7465SOL     OW23293   3.095   0.167   2.017
 7465SOL    HW123294   3.059   0.226   1.945
 7465SOL    HW223295   3.193   0.154   2.004
 7466SOL     OW23296   0.372   0.261   6.847
 7466SOL    HW123297   0.423   0.250   6.762
 7466SOL    HW223298   0.274   0.258   6.828
 7467SOL     OW23299   0.318   1.751   0.875
 7467SOL    HW123300   0.218   1.754   0.868
 7467SOL    HW223301   0.345   1.672   0.930
 7468SOL     OW23302   5.676   1.560   2.753
 7468SOL    HW123303   5.644   1.547   2.659
 7468SOL    HW223304   5.603   1.600   2.808
 7469SOL     OW23305   1.376   0.981   0.640
 7469SOL    HW123306   1.449   0.956   0.575
 7469SOL    HW223307   1.322   0.900   0.661
 7470SOL     OW23308   6.986   2.118   2.224
 7470SOL    HW123309   6.968   2.105   2.127
 7470SOL    HW223310   7.019   2.211   2.241
 7471SOL     OW23311   6.140   6.493   5.823
 7471SOL    HW123312   6.096   6.582   5.835
 7471SOL    HW223313   6.102   6.428   5.889
 7472SOL     OW23314   3.497   0.513   4.021
 7472SOL    HW123315   3.453   0.428   3.990
 7472SOL    HW223316   3.591   0.515   3.987
 7473SOL     OW23317   6.407   3.876   4.639
 7473SOL    HW123318   6.449   3.941   4.576
 7473SOL    HW223319   6.431   3.783   4.612
 7474SOL     OW23320   3.916   1.002   3.610
 7474SOL    HW123321   3.902   1.095   3.576
 7474SOL    HW223322   3.832   0.969   3.653
 7475SOL     OW23323   3.770   0.941   1.171
 7475SOL    HW123324   3.682   0.914   1.133
 7475SOL    HW223325   3.772   1.040   1.184
 7476SOL     OW23326   3.680   6.260   4.216
 7476SOL    HW123327   3.684   6.326   4.141
 7476SOL    HW223328   3.769   6.215   4.226
 7477SOL     OW23329   3.946   1.240   4.141
 7477SOL    HW123330   3.999   1.289   4.072
 7477SOL    HW223331   3.984   1.260   4.232
 7478SOL     OW23332   2.311   4.343   0.276
 7478SOL    HW123333   2.232   4.291   0.307
 7478SOL    HW223334   2.386   4.330   0.341
 7479SOL     OW23335   4.721   0.703   6.900
 7479SOL    HW123336   4.692   0.705   6.804
 7479SOL    HW223337   4.696   0.788   6.944
 7480SOL     OW23338   6.624   6.141   1.128
 7480SOL    HW123339   6.578   6.057   1.101
 7480SOL    HW223340   6.662   6.186   1.048
 7481SOL     OW23341   5.893   4.876   0.512
 7481SOL    HW123342   5.935   4.787   0.529
 7481SOL    HW223343   5.794   4.865   0.501
 7482SOL     OW23344   4.654   0.918   2.649
 7482SOL    HW123345   4.678   0.908   2.745
 7482SOL    HW223346   4.555   0.930   2.641
 7483SOL     OW23347   3.519   0.871   4.596
 7483SOL    HW123348   3.546   0.858   4.692
 7483SOL    HW223349   3.442   0.811   4.574
 7484SOL     OW23350   2.083   6.529   2.682
 7484SOL    HW123351   1.989   6.495   2.681
 7484SOL    HW223352   2.113   6.547   2.588
 7485SOL     OW23353   3.021   5.563   6.215
 7485SOL    HW123354   2.943   5.534   6.159
 7485SOL    HW223355   3.009   5.532   6.309
 7486SOL     OW23356   3.080   5.940   5.468
 7486SOL    HW123357   3.054   5.860   5.413
 7486SOL    HW223358   3.148   5.993   5.419
 7487SOL     OW23359   3.101   6.034   3.851
 7487SOL    HW123360   3.100   5.943   3.810
 7487SOL    HW223361   3.029   6.039   3.921
 7488SOL     OW23362   3.858   0.287   6.118
 7488SOL    HW123363   3.770   0.240   6.108
 7488SOL    HW223364   3.914   0.270   6.037
 7489SOL     OW23365   4.944   2.621   4.384
 7489SOL    HW123366   4.900   2.706   4.356
 7489SOL    HW223367   4.935   2.610   4.483
 7490SOL     OW23368   5.804   0.993   1.056
 7490SOL    HW123369   5.805   1.065   0.987
 7490SOL    HW223370   5.807   1.033   1.147
 7491SOL     OW23371   6.637   5.746   6.077
 7491SOL    HW123372   6.588   5.767   6.162
 7491SOL    HW223373   6.694   5.665   6.090
 7492SOL     OW23374   1.753   2.772   5.182
 7492SOL    HW123375   1.800   2.780   5.269
 7492SOL    HW223376   1.816   2.737   5.113
 7493SOL     OW23377   5.483   3.398   6.636
 7493SOL    HW123378   5.511   3.334   6.708
 7493SOL    HW223379   5.493   3.491   6.669
 7494SOL     OW23380   5.445   0.421   2.053
 7494SOL    HW123381   5.359   0.469   2.035
 7494SOL    HW223382   5.501   0.421   1.970
 7495SOL     OW23383   2.101   1.810   0.866
 7495SOL    HW123384   2.086   1.841   0.772
 7495SOL    HW223385   2.179   1.859   0.906
 7496SOL     OW23386   1.287   5.118   6.405
 7496SOL    HW123387   1.241   5.052   6.464
 7496SOL    HW223388   1.366   5.074   6.362
 7497SOL     OW23389   1.731   4.162   2.228
 7497SOL    HW123390   1.708   4.220   2.306
 7497SOL    HW223391   1.793   4.212   2.167
 7498SOL     OW23392   3.397   1.882   4.867
 7498SOL    HW123393   3.347   1.961   4.900
 7498SOL    HW223394   3.467   1.911   4.801
 7499SOL     OW23395   5.636   6.907   4.723
 7499SOL    HW123396   5.681   6.967   4.789
 7499SOL    HW223397   5.673   6.814   4.731
 7500SOL     OW23398   4.575   6.001   2.045
 7500SOL    HW123399   4.654   5.970   1.991
 7500SOL    HW223400   4.567   5.946   2.128
 7501SOL     OW23401   0.603   4.251   3.640
 7501SOL    HW123402   0.542   4.218   3.712
 7501SOL    HW223403   0.673   4.309   3.681
 7502SOL     OW23404   2.738   0.580   5.034
 7502SOL    HW123405   2.686   0.499   5.010
 7502SOL    HW223406   2.703   0.619   5.119
 7503SOL     OW23407   2.827   1.198   0.166
 7503SOL    HW123408   2.792   1.106   0.185
 7503SOL    HW223409   2.830   1.213   0.068
 7504SOL     OW23410   4.141   6.823   3.279
 7504SOL    HW123411   4.176   6.797   3.369
 7504SOL    HW223412   4.084   6.905   3.288
 7505SOL     OW23413   1.813   1.568   4.885
 7505SOL    HW123414   1.908   1.600   4.891
 7505SOL    HW223415   1.800   1.516   4.801
 7506SOL     OW23416   3.702   0.613   2.445
 7506SOL    HW123417   3.690   0.672   2.525
 7506SOL    HW223418   3.721   0.520   2.474
 7507SOL     OW23419   1.059   6.311   5.558
 7507SOL    HW123420   1.049   6.410   5.562
 7507SOL    HW223421   0.969   6.270   5.542
 7508SOL     OW23422   5.956   6.933   2.841
 7508SOL    HW123423   5.871   6.890   2.871
 7508SOL    HW223424   5.988   6.889   2.757
 7509SOL     OW23425   4.837   3.423   5.996
 7509SOL    HW123426   4.788   3.495   6.046
 7509SOL    HW223427   4.786   3.400   5.913
 7510SOL     OW23428   3.537   4.233   5.004
 7510SOL    HW123429   3.571   4.319   5.043
 7510SOL    HW223430   3.612   4.186   4.956
 7511SOL     OW23431   1.592   0.511   2.437
 7511SOL    HW123432   1.659   0.501   2.364
 7511SOL    HW223433   1.636   0.551   2.518
 7512SOL     OW23434   2.925   3.111   1.759
 7512SOL    HW123435   2.943   3.018   1.791
 7512SOL    HW223436   2.926   3.174   1.836
 7513SOL     OW23437   1.446   1.684   6.634
 7513SOL    HW123438   1.500   1.740   6.697
 7513SOL    HW223439   1.484   1.691   6.542
 7514SOL     OW23440   2.712   5.702   2.282
 7514SOL    HW123441   2.782   5.658   2.340
 7514SOL    HW223442   2.750   5.784   2.241
 7515SOL     OW23443   6.845   6.829   2.764
 7515SOL    HW123444   6.788   6.866   2.691
 7515SOL    HW223445   6.792   6.765   2.819
 7516SOL     OW23446   0.633   1.144   3.953
 7516SOL    HW123447   0.580   1.147   3.868
 7516SOL    HW223448   0.663   1.050   3.970
 7517SOL     OW23449   0.260   3.909   0.668
 7517SOL    HW123450   0.309   3.853   0.735
 7517SOL    HW223451   0.242   3.854   0.586
 7518SOL     OW23452   4.415   5.618   4.219
 7518SOL    HW123453   4.360   5.600   4.300
 7518SOL    HW223454   4.445   5.713   4.219
 7519SOL     OW23455   1.366   6.044   4.676
 7519SOL    HW123456   1.380   5.946   4.659
 7519SOL    HW223457   1.430   6.097   4.621
 7520SOL     OW23458   1.310   6.806   3.945
 7520SOL    HW123459   1.346   6.765   3.860
 7520SOL    HW223460   1.338   6.750   4.023
 7521SOL     OW23461   4.822   4.065   4.847
 7521SOL    HW123462   4.795   4.002   4.775
 7521SOL    HW223463   4.756   4.140   4.852
 7522SOL     OW23464   2.189   1.081   0.759
 7522SOL    HW123465   2.112   1.113   0.815
 7522SOL    HW223466   2.180   1.119   0.667
 7523SOL     OW23467   5.894   0.211   6.060
 7523SOL    HW123468   5.916   0.272   5.984
 7523SOL    HW223469   5.978   0.177   6.101
 7524SOL     OW23470   0.329   1.979   5.429
 7524SOL    HW123471   0.236   2.017   5.421
 7524SOL    HW223472   0.378   2.026   5.503
 7525SOL     OW23473   1.391   0.753   0.063
 7525SOL    HW123474   1.452   0.806   0.003
 7525SOL    HW223475   1.424   0.759   0.157
 7526SOL     OW23476   3.601   2.897   4.453
 7526SOL    HW123477   3.690   2.929   4.484
 7526SOL    HW223478   3.592   2.916   4.355
 7527SOL     OW23479   5.001   4.273   2.659
 7527SOL    HW123480   5.090   4.229   2.646
 7527SOL    HW223481   4.929   4.209   2.631
 7528SOL     OW23482   4.804   2.700   0.025
 7528SOL    HW123483   4.800   2.696   0.124
 7528SOL    HW223484   4.733   2.641   7.006
 7529SOL     OW23485   4.047   1.187   5.038
 7529SOL    HW123486   4.087   1.097   5.023
 7529SOL    HW223487   3.973   1.180   5.105
 7530SOL     OW23488   0.172   4.313   2.249
 7530SOL    HW123489   0.248   4.250   2.264
 7530SOL    HW223490   0.105   4.272   2.188
 7531SOL     OW23491   4.164   1.927   3.715
 7531SOL    HW123492   4.233   1.880   3.770
 7531SOL    HW223493   4.081   1.939   3.768
 7532SOL     OW23494   5.230   5.828   2.447
 7532SOL    HW123495   5.171   5.766   2.395
 7532SOL    HW223496   5.220   5.921   2.412
 7533SOL     OW23497   3.300   1.132   4.662
 7533SOL    HW123498   3.292   1.127   4.562
 7533SOL    HW223499   3.391   1.166   4.686
 7534SOL     OW23500   3.985   6.448   4.898
 7534SOL    HW123501   3.940   6.384   4.835
 7534SOL    HW223502   4.055   6.500   4.848
 7535SOL     OW23503   2.884   2.105   5.942
 7535SOL    HW123504   2.971   2.058   5.930
 7535SOL    HW223505   2.820   2.045   5.990
 7536SOL     OW23506   4.070   5.488   4.689
 7536SOL    HW123507   4.144   5.517   4.749
 7536SOL    HW223508   3.993   5.552   4.697
 7537SOL     OW23509   2.438   5.005   5.473
 7537SOL    HW123510   2.497   4.925   5.465
 7537SOL    HW223511   2.357   4.993   5.416
 7538SOL     OW23512   2.929   3.285   3.047
 7538SOL    HW123513   2.940   3.377   3.085
 7538SOL    HW223514   2.832   3.268   3.029
 7539SOL     OW23515   2.049   2.899   5.162
 7539SOL    HW123516   2.117   2.869   5.095
 7539SOL    HW223517   2.075   2.988   5.199
 7540SOL     OW23518   3.000   1.566   6.756
 7540SOL    HW123519   3.015   1.591   6.661
 7540SOL    HW223520   3.031   1.641   6.815
 7541SOL     OW23521   6.146   2.003   5.050
 7541SOL    HW123522   6.174   2.088   5.007
 7541SOL    HW223523   6.216   1.973   5.114
 7542SOL     OW23524   1.348   6.937   5.823
 7542SOL    HW123525   1.369   6.926   5.726
 7542SOL    HW223526   1.386   6.860   5.874
 7543SOL     OW23527   3.830   3.664   0.612
 7543SOL    HW123528   3.897   3.713   0.557
 7543SOL    HW223529   3.823   3.706   0.703
 7544SOL     OW23530   1.804   2.630   3.027
 7544SOL    HW123531   1.799   2.639   3.127
 7544SOL    HW223532   1.889   2.671   2.994
 7545SOL     OW23533   5.054   6.483   3.753
 7545SOL    HW123534   5.102   6.534   3.824
 7545SOL    HW223535   5.073   6.385   3.763
 7546SOL     OW23536   5.025   0.242   0.068
 7546SOL    HW123537   5.011   0.312   7.018
 7546SOL    HW223538   5.007   0.152   0.029
 7547SOL     OW23539   3.718   0.521   0.368
 7547SOL    HW123540   3.695   0.607   0.413
 7547SOL    HW223541   3.669   0.446   0.412
 7548SOL     OW23542   2.737   2.222   1.498
 7548SOL    HW123543   2.640   2.200   1.492
 7548SOL    HW223544   2.749   2.309   1.546
 7549SOL     OW23545   5.159   1.986   2.737
 7549SOL    HW123546   5.087   2.019   2.798
 7549SOL    HW223547   5.234   2.052   2.737
 7550SOL     OW23548   1.777   6.337   2.962
 7550SOL    HW123549   1.753   6.404   2.892
 7550SOL    HW223550   1.826   6.260   2.920
 7551SOL     OW23551   4.603   3.155   6.758
 7551SOL    HW123552   4.669   3.112   6.697
 7551SOL    HW223553   4.613   3.118   6.850
 7552SOL     OW23554   2.473   5.363   4.354
 7552SOL    HW123555   2.416   5.359   4.272
 7552SOL    HW223556   2.549   5.426   4.338
 7553SOL     OW23557   3.898   5.680   5.889
 7553SOL    HW123558   3.825   5.735   5.929
 7553SOL    HW223559   3.936   5.727   5.809
 7554SOL     OW23560   5.453   1.470   0.290
 7554SOL    HW123561   5.489   1.476   0.383
 7554SOL    HW223562   5.381   1.401   0.287
 7555SOL     OW23563   0.332   6.363   4.950
 7555SOL    HW123564   0.375   6.284   4.993
 7555SOL    HW223565   0.283   6.334   4.868
 7556SOL     OW23566   0.655   3.088   4.387
 7556SOL    HW123567   0.714   3.168   4.387
 7556SOL    HW223568   0.710   3.006   4.405
 7557SOL     OW23569   5.284   4.136   6.041
 7557SOL    HW123570   5.366   4.177   6.001
 7557SOL    HW223571   5.299   4.038   6.055
 7558SOL     OW23572   2.077   3.499   3.280
 7558SOL    HW123573   2.027   3.425   3.326
 7558SOL    HW223574   2.173   3.474   3.271
 7559SOL     OW23575   0.427   4.779   0.916
 7559SOL    HW123576   0.519   4.778   0.955
 7559SOL    HW223577   0.360   4.753   0.985
 7560SOL     OW23578   5.518   6.659   0.838
 7560SOL    HW123579   5.462   6.675   0.919
 7560SOL    HW223580   5.463   6.677   0.756
 7561SOL     OW23581   6.462   3.468   0.173
 7561SOL    HW123582   6.511   3.512   0.247
 7561SOL    HW223583   6.374   3.434   0.206
 7562SOL     OW23584   5.083   6.451   5.302
 7562SOL    HW123585   5.138   6.500   5.370
 7562SOL    HW223586   5.096   6.494   5.212
 7563SOL     OW23587   2.960   0.732   1.962
 7563SOL    HW123588   2.875   0.754   1.914
 7563SOL    HW223589   3.006   0.816   1.990
 7564SOL     OW23590   4.797   0.141   3.024
 7564SOL    HW123591   4.885   0.161   3.066
 7564SOL    HW223592   4.790   0.191   2.937
 7565SOL     OW23593   4.661   5.225   0.013
 7565SOL    HW123594   4.605   5.257   6.957
 7565SOL    HW223595   4.731   5.293   0.034
 7566SOL     OW23596   0.532   5.793   4.698
 7566SOL    HW123597   0.616   5.825   4.656
 7566SOL    HW223598   0.505   5.706   4.658
 7567SOL     OW23599   2.478   5.017   6.382
 7567SOL    HW123600   2.540   4.981   6.312
 7567SOL    HW223601   2.532   5.066   6.451
 7568SOL     OW23602   5.104   5.820   2.950
 7568SOL    HW123603   5.094   5.848   2.855
 7568SOL    HW223604   5.138   5.897   3.004
 7569SOL     OW23605   4.055   5.810   6.818
 7569SOL    HW123606   3.989   5.881   6.793
 7569SOL    HW223607   4.007   5.732   6.857
 7570SOL     OW23608   5.500   5.371   3.876
 7570SOL    HW123609   5.577   5.395   3.816
 7570SOL    HW223610   5.506   5.424   3.961
 7571SOL     OW23611   5.701   3.809   1.335
 7571SOL    HW123612   5.720   3.906   1.346
 7571SOL    HW223613   5.735   3.777   1.246
 7572SOL     OW23614   3.622   0.881   4.362
 7572SOL    HW123615   3.571   0.883   4.448
 7572SOL    HW223616   3.576   0.820   4.297
 7573SOL     OW23617   0.277   6.357   4.494
 7573SOL    HW123618   0.254   6.370   4.397
 7573SOL    HW223619   0.299   6.260   4.510
 7574SOL     OW23620   5.416   6.942   3.230
 7574SOL    HW123621   5.438   6.992   3.314
 7574SOL    HW223622   5.330   6.892   3.242
 7575SOL     OW23623   3.938   1.388   5.382
 7575SOL    HW123624   3.913   1.400   5.478
 7575SOL    HW223625   4.014   1.449   5.359
 7576SOL     OW23626   6.121   3.465   0.078
 7576SOL    HW123627   6.185   3.518   0.022
 7576SOL    HW223628   6.029   3.504   0.070
 7577SOL     OW23629   6.414   0.921   4.880
 7577SOL    HW123630   6.398   0.906   4.978
 7577SOL    HW223631   6.486   0.989   4.868
 7578SOL     OW23632   2.198   5.971   4.872
 7578SOL    HW123633   2.099   5.966   4.858
 7578SOL    HW223634   2.239   5.881   4.854
 7579SOL     OW23635   3.619   1.645   2.869
 7579SOL    HW123636   3.668   1.726   2.902
 7579SOL    HW223637   3.680   1.566   2.870
 7580SOL     OW23638   1.826   3.999   2.862
 7580SOL    HW123639   1.743   4.051   2.877
 7580SOL    HW223640   1.835   3.978   2.764
 7581SOL     OW23641   5.058   1.857   1.005
 7581SOL    HW123642   5.059   1.773   0.950
 7581SOL    HW223643   5.038   1.834   1.101
 7582SOL     OW23644   3.590   1.554   1.043
 7582SOL    HW123645   3.591   1.521   1.137
 7582SOL    HW223646   3.680   1.591   1.019
 7583SOL     OW23647   5.784   3.172   1.825
 7583SOL    HW123648   5.781   3.269   1.804
 7583SOL    HW223649   5.876   3.147   1.857
 7584SOL     OW23650   2.640   6.737   1.439
 7584SOL    HW123651   2.562   6.734   1.502
 7584SOL    HW223652   2.639   6.823   1.389
 7585SOL     OW23653   1.521   4.685   6.658
 7585SOL    HW123654   1.574   4.705   6.576
 7585SOL    HW223655   1.496   4.771   6.703
 7586SOL     OW23656   2.879   0.351   2.810
 7586SOL    HW123657   2.943   0.303   2.749
 7586SOL    HW223658   2.801   0.292   2.828
 7587SOL     OW23659   0.996   1.771   6.419
 7587SOL    HW123660   0.951   1.859   6.408
 7587SOL    HW223661   1.081   1.771   6.365
 7588SOL     OW23662   0.286   4.884   2.907
 7588SOL    HW123663   0.383   4.892   2.931
 7588SOL    HW223664   0.242   4.973   2.915
 7589SOL     OW23665   6.165   5.893   0.580
 7589SOL    HW123666   6.215   5.978   0.564
 7589SOL    HW223667   6.073   5.915   0.615
 7590SOL     OW23668   2.622   1.590   5.610
 7590SOL    HW123669   2.571   1.505   5.602
 7590SOL    HW223670   2.558   1.667   5.613
 7591SOL     OW23671   6.952   4.998   6.937
 7591SOL    HW123672   6.930   5.092   6.912
 7591SOL    HW223673   6.921   4.936   6.865
 7592SOL     OW23674   6.533   5.013   6.752
 7592SOL    HW123675   6.501   5.089   6.695
 7592SOL    HW223676   6.556   4.935   6.693
 7593SOL     OW23677   4.670   2.139   6.910
 7593SOL    HW123678   4.666   2.123   6.811
 7593SOL    HW223679   4.577   2.152   6.945
 7594SOL     OW23680   0.701   6.185   4.120
 7594SOL    HW123681   0.747   6.271   4.142
 7594SOL    HW223682   0.766   6.124   4.073
 7595SOL     OW23683   6.775   3.041   6.547
 7595SOL    HW123684   6.870   3.011   6.548
 7595SOL    HW223685   6.744   3.051   6.452
 7596SOL     OW23686   5.193   4.234   1.910
 7596SOL    HW123687   5.130   4.169   1.867
 7596SOL    HW223688   5.142   4.292   1.974
 7597SOL     OW23689   3.387   5.183   1.541
 7597SOL    HW123690   3.484   5.158   1.545
 7597SOL    HW223691   3.370   5.236   1.458
 7598SOL     OW23692   6.940   7.016   2.917
 7598SOL    HW123693   6.906   6.944   2.857
 7598SOL    HW223694   6.942   0.083   2.867
 7599SOL     OW23695   6.133   1.803   3.621
 7599SOL    HW123696   6.195   1.794   3.699
 7599SOL    HW223697   6.178   1.855   3.548
 7600SOL     OW23698   1.688   0.754   2.183
 7600SOL    HW123699   1.639   0.672   2.210
 7600SOL    HW223700   1.787   0.740   2.196
 7601SOL     OW23701   1.497   6.177   4.221
 7601SOL    HW123702   1.555   6.198   4.299
 7601SOL    HW223703   1.529   6.093   4.177
 7602SOL     OW23704   1.434   4.136   4.871
 7602SOL    HW123705   1.350   4.187   4.890
 7602SOL    HW223706   1.496   4.193   4.817
 7603SOL     OW23707   0.969   5.996   0.673
 7603SOL    HW123708   0.959   6.048   0.588
 7603SOL    HW223709   1.013   6.054   0.743
 7604SOL     OW23710   3.887   6.203   4.764
 7604SOL    HW123711   3.915   6.120   4.715
 7604SOL    HW223712   3.836   6.178   4.846
 7605SOL     OW23713   0.370   4.407   6.943
 7605SOL    HW123714   0.368   4.396   0.022
 7605SOL    HW223715   0.278   4.396   6.906
 7606SOL     OW23716   6.755   2.838   2.585
 7606SOL    HW123717   6.816   2.854   2.508
 7606SOL    HW223718   6.750   2.740   2.604
 7607SOL     OW23719   5.120   0.083   6.599
 7607SOL    HW123720   5.074   0.070   6.511
 7607SOL    HW223721   5.112   7.018   6.653
 7608SOL     OW23722   2.977   3.212   4.044
 7608SOL    HW123723   3.007   3.189   3.952
 7608SOL    HW223724   2.966   3.129   4.098
 7609SOL     OW23725   0.671   3.843   3.815
 7609SOL    HW123726   0.698   3.935   3.842
 7609SOL    HW223727   0.643   3.843   3.719
 7610SOL     OW23728   5.279   0.283   0.811
 7610SOL    HW123729   5.272   0.206   0.874
 7610SOL    HW223730   5.315   0.363   0.860
 7611SOL     OW23731   1.233   2.002   6.888
 7611SOL    HW123732   1.154   1.947   6.860
 7611SOL    HW223733   1.273   2.045   6.807
 7612SOL     OW23734   4.097   1.679   4.446
 7612SOL    HW123735   4.061   1.664   4.354
 7612SOL    HW223736   4.193   1.707   4.441
 7613SOL     OW23737   4.789   1.064   1.761
 7613SOL    HW123738   4.850   1.071   1.682
 7613SOL    HW223739   4.698   1.037   1.730
 7614SOL     OW23740   3.692   1.672   1.586
 7614SOL    HW123741   3.658   1.765   1.603
 7614SOL    HW223742   3.631   1.606   1.630
 7615SOL     OW23743   3.911   5.546   6.557
 7615SOL    HW123744   3.909   5.616   6.486
 7615SOL    HW223745   3.845   5.568   6.629
 7616SOL     OW23746   6.775   4.131   3.415
 7616SOL    HW123747   6.700   4.152   3.352
 7616SOL    HW223748   6.766   4.037   3.448
 7617SOL     OW23749   3.119   5.203   3.372
 7617SOL    HW123750   3.121   5.246   3.462
 7617SOL    HW223751   3.190   5.243   3.314
 7618SOL     OW23752   1.706   2.351   6.594
 7618SOL    HW123753   1.698   2.422   6.524
 7618SOL    HW223754   1.798   2.353   6.633
 7619SOL     OW23755   6.081   3.320   5.509
 7619SOL    HW123756   5.985   3.338   5.488
 7619SOL    HW223757   6.105   3.227   5.481
 7620SOL     OW23758   4.184   6.895   0.655
 7620SOL    HW123759   4.094   6.923   0.622
 7620SOL    HW223760   4.221   6.824   0.596
 7621SOL     OW23761   2.010   1.273   0.961
 7621SOL    HW123762   2.007   1.354   1.018
 7621SOL    HW223763   2.019   1.300   0.865
 7622SOL     OW23764   4.057   3.176   0.940
 7622SOL    HW123765   3.986   3.208   0.876
 7622SOL    HW223766   4.131   3.132   0.889
 7623SOL     OW23767   4.367   6.202   6.352
 7623SOL    HW123768   4.369   6.257   6.435
 7623SOL    HW223769   4.369   6.105   6.376
 7624SOL     OW23770   0.616   1.650   3.156
 7624SOL    HW123771   0.670   1.658   3.241
 7624SOL    HW223772   0.563   1.733   3.142
 7625SOL     OW23773   5.186   0.708   1.182
 7625SOL    HW123774   5.190   0.767   1.101
 7625SOL    HW223775   5.093   0.710   1.219
 7626SOL     OW23776   1.397   6.554   4.845
 7626SOL    HW123777   1.481   6.503   4.860
 7626SOL    HW223778   1.346   6.513   4.769
 7627SOL     OW23779   6.525   3.023   0.893
 7627SOL    HW123780   6.440   3.022   0.946
 7627SOL    HW223781   6.575   3.107   0.911
 7628SOL     OW23782   3.318   1.357   1.140
 7628SOL    HW123783   3.389   1.293   1.170
 7628SOL    HW223784   3.289   1.332   1.047
 7629SOL     OW23785   6.557   6.021   2.613
 7629SOL    HW123786   6.555   6.110   2.659
 7629SOL    HW223787   6.601   5.954   2.672
 7630SOL     OW23788   6.469   0.337   2.241
 7630SOL    HW123789   6.495   0.419   2.291
 7630SOL    HW223790   6.480   0.257   2.299
 7631SOL     OW23791   1.069   1.737   4.874
 7631SOL    HW123792   1.147   1.732   4.937
 7631SOL    HW223793   0.984   1.737   4.926
 7632SOL     OW23794   4.501   2.168   1.214
 7632SOL    HW123795   4.494   2.261   1.178
 7632SOL    HW223796   4.413   2.140   1.252
 7633SOL     OW23797   5.541   3.142   6.484
 7633SOL    HW123798   5.473   3.106   6.548
 7633SOL    HW223799   5.529   3.241   6.476
 7634SOL     OW23800   1.932   0.730   2.368
 7634SOL    HW123801   2.014   0.773   2.407
 7634SOL    HW223802   1.874   0.696   2.441
 7635SOL     OW23803   2.442   5.365   6.196
 7635SOL    HW123804   2.378   5.374   6.120
 7635SOL    HW223805   2.413   5.424   6.272
 7636SOL     OW23806   1.223   1.070   4.081
 7636SOL    HW123807   1.232   1.035   3.989
 7636SOL    HW223808   1.293   1.140   4.098
 7637SOL     OW23809   1.277   0.114   4.166
 7637SOL    HW123810   1.207   0.185   4.169
 7637SOL    HW223811   1.282   0.075   4.074
 7638SOL     OW23812   5.410   5.555   1.965
 7638SOL    HW123813   5.473   5.632   1.957
 7638SOL    HW223814   5.326   5.575   1.914
 7639SOL     OW23815   0.943   1.678   5.559
 7639SOL    HW123816   1.019   1.712   5.615
 7639SOL    HW223817   0.965   1.586   5.525
 7640SOL     OW23818   2.731   2.207   1.221
 7640SOL    HW123819   2.700   2.112   1.222
 7640SOL    HW223820   2.755   2.235   1.314
 7641SOL     OW23821   6.231   4.090   2.214
 7641SOL    HW123822   6.237   4.064   2.310
 7641SOL    HW223823   6.319   4.127   2.184
 7642SOL     OW23824   2.355   1.765   2.507
 7642SOL    HW123825   2.371   1.788   2.411
 7642SOL    HW223826   2.442   1.754   2.554
 7643SOL     OW23827   4.645   2.494   2.761
 7643SOL    HW123828   4.601   2.404   2.760
 7643SOL    HW223829   4.657   2.526   2.667
 7644SOL     OW23830   0.394   2.823   3.412
 7644SOL    HW123831   0.444   2.823   3.325
 7644SOL    HW223832   0.418   2.741   3.465
 7645SOL     OW23833   4.699   4.581   6.905
 7645SOL    HW123834   4.623   4.522   6.877
 7645SOL    HW223835   4.695   4.666   6.854
 7646SOL     OW23836   2.205   2.058   2.185
 7646SOL    HW123837   2.180   2.123   2.114
 7646SOL    HW223838   2.124   2.009   2.216
 7647SOL     OW23839   1.908   3.760   1.489
 7647SOL    HW123840   1.925   3.664   1.465
 7647SOL    HW223841   1.857   3.764   1.574
 7648SOL     OW23842   4.323   1.756   3.850
 7648SOL    HW123843   4.415   1.740   3.817
 7648SOL    HW223844   4.324   1.758   3.950
 7649SOL     OW23845   2.533   0.643   2.151
 7649SOL    HW123846   2.479   0.646   2.236
 7649SOL    HW223847   2.506   0.720   2.093
 7650SOL     OW23848   0.069   3.632   2.075
 7650SOL    HW123849   0.155   3.663   2.116
 7650SOL    HW223850   0.030   3.705   2.020
 7651SOL     OW23851   3.265   0.150   6.977
 7651SOL    HW123852   3.318   0.075   7.016
 7651SOL    HW223853   3.253   0.135   6.880
 7652SOL     OW23854   6.932   3.705   3.424
 7652SOL    HW123855   6.922   3.747   3.334
 7652SOL    HW223856   6.886   3.761   3.493
 7653SOL     OW23857   2.645   1.708   1.446
 7653SOL    HW123858   2.658   1.632   1.382
 7653SOL    HW223859   2.701   1.694   1.527
 7654SOL     OW23860   5.059   2.944   3.853
 7654SOL    HW123861   4.961   2.957   3.862
 7654SOL    HW223862   5.077   2.871   3.787
 7655SOL     OW23863   2.955   6.758   4.480
 7655SOL    HW123864   3.047   6.766   4.517
 7655SOL    HW223865   2.910   6.676   4.517
 7656SOL     OW23866   6.795   6.265   4.945
 7656SOL    HW123867   6.733   6.189   4.967
 7656SOL    HW223868   6.863   6.234   4.879
 7657SOL     OW23869   2.892   2.246   3.682
 7657SOL    HW123870   2.816   2.289   3.730
 7657SOL    HW223871   2.909   2.155   3.720
 7658SOL     OW23872   4.517   0.822   5.940
 7658SOL    HW123873   4.438   0.879   5.960
 7658SOL    HW223874   4.490   0.746   5.882
 7659SOL     OW23875   6.537   6.769   0.469
 7659SOL    HW123876   6.634   6.790   0.486
 7659SOL    HW223877   6.487   6.773   0.555
 7660SOL     OW23878   5.559   5.467   2.603
 7660SOL    HW123879   5.513   5.427   2.524
 7660SOL    HW223880   5.497   5.530   2.649
 7661SOL     OW23881   6.381   2.908   3.944
 7661SOL    HW123882   6.334   2.908   4.032
 7661SOL    HW223883   6.468   2.859   3.952
 7662SOL     OW23884   1.495   3.588   2.230
 7662SOL    HW123885   1.508   3.685   2.210
 7662SOL    HW223886   1.438   3.579   2.312
 7663SOL     OW23887   0.782   5.037   6.222
 7663SOL    HW123888   0.853   4.972   6.249
 7663SOL    HW223889   0.824   5.114   6.173
 7664SOL     OW23890   2.553   6.487   3.543
 7664SOL    HW123891   2.516   6.528   3.627
 7664SOL    HW223892   2.480   6.479   3.475
 7665SOL     OW23893   2.840   0.836   4.496
 7665SOL    HW123894   2.823   0.743   4.529
 7665SOL    HW223895   2.773   0.858   4.426
 7666SOL     OW23896   1.186   0.039   1.285
 7666SOL    HW123897   1.112   0.051   1.351
 7666SOL    HW223898   1.273   0.066   1.326
 7667SOL     OW23899   4.961   6.619   6.945
 7667SOL    HW123900   4.903   6.699   6.959
 7667SOL    HW223901   4.988   6.581   0.013
 7668SOL     OW23902   3.642   4.441   1.184
 7668SOL    HW123903   3.637   4.444   1.084
 7668SOL    HW223904   3.719   4.383   1.212
 7669SOL     OW23905   4.488   0.243   3.827
 7669SOL    HW123906   4.469   0.146   3.811
 7669SOL    HW223907   4.536   0.281   3.748
 7670SOL     OW23908   1.109   5.693   0.335
 7670SOL    HW123909   1.187   5.750   0.360
 7670SOL    HW223910   1.050   5.680   0.415
 7671SOL     OW23911   5.689   1.399   4.511
 7671SOL    HW123912   5.742   1.380   4.594
 7671SOL    HW223913   5.595   1.368   4.524
 7672SOL     OW23914   5.668   0.448   3.958
 7672SOL    HW123915   5.596   0.502   3.915
 7672SOL    HW223916   5.634   0.409   4.043
 7673SOL     OW23917   0.708   4.848   0.962
 7673SOL    HW123918   0.757   4.906   0.896
 7673SOL    HW223919   0.687   4.902   1.043
 7674SOL     OW23920   6.630   1.877   4.520
 7674SOL    HW123921   6.624   1.897   4.618
 7674SOL    HW223922   6.716   1.914   4.484
 7675SOL     OW23923   4.742   0.081   2.141
 7675SOL    HW123924   4.746   0.006   2.074
 7675SOL    HW223925   4.760   0.168   2.095
 7676SOL     OW23926   1.231   0.879   6.664
 7676SOL    HW123927   1.163   0.933   6.615
 7676SOL    HW223928   1.203   0.869   6.760
 7677SOL     OW23929   2.062   3.531   2.556
 7677SOL    HW123930   2.112   3.527   2.469
 7677SOL    HW223931   1.992   3.460   2.557
 7678SOL     OW23932   0.735   0.748   0.439
 7678SOL    HW123933   0.701   0.815   0.373
 7678SOL    HW223934   0.834   0.735   0.424
 7679SOL     OW23935   0.978   5.343   4.742
 7679SOL    HW123936   0.880   5.357   4.728
 7679SOL    HW223937   1.028   5.424   4.713
 7680SOL     OW23938   3.404   3.540   6.957
 7680SOL    HW123939   3.327   3.575   7.010
 7680SOL    HW223940   3.486   3.539   7.014
 7681SOL     OW23941   2.570   1.688   6.982
 7681SOL    HW123942   2.622   1.604   6.965
 7681SOL    HW223943   2.634   1.764   6.995
 7682SOL     OW23944   3.388   0.148   1.652
 7682SOL    HW123945   3.450   0.132   1.729
 7682SOL    HW223946   3.320   0.075   1.649
 7683SOL     OW23947   6.012   1.939   2.948
 7683SOL    HW123948   6.058   2.022   2.980
 7683SOL    HW223949   6.074   1.861   2.953
 7684SOL     OW23950   4.783   1.835   6.086
 7684SOL    HW123951   4.699   1.795   6.125
 7684SOL    HW223952   4.777   1.835   5.986
 7685SOL     OW23953   3.351   3.070   0.879
 7685SOL    HW123954   3.307   3.092   0.792
 7685SOL    HW223955   3.429   3.010   0.863
 7686SOL     OW23956   4.604   6.797   3.794
 7686SOL    HW123957   4.691   6.761   3.761
 7686SOL    HW223958   4.602   6.793   3.894
 7687SOL     OW23959   5.368   5.147   5.689
 7687SOL    HW123960   5.312   5.201   5.752
 7687SOL    HW223961   5.372   5.052   5.721
 7688SOL     OW23962   6.676   6.786   5.144
 7688SOL    HW123963   6.702   6.690   5.132
 7688SOL    HW223964   6.591   6.804   5.095
 7689SOL     OW23965   4.404   6.420   4.645
 7689SOL    HW123966   4.415   6.322   4.661
 7689SOL    HW223967   4.471   6.451   4.578
 7690SOL     OW23968   5.484   4.309   2.945
 7690SOL    HW123969   5.522   4.366   2.872
 7690SOL    HW223970   5.395   4.344   2.972
 7691SOL     OW23971   5.013   2.564   4.050
 7691SOL    HW123972   5.065   2.650   4.056
 7691SOL    HW223973   4.941   2.574   3.982
 7692SOL     OW23974   1.868   6.171   1.978
 7692SOL    HW123975   1.830   6.263   1.995
 7692SOL    HW223976   1.957   6.164   2.021
 7693SOL     OW23977   3.983   1.203   5.974
 7693SOL    HW123978   4.071   1.223   5.929
 7693SOL    HW223979   3.987   1.232   6.069
 7694SOL     OW23980   6.759   4.727   4.388
 7694SOL    HW123981   6.733   4.684   4.475
 7694SOL    HW223982   6.826   4.800   4.405
 7695SOL     OW23983   4.486   6.984   0.848
 7695SOL    HW123984   4.418   6.928   0.895
 7695SOL    HW223985   4.440   0.039   0.799
 7696SOL     OW23986   0.163   2.082   4.490
 7696SOL    HW123987   0.104   2.004   4.466
 7696SOL    HW223988   0.140   2.160   4.431
 7697SOL     OW23989   2.313   1.603   3.375
 7697SOL    HW123990   2.399   1.562   3.406
 7697SOL    HW223991   2.290   1.682   3.433
 7698SOL     OW23992   6.823   2.684   4.593
 7698SOL    HW123993   6.744   2.660   4.650
 7698SOL    HW223994   6.879   2.751   4.640
 7699SOL     OW23995   2.603   6.079   0.980
 7699SOL    HW123996   2.561   6.064   1.069
 7699SOL    HW223997   2.699   6.053   0.984
 7700SOL     OW23998   4.783   6.854   5.082
 7700SOL    HW123999   4.773   6.899   4.993
 7700SOL    HW224000   4.697   6.809   5.106
 7701SOL     OW24001   0.226   1.032   5.033
 7701SOL    HW124002   0.249   1.032   5.130
 7701SOL    HW224003   0.130   1.060   5.022
 7702SOL     OW24004   3.246   6.013   5.764
 7702SOL    HW124005   3.175   6.084   5.771
 7702SOL    HW224006   3.336   6.057   5.762
 7703SOL     OW24007   0.336   1.450   5.699
 7703SOL    HW124008   0.243   1.467   5.732
 7703SOL    HW224009   0.335   1.435   5.600
 7704SOL     OW24010   4.453   4.504   6.792
 7704SOL    HW124011   4.422   4.481   6.700
 7704SOL    HW224012   4.394   4.458   6.859
 7705SOL     OW24013   3.943   5.124   5.203
 7705SOL    HW124014   3.868   5.123   5.137
 7705SOL    HW224015   4.001   5.204   5.187
 7706SOL     OW24016   6.347   0.212   5.327
 7706SOL    HW124017   6.397   0.271   5.391
 7706SOL    HW224018   6.375   0.117   5.342
 7707SOL     OW24019   6.792   5.531   6.202
 7707SOL    HW124020   6.729   5.457   6.229
 7707SOL    HW224021   6.837   5.567   6.283
 7708SOL     OW24022   4.605   6.276   4.371
 7708SOL    HW124023   4.605   6.248   4.275
 7708SOL    HW224024   4.576   6.372   4.378
 7709SOL     OW24025   4.767   2.818   1.724
 7709SOL    HW124026   4.667   2.821   1.728
 7709SOL    HW224027   4.804   2.801   1.815
 7710SOL     OW24028   3.152   0.110   0.754
 7710SOL    HW124029   3.062   0.093   0.715
 7710SOL    HW224030   3.143   0.162   0.839
 7711SOL     OW24031   5.797   6.364   5.565
 7711SOL    HW124032   5.759   6.453   5.540
 7711SOL    HW224033   5.724   6.302   5.592
 7712SOL     OW24034   5.991   5.038   1.140
 7712SOL    HW124035   6.056   4.969   1.110
 7712SOL    HW224036   6.039   5.124   1.155
 7713SOL     OW24037   1.841   4.273   6.506
 7713SOL    HW124038   1.754   4.231   6.530
 7713SOL    HW224039   1.838   4.308   6.412
 7714SOL     OW24040   6.115   4.361   4.077
 7714SOL    HW124041   6.134   4.419   3.998
 7714SOL    HW224042   6.176   4.386   4.152
 7715SOL     OW24043   5.434   0.521   1.444
 7715SOL    HW124044   5.446   0.615   1.412
 7715SOL    HW224045   5.338   0.494   1.433
 7716SOL     OW24046   4.913   2.557   2.541
 7716SOL    HW124047   4.863   2.488   2.490
 7716SOL    HW224048   4.849   2.626   2.575
 7717SOL     OW24049   2.791   1.464   5.223
 7717SOL    HW124050   2.884   1.460   5.260
 7717SOL    HW224051   2.794   1.501   5.130
 7718SOL     OW24052   2.623   1.084   3.384
 7718SOL    HW124053   2.611   1.002   3.328
 7718SOL    HW224054   2.721   1.101   3.397
 7719SOL     OW24055   6.915   2.208   4.260
 7719SOL    HW124056   6.846   2.218   4.189
 7719SOL    HW224057   6.942   2.298   4.294
 7720SOL     OW24058   6.310   6.368   0.980
 7720SOL    HW124059   6.380   6.378   0.909
 7720SOL    HW224060   6.353   6.367   1.070
 7721SOL     OW24061   2.510   4.459   3.474
 7721SOL    HW124062   2.478   4.441   3.381
 7721SOL    HW224063   2.501   4.377   3.529
 7722SOL     OW24064   6.062   4.581   3.359
 7722SOL    HW124065   6.108   4.512   3.415
 7722SOL    HW224066   5.973   4.547   3.329
 7723SOL     OW24067   0.143   3.023   0.492
 7723SOL    HW124068   0.107   3.111   0.522
 7723SOL    HW224069   0.146   2.960   0.569
 7724SOL     OW24070   1.223   4.322   0.959
 7724SOL    HW124071   1.146   4.336   1.021
 7724SOL    HW224072   1.193   4.336   0.865
 7725SOL     OW24073   5.796   2.591   3.461
 7725SOL    HW124074   5.760   2.683   3.448
 7725SOL    HW224075   5.731   2.524   3.424
 7726SOL     OW24076   0.865   4.378   2.754
 7726SOL    HW124077   0.846   4.391   2.851
 7726SOL    HW224078   0.802   4.309   2.717
 7727SOL     OW24079   6.333   2.793   3.697
 7727SOL    HW124080   6.353   2.851   3.776
 7727SOL    HW224081   6.237   2.766   3.698
 7728SOL     OW24082   1.711   3.188   2.887
 7728SOL    HW124083   1.659   3.223   2.965
 7728SOL    HW224084   1.774   3.117   2.918
 7729SOL     OW24085   5.154   2.276   1.016
 7729SOL    HW124086   5.215   2.217   1.069
 7729SOL    HW224087   5.137   2.360   1.067
 7730SOL     OW24088   4.748   6.673   2.891
 7730SOL    HW124089   4.792   6.756   2.856
 7730SOL    HW224090   4.736   6.607   2.816
 7731SOL     OW24091   6.074   1.137   0.213
 7731SOL    HW124092   6.133   1.143   0.132
 7731SOL    HW224093   6.129   1.145   0.296
 7732SOL     OW24094   4.492   5.839   0.455
 7732SOL    HW124095   4.513   5.746   0.427
 7732SOL    HW224096   4.467   5.841   0.552
 7733SOL     OW24097   3.630   0.511   1.696
 7733SOL    HW124098   3.611   0.519   1.599
 7733SOL    HW224099   3.640   0.602   1.736
 7734SOL     OW24100   1.149   2.802   3.751
 7734SOL    HW124101   1.242   2.781   3.722
 7734SOL    HW224102   1.107   2.720   3.789
 7735SOL     OW24103   5.368   4.257   6.498
 7735SOL    HW124104   5.331   4.347   6.523
 7735SOL    HW224105   5.371   4.199   6.579
 7736SOL     OW24106   5.342   4.101   6.764
 7736SOL    HW124107   5.256   4.052   6.748
 7736SOL    HW224108   5.341   4.141   6.855
 7737SOL     OW24109   4.493   1.951   0.414
 7737SOL    HW124110   4.462   1.856   0.426
 7737SOL    HW224111   4.418   2.013   0.439
 7738SOL     OW24112   2.950   5.707   0.330
 7738SOL    HW124113   3.038   5.752   0.313
 7738SOL    HW224114   2.938   5.634   0.263
 7739SOL     OW24115   0.775   2.389   1.231
 7739SOL    HW124116   0.842   2.443   1.179
 7739SOL    HW224117   0.687   2.436   1.231
 7740SOL     OW24118   0.333   0.020   2.560
 7740SOL    HW124119   0.288   7.004   2.643
 7740SOL    HW224120   0.415   0.070   2.586
 7741SOL     OW24121   1.610   5.997   4.062
 7741SOL    HW124122   1.585   6.039   3.975
 7741SOL    HW224123   1.697   5.949   4.053
 7742SOL     OW24124   6.216   2.004   3.279
 7742SOL    HW124125   6.182   1.925   3.229
 7742SOL    HW224126   6.260   1.973   3.363
 7743SOL     OW24127   4.662   2.789   5.273
 7743SOL    HW124128   4.714   2.836   5.202
 7743SOL    HW224129   4.573   2.834   5.284
 7744SOL     OW24130   6.158   6.993   3.735
 7744SOL    HW124131   6.090   6.938   3.783
 7744SOL    HW224132   6.197   0.041   3.798
 7745SOL     OW24133   3.562   2.614   5.962
 7745SOL    HW124134   3.659   2.592   5.944
 7745SOL    HW224135   3.554   2.708   5.994
 7746SOL     OW24136   1.829   0.354   0.260
 7746SOL    HW124137   1.889   0.365   0.180
 7746SOL    HW224138   1.763   0.282   0.242
 7747SOL     OW24139   5.275   6.064   1.001
 7747SOL    HW124140   5.187   6.112   1.005
 7747SOL    HW224141   5.271   5.993   0.930
 7748SOL     OW24142   2.581   4.182   6.418
 7748SOL    HW124143   2.508   4.115   6.405
 7748SOL    HW224144   2.605   4.222   6.330
 7749SOL     OW24145   5.061   3.026   5.441
 7749SOL    HW124146   5.126   3.102   5.432
 7749SOL    HW224147   4.981   3.057   5.492
 7750SOL     OW24148   0.319   5.762   1.882
 7750SOL    HW124149   0.236   5.799   1.841
 7750SOL    HW224150   0.305   5.751   1.981
 7751SOL     OW24151   0.704   2.443   1.740
 7751SOL    HW124152   0.726   2.346   1.728
 7751SOL    HW224153   0.744   2.495   1.665
 7752SOL     OW24154   4.741   1.155   4.775
 7752SOL    HW124155   4.804   1.189   4.705
 7752SOL    HW224156   4.738   1.056   4.772
 7753SOL     OW24157   2.479   1.353   5.505
 7753SOL    HW124158   2.518   1.267   5.537
 7753SOL    HW224159   2.437   1.340   5.416
 7754SOL     OW24160   4.317   6.120   1.924
 7754SOL    HW124161   4.380   6.049   1.956
 7754SOL    HW224162   4.364   6.179   1.858
 7755SOL     OW24163   1.524   4.371   6.109
 7755SOL    HW124164   1.468   4.288   6.095
 7755SOL    HW224165   1.576   4.390   6.025
 7756SOL     OW24166   3.013   6.258   1.573
 7756SOL    HW124167   3.059   6.181   1.528
 7756SOL    HW224168   2.925   6.227   1.609
 7757SOL     OW24169   0.233   4.415   2.852
 7757SOL    HW124170   0.276   4.360   2.924
 7757SOL    HW224171   0.250   4.372   2.763
 7758SOL     OW24172   1.681   0.500   5.486
 7758SOL    HW124173   1.599   0.536   5.530
 7758SOL    HW224174   1.758   0.562   5.504
 7759SOL     OW24175   3.536   2.155   6.472
 7759SOL    HW124176   3.596   2.180   6.395
 7759SOL    HW224177   3.570   2.072   6.515
 7760SOL     OW24178   4.570   3.233   1.305
 7760SOL    HW124179   4.611   3.145   1.331
 7760SOL    HW224180   4.614   3.307   1.355
 7761SOL     OW24181   4.610   5.812   4.504
 7761SOL    HW124182   4.524   5.845   4.465
 7761SOL    HW224183   4.598   5.792   4.601
 7762SOL     OW24184   6.650   0.494   3.080
 7762SOL    HW124185   6.601   0.581   3.088
 7762SOL    HW224186   6.739   0.509   3.039
 7763SOL     OW24187   2.534   6.927   4.801
 7763SOL    HW124188   2.501   6.841   4.761
 7763SOL    HW224189   2.623   6.912   4.842
 7764SOL     OW24190   3.035   3.979   5.518
 7764SOL    HW124191   2.996   3.896   5.479
 7764SOL    HW224192   3.104   4.016   5.455
 7765SOL     OW24193   6.714   3.034   4.479
 7765SOL    HW124194   6.813   3.025   4.468
 7765SOL    HW224195   6.669   2.952   4.443
 7766SOL     OW24196   0.050   4.290   6.343
 7766SOL    HW124197   6.998   4.269   6.409
 7766SOL    HW224198   0.078   4.205   6.297
 7767SOL     OW24199   2.681   0.929   3.058
 7767SOL    HW124200   2.733   0.887   2.984
 7767SOL    HW224201   2.743   0.957   3.131
 7768SOL     OW24202   4.599   5.133   2.783
 7768SOL    HW124203   4.591   5.037   2.756
 7768SOL    HW224204   4.513   5.165   2.823
 7769SOL     OW24205   3.432   2.425   5.385
 7769SOL    HW124206   3.362   2.425   5.314
 7769SOL    HW224207   3.400   2.372   5.463
 7770SOL     OW24208   1.776   3.234   4.835
 7770SOL    HW124209   1.760   3.150   4.886
 7770SOL    HW224210   1.790   3.212   4.739
 7771SOL     OW24211   2.830   2.142   6.338
 7771SOL    HW124212   2.895   2.090   6.282
 7771SOL    HW224213   2.844   2.240   6.324
 7772SOL     OW24214   5.337   0.096   1.607
 7772SOL    HW124215   5.307   0.001   1.616
 7772SOL    HW224216   5.273   0.156   1.655
 7773SOL     OW24217   3.516   6.167   0.155
 7773SOL    HW124218   3.477   6.223   0.082
 7773SOL    HW224219   3.514   6.071   0.128
 7774SOL     OW24220   4.482   1.761   2.551
 7774SOL    HW124221   4.410   1.829   2.544
 7774SOL    HW224222   4.517   1.757   2.645
 7775SOL     OW24223   3.460   0.723   6.972
 7775SOL    HW124224   3.497   0.716   6.879
 7775SOL    HW224225   3.527   0.687   0.018
 7776SOL     OW24226   1.666   1.174   4.879
 7776SOL    HW124227   1.615   1.202   4.797
 7776SOL    HW224228   1.760   1.209   4.872
 7777SOL     OW24229   4.943   5.298   3.508
 7777SOL    HW124230   5.023   5.322   3.563
 7777SOL    HW224231   4.945   5.350   3.422
 7778SOL     OW24232   5.565   4.718   3.075
 7778SOL    HW124233   5.484   4.668   3.044
 7778SOL    HW224234   5.619   4.746   2.995
 7779SOL     OW24235   3.598   5.638   2.451
 7779SOL    HW124236   3.572   5.692   2.371
 7779SOL    HW224237   3.674   5.683   2.498
 7780SOL     OW24238   5.603   5.795   4.688
 7780SOL    HW124239   5.655   5.760   4.767
 7780SOL    HW224240   5.507   5.800   4.712
 7781SOL     OW24241   1.933   2.485   0.420
 7781SOL    HW124242   1.923   2.386   0.413
 7781SOL    HW224243   1.893   2.516   0.506
 7782SOL     OW24244   5.542   4.102   3.468
 7782SOL    HW124245   5.600   4.160   3.411
 7782SOL    HW224246   5.471   4.157   3.512
 7783SOL     OW24247   1.023   0.753   5.336
 7783SOL    HW124248   0.982   0.691   5.269
 7783SOL    HW224249   0.981   0.737   5.426
 7784SOL     OW24250   2.243   2.824   2.783
 7784SOL    HW124251   2.319   2.766   2.811
 7784SOL    HW224252   2.269   2.877   2.702
 7785SOL     OW24253   0.619   6.440   2.616
 7785SOL    HW124254   0.535   6.430   2.563
 7785SOL    HW224255   0.639   6.355   2.664
 7786SOL     OW24256   4.398   0.323   6.018
 7786SOL    HW124257   4.404   0.224   6.004
 7786SOL    HW224258   4.333   0.362   5.952
 7787SOL     OW24259   2.767   2.661   1.329
 7787SOL    HW124260   2.718   2.595   1.272
 7787SOL    HW224261   2.854   2.685   1.287
 7788SOL     OW24262   0.372   4.234   1.517
 7788SOL    HW124263   0.318   4.317   1.528
 7788SOL    HW224264   0.340   4.183   1.437
 7789SOL     OW24265   3.914   1.312   6.273
 7789SOL    HW124266   3.907   1.212   6.278
 7789SOL    HW224267   3.937   1.348   6.364
 7790SOL     OW24268   4.980   4.515   1.828
 7790SOL    HW124269   4.896   4.569   1.819
 7790SOL    HW224270   4.983   4.445   1.757
 7791SOL     OW24271   2.715   5.114   2.659
 7791SOL    HW124272   2.784   5.120   2.587
 7791SOL    HW224273   2.755   5.070   2.740
 7792SOL     OW24274   1.318   1.636   2.378
 7792SOL    HW124275   1.369   1.722   2.371
 7792SOL    HW224276   1.374   1.569   2.428
 7793SOL     OW24277   4.910   0.746   6.283
 7793SOL    HW124278   4.815   0.733   6.311
 7793SOL    HW224279   4.957   0.806   6.348
 7794SOL     OW24280   0.503   6.421   3.433
 7794SOL    HW124281   0.506   6.512   3.393
 7794SOL    HW224282   0.466   6.426   3.526
 7795SOL     OW24283   3.278   6.116   6.371
 7795SOL    HW124284   3.192   6.127   6.321
 7795SOL    HW224285   3.300   6.019   6.381
 7796SOL     OW24286   3.934   3.553   6.167
 7796SOL    HW124287   3.878   3.528   6.088
 7796SOL    HW224288   3.876   3.569   6.246
 7797SOL     OW24289   1.049   6.664   2.930
 7797SOL    HW124290   1.094   6.695   3.014
 7797SOL    HW224291   1.019   6.569   2.942
 7798SOL     OW24292   1.039   3.023   0.672
 7798SOL    HW124293   1.069   3.113   0.640
 7798SOL    HW224294   1.046   3.020   0.772
 7799SOL     OW24295   2.286   5.778   3.943
 7799SOL    HW124296   2.221   5.703   3.932
 7799SOL    HW224297   2.295   5.827   3.856
 7800SOL     OW24298   0.381   6.442   1.723
 7800SOL    HW124299   0.418   6.352   1.749
 7800SOL    HW224300   0.319   6.474   1.794
 7801SOL     OW24301   2.146   2.428   2.313
 7801SOL    HW124302   2.176   2.517   2.348
 7801SOL    HW224303   2.170   2.357   2.379
 7802SOL     OW24304   0.154   3.647   4.481
 7802SOL    HW124305   0.071   3.608   4.520
 7802SOL    HW224306   0.133   3.733   4.436
 7803SOL     OW24307   4.176   2.649   5.627
 7803SOL    HW124308   4.142   2.568   5.578
 7803SOL    HW224309   4.105   2.719   5.631
 7804SOL     OW24310   3.007   1.808   5.286
 7804SOL    HW124311   3.073   1.873   5.322
 7804SOL    HW224312   3.039   1.773   5.197
 7805SOL     OW24313   5.979   3.082   0.493
 7805SOL    HW124314   5.906   3.017   0.472
 7805SOL    HW224315   5.953   3.174   0.462
 7806SOL     OW24316   6.986   2.518   5.523
 7806SOL    HW124317   0.026   2.455   5.572
 7806SOL    HW224318   0.007   2.610   5.522
 7807SOL     OW24319   2.631   4.824   6.222
 7807SOL    HW124320   2.644   4.726   6.205
 7807SOL    HW224321   2.625   4.872   6.135
 7808SOL     OW24322   4.916   3.579   3.228
 7808SOL    HW124323   4.879   3.659   3.276
 7808SOL    HW224324   4.996   3.545   3.277
 7809SOL     OW24325   4.227   5.160   3.292
 7809SOL    HW124326   4.210   5.200   3.382
 7809SOL    HW224327   4.320   5.124   3.289
 7810SOL     OW24328   3.805   6.605   5.258
 7810SOL    HW124329   3.875   6.541   5.227
 7810SOL    HW224330   3.846   6.693   5.279
 7811SOL     OW24331   1.446   5.830   2.967
 7811SOL    HW124332   1.379   5.791   2.904
 7811SOL    HW224333   1.398   5.868   3.046
 7812SOL     OW24334   3.251   2.093   6.355
 7812SOL    HW124335   3.185   2.033   6.310
 7812SOL    HW224336   3.324   2.039   6.395
 7813SOL     OW24337   5.447   0.984   0.772
 7813SOL    HW124338   5.540   1.007   0.800
 7813SOL    HW224339   5.447   0.953   0.677
 7814SOL     OW24340   6.933   3.167   2.028
 7814SOL    HW124341   7.002   3.112   2.076
 7814SOL    HW224342   6.966   3.261   2.020
 7815SOL     OW24343   5.818   3.453   5.212
 7815SOL    HW124344   5.811   3.547   5.180
 7815SOL    HW224345   5.891   3.406   5.162
 7816SOL     OW24346   0.849   1.232   5.220
 7816SOL    HW124347   0.824   1.162   5.287
 7816SOL    HW224348   0.928   1.284   5.254
 7817SOL     OW24349   3.319   3.204   6.283
 7817SOL    HW124350   3.306   3.216   6.184
 7817SOL    HW224351   3.297   3.109   6.307
 7818SOL     OW24352   5.595   1.050   2.248
 7818SOL    HW124353   5.664   1.115   2.217
 7818SOL    HW224354   5.636   0.985   2.312
 7819SOL     OW24355   1.412   4.156   3.738
 7819SOL    HW124356   1.447   4.132   3.647
 7819SOL    HW224357   1.489   4.160   3.803
 7820SOL     OW24358   1.709   6.770   6.155
 7820SOL    HW124359   1.785   6.705   6.164
 7820SOL    HW224360   1.741   6.852   6.109
 7821SOL     OW24361   5.445   5.513   6.239
 7821SOL    HW124362   5.496   5.596   6.261
 7821SOL    HW224363   5.469   5.441   6.305
 7822SOL     OW24364   1.443   1.211   4.688
 7822SOL    HW124365   1.381   1.283   4.656
 7822SOL    HW224366   1.401   1.162   4.764
 7823SOL     OW24367   1.410   3.598   6.271
 7823SOL    HW124368   1.487   3.535   6.261
 7823SOL    HW224369   1.325   3.547   6.283
 7824SOL     OW24370   5.260   2.617   3.133
 7824SOL    HW124371   5.230   2.619   3.228
 7824SOL    HW224372   5.224   2.698   3.085
 7825SOL     OW24373   3.567   3.267   2.426
 7825SOL    HW124374   3.546   3.231   2.335
 7825SOL    HW224375   3.484   3.302   2.468
 7826SOL     OW24376   6.867   0.637   0.781
 7826SOL    HW124377   6.925   0.557   0.766
 7826SOL    HW224378   6.791   0.612   0.841
 7827SOL     OW24379   5.451   4.774   2.023
 7827SOL    HW124380   5.537   4.770   1.973
 7827SOL    HW224381   5.455   4.711   2.100
 7828SOL     OW24382   0.732   6.796   0.637
 7828SOL    HW124383   0.814   6.800   0.695
 7828SOL    HW224384   0.658   6.847   0.681
 7829SOL     OW24385   3.972   2.818   1.689
 7829SOL    HW124386   3.924   2.734   1.662
 7829SOL    HW224387   3.905   2.884   1.725
 7830SOL     OW24388   6.361   2.603   6.790
 7830SOL    HW124389   6.421   2.628   6.866
 7830SOL    HW224390   6.392   2.650   6.707
 7831SOL     OW24391   1.431   3.047   0.200
 7831SOL    HW124392   1.446   3.083   0.292
 7831SOL    HW224393   1.334   3.054   0.176
 7832SOL     OW24394   2.521   2.230   5.626
 7832SOL    HW124395   2.426   2.200   5.633
 7832SOL    HW224396   2.580   2.151   5.615
 7833SOL     OW24397   0.214   6.820   0.052
 7833SOL    HW124398   0.219   6.840   6.974
 7833SOL    HW224399   0.219   6.905   0.104
 7834SOL     OW24400   0.782   0.315   1.282
 7834SOL    HW124401   0.832   0.381   1.337
 7834SOL    HW224402   0.687   0.311   1.313
 7835SOL     OW24403   2.184   2.748   4.884
 7835SOL    HW124404   2.162   2.844   4.869
 7835SOL    HW224405   2.275   2.740   4.924
 7836SOL     OW24406   2.100   6.356   0.589
 7836SOL    HW124407   2.027   6.347   0.522
 7836SOL    HW224408   2.153   6.439   0.569
 7837SOL     OW24409   6.013   7.005   3.115
 7837SOL    HW124410   6.057   6.937   3.173
 7837SOL    HW224411   5.975   6.961   3.034
 7838SOL     OW24412   3.490   0.226   4.243
 7838SOL    HW124413   3.518   0.322   4.237
 7838SOL    HW224414   3.563   0.172   4.285
 7839SOL     OW24415   6.427   4.831   4.514
 7839SOL    HW124416   6.405   4.769   4.589
 7839SOL    HW224417   6.506   4.887   4.539
 7840SOL     OW24418   5.679   2.951   4.695
 7840SOL    HW124419   5.666   2.968   4.597
 7840SOL    HW224420   5.601   2.900   4.730
 7841SOL     OW24421   0.828   1.962   6.282
 7841SOL    HW124422   0.849   1.971   6.185
 7841SOL    HW224423   0.736   1.995   6.300
 7842SOL     OW24424   2.745   0.627   2.916
 7842SOL    HW124425   2.774   0.705   2.860
 7842SOL    HW224426   2.826   0.583   2.955
 7843SOL     OW24427   5.473   3.660   0.660
 7843SOL    HW124428   5.400   3.593   0.675
 7843SOL    HW224429   5.457   3.741   0.716
 7844SOL     OW24430   4.188   0.933   3.574
 7844SOL    HW124431   4.095   0.971   3.577
 7844SOL    HW224432   4.234   0.953   3.661
 7845SOL     OW24433   6.505   1.566   4.146
 7845SOL    HW124434   6.407   1.576   4.164
 7845SOL    HW224435   6.537   1.479   4.183
 7846SOL     OW24436   2.931   6.818   2.339
 7846SOL    HW124437   3.003   6.845   2.275
 7846SOL    HW224438   2.900   6.898   2.390
 7847SOL     OW24439   6.882   0.710   0.515
 7847SOL    HW124440   6.880   0.667   0.605
 7847SOL    HW224441   6.796   0.758   0.499
 7848SOL     OW24442   4.889   3.910   1.800
 7848SOL    HW124443   4.933   3.828   1.836
 7848SOL    HW224444   4.863   3.970   1.876
 7849SOL     OW24445   6.356   3.646   4.946
 7849SOL    HW124446   6.371   3.592   5.028
 7849SOL    HW224447   6.425   3.719   4.941
 7850SOL     OW24448   1.384   0.894   4.879
 7850SOL    HW124449   1.462   0.936   4.925
 7850SOL    HW224450   1.301   0.910   4.932
 7851SOL     OW24451   5.399   6.545   6.931
 7851SOL    HW124452   5.307   6.553   6.892
 7851SOL    HW224453   5.465   6.531   6.857
 7852SOL     OW24454   2.571   6.158   0.222
 7852SOL    HW124455   2.621   6.233   0.266
 7852SOL    HW224456   2.478   6.156   0.258
 7853SOL     OW24457   2.712   3.198   0.309
 7853SOL    HW124458   2.640   3.248   0.357
 7853SOL    HW224459   2.696   3.203   0.211
 7854SOL     OW24460   3.650   3.939   2.500
 7854SOL    HW124461   3.573   3.914   2.558
 7854SOL    HW224462   3.624   3.933   2.404
 7855SOL     OW24463   4.323   6.018   5.944
 7855SOL    HW124464   4.349   6.098   5.999
 7855SOL    HW224465   4.386   5.943   5.963
 7856SOL     OW24466   5.308   3.318   5.909
 7856SOL    HW124467   5.359   3.278   5.985
 7856SOL    HW224468   5.226   3.363   5.945
 7857SOL     OW24469   6.886   1.724   5.836
 7857SOL    HW124470   6.794   1.706   5.800
 7857SOL    HW224471   6.879   1.755   5.931
 7858SOL     OW24472   6.260   3.930   2.815
 7858SOL    HW124473   6.161   3.937   2.804
 7858SOL    HW224474   6.281   3.866   2.889
 7859SOL     OW24475   1.193   5.309   6.931
 7859SOL    HW124476   1.178   5.350   0.001
 7859SOL    HW224477   1.191   5.210   6.938
 7860SOL     OW24478   4.166   6.841   2.215
 7860SOL    HW124479   4.264   6.835   2.195
 7860SOL    HW224480   4.124   6.751   2.205
 7861SOL     OW24481   5.321   4.529   0.462
 7861SOL    HW124482   5.274   4.454   0.416
 7861SOL    HW224483   5.321   4.513   0.561
 7862SOL     OW24484   3.056   4.485   1.598
 7862SOL    HW124485   3.143   4.449   1.630
 7862SOL    HW224486   2.984   4.462   1.664
 7863SOL     OW24487   6.562   5.577   2.013
 7863SOL    HW124488   6.612   5.571   1.927
 7863SOL    HW224489   6.465   5.558   1.998
 7864SOL     OW24490   0.558   5.177   4.842
 7864SOL    HW124491   0.570   5.190   4.743
 7864SOL    HW224492   0.620   5.107   4.874
 7865SOL     OW24493   3.132   0.126   3.349
 7865SOL    HW124494   3.061   0.121   3.279
 7865SOL    HW224495   3.221   0.106   3.308
 7866SOL     OW24496   2.476   2.069   4.347
 7866SOL    HW124497   2.387   2.100   4.380
 7866SOL    HW224498   2.544   2.078   4.420
 7867SOL     OW24499   6.184   4.445   1.926
 7867SOL    HW124500   6.225   4.516   1.869
 7867SOL    HW224501   6.160   4.367   1.869
 7868SOL     OW24502   5.260   6.423   0.713
 7868SOL    HW124503   5.260   6.439   0.614
 7868SOL    HW224504   5.208   6.496   0.758
 7869SOL     OW24505   0.804   3.403   1.937
 7869SOL    HW124506   0.706   3.421   1.946
 7869SOL    HW224507   0.841   3.456   1.861
 7870SOL     OW24508   6.847   5.546   3.864
 7870SOL    HW124509   6.821   5.462   3.816
 7870SOL    HW224510   6.848   5.622   3.799
 7871SOL     OW24511   4.894   3.075   3.194
 7871SOL    HW124512   4.858   3.168   3.179
 7871SOL    HW224513   4.850   3.013   3.130
 7872SOL     OW24514   0.187   2.906   3.070
 7872SOL    HW124515   0.115   2.940   3.009
 7872SOL    HW224516   0.200   2.971   3.145
 7873SOL     OW24517   0.290   5.267   5.267
 7873SOL    HW124518   0.381   5.286   5.229
 7873SOL    HW224519   0.298   5.246   5.364
 7874SOL     OW24520   5.857   1.416   0.721
 7874SOL    HW124521   5.859   1.345   0.650
 7874SOL    HW224522   5.950   1.446   0.741
 7875SOL     OW24523   4.193   3.273   6.388
 7875SOL    HW124524   4.216   3.357   6.437
 7875SOL    HW224525   4.136   3.296   6.309
 7876SOL     OW24526   6.456   0.086   3.635
 7876SOL    HW124527   6.449   0.023   3.558
 7876SOL    HW224528   6.480   0.035   3.718
 7877SOL     OW24529   6.892   1.967   2.428
 7877SOL    HW124530   6.797   1.948   2.403
 7877SOL    HW224531   6.935   2.022   2.355
 7878SOL     OW24532   4.952   3.607   2.338
 7878SOL    HW124533   5.050   3.589   2.348
 7878SOL    HW224534   4.927   3.601   2.241
 7879SOL     OW24535   5.390   0.080   3.871
 7879SOL    HW124536   5.297   0.080   3.832
 7879SOL    HW224537   5.407   0.167   3.916
 7880SOL     OW24538   0.382   0.230   6.546
 7880SOL    HW124539   0.307   0.164   6.552
 7880SOL    HW224540   0.461   0.186   6.504
 7881SOL     OW24541   0.217   4.572   4.484
 7881SOL    HW124542   0.311   4.539   4.482
 7881SOL    HW224543   0.192   4.594   4.579
 7882SOL     OW24544   6.586   3.922   3.215
 7882SOL    HW124545   6.564   4.019   3.219
 7882SOL    HW224546   6.662   3.908   3.152
 7883SOL     OW24547   3.058   1.999   3.370
 7883SOL    HW124548   3.073   1.941   3.450
 7883SOL    HW224549   2.979   1.966   3.319
 7884SOL     OW24550   0.521   4.262   4.569
 7884SOL    HW124551   0.606   4.222   4.533
 7884SOL    HW224552   0.526   4.266   4.669
 7885SOL     OW24553   5.984   5.520   3.010
 7885SOL    HW124554   6.048   5.458   3.055
 7885SOL    HW224555   5.906   5.467   2.974
 7886SOL     OW24556   4.750   2.820   2.419
 7886SOL    HW124557   4.774   2.756   2.346
 7886SOL    HW224558   4.769   2.914   2.388
 7887SOL     OW24559   2.932   3.520   0.597
 7887SOL    HW124560   2.964   3.566   0.680
 7887SOL    HW224561   2.988   3.548   0.519
 7888SOL     OW24562   5.486   1.864   4.198
 7888SOL    HW124563   5.514   1.785   4.145
 7888SOL    HW224564   5.537   1.945   4.167
 7889SOL     OW24565   6.007   4.945   0.779
 7889SOL    HW124566   6.036   4.910   0.690
 7889SOL    HW224567   6.065   4.907   0.850
 7890SOL     OW24568   1.047   3.880   4.402
 7890SOL    HW124569   1.074   3.784   4.414
 7890SOL    HW224570   1.129   3.938   4.402
 7891SOL     OW24571   0.813   1.957   4.278
 7891SOL    HW124572   0.816   1.889   4.351
 7891SOL    HW224573   0.749   2.030   4.301
 7892SOL     OW24574   0.842   2.564   5.777
 7892SOL    HW124575   0.880   2.643   5.730
 7892SOL    HW224576   0.798   2.503   5.711
 7893SOL     OW24577   5.994   0.890   0.906
 7893SOL    HW124578   5.931   0.931   0.971
 7893SOL    HW224579   5.989   0.939   0.819
 7894SOL     OW24580   2.949   1.369   6.501
 7894SOL    HW124581   2.912   1.462   6.500
 7894SOL    HW224582   2.926   1.323   6.416
 7895SOL     OW24583   4.022   6.330   3.586
 7895SOL    HW124584   4.024   6.276   3.670
 7895SOL    HW224585   4.061   6.276   3.511
 7896SOL     OW24586   3.355   2.155   1.154
 7896SOL    HW124587   3.329   2.233   1.097
 7896SOL    HW224588   3.303   2.074   1.126
 7897SOL     OW24589   3.949   4.276   0.097
 7897SOL    HW124590   4.009   4.276   0.177
 7897SOL    HW224591   3.960   4.189   0.048
 7898SOL     OW24592   5.702   0.318   4.473
 7898SOL    HW124593   5.742   0.342   4.384
 7898SOL    HW224594   5.698   0.218   4.482
 7899SOL     OW24595   5.474   4.455   1.983
 7899SOL    HW124596   5.426   4.439   1.897
 7899SOL    HW224597   5.517   4.371   2.013
 7900SOL     OW24598   0.763   3.658   6.902
 7900SOL    HW124599   0.787   3.668   6.998
 7900SOL    HW224600   0.743   3.563   6.882
 7901SOL     OW24601   5.905   1.659   6.090
 7901SOL    HW124602   5.809   1.686   6.102
 7901SOL    HW224603   5.912   1.559   6.091
 7902SOL     OW24604   0.455   6.575   2.799
 7902SOL    HW124605   0.364   6.575   2.758
 7902SOL    HW224606   0.519   6.526   2.739
 7903SOL     OW24607   2.442   2.123   4.930
 7903SOL    HW124608   2.413   2.195   4.993
 7903SOL    HW224609   2.492   2.053   4.981
 7904SOL     OW24610   5.352   0.760   1.725
 7904SOL    HW124611   5.347   0.666   1.691
 7904SOL    HW224612   5.305   0.821   1.661
 7905SOL     OW24613   5.611   0.288   0.441
 7905SOL    HW124614   5.653   0.204   0.406
 7905SOL    HW224615   5.541   0.264   0.508
 7906SOL     OW24616   1.558   5.569   0.950
 7906SOL    HW124617   1.502   5.641   0.911
 7906SOL    HW224618   1.511   5.528   1.028
 7907SOL     OW24619   6.156   0.594   3.069
 7907SOL    HW124620   6.237   0.548   3.033
 7907SOL    HW224621   6.073   0.552   3.032
 7908SOL     OW24622   0.022   0.855   0.074
 7908SOL    HW124623   0.035   0.902   0.161
 7908SOL    HW224624   0.020   0.922   7.019
 7909SOL     OW24625   5.596   3.847   2.025
 7909SOL    HW124626   5.505   3.828   2.060
 7909SOL    HW224627   5.649   3.897   2.094
 7910SOL     OW24628   2.213   3.581   0.569
 7910SOL    HW124629   2.284   3.643   0.602
 7910SOL    HW224630   2.255   3.505   0.520
 7911SOL     OW24631   0.944   4.070   0.569
 7911SOL    HW124632   0.847   4.066   0.543
 7911SOL    HW224633   0.952   4.104   0.663
 7912SOL     OW24634   6.033   5.602   0.044
 7912SOL    HW124635   6.058   5.694   0.077
 7912SOL    HW224636   6.007   5.545   0.121
 7913SOL     OW24637   0.692   3.614   0.975
 7913SOL    HW124638   0.711   3.670   0.895
 7913SOL    HW224639   0.606   3.565   0.961
 7914SOL     OW24640   6.404   5.250   4.864
 7914SOL    HW124641   6.420   5.347   4.844
 7914SOL    HW224642   6.343   5.211   4.796
 7915SOL     OW24643   3.635   6.882   3.097
 7915SOL    HW124644   3.697   6.820   3.144
 7915SOL    HW224645   3.633   6.970   3.144
 7916SOL     OW24646   1.956   0.596   4.569
 7916SOL    HW124647   1.919   0.686   4.593
 7916SOL    HW224648   2.035   0.608   4.509
 7917SOL     OW24649   3.968   3.558   0.311
 7917SOL    HW124650   4.015   3.591   0.229
 7917SOL    HW224651   3.892   3.498   0.284
 7918SOL     OW24652   2.372   1.062   5.102
 7918SOL    HW124653   2.344   1.060   5.199
 7918SOL    HW224654   2.452   1.121   5.092
 7919SOL     OW24655   1.470   5.751   2.651
 7919SOL    HW124656   1.518   5.789   2.731
 7919SOL    HW224657   1.460   5.653   2.662
 7920SOL     OW24658   4.715   0.137   0.842
 7920SOL    HW124659   4.811   0.140   0.814
 7920SOL    HW224660   4.657   0.131   0.761
 7921SOL     OW24661   4.730   1.437   1.797
 7921SOL    HW124662   4.693   1.366   1.857
 7921SOL    HW224663   4.699   1.527   1.828
 7922SOL     OW24664   0.336   5.618   0.866
 7922SOL    HW124665   0.313   5.713   0.846
 7922SOL    HW224666   0.255   5.561   0.854
 7923SOL     OW24667   3.905   1.572   0.009
 7923SOL    HW124668   3.887   1.637   6.954
 7923SOL    HW224669   3.889   1.617   0.097
 7924SOL     OW24670   6.120   7.016   0.534
 7924SOL    HW124671   6.121   7.014   0.434
 7924SOL    HW224672   6.039   6.968   0.568
 7925SOL     OW24673   2.230   6.138   0.718
 7925SOL    HW124674   2.199   6.056   0.671
 7925SOL    HW224675   2.193   6.219   0.671
 7926SOL     OW24676   4.339   5.918   6.423
 7926SOL    HW124677   4.301   5.881   6.508
 7926SOL    HW224678   4.271   5.908   6.349
 7927SOL     OW24679   4.631   6.777   2.106
 7927SOL    HW124680   4.716   6.725   2.120
 7927SOL    HW224681   4.650   6.853   2.044
 7928SOL     OW24682   6.604   1.467   2.919
 7928SOL    HW124683   6.671   1.456   2.992
 7928SOL    HW224684   6.635   1.420   2.836
 7929SOL     OW24685   3.776   4.382   5.538
 7929SOL    HW124686   3.680   4.368   5.560
 7929SOL    HW224687   3.797   4.339   5.451
 7930SOL     OW24688   4.269   5.809   5.583
 7930SOL    HW124689   4.323   5.738   5.629
 7930SOL    HW224690   4.304   5.821   5.490
 7931SOL     OW24691   3.751   2.161   0.641
 7931SOL    HW124692   3.733   2.122   0.731
 7931SOL    HW224693   3.665   2.190   0.599
 7932SOL     OW24694   0.663   5.370   1.851
 7932SOL    HW124695   0.608   5.452   1.861
 7932SOL    HW224696   0.736   5.370   1.919
 7933SOL     OW24697   0.284   1.270   6.011
 7933SOL    HW124698   0.295   1.223   6.099
 7933SOL    HW224699   0.354   1.238   5.947
 7934SOL     OW24700   0.703   4.310   0.664
 7934SOL    HW124701   0.730   4.400   0.696
 7934SOL    HW224702   0.628   4.318   0.598
 7935SOL     OW24703   5.406   2.944   2.350
 7935SOL    HW124704   5.313   2.949   2.386
 7935SOL    HW224705   5.406   2.887   2.267
 7936SOL     OW24706   3.248   5.895   4.171
 7936SOL    HW124707   3.298   5.927   4.090
 7936SOL    HW224708   3.311   5.850   4.234
 7937SOL     OW24709   3.079   6.365   6.853
 7937SOL    HW124710   3.139   6.287   6.873
 7937SOL    HW224711   2.988   6.347   6.888
 7938SOL     OW24712   3.308   6.550   4.588
 7938SOL    HW124713   3.280   6.641   4.619
 7938SOL    HW224714   3.249   6.481   4.629
 7939SOL     OW24715   0.353   1.641   4.670
 7939SOL    HW124716   0.319   1.638   4.764
 7939SOL    HW224717   0.285   1.600   4.609
 7940SOL     OW24718   4.905   0.821   3.265
 7940SOL    HW124719   4.871   0.805   3.173
 7940SOL    HW224720   4.965   0.900   3.265
 7941SOL     OW24721   3.903   6.335   1.650
 7941SOL    HW124722   3.903   6.361   1.747
 7941SOL    HW224723   3.817   6.289   1.628
 7942SOL     OW24724   1.314   4.266   1.255
 7942SOL    HW124725   1.362   4.209   1.188
 7942SOL    HW224726   1.308   4.360   1.222
 7943SOL     OW24727   1.806   5.907   6.467
 7943SOL    HW124728   1.763   5.936   6.382
 7943SOL    HW224729   1.828   5.809   6.462
 7944SOL     OW24730   1.711   2.863   1.076
 7944SOL    HW124731   1.648   2.899   1.007
 7944SOL    HW224732   1.680   2.890   1.167
 7945SOL     OW24733   5.943   4.725   2.640
 7945SOL    HW124734   5.924   4.628   2.652
 7945SOL    HW224735   5.875   4.766   2.580
 7946SOL     OW24736   3.616   1.107   5.443
 7946SOL    HW124737   3.547   1.098   5.515
 7946SOL    HW224738   3.624   1.202   5.416
 7947SOL     OW24739   1.356   2.911   5.337
 7947SOL    HW124740   1.291   2.883   5.409
 7947SOL    HW224741   1.411   2.832   5.309
 7948SOL     OW24742   1.602   4.663   2.446
 7948SOL    HW124743   1.679   4.726   2.450
 7948SOL    HW224744   1.635   4.570   2.426
 7949SOL     OW24745   3.926   4.741   6.617
 7949SOL    HW124746   4.001   4.679   6.592
 7949SOL    HW224747   3.839   4.700   6.590
 7950SOL     OW24748   6.051   5.208   5.579
 7950SOL    HW124749   6.091   5.124   5.542
 7950SOL    HW224750   6.057   5.280   5.511
 7951SOL     OW24751   2.644   5.564   2.953
 7951SOL    HW124752   2.568   5.553   3.017
 7951SOL    HW224753   2.704   5.485   2.958
 7952SOL     OW24754   4.890   3.520   6.840
 7952SOL    HW124755   4.943   3.604   6.828
 7952SOL    HW224756   4.834   3.504   6.760
 7953SOL     OW24757   2.748   1.472   0.752
 7953SOL    HW124758   2.685   1.500   0.679
 7953SOL    HW224759   2.758   1.546   0.818
 7954SOL     OW24760   3.407   2.934   0.093
 7954SOL    HW124761   3.459   2.905   0.174
 7954SOL    HW224762   3.447   2.893   0.011
 7955SOL     OW24763   1.586   0.886   6.612
 7955SOL    HW124764   1.547   0.794   6.621
 7955SOL    HW224765   1.522   0.953   6.647
 7956SOL     OW24766   6.891   6.416   0.989
 7956SOL    HW124767   6.974   6.377   1.030
 7956SOL    HW224768   6.849   6.480   1.053
 7957SOL     OW24769   4.753   0.703   5.526
 7957SOL    HW124770   4.814   0.658   5.591
 7957SOL    HW224771   4.792   0.698   5.434
 7958SOL     OW24772   5.954   2.973   6.766
 7958SOL    HW124773   5.958   3.025   6.681
 7958SOL    HW224774   5.966   2.876   6.746
 7959SOL     OW24775   5.471   0.931   6.247
 7959SOL    HW124776   5.488   0.907   6.151
 7959SOL    HW224777   5.409   0.863   6.287
 7960SOL     OW24778   0.475   0.784   5.609
 7960SOL    HW124779   0.468   0.882   5.628
 7960SOL    HW224780   0.387   0.751   5.575
 7961SOL     OW24781   6.593   0.392   0.456
 7961SOL    HW124782   6.662   0.326   0.425
 7961SOL    HW224783   6.573   0.375   0.553
 7962SOL     OW24784   6.116   0.104   5.432
 7962SOL    HW124785   6.164   0.036   5.378
 7962SOL    HW224786   6.165   0.191   5.428
 7963SOL     OW24787   0.111   5.098   5.062
 7963SOL    HW124788   0.163   5.039   5.000
 7963SOL    HW224789   0.173   5.144   5.124
 7964SOL     OW24790   6.408   3.718   2.170
 7964SOL    HW124791   6.326   3.748   2.217
 7964SOL    HW224792   6.483   3.781   2.190
 7965SOL     OW24793   4.263   1.608   6.608
 7965SOL    HW124794   4.281   1.517   6.571
 7965SOL    HW224795   4.183   1.603   6.668
 7966SOL     OW24796   4.804   4.026   5.133
 7966SOL    HW124797   4.822   4.067   5.044
 7966SOL    HW224798   4.713   4.052   5.164
 7967SOL     OW24799   1.349   4.790   2.259
 7967SOL    HW124800   1.344   4.697   2.296
 7967SOL    HW224801   1.283   4.798   2.183
 7968SOL     OW24802   6.462   2.250   4.300
 7968SOL    HW124803   6.479   2.190   4.221
 7968SOL    HW224804   6.396   2.206   4.361
 7969SOL     OW24805   4.747   5.770   6.843
 7969SOL    HW124806   4.767   5.832   6.768
 7969SOL    HW224807   4.693   5.693   6.810
 7970SOL     OW24808   6.032   2.544   2.497
 7970SOL    HW124809   5.936   2.535   2.522
 7970SOL    HW224810   6.086   2.571   2.577
 7971SOL     OW24811   3.325   1.286   0.856
 7971SOL    HW124812   3.257   1.224   0.817
 7971SOL    HW224813   3.413   1.272   0.813
 7972SOL     OW24814   4.064   3.256   2.709
 7972SOL    HW124815   4.059   3.176   2.649
 7972SOL    HW224816   4.066   3.226   2.804
 7973SOL     OW24817   6.396   3.813   3.030
 7973SOL    HW124818   6.471   3.856   3.081
 7973SOL    HW224819   6.403   3.714   3.037
 7974SOL     OW24820   6.717   1.880   5.279
 7974SOL    HW124821   6.619   1.866   5.298
 7974SOL    HW224822   6.756   1.939   5.350
 7975SOL     OW24823   5.243   0.886   0.936
 7975SOL    HW124824   5.331   0.904   0.890
 7975SOL    HW224825   5.184   0.835   0.875
 7976SOL     OW24826   0.711   0.022   6.736
 7976SOL    HW124827   0.790   0.082   6.726
 7976SOL    HW224828   0.735   6.965   6.795
 7977SOL     OW24829   5.300   6.256   2.776
 7977SOL    HW124830   5.228   6.245   2.708
 7977SOL    HW224831   5.389   6.236   2.735
 7978SOL     OW24832   0.228   4.951   0.823
 7978SOL    HW124833   0.242   5.040   0.866
 7978SOL    HW224834   0.299   4.888   0.853
 7979SOL     OW24835   1.150   3.513   4.798
 7979SOL    HW124836   1.176   3.548   4.888
 7979SOL    HW224837   1.233   3.493   4.745
 7980SOL     OW24838   4.158   5.110   6.656
 7980SOL    HW124839   4.175   5.208   6.660
 7980SOL    HW224840   4.075   5.088   6.707
 7981SOL     OW24841   1.690   4.713   3.622
 7981SOL    HW124842   1.662   4.625   3.660
 7981SOL    HW224843   1.781   4.736   3.655
 7982SOL     OW24844   0.896   2.229   6.339
 7982SOL    HW124845   0.948   2.208   6.257
 7982SOL    HW224846   0.799   2.240   6.315
 7983SOL     OW24847   4.918   0.709   1.252
 7983SOL    HW124848   4.857   0.786   1.270
 7983SOL    HW224849   4.868   0.623   1.262
 7984SOL     OW24850   1.222   1.976   1.987
 7984SOL    HW124851   1.211   2.074   1.967
 7984SOL    HW224852   1.208   1.961   2.084
 7985SOL     OW24853   1.981   2.324   5.862
 7985SOL    HW124854   2.011   2.375   5.781
 7985SOL    HW224855   1.990   2.382   5.943
 7986SOL     OW24856   2.807   1.200   3.767
 7986SOL    HW124857   2.791   1.299   3.764
 7986SOL    HW224858   2.888   1.181   3.822
 7987SOL     OW24859   1.455   3.254   0.977
 7987SOL    HW124860   1.542   3.261   0.928
 7987SOL    HW224861   1.400   3.336   0.960
 7988SOL     OW24862   0.569   1.881   0.892
 7988SOL    HW124863   0.490   1.823   0.875
 7988SOL    HW224864   0.543   1.977   0.875
 7989SOL     OW24865   0.871   4.781   0.592
 7989SOL    HW124866   0.792   4.798   0.534
 7989SOL    HW224867   0.954   4.810   0.544
 7990SOL     OW24868   3.132   5.412   5.738
 7990SOL    HW124869   3.046   5.380   5.697
 7990SOL    HW224870   3.180   5.334   5.779
 7991SOL     OW24871   5.659   1.291   4.777
 7991SOL    HW124872   5.614   1.207   4.746
 7991SOL    HW224873   5.643   1.302   4.875
 7992SOL     OW24874   3.057   0.513   0.376
 7992SOL    HW124875   3.071   0.414   0.375
 7992SOL    HW224876   3.137   0.559   0.337
 7993SOL     OW24877   6.584   5.630   1.502
 7993SOL    HW124878   6.576   5.611   1.404
 7993SOL    HW224879   6.633   5.556   1.547
 7994SOL     OW24880   5.349   0.643   3.246
 7994SOL    HW124881   5.426   0.689   3.289
 7994SOL    HW224882   5.301   0.588   3.314
 7995SOL     OW24883   0.193   4.468   1.530
 7995SOL    HW124884   0.099   4.447   1.559
 7995SOL    HW224885   0.229   4.542   1.586
 7996SOL     OW24886   3.843   0.259   2.990
 7996SOL    HW124887   3.901   0.288   3.066
 7996SOL    HW224888   3.894   0.266   2.904
 7997SOL     OW24889   0.471   2.455   0.239
 7997SOL    HW124890   0.494   2.547   0.270
 7997SOL    HW224891   0.549   2.415   0.192
 7998SOL     OW24892   3.119   0.851   0.343
 7998SOL    HW124893   3.122   0.829   0.440
 7998SOL    HW224894   3.105   0.949   0.331
 7999SOL     OW24895   1.436   1.483   5.414
 7999SOL    HW124896   1.494   1.554   5.375
 7999SOL    HW224897   1.450   1.397   5.364
 8000SOL     OW24898   5.652   5.134   6.770
 8000SOL    HW124899   5.665   5.152   6.673
 8000SOL    HW224900   5.718   5.066   6.801
 8001SOL     OW24901   4.862   0.467   1.326
 8001SOL    HW124902   4.849   0.401   1.401
 8001SOL    HW224903   4.847   0.421   1.239
 8002SOL     OW24904   0.858   6.982   5.742
 8002SOL    HW124905   0.910   0.006   5.816
 8002SOL    HW224906   0.760   6.994   5.758
 8003SOL     OW24907   2.344   6.841   3.154
 8003SOL    HW124908   2.433   6.866   3.115
 8003SOL    HW224909   2.299   6.774   3.095
 8004SOL     OW24910   1.014   3.197   4.063
 8004SOL    HW124911   0.968   3.272   4.015
 8004SOL    HW224912   1.061   3.139   3.996
 8005SOL     OW24913   2.579   0.506   3.515
 8005SOL    HW124914   2.508   0.456   3.466
 8005SOL    HW224915   2.660   0.514   3.457
 8006SOL     OW24916   3.534   4.621   5.303
 8006SOL    HW124917   3.634   4.623   5.306
 8006SOL    HW224918   3.503   4.527   5.294
 8007SOL     OW24919   5.923   1.103   6.633
 8007SOL    HW124920   5.987   1.142   6.567
 8007SOL    HW224921   5.843   1.162   6.640
 8008SOL     OW24922   4.882   6.419   6.435
 8008SOL    HW124923   4.862   6.345   6.371
 8008SOL    HW224924   4.798   6.465   6.461
 8009SOL     OW24925   5.196   1.335   0.299
 8009SOL    HW124926   5.153   1.248   0.274
 8009SOL    HW224927   5.149   1.411   0.255
 8010SOL     OW24928   2.549   2.623   5.281
 8010SOL    HW124929   2.646   2.603   5.298
 8010SOL    HW224930   2.496   2.596   5.361
 8011SOL     OW24931   4.081   2.057   2.287
 8011SOL    HW124932   4.120   2.019   2.203
 8011SOL    HW224933   3.994   2.102   2.266
 8012SOL     OW24934   0.918   2.617   5.370
 8012SOL    HW124935   0.827   2.616   5.412
 8012SOL    HW224936   0.908   2.627   5.271
 8013SOL     OW24937   1.918   2.708   3.286
 8013SOL    HW124938   1.989   2.648   3.249
 8013SOL    HW224939   1.959   2.776   3.345
 8014SOL     OW24940   1.898   1.014   2.965
 8014SOL    HW124941   1.887   1.044   3.059
 8014SOL    HW224942   1.811   1.022   2.916
 8015SOL     OW24943   2.066   6.954   5.305
 8015SOL    HW124944   1.980   6.950   5.253
 8015SOL    HW224945   2.116   0.018   5.280
 8016SOL     OW24946   4.675   1.564   5.361
 8016SOL    HW124947   4.728   1.547   5.277
 8016SOL    HW224948   4.636   1.478   5.393
 8017SOL     OW24949   6.393   0.090   0.241
 8017SOL    HW124950   6.432   0.125   0.155
 8017SOL    HW224951   6.365   0.167   0.298
 8018SOL     OW24952   4.247   1.730   0.017
 8018SOL    HW124953   4.173   1.751   6.973
 8018SOL    HW224954   4.301   1.654   7.001
 8019SOL     OW24955   3.035   2.851   0.772
 8019SOL    HW124956   3.112   2.913   0.757
 8019SOL    HW224957   2.956   2.903   0.804
 8020SOL     OW24958   0.400   0.503   5.129
 8020SOL    HW124959   0.323   0.481   5.069
 8020SOL    HW224960   0.388   0.596   5.166
 8021SOL     OW24961   1.337   2.230   2.696
 8021SOL    HW124962   1.261   2.293   2.680
 8021SOL    HW224963   1.408   2.275   2.749
 8022SOL     OW24964   4.630   1.457   2.119
 8022SOL    HW124965   4.539   1.500   2.120
 8022SOL    HW224966   4.627   1.374   2.063
 8023SOL     OW24967   4.845   5.648   3.733
 8023SOL    HW124968   4.804   5.571   3.783
 8023SOL    HW224969   4.780   5.681   3.664
 8024SOL     OW24970   1.991   6.759   6.513
 8024SOL    HW124971   1.990   6.709   6.599
 8024SOL    HW224972   1.899   6.760   6.474
 8025SOL     OW24973   2.133   5.134   1.326
 8025SOL    HW124974   2.100   5.119   1.420
 8025SOL    HW224975   2.055   5.132   1.263
 8026SOL     OW24976   0.871   5.951   6.956
 8026SOL    HW124977   0.932   5.881   6.993
 8026SOL    HW224978   0.790   5.907   6.916
 8027SOL     OW24979   3.705   6.404   6.831
 8027SOL    HW124980   3.738   6.330   6.773
 8027SOL    HW224981   3.607   6.392   6.849
 8028SOL     OW24982   2.842   5.833   4.632
 8028SOL    HW124983   2.858   5.825   4.730
 8028SOL    HW224984   2.904   5.902   4.594
 8029SOL     OW24985   6.391   0.815   0.649
 8029SOL    HW124986   6.468   0.877   0.662
 8029SOL    HW224987   6.384   0.790   0.553
 8030SOL     OW24988   6.712   4.604   0.476
 8030SOL    HW124989   6.806   4.637   0.484
 8030SOL    HW224990   6.680   4.620   0.383
 8031SOL     OW24991   6.971   0.621   2.586
 8031SOL    HW124992   0.036   0.581   2.623
 8031SOL    HW224993   6.994   0.698   2.526
 8032SOL     OW24994   5.635   2.778   0.906
 8032SOL    HW124995   5.701   2.718   0.861
 8032SOL    HW224996   5.667   2.799   0.999
 8033SOL     OW24997   4.019   4.147   1.109
 8033SOL    HW124998   3.962   4.064   1.104
 8033SOL    HW224999   4.115   4.121   1.110
 8034SOL     OW25000   5.534   0.292   5.398
 8034SOL    HW125001   5.505   0.379   5.359
 8034SOL    HW225002   5.634   0.284   5.392
 8035SOL     OW25003   5.266   1.666   2.944
 8035SOL    HW125004   5.362   1.692   2.931
 8035SOL    HW225005   5.257   1.611   3.027
 8036SOL     OW25006   6.614   3.385   3.214
 8036SOL    HW125007   6.689   3.368   3.150
 8036SOL    HW225008   6.537   3.428   3.167
 8037SOL     OW25009   0.657   2.436   6.093
 8037SOL    HW125010   0.657   2.370   6.168
 8037SOL    HW225011   0.747   2.480   6.087
 8038SOL     OW25012   6.204   6.388   2.340
 8038SOL    HW125013   6.184   6.486   2.348
 8038SOL    HW225014   6.196   6.360   2.245
 8039SOL     OW25015   1.378   1.998   5.498
 8039SOL    HW125016   1.375   1.932   5.423
 8039SOL    HW225017   1.473   2.010   5.528
 8040SOL     OW25018   1.789   5.146   6.227
 8040SOL    HW125019   1.855   5.071   6.219
 8040SOL    HW225020   1.735   5.134   6.310
 8041SOL     OW25021   3.767   1.854   2.964
 8041SOL    HW125022   3.856   1.817   2.992
 8041SOL    HW225023   3.771   1.953   2.963
 8042SOL     OW25024   4.068   4.234   5.395
 8042SOL    HW125025   3.993   4.263   5.336
 8042SOL    HW225026   4.032   4.183   5.473
 8043SOL     OW25027   5.486   4.780   0.059
 8043SOL    HW125028   5.496   4.870   0.016
 8043SOL    HW225029   5.540   4.777   0.143
 8044SOL     OW25030   3.240   3.676   0.966
 8044SOL    HW125031   3.319   3.735   0.945
 8044SOL    HW225032   3.270   3.599   1.021
 8045SOL     OW25033   0.378   1.006   2.637
 8045SOL    HW125034   0.467   0.974   2.670
 8045SOL    HW225035   0.366   0.979   2.541
 8046SOL     OW25036   0.444   5.395   2.490
 8046SOL    HW125037   0.465   5.447   2.408
 8046SOL    HW225038   0.352   5.417   2.521
 8047SOL     OW25039   4.042   6.766   5.670
 8047SOL    HW125040   4.055   6.836   5.600
 8047SOL    HW225041   4.131   6.742   5.710
 8048SOL     OW25042   3.755   3.919   0.224
 8048SOL    HW125043   3.779   3.901   0.129
 8048SOL    HW225044   3.693   3.848   0.257
 8049SOL     OW25045   2.175   0.217   0.930
 8049SOL    HW125046   2.193   0.312   0.907
 8049SOL    HW225047   2.262   0.171   0.952
 8050SOL     OW25048   1.829   4.183   4.767
 8050SOL    HW125049   1.848   4.233   4.682
 8050SOL    HW225050   1.846   4.086   4.753
 8051SOL     OW25051   3.290   5.984   4.567
 8051SOL    HW125052   3.343   6.058   4.524
 8051SOL    HW225053   3.199   5.980   4.526
 8052SOL     OW25054   2.338   2.421   2.107
 8052SOL    HW125055   2.436   2.402   2.111
 8052SOL    HW225056   2.301   2.429   2.200
 8053SOL     OW25057   2.520   3.167   6.042
 8053SOL    HW125058   2.436   3.137   6.087
 8053SOL    HW225059   2.546   3.100   5.972
 8054SOL     OW25060   5.649   3.927   5.172
 8054SOL    HW125061   5.566   3.904   5.120
 8054SOL    HW225062   5.667   4.025   5.163
 8055SOL     OW25063   6.976   0.992   5.338
 8055SOL    HW125064   6.892   0.996   5.391
 8055SOL    HW225065   6.968   1.051   5.258
 8056SOL     OW25066   2.468   0.777   4.945
 8056SOL    HW125067   2.537   0.733   5.003
 8056SOL    HW225068   2.377   0.754   4.980
 8057SOL     OW25069   2.630   2.406   2.164
 8057SOL    HW125070   2.726   2.391   2.139
 8057SOL    HW225071   2.625   2.430   2.261
 8058SOL     OW25072   3.158   6.947   3.525
 8058SOL    HW125073   3.160   0.013   3.474
 8058SOL    HW225074   3.135   6.872   3.463
 8059SOL     OW25075   2.717   3.161   6.477
 8059SOL    HW125076   2.778   3.104   6.532
 8059SOL    HW225077   2.626   3.162   6.518
 8060SOL     OW25078   6.469   6.983   5.375
 8060SOL    HW125079   6.522   6.907   5.411
 8060SOL    HW225080   6.379   6.951   5.346
 8061SOL     OW25081   0.475   1.554   2.192
 8061SOL    HW125082   0.559   1.550   2.245
 8061SOL    HW225083   0.491   1.605   2.107
 8062SOL     OW25084   4.252   6.235   5.264
 8062SOL    HW125085   4.167   6.190   5.292
 8062SOL    HW225086   4.297   6.275   5.344
 8063SOL     OW25087   3.431   0.025   2.940
 8063SOL    HW125088   3.407   0.073   2.856
 8063SOL    HW225089   3.523   7.006   2.932
 8064SOL     OW25090   5.866   2.704   6.965
 8064SOL    HW125091   5.939   2.642   6.994
 8064SOL    HW225092   5.780   2.654   6.960
 8065SOL     OW25093   3.382   6.678   4.855
 8065SOL    HW125094   3.410   6.743   4.784
 8065SOL    HW225095   3.460   6.619   4.878
 8066SOL     OW25096   6.865   0.929   4.853
 8066SOL    HW125097   6.934   0.928   4.781
 8066SOL    HW225098   6.862   0.840   4.899
 8067SOL     OW25099   5.013   3.140   3.426
 8067SOL    HW125100   4.977   3.135   3.333
 8067SOL    HW225101   5.110   3.164   3.423
 8068SOL     OW25102   6.339   4.454   1.045
 8068SOL    HW125103   6.290   4.485   1.126
 8068SOL    HW225104   6.437   4.463   1.060
 8069SOL     OW25105   2.522   4.569   2.298
 8069SOL    HW125106   2.598   4.612   2.249
 8069SOL    HW225107   2.462   4.522   2.232
 8070SOL     OW25108   5.317   4.848   6.749
 8070SOL    HW125109   5.293   4.823   6.843
 8070SOL    HW225110   5.308   4.947   6.738
 8071SOL     OW25111   3.728   6.708   5.925
 8071SOL    HW125112   3.633   6.674   5.923
 8071SOL    HW225113   3.749   6.754   5.839
 8072SOL     OW25114   1.804   2.917   6.622
 8072SOL    HW125115   1.782   2.941   6.527
 8072SOL    HW225116   1.764   2.985   6.683
 8073SOL     OW25117   3.818   0.432   6.596
 8073SOL    HW125118   3.828   0.351   6.537
 8073SOL    HW225119   3.774   0.406   6.682
 8074SOL     OW25120   1.875   1.346   0.164
 8074SOL    HW125121   1.955   1.299   0.203
 8074SOL    HW225122   1.901   1.389   0.078
 8075SOL     OW25123   0.353   6.254   6.798
 8075SOL    HW125124   0.300   6.317   6.855
 8075SOL    HW225125   0.437   6.228   6.847
 8076SOL     OW25126   6.663   6.615   6.913
 8076SOL    HW125127   6.568   6.623   6.885
 8076SOL    HW225128   6.701   6.705   6.931
 8077SOL     OW25129   4.359   5.542   1.093
 8077SOL    HW125130   4.285   5.511   1.034
 8077SOL    HW225131   4.330   5.538   1.188
 8078SOL     OW25132   0.542   0.802   0.953
 8078SOL    HW125133   0.599   0.741   1.009
 8078SOL    HW225134   0.565   0.790   0.857
 8079SOL     OW25135   1.494   1.462   4.957
 8079SOL    HW125136   1.514   1.462   4.859
 8079SOL    HW225137   1.576   1.490   5.007
 8080SOL     OW25138   1.056   3.620   2.627
 8080SOL    HW125139   1.143   3.663   2.601
 8080SOL    HW225140   1.072   3.524   2.651
 8081SOL     OW25141   6.105   4.902   4.785
 8081SOL    HW125142   6.057   4.833   4.730
 8081SOL    HW225143   6.202   4.878   4.792
 8082SOL     OW25144   3.155   2.109   2.667
 8082SOL    HW125145   3.249   2.141   2.679
 8082SOL    HW225146   3.149   2.058   2.580
 8083SOL     OW25147   5.885   2.007   4.965
 8083SOL    HW125148   5.803   1.991   5.020
 8083SOL    HW225149   5.966   2.000   5.024
 8084SOL     OW25150   2.391   0.015   6.672
 8084SOL    HW125151   2.467   6.975   6.648
 8084SOL    HW225152   2.310   7.009   6.620
 8085SOL     OW25153   0.064   5.675   3.996
 8085SOL    HW125154   7.005   5.620   3.968
 8085SOL    HW225155   0.126   5.687   3.919
 8086SOL     OW25156   0.697   1.088   2.108
 8086SOL    HW125157   0.781   1.133   2.140
 8086SOL    HW225158   0.620   1.151   2.117
 8087SOL     OW25159   1.207   0.538   7.009
 8087SOL    HW125160   1.274   0.603   0.026
 8087SOL    HW225161   1.117   0.582   7.003
 8088SOL     OW25162   5.022   6.695   5.986
 8088SOL    HW125163   5.032   6.624   6.055
 8088SOL    HW225164   5.005   6.653   5.896
 8089SOL     OW25165   5.932   2.579   6.034
 8089SOL    HW125166   5.847   2.542   6.071
 8089SOL    HW225167   5.912   2.639   5.957
 8090SOL     OW25168   4.640   1.522   6.539
 8090SOL    HW125169   4.578   1.452   6.576
 8090SOL    HW225170   4.714   1.477   6.490
 8091SOL     OW25171   1.080   4.042   5.188
 8091SOL    HW125172   1.081   4.125   5.243
 8091SOL    HW225173   1.170   4.027   5.148
 8092SOL     OW25174   5.153   2.178   5.444
 8092SOL    HW125175   5.205   2.261   5.423
 8092SOL    HW225176   5.059   2.203   5.468
 8093SOL     OW25177   2.998   6.551   2.674
 8093SOL    HW125178   2.936   6.591   2.607
 8093SOL    HW225179   3.092   6.569   2.648
 8094SOL     OW25180   1.512   4.213   4.056
 8094SOL    HW125181   1.561   4.138   4.011
 8094SOL    HW225182   1.553   4.300   4.029
 8095SOL     OW25183   1.317   4.598   5.471
 8095SOL    HW125184   1.311   4.568   5.376
 8095SOL    HW225185   1.233   4.572   5.519
 8096SOL     OW25186   0.703   6.692   2.450
 8096SOL    HW125187   0.661   6.698   2.360
 8096SOL    HW225188   0.718   6.596   2.475
 8097SOL     OW25189   2.741   5.883   5.071
 8097SOL    HW125190   2.795   5.950   5.123
 8097SOL    HW225191   2.691   5.824   5.134
 8098SOL     OW25192   0.877   5.375   3.901
 8098SOL    HW125193   0.812   5.346   3.971
 8098SOL    HW225194   0.949   5.306   3.893
 8099SOL     OW25195   2.738   5.795   4.331
 8099SOL    HW125196   2.765   5.768   4.423
 8099SOL    HW225197   2.819   5.820   4.278
 8100SOL     OW25198   6.778   1.054   6.191
 8100SOL    HW125199   6.877   1.059   6.194
 8100SOL    HW225200   6.746   1.091   6.103
 8101SOL     OW25201   1.710   6.269   1.325
 8101SOL    HW125202   1.724   6.359   1.283
 8101SOL    HW225203   1.790   6.244   1.378
 8102SOL     OW25204   1.053   3.041   4.505
 8102SOL    HW125205   1.060   3.135   4.538
 8102SOL    HW225206   1.046   3.041   4.405
 8103SOL     OW25207   3.545   1.447   2.409
 8103SOL    HW125208   3.520   1.520   2.473
 8103SOL    HW225209   3.462   1.407   2.370
 8104SOL     OW25210   2.013   6.624   6.769
 8104SOL    HW125211   2.111   6.612   6.783
 8104SOL    HW225212   1.971   6.536   6.748
 8105SOL     OW25213   6.803   1.574   2.533
 8105SOL    HW125214   6.759   1.595   2.620
 8105SOL    HW225215   6.791   1.477   2.512
 8106SOL     OW25216   1.929   5.946   4.781
 8106SOL    HW125217   1.871   5.866   4.768
 8106SOL    HW225218   1.922   6.005   4.701
 8107SOL     OW25219   1.772   5.424   4.977
 8107SOL    HW125220   1.803   5.355   4.913
 8107SOL    HW225221   1.686   5.394   5.019
 8108SOL     OW25222   0.174   0.725   6.697
 8108SOL    HW125223   0.144   0.693   6.787
 8108SOL    HW225224   0.204   0.647   6.642
 8109SOL     OW25225   6.614   3.695   6.241
 8109SOL    HW125226   6.523   3.719   6.208
 8109SOL    HW225227   6.671   3.668   6.163
 8110SOL     OW25228   4.929   4.961   0.740
 8110SOL    HW125229   4.982   4.885   0.777
 8110SOL    HW225230   4.967   5.048   0.773
 8111SOL     OW25231   5.731   0.833   3.055
 8111SOL    HW125232   5.715   0.865   2.961
 8111SOL    HW225233   5.829   0.828   3.072
 8112SOL     OW25234   0.641   2.393   5.209
 8112SOL    HW125235   0.629   2.373   5.112
 8112SOL    HW225236   0.696   2.320   5.251
 8113SOL     OW25237   6.102   2.652   0.949
 8113SOL    HW125238   6.064   2.709   0.877
 8113SOL    HW225239   6.115   2.706   1.032
 8114SOL     OW25240   1.496   4.031   1.621
 8114SOL    HW125241   1.438   4.091   1.566
 8114SOL    HW225242   1.586   4.074   1.633
 8115SOL     OW25243   3.054   6.881   0.216
 8115SOL    HW125244   3.090   6.794   0.251
 8115SOL    HW225245   3.129   6.946   0.207
 8116SOL     OW25246   3.401   5.077   1.010
 8116SOL    HW125247   3.459   5.071   0.929
 8116SOL    HW225248   3.312   5.035   0.991
 8117SOL     OW25249   2.639   0.109   3.022
 8117SOL    HW125250   2.641   0.125   3.121
 8117SOL    HW225251   2.634   0.197   2.975
 8118SOL     OW25252   6.281   3.353   6.540
 8118SOL    HW125253   6.352   3.394   6.482
 8118SOL    HW225254   6.232   3.426   6.588
 8119SOL     OW25255   5.960   5.821   5.665
 8119SOL    HW125256   5.925   5.727   5.669
 8119SOL    HW225257   6.060   5.819   5.675
 8120SOL     OW25258   2.096   5.683   0.556
 8120SOL    HW125259   2.092   5.783   0.554
 8120SOL    HW225260   2.180   5.654   0.600
 8121SOL     OW25261   1.129   4.236   2.707
 8121SOL    HW125262   1.052   4.293   2.735
 8121SOL    HW225263   1.099   4.140   2.701
 8122SOL     OW25264   1.155   4.362   2.365
 8122SOL    HW125265   1.072   4.407   2.396
 8122SOL    HW225266   1.211   4.427   2.314
 8123SOL     OW25267   0.239   1.972   6.603
 8123SOL    HW125268   0.249   1.916   6.685
 8123SOL    HW225269   0.326   2.017   6.582
 8124SOL     OW25270   5.291   5.338   3.417
 8124SOL    HW125271   5.358   5.400   3.376
 8124SOL    HW225272   5.298   5.344   3.517
 8125SOL     OW25273   0.878   0.473   3.152
 8125SOL    HW125274   0.792   0.491   3.200
 8125SOL    HW225275   0.946   0.441   3.217
 8126SOL     OW25276   3.694   5.143   4.301
 8126SOL    HW125277   3.718   5.049   4.279
 8126SOL    HW225278   3.595   5.151   4.310
 8127SOL     OW25279   2.636   2.770   0.482
 8127SOL    HW125280   2.619   2.697   0.548
 8127SOL    HW225281   2.549   2.809   0.453
 8128SOL     OW25282   3.142   2.940   2.229
 8128SOL    HW125283   3.141   3.036   2.198
 8128SOL    HW225284   3.119   2.880   2.153
 8129SOL     OW25285   1.057   2.194   0.395
 8129SOL    HW125286   0.978   2.211   0.454
 8129SOL    HW225287   1.128   2.146   0.447
 8130SOL     OW25288   1.310   5.480   0.230
 8130SOL    HW125289   1.313   5.380   0.233
 8130SOL    HW225290   1.244   5.514   0.296
 8131SOL     OW25291   2.171   2.859   0.691
 8131SOL    HW125292   2.117   2.914   0.754
 8131SOL    HW225293   2.120   2.844   0.606
 8132SOL     OW25294   6.119   0.270   3.611
 8132SOL    HW125295   6.131   0.369   3.621
 8132SOL    HW225296   6.203   0.223   3.640
 8133SOL     OW25297   3.452   5.105   1.257
 8133SOL    HW125298   3.380   5.055   1.306
 8133SOL    HW225299   3.435   5.099   1.159
 8134SOL     OW25300   6.504   0.544   5.223
 8134SOL    HW125301   6.538   0.516   5.133
 8134SOL    HW225302   6.553   0.626   5.253
 8135SOL     OW25303   2.839   0.057   2.112
 8135SOL    HW125304   2.923   0.096   2.072
 8135SOL    HW225305   2.842   6.977   2.104
 8136SOL     OW25306   4.718   4.935   2.380
 8136SOL    HW125307   4.785   4.922   2.453
 8136SOL    HW225308   4.761   4.920   2.292
 8137SOL     OW25309   3.989   1.936   4.904
 8137SOL    HW125310   3.931   1.865   4.943
 8137SOL    HW225311   4.062   1.893   4.851
 8138SOL     OW25312   5.177   1.135   1.892
 8138SOL    HW125313   5.182   1.171   1.799
 8138SOL    HW225314   5.267   1.098   1.918
 8139SOL     OW25315   1.454   1.472   2.558
 8139SOL    HW125316   1.498   1.528   2.628
 8139SOL    HW225317   1.460   1.375   2.584
 8140SOL     OW25318   4.388   1.117   4.432
 8140SOL    HW125319   4.360   1.159   4.346
 8140SOL    HW225320   4.465   1.169   4.471
 8141SOL     OW25321   4.592   5.309   5.429
 8141SOL    HW125322   4.598   5.303   5.529
 8141SOL    HW225323   4.503   5.274   5.399
 8142SOL     OW25324   5.920   4.579   0.552
 8142SOL    HW125325   5.853   4.506   0.536
 8142SOL    HW225326   5.947   4.579   0.648
 8143SOL     OW25327   5.951   4.395   6.071
 8143SOL    HW125328   5.880   4.440   6.126
 8143SOL    HW225329   5.911   4.317   6.024
 8144SOL     OW25330   5.508   0.008   7.001
 8144SOL    HW125331   5.604   7.013   0.006
 8144SOL    HW225332   5.464   0.065   0.051
 8145SOL     OW25333   6.320   5.932   2.945
 8145SOL    HW125334   6.380   5.896   3.017
 8145SOL    HW225335   6.227   5.899   2.960
 8146SOL     OW25336   3.687   0.932   5.761
 8146SOL    HW125337   3.715   0.948   5.667
 8146SOL    HW225338   3.598   0.885   5.761
 8147SOL     OW25339   4.422   2.077   4.300
 8147SOL    HW125340   4.438   2.042   4.208
 8147SOL    HW225341   4.507   2.115   4.337
 8148SOL     OW25342   5.487   2.694   2.894
 8148SOL    HW125343   5.477   2.739   2.805
 8148SOL    HW225344   5.400   2.700   2.944
 8149SOL     OW25345   3.842   5.221   2.577
 8149SOL    HW125346   3.818   5.314   2.604
 8149SOL    HW225347   3.832   5.211   2.478
 8150SOL     OW25348   0.558   5.081   0.269
 8150SOL    HW125349   0.506   5.131   0.338
 8150SOL    HW225350   0.612   5.146   0.215
 8151SOL     OW25351   1.295   2.391   4.665
 8151SOL    HW125352   1.270   2.488   4.667
 8151SOL    HW225353   1.227   2.340   4.612
 8152SOL     OW25354   2.037   0.955   3.614
 8152SOL    HW125355   2.136   0.969   3.615
 8152SOL    HW225356   1.994   1.033   3.568
 8153SOL     OW25357   2.652   7.012   1.324
 8153SOL    HW125358   2.627   0.007   1.420
 8153SOL    HW225359   2.642   0.079   1.274
 8154SOL     OW25360   1.905   6.331   4.224
 8154SOL    HW125361   1.885   6.305   4.319
 8154SOL    HW225362   1.820   6.333   4.172
 8155SOL     OW25363   2.975   3.193   2.543
 8155SOL    HW125364   2.913   3.127   2.585
 8155SOL    HW225365   3.069   3.174   2.572
 8156SOL     OW25366   5.803   1.028   5.391
 8156SOL    HW125367   5.830   1.063   5.481
 8156SOL    HW225368   5.729   0.962   5.402
 8157SOL     OW25369   5.866   4.024   6.635
 8157SOL    HW125370   5.836   4.080   6.558
 8157SOL    HW225371   5.931   4.076   6.690
 8158SOL     OW25372   1.246   5.591   1.526
 8158SOL    HW125373   1.196   5.656   1.470
 8158SOL    HW225374   1.194   5.506   1.533
 8159SOL     OW25375   2.120   5.131   1.983
 8159SOL    HW125376   2.160   5.120   2.074
 8159SOL    HW225377   2.193   5.139   1.915
 8160SOL     OW25378   4.226   2.089   1.335
 8160SOL    HW125379   4.198   2.067   1.429
 8160SOL    HW225380   4.204   2.185   1.317
 8161SOL     OW25381   4.850   1.261   0.281
 8161SOL    HW125382   4.838   1.261   0.182
 8161SOL    HW225383   4.898   1.344   0.309
 8162SOL     OW25384   5.847   6.820   0.947
 8162SOL    HW125385   5.758   6.864   0.932
 8162SOL    HW225386   5.841   6.724   0.919
 8163SOL     OW25387   2.503   4.361   5.475
 8163SOL    HW125388   2.591   4.407   5.470
 8163SOL    HW225389   2.517   4.263   5.491
 8164SOL     OW25390   4.315   2.396   1.321
 8164SOL    HW125391   4.342   2.440   1.235
 8164SOL    HW225392   4.378   2.421   1.393
 8165SOL     OW25393   2.079   4.141   1.379
 8165SOL    HW125394   2.114   4.093   1.459
 8165SOL    HW225395   2.093   4.084   1.298
 8166SOL     OW25396   2.691   0.687   1.823
 8166SOL    HW125397   2.678   0.591   1.848
 8166SOL    HW225398   2.616   0.716   1.763
 8167SOL     OW25399   6.069   2.777   3.700
 8167SOL    HW125400   6.012   2.696   3.711
 8167SOL    HW225401   6.051   2.818   3.611
 8168SOL     OW25402   3.809   1.347   3.195
 8168SOL    HW125403   3.846   1.429   3.239
 8168SOL    HW225404   3.740   1.305   3.255
 8169SOL     OW25405   4.462   3.814   0.084
 8169SOL    HW125406   4.522   3.758   0.141
 8169SOL    HW225407   4.388   3.756   0.048
 8170SOL     OW25408   0.579   5.815   4.192
 8170SOL    HW125409   0.592   5.895   4.250
 8170SOL    HW225410   0.496   5.767   4.220
 8171SOL     OW25411   0.364   2.274   6.551
 8171SOL    HW125412   0.300   2.306   6.620
 8171SOL    HW225413   0.447   2.241   6.595
 8172SOL     OW25414   0.411   6.633   0.166
 8172SOL    HW125415   0.351   6.678   0.100
 8172SOL    HW225416   0.482   6.696   0.195
 8173SOL     OW25417   3.184   2.700   0.202
 8173SOL    HW125418   3.195   2.603   0.222
 8173SOL    HW225419   3.272   2.747   0.214
 8174SOL     OW25420   5.546   0.925   1.796
 8174SOL    HW125421   5.630   0.883   1.829
 8174SOL    HW225422   5.484   0.855   1.762
 8175SOL     OW25423   0.548   1.935   6.659
 8175SOL    HW125424   0.594   2.010   6.612
 8175SOL    HW225425   0.538   1.957   6.756
 8176SOL     OW25426   2.606   5.389   1.984
 8176SOL    HW125427   2.539   5.325   1.946
 8176SOL    HW225428   2.692   5.383   1.933
 8177SOL     OW25429   0.329   6.657   4.377
 8177SOL    HW125430   0.293   6.688   4.465
 8177SOL    HW225431   0.257   6.612   4.324
 8178SOL     OW25432   1.356   6.325   6.665
 8178SOL    HW125433   1.440   6.298   6.713
 8178SOL    HW225434   1.279   6.271   6.699
 8179SOL     OW25435   3.296   2.963   6.806
 8179SOL    HW125436   3.274   3.049   6.759
 8179SOL    HW225437   3.393   2.963   6.831
 8180SOL     OW25438   6.370   6.694   4.485
 8180SOL    HW125439   6.395   6.788   4.462
 8180SOL    HW225440   6.431   6.660   4.557
 8181SOL     OW25441   2.386   2.378   3.146
 8181SOL    HW125442   2.305   2.436   3.144
 8181SOL    HW225443   2.359   2.282   3.144
 8182SOL     OW25444   4.069   2.139   5.466
 8182SOL    HW125445   4.107   2.143   5.558
 8182SOL    HW225446   4.126   2.078   5.410
 8183SOL     OW25447   1.360   3.769   4.519
 8183SOL    HW125448   1.343   3.868   4.524
 8183SOL    HW225449   1.293   3.727   4.458
 8184SOL     OW25450   7.010   0.215   5.404
 8184SOL    HW125451   0.010   0.307   5.437
 8184SOL    HW225452   6.955   0.219   5.321
 8185SOL     OW25453   2.981   1.645   2.122
 8185SOL    HW125454   3.032   1.728   2.104
 8185SOL    HW225455   2.885   1.667   2.139
 8186SOL     OW25456   4.087   6.003   5.786
 8186SOL    HW125457   4.179   5.983   5.819
 8186SOL    HW225458   4.044   5.919   5.754
 8187SOL     OW25459   1.655   2.001   5.560
 8187SOL    HW125460   1.711   2.019   5.479
 8187SOL    HW225461   1.673   2.071   5.629
 8188SOL     OW25462   5.937   2.828   3.280
 8188SOL    HW125463   5.978   2.746   3.320
 8188SOL    HW225464   5.855   2.852   3.332
 8189SOL     OW25465   6.290   4.177   2.681
 8189SOL    HW125466   6.276   4.090   2.728
 8189SOL    HW225467   6.211   4.198   2.624
 8190SOL     OW25468   5.134   3.476   3.659
 8190SOL    HW125469   5.145   3.573   3.679
 8190SOL    HW225470   5.223   3.431   3.664
 8191SOL     OW25471   0.640   5.370   4.296
 8191SOL    HW125472   0.627   5.307   4.220
 8191SOL    HW225473   0.551   5.391   4.338
 8192SOL     OW25474   2.019   4.342   2.230
 8192SOL    HW125475   2.031   4.411   2.301
 8192SOL    HW225476   2.015   4.251   2.271
 8193SOL     OW25477   3.760   6.947   5.317
 8193SOL    HW125478   3.678   6.975   5.267
 8193SOL    HW225479   3.829   6.914   5.252
 8194SOL     OW25480   6.868   0.704   0.233
 8194SOL    HW125481   6.919   0.752   0.163
 8194SOL    HW225482   6.920   0.704   0.319
 8195SOL     OW25483   6.731   6.400   0.024
 8195SOL    HW125484   6.802   6.416   0.093
 8195SOL    HW225485   6.695   6.488   7.012
 8196SOL     OW25486   3.098   6.621   6.341
 8196SOL    HW125487   3.137   6.556   6.406
 8196SOL    HW225488   3.171   6.655   6.281
 8197SOL     OW25489   0.523   0.573   6.127
 8197SOL    HW125490   0.490   0.542   6.038
 8197SOL    HW225491   0.487   0.513   6.198
 8198SOL     OW25492   2.724   6.855   3.311
 8198SOL    HW125493   2.700   6.950   3.292
 8198SOL    HW225494   2.659   6.816   3.375
 8199SOL     OW25495   6.813   3.349   6.548
 8199SOL    HW125496   6.718   3.368   6.523
 8199SOL    HW225497   6.870   3.426   6.520
 8200SOL     OW25498   5.422   4.191   1.002
 8200SOL    HW125499   5.356   4.202   1.076
 8200SOL    HW225500   5.456   4.097   1.002
 8201SOL     OW25501   5.628   6.853   3.490
 8201SOL    HW125502   5.583   6.942   3.484
 8201SOL    HW225503   5.691   6.842   3.412
 8202SOL     OW25504   1.687   4.028   3.940
 8202SOL    HW125505   1.782   4.033   3.911
 8202SOL    HW225506   1.645   3.944   3.906
 8203SOL     OW25507   5.661   3.830   0.970
 8203SOL    HW125508   5.594   3.757   0.985
 8203SOL    HW225509   5.753   3.794   0.981
 8204SOL     OW25510   3.413   0.183   1.968
 8204SOL    HW125511   3.474   0.218   1.897
 8204SOL    HW225512   3.465   0.169   2.052
 8205SOL     OW25513   5.553   5.759   1.587
 8205SOL    HW125514   5.518   5.668   1.609
 8205SOL    HW225515   5.599   5.757   1.498
 8206SOL     OW25516   4.379   2.155   5.272
 8206SOL    HW125517   4.402   2.139   5.176
 8206SOL    HW225518   4.322   2.081   5.305
 8207SOL     OW25519   2.745   5.682   6.610
 8207SOL    HW125520   2.748   5.765   6.554
 8207SOL    HW225521   2.660   5.632   6.592
 8208SOL     OW25522   1.490   4.356   0.994
 8208SOL    HW125523   1.498   4.454   1.016
 8208SOL    HW225524   1.400   4.338   0.956
 8209SOL     OW25525   0.602   0.303   5.151
 8209SOL    HW125526   0.540   0.380   5.135
 8209SOL    HW225527   0.555   0.231   5.202
 8210SOL     OW25528   2.422   0.996   0.064
 8210SOL    HW125529   2.378   1.050   0.136
 8210SOL    HW225530   2.518   0.981   0.087
 8211SOL     OW25531   3.408   2.932   4.668
 8211SOL    HW125532   3.457   2.895   4.589
 8211SOL    HW225533   3.431   2.879   4.750
 8212SOL     OW25534   3.556   0.368   1.199
 8212SOL    HW125535   3.562   0.317   1.113
 8212SOL    HW225536   3.648   0.389   1.232
 8213SOL     OW25537   4.516   4.140   1.614
 8213SOL    HW125538   4.610   4.110   1.623
 8213SOL    HW225539   4.490   4.196   1.692
 8214SOL     OW25540   3.544   5.666   4.606
 8214SOL    HW125541   3.551   5.762   4.634
 8214SOL    HW225542   3.450   5.633   4.621
 8215SOL     OW25543   4.409   6.769   6.728
 8215SOL    HW125544   4.354   6.753   6.646
 8215SOL    HW225545   4.392   6.861   6.763
 8216SOL     OW25546   5.320   5.284   1.362
 8216SOL    HW125547   5.353   5.374   1.334
 8216SOL    HW225548   5.296   5.231   1.280
 8217SOL     OW25549   1.949   5.894   3.667
 8217SOL    HW125550   1.911   5.827   3.731
 8217SOL    HW225551   2.042   5.918   3.694
 8218SOL     OW25552   1.444   6.983   4.634
 8218SOL    HW125553   1.417   0.036   4.697
 8218SOL    HW225554   1.456   0.002   4.543
 8219SOL     OW25555   3.820   3.413   1.049
 8219SOL    HW125556   3.919   3.426   1.046
 8219SOL    HW225557   3.784   3.446   1.136
 8220SOL     OW25558   4.012   3.299   3.907
 8220SOL    HW125559   3.965   3.387   3.903
 8220SOL    HW225560   4.066   3.286   3.824
 8221SOL     OW25561   5.700   3.176   3.476
 8221SOL    HW125562   5.781   3.234   3.477
 8221SOL    HW225563   5.727   3.080   3.489
 8222SOL     OW25564   6.434   3.149   0.538
 8222SOL    HW125565   6.466   3.056   0.520
 8222SOL    HW225566   6.363   3.173   0.471
 8223SOL     OW25567   0.790   5.737   5.380
 8223SOL    HW125568   0.765   5.648   5.342
 8223SOL    HW225569   0.818   5.726   5.475
 8224SOL     OW25570   5.371   1.959   0.551
 8224SOL    HW125571   5.313   2.041   0.554
 8224SOL    HW225572   5.356   1.904   0.633
 8225SOL     OW25573   5.204   1.434   0.553
 8225SOL    HW125574   5.108   1.432   0.578
 8225SOL    HW225575   5.216   1.398   0.461
 8226SOL     OW25576   4.113   0.440   0.150
 8226SOL    HW125577   4.063   0.470   0.231
 8226SOL    HW225578   4.203   0.484   0.147
 8227SOL     OW25579   4.953   2.064   2.947
 8227SOL    HW125580   4.904   1.981   2.974
 8227SOL    HW225581   4.920   2.141   3.002
 8228SOL     OW25582   1.821   0.407   5.260
 8228SOL    HW125583   1.753   0.409   5.334
 8228SOL    HW225584   1.883   0.484   5.271
 8229SOL     OW25585   4.512   4.368   1.098
 8229SOL    HW125586   4.425   4.347   1.142
 8229SOL    HW225587   4.516   4.326   1.008
 8230SOL     OW25588   5.879   0.590   6.043
 8230SOL    HW125589   5.781   0.575   6.035
 8230SOL    HW225590   5.928   0.506   6.019
 8231SOL     OW25591   2.647   1.314   2.611
 8231SOL    HW125592   2.547   1.310   2.615
 8231SOL    HW225593   2.675   1.398   2.564
 8232SOL     OW25594   3.675   6.330   2.872
 8232SOL    HW125595   3.665   6.426   2.849
 8232SOL    HW225596   3.682   6.276   2.788
 8233SOL     OW25597   0.850   1.061   5.975
 8233SOL    HW125598   0.917   1.126   6.011
 8233SOL    HW225599   0.832   0.991   6.044
 8234SOL     OW25600   1.532   1.635   0.484
 8234SOL    HW125601   1.497   1.612   0.574
 8234SOL    HW225602   1.596   1.565   0.453
 8235SOL     OW25603   0.545   5.647   1.062
 8235SOL    HW125604   0.471   5.619   1.002
 8235SOL    HW225605   0.562   5.576   1.130
 8236SOL     OW25606   0.734   6.292   0.752
 8236SOL    HW125607   0.775   6.206   0.721
 8236SOL    HW225608   0.778   6.369   0.706
 8237SOL     OW25609   4.653   4.948   0.022
 8237SOL    HW125610   4.681   4.912   0.111
 8237SOL    HW225611   4.648   5.048   0.027
 8238SOL     OW25612   0.719   4.101   0.405
 8238SOL    HW125613   0.631   4.087   0.450
 8238SOL    HW225614   0.725   4.195   0.373
 8239SOL     OW25615   1.653   1.227   5.509
 8239SOL    HW125616   1.706   1.292   5.564
 8239SOL    HW225617   1.691   1.222   5.417
 8240SOL     OW25618   3.663   3.796   4.436
 8240SOL    HW125619   3.719   3.865   4.481
 8240SOL    HW225620   3.676   3.708   4.482
 8241SOL     OW25621   2.109   3.919   6.068
 8241SOL    HW125622   2.029   3.884   6.021
 8241SOL    HW225623   2.187   3.919   6.005
 8242SOL     OW25624   0.904   3.597   3.798
 8242SOL    HW125625   0.815   3.637   3.818
 8242SOL    HW225626   0.970   3.669   3.780
 8243SOL     OW25627   0.427   4.776   4.819
 8243SOL    HW125628   0.516   4.731   4.824
 8243SOL    HW225629   0.358   4.718   4.862
 8244SOL     OW25630   1.112   0.465   4.664
 8244SOL    HW125631   1.017   0.435   4.657
 8244SOL    HW225632   1.145   0.450   4.757
 8245SOL     OW25633   5.365   1.705   3.558
 8245SOL    HW125634   5.366   1.805   3.559
 8245SOL    HW225635   5.433   1.671   3.493
 8246SOL     OW25636   2.410   5.529   6.718
 8246SOL    HW125637   2.489   5.575   6.760
 8246SOL    HW225638   2.326   5.567   6.756
 8247SOL     OW25639   3.005   5.442   2.864
 8247SOL    HW125640   2.959   5.488   2.787
 8247SOL    HW225641   2.937   5.394   2.919
 8248SOL     OW25642   0.144   5.091   2.987
 8248SOL    HW125643   0.193   5.142   3.058
 8248SOL    HW225644   0.106   5.155   2.920
 8249SOL     OW25645   3.395   1.943   6.045
 8249SOL    HW125646   3.399   1.914   5.949
 8249SOL    HW225647   3.344   2.028   6.052
 8250SOL     OW25648   1.603   1.323   0.106
 8250SOL    HW125649   1.600   1.405   0.049
 8250SOL    HW225650   1.695   1.314   0.146
 8251SOL     OW25651   0.329   1.839   4.455
 8251SOL    HW125652   0.339   1.755   4.509
 8251SOL    HW225653   0.402   1.902   4.478
 8252SOL     OW25654   1.492   2.189   6.467
 8252SOL    HW125655   1.524   2.119   6.403
 8252SOL    HW225656   1.565   2.255   6.484
 8253SOL     OW25657   4.596   6.131   0.922
 8253SOL    HW125658   4.615   6.124   0.824
 8253SOL    HW225659   4.646   6.208   0.961
 8254SOL     OW25660   5.216   5.109   6.776
 8254SOL    HW125661   5.225   5.096   6.677
 8254SOL    HW225662   5.124   5.083   6.804
 8255SOL     OW25663   0.869   6.725   6.620
 8255SOL    HW125664   0.921   6.677   6.691
 8255SOL    HW225665   0.903   6.819   6.613
 8256SOL     OW25666   1.338   5.519   3.159
 8256SOL    HW125667   1.432   5.486   3.172
 8256SOL    HW225668   1.278   5.475   3.226
 8257SOL     OW25669   4.870   3.327   3.105
 8257SOL    HW125670   4.876   3.342   3.006
 8257SOL    HW225671   4.872   3.416   3.152
 8258SOL     OW25672   6.597   3.180   2.133
 8258SOL    HW125673   6.585   3.170   2.035
 8258SOL    HW225674   6.632   3.094   2.171
 8259SOL     OW25675   5.028   1.271   4.283
 8259SOL    HW125676   5.052   1.335   4.210
 8259SOL    HW225677   5.070   1.302   4.369
 8260SOL     OW25678   3.914   1.307   1.595
 8260SOL    HW125679   3.965   1.241   1.540
 8260SOL    HW225680   3.955   1.397   1.585
 8261SOL     OW25681   5.674   0.405   2.863
 8261SOL    HW125682   5.752   0.352   2.830
 8261SOL    HW225683   5.598   0.396   2.798
 8262SOL     OW25684   6.011   3.709   1.987
 8262SOL    HW125685   5.978   3.782   1.928
 8262SOL    HW225686   6.005   3.738   2.083
 8263SOL     OW25687   0.078   2.437   5.994
 8263SOL    HW125688   0.140   2.506   5.958
 8263SOL    HW225689   7.007   2.448   5.952
 8264SOL     OW25690   2.913   6.850   2.745
 8264SOL    HW125691   2.843   6.921   2.737
 8264SOL    HW225692   2.875   6.771   2.793
 8265SOL     OW25693   5.125   0.193   0.408
 8265SOL    HW125694   5.026   0.198   0.423
 8265SOL    HW225695   5.150   0.256   0.334
 8266SOL     OW25696   2.644   0.772   3.816
 8266SOL    HW125697   2.627   0.865   3.785
 8266SOL    HW225698   2.683   0.773   3.908
 8267SOL     OW25699   1.600   4.178   2.926
 8267SOL    HW125700   1.562   4.108   2.987
 8267SOL    HW225701   1.527   4.236   2.892
 8268SOL     OW25702   3.320   4.770   6.372
 8268SOL    HW125703   3.236   4.746   6.325
 8268SOL    HW225704   3.353   4.691   6.424
 8269SOL     OW25705   5.921   2.568   3.710
 8269SOL    HW125706   5.859   2.557   3.632
 8269SOL    HW225707   5.981   2.488   3.716
 8270SOL     OW25708   3.834   0.215   6.448
 8270SOL    HW125709   3.915   0.173   6.491
 8270SOL    HW225710   3.814   0.168   6.362
 8271SOL     OW25711   3.859   6.074   5.563
 8271SOL    HW125712   3.910   6.030   5.637
 8271SOL    HW225713   3.903   6.161   5.540
 8272SOL     OW25714   0.542   0.325   1.428
 8272SOL    HW125715   0.577   0.353   1.517
 8272SOL    HW225716   0.503   0.233   1.434
 8273SOL     OW25717   3.443   0.276   0.201
 8273SOL    HW125718   3.423   0.183   0.171
 8273SOL    HW225719   3.475   0.274   0.296
 8274SOL     OW25720   5.456   6.172   5.896
 8274SOL    HW125721   5.469   6.179   5.798
 8274SOL    HW225722   5.536   6.126   5.937
 8275SOL     OW25723   5.486   0.097   3.435
 8275SOL    HW125724   5.505   0.141   3.523
 8275SOL    HW225725   5.442   0.162   3.374
 8276SOL     OW25726   0.228   2.647   5.888
 8276SOL    HW125727   0.143   2.686   5.852
 8276SOL    HW225728   0.292   2.720   5.911
 8277SOL     OW25729   1.284   6.025   6.475
 8277SOL    HW125730   1.214   5.954   6.482
 8277SOL    HW225731   1.309   6.056   6.567
 8278SOL     OW25732   3.779   1.064   0.259
 8278SOL    HW125733   3.754   1.160   0.259
 8278SOL    HW225734   3.874   1.053   0.288
 8279SOL     OW25735   5.021   5.037   5.790
 8279SOL    HW125736   5.007   5.007   5.884
 8279SOL    HW225737   5.065   5.127   5.789
 8280SOL     OW25738   5.280   3.181   6.943
 8280SOL    HW125739   5.231   3.098   6.970
 8280SOL    HW225740   5.219   3.260   6.953
 8281SOL     OW25741   2.378   4.922   0.118
 8281SOL    HW125742   2.351   4.979   0.196
 8281SOL    HW225743   2.328   4.836   0.121
 8282SOL     OW25744   2.845   2.076   0.572
 8282SOL    HW125745   2.914   2.093   0.501
 8282SOL    HW225746   2.767   2.137   0.558
 8283SOL     OW25747   0.095   5.705   3.294
 8283SOL    HW125748   0.093   5.642   3.216
 8283SOL    HW225749   0.170   5.770   3.282
 8284SOL     OW25750   2.665   2.078   2.207
 8284SOL    HW125751   2.694   2.116   2.119
 8284SOL    HW225752   2.579   2.120   2.235
 8285SOL     OW25753   2.937   4.198   6.197
 8285SOL    HW125754   3.008   4.195   6.268
 8285SOL    HW225755   2.914   4.104   6.170
 8286SOL     OW25756   5.591   1.479   5.504
 8286SOL    HW125757   5.518   1.411   5.515
 8286SOL    HW225758   5.658   1.469   5.578
 8287SOL     OW25759   2.115   0.688   3.637
 8287SOL    HW125760   2.090   0.783   3.621
 8287SOL    HW225761   2.044   0.628   3.599
 8288SOL     OW25762   2.126   1.154   2.855
 8288SOL    HW125763   2.046   1.106   2.891
 8288SOL    HW225764   2.192   1.169   2.929
 8289SOL     OW25765   6.660   1.561   6.046
 8289SOL    HW125766   6.623   1.549   5.954
 8289SOL    HW225767   6.677   1.659   6.062
 8290SOL     OW25768   4.499   2.880   1.678
 8290SOL    HW125769   4.523   2.944   1.751
 8290SOL    HW225770   4.490   2.930   1.592
 8291SOL     OW25771   4.133   4.971   6.391
 8291SOL    HW125772   4.111   5.008   6.481
 8291SOL    HW225773   4.221   4.925   6.394
 8292SOL     OW25774   0.738   4.146   4.444
 8292SOL    HW125775   0.836   4.128   4.456
 8292SOL    HW225776   0.696   4.071   4.394
 8293SOL     OW25777   3.010   4.927   4.116
 8293SOL    HW125778   3.107   4.930   4.140
 8293SOL    HW225779   2.956   4.906   4.197
 8294SOL     OW25780   4.659   3.044   5.801
 8294SOL    HW125781   4.588   3.105   5.835
 8294SOL    HW225782   4.623   2.991   5.724
 8295SOL     OW25783   5.009   4.217   1.704
 8295SOL    HW125784   5.001   4.134   1.649
 8295SOL    HW225785   4.927   4.228   1.760
 8296SOL     OW25786   3.533   6.185   1.818
 8296SOL    HW125787   3.445   6.183   1.866
 8296SOL    HW225788   3.562   6.280   1.806
 8297SOL     OW25789   5.672   4.297   3.351
 8297SOL    HW125790   5.737   4.338   3.288
 8297SOL    HW225791   5.600   4.362   3.373
 8298SOL     OW25792   6.518   6.998   5.957
 8298SOL    HW125793   6.615   7.014   5.942
 8298SOL    HW225794   6.506   6.928   6.028
 8299SOL     OW25795   0.421   3.511   0.957
 8299SOL    HW125796   0.346   3.570   0.987
 8299SOL    HW225797   0.406   3.485   0.861
 8300SOL     OW25798   5.200   4.719   2.756
 8300SOL    HW125799   5.285   4.769   2.771
 8300SOL    HW225800   5.193   4.695   2.659
 8301SOL     OW25801   4.719   6.618   0.527
 8301SOL    HW125802   4.673   6.706   0.513
 8301SOL    HW225803   4.651   6.548   0.549
 8302SOL     OW25804   3.457   6.850   5.294
 8302SOL    HW125805   3.358   6.859   5.289
 8302SOL    HW225806   3.495   6.926   5.346
 8303SOL     OW25807   0.085   6.255   2.903
 8303SOL    HW125808   7.018   6.205   2.901
 8303SOL    HW225809   0.067   6.351   2.924
 8304SOL     OW25810   5.264   4.009   3.064
 8304SOL    HW125811   5.360   4.023   3.041
 8304SOL    HW225812   5.253   4.017   3.163
 8305SOL     OW25813   4.765   6.524   5.063
 8305SOL    HW125814   4.680   6.494   5.020
 8305SOL    HW225815   4.811   6.589   5.004
 8306SOL     OW25816   6.693   0.791   1.917
 8306SOL    HW125817   6.783   0.748   1.922
 8306SOL    HW225818   6.632   0.735   1.861
 8307SOL     OW25819   1.601   3.761   2.712
 8307SOL    HW125820   1.678   3.758   2.775
 8307SOL    HW225821   1.572   3.667   2.691
 8308SOL     OW25822   1.370   5.779   0.871
 8308SOL    HW125823   1.322   5.795   0.784
 8308SOL    HW225824   1.316   5.815   0.946
 8309SOL     OW25825   5.948   4.500   4.317
 8309SOL    HW125826   6.045   4.491   4.340
 8309SOL    HW225827   5.929   4.447   4.234
 8310SOL     OW25828   1.068   6.940   0.592
 8310SOL    HW125829   1.000   7.010   0.570
 8310SOL    HW225830   1.130   6.976   0.662
 8311SOL     OW25831   5.910   6.597   3.313
 8311SOL    HW125832   5.965   6.612   3.232
 8311SOL    HW225833   5.868   6.684   3.342
 8312SOL     OW25834   5.534   1.513   0.552
 8312SOL    HW125835   5.625   1.553   0.562
 8312SOL    HW225836   5.465   1.579   0.582
 8313SOL     OW25837   5.243   2.515   5.086
 8313SOL    HW125838   5.323   2.524   5.145
 8313SOL    HW225839   5.170   2.574   5.121
 8314SOL     OW25840   5.036   6.038   4.981
 8314SOL    HW125841   5.100   6.093   5.034
 8314SOL    HW225842   5.050   6.055   4.883
 8315SOL     OW25843   3.883   4.199   5.046
 8315SOL    HW125844   3.836   4.126   4.997
 8315SOL    HW225845   3.970   4.218   5.002
 8316SOL     OW25846   2.551   2.330   6.305
 8316SOL    HW125847   2.556   2.427   6.282
 8316SOL    HW225848   2.643   2.297   6.328
 8317SOL     OW25849   1.890   1.557   4.109
 8317SOL    HW125850   1.882   1.458   4.123
 8317SOL    HW225851   1.800   1.600   4.119
 8318SOL     OW25852   4.439   0.015   0.304
 8318SOL    HW125853   4.482   0.104   0.321
 8318SOL    HW225854   4.340   0.022   0.322
 8319SOL     OW25855   1.244   6.529   0.195
 8319SOL    HW125856   1.192   6.460   0.145
 8319SOL    HW225857   1.333   6.491   0.223
 8320SOL     OW25858   3.022   3.092   4.782
 8320SOL    HW125859   2.942   3.034   4.800
 8320SOL    HW225860   3.103   3.050   4.823
 8321SOL     OW25861   0.375   6.728   1.609
 8321SOL    HW125862   0.347   6.641   1.650
 8321SOL    HW225863   0.468   6.719   1.573
 8322SOL     OW25864   0.738   7.019   0.167
 8322SOL    HW125865   0.654   6.964   0.159
 8322SOL    HW225866   0.763   0.033   0.076
 8323SOL     OW25867   5.904   4.285   0.324
 8323SOL    HW125868   5.901   4.187   0.307
 8323SOL    HW225869   5.814   4.325   0.306
 8324SOL     OW25870   4.974   5.808   6.179
 8324SOL    HW125871   4.973   5.908   6.190
 8324SOL    HW225872   5.067   5.774   6.192
 8325SOL     OW25873   1.404   5.563   6.439
 8325SOL    HW125874   1.339   5.488   6.455
 8325SOL    HW225875   1.379   5.613   6.356
 8326SOL     OW25876   1.183   3.579   0.614
 8326SOL    HW125877   1.157   3.516   0.541
 8326SOL    HW225878   1.282   3.587   0.617
 8327SOL     OW25879   0.723   0.009   4.854
 8327SOL    HW125880   0.714   0.108   4.851
 8327SOL    HW225881   0.632   6.987   4.854
 8328SOL     OW25882   1.486   0.237   0.191
 8328SOL    HW125883   1.492   0.302   0.266
 8328SOL    HW225884   1.446   0.151   0.224
 8329SOL     OW25885   1.792   2.987   4.944
 8329SOL    HW125886   1.863   2.956   5.007
 8329SOL    HW225887   1.754   2.909   4.895
 8330SOL     OW25888   4.091   1.259   6.564
 8330SOL    HW125889   4.044   1.189   6.617
 8330SOL    HW225890   4.096   1.344   6.617
 8331SOL     OW25891   1.891   2.215   6.157
 8331SOL    HW125892   1.824   2.184   6.090
 8331SOL    HW225893   1.903   2.144   6.227
 8332SOL     OW25894   5.995   5.120   1.550
 8332SOL    HW125895   6.006   5.068   1.634
 8332SOL    HW225896   5.955   5.209   1.570
 8333SOL     OW25897   2.167   5.083   0.617
 8333SOL    HW125898   2.197   5.141   0.693
 8333SOL    HW225899   2.152   4.990   0.651
 8334SOL     OW25900   3.729   1.843   6.449
 8334SOL    HW125901   3.667   1.767   6.467
 8334SOL    HW225902   3.698   1.892   6.367
 8335SOL     OW25903   5.406   3.602   6.175
 8335SOL    HW125904   5.378   3.565   6.263
 8335SOL    HW225905   5.449   3.530   6.121
 8336SOL     OW25906   1.091   4.241   3.505
 8336SOL    HW125907   1.029   4.246   3.584
 8336SOL    HW225908   1.162   4.310   3.514
 8337SOL     OW25909   0.699   1.152   4.698
 8337SOL    HW125910   0.606   1.116   4.691
 8337SOL    HW225911   0.757   1.108   4.630
 8338SOL     OW25912   4.103   5.733   2.245
 8338SOL    HW125913   4.174   5.740   2.174
 8338SOL    HW225914   4.013   5.746   2.203
 8339SOL     OW25915   5.915   6.843   0.595
 8339SOL    HW125916   5.838   6.790   0.630
 8339SOL    HW225917   5.947   6.803   0.509
 8340SOL     OW25918   6.363   2.206   6.887
 8340SOL    HW125919   6.451   2.240   6.920
 8340SOL    HW225920   6.289   2.259   6.929
 8341SOL     OW25921   3.555   0.853   0.727
 8341SOL    HW125922   3.601   0.785   0.671
 8341SOL    HW225923   3.540   0.936   0.673
 8342SOL     OW25924   4.737   0.543   0.324
 8342SOL    HW125925   4.658   0.489   0.352
 8342SOL    HW225926   4.743   0.543   0.224
 8343SOL     OW25927   5.740   4.376   3.690
 8343SOL    HW125928   5.645   4.354   3.715
 8343SOL    HW225929   5.762   4.332   3.603
 8344SOL     OW25930   1.407   5.150   5.215
 8344SOL    HW125931   1.415   5.118   5.310
 8344SOL    HW225932   1.453   5.237   5.205
 8345SOL     OW25933   4.304   1.263   3.610
 8345SOL    HW125934   4.386   1.311   3.580
 8345SOL    HW225935   4.229   1.283   3.546
 8346SOL     OW25936   6.017   3.357   5.010
 8346SOL    HW125937   5.973   3.268   5.024
 8346SOL    HW225938   5.982   3.399   4.927
 8347SOL     OW25939   2.654   0.371   0.265
 8347SOL    HW125940   2.722   0.437   0.234
 8347SOL    HW225941   2.649   0.372   0.365
 8348SOL     OW25942   3.321   6.551   1.816
 8348SOL    HW125943   3.299   6.646   1.793
 8348SOL    HW225944   3.378   6.512   1.744
 8349SOL     OW25945   0.430   6.181   1.823
 8349SOL    HW125946   0.363   6.146   1.889
 8349SOL    HW225947   0.462   6.105   1.765
 8350SOL     OW25948   2.876   0.797   0.762
 8350SOL    HW125949   2.811   0.736   0.716
 8350SOL    HW225950   2.911   0.754   0.845
 8351SOL     OW25951   6.548   3.002   3.086
 8351SOL    HW125952   6.587   3.048   3.167
 8351SOL    HW225953   6.594   3.036   3.004
 8352SOL     OW25954   2.161   6.098   1.874
 8352SOL    HW125955   2.154   6.198   1.882
 8352SOL    HW225956   2.151   6.072   1.778
 8353SOL     OW25957   1.534   4.481   1.920
 8353SOL    HW125958   1.471   4.558   1.927
 8353SOL    HW225959   1.557   4.464   1.824
 8354SOL     OW25960   2.908   0.285   3.190
 8354SOL    HW125961   2.962   0.355   3.143
 8354SOL    HW225962   2.813   0.316   3.198
 8355SOL     OW25963   2.560   6.078   6.709
 8355SOL    HW125964   2.562   6.046   6.803
 8355SOL    HW225965   2.651   6.068   6.669
 8356SOL     OW25966   1.850   5.556   0.975
 8356SOL    HW125967   1.753   5.576   0.985
 8356SOL    HW225968   1.863   5.486   0.905
 8357SOL     OW25969   4.294   6.142   5.629
 8357SOL    HW125970   4.282   6.188   5.717
 8357SOL    HW225971   4.280   6.044   5.640
 8358SOL     OW25972   0.730   1.544   5.015
 8358SOL    HW125973   0.635   1.530   5.044
 8358SOL    HW225974   0.746   1.498   4.928
 8359SOL     OW25975   3.546   2.114   5.434
 8359SOL    HW125976   3.642   2.108   5.408
 8359SOL    HW225977   3.489   2.121   5.352
 8360SOL     OW25978   4.715   6.839   1.630
 8360SOL    HW125979   4.680   6.749   1.653
 8360SOL    HW225980   4.676   6.870   1.544
 8361SOL     OW25981   3.624   0.129   6.983
 8361SOL    HW125982   3.562   0.207   6.973
 8361SOL    HW225983   3.635   0.107   0.061
 8362SOL     OW25984   0.104   4.033   1.524
 8362SOL    HW125985   0.156   4.045   1.609
 8362SOL    HW225986   0.064   3.941   1.522
 8363SOL     OW25987   2.665   3.212   0.041
 8363SOL    HW125988   2.752   3.218   7.011
 8363SOL    HW225989   2.597   3.270   7.017
 8364SOL     OW25990   6.683   3.166   4.229
 8364SOL    HW125991   6.654   3.158   4.325
 8364SOL    HW225992   6.621   3.113   4.172
 8365SOL     OW25993   1.833   2.741   2.403
 8365SOL    HW125994   1.821   2.835   2.436
 8365SOL    HW225995   1.925   2.730   2.365
 8366SOL     OW25996   4.934   5.470   1.993
 8366SOL    HW125997   4.927   5.376   1.960
 8366SOL    HW225998   4.991   5.524   1.930
 8367SOL     OW25999   3.546   5.197   4.615
 8367SOL    HW126000   3.553   5.284   4.567
 8367SOL    HW226001   3.531   5.215   4.712
 8368SOL     OW26002   6.908   6.405   0.249
 8368SOL    HW126003   6.997   6.434   0.213
 8368SOL    HW226004   6.919   6.321   0.302
 8369SOL     OW26005   2.650   0.254   1.183
 8369SOL    HW126006   2.603   0.312   1.117
 8369SOL    HW226007   2.647   0.297   1.273
 8370SOL     OW26008   2.324   3.082   0.479
 8370SOL    HW126009   2.403   3.110   0.533
 8370SOL    HW226010   2.331   2.984   0.458
 8371SOL     OW26011   1.958   4.256   6.251
 8371SOL    HW126012   2.042   4.228   6.205
 8371SOL    HW226013   1.880   4.210   6.209
 8372SOL     OW26014   2.205   5.535   2.656
 8372SOL    HW126015   2.146   5.538   2.737
 8372SOL    HW226016   2.298   5.512   2.684
 8373SOL     OW26017   6.902   1.271   4.058
 8373SOL    HW126018   6.838   1.342   4.028
 8373SOL    HW226019   6.876   1.240   4.150
 8374SOL     OW26020   1.658   0.317   4.664
 8374SOL    HW126021   1.563   0.336   4.639
 8374SOL    HW226022   1.718   0.339   4.587
 8375SOL     OW26023   3.895   0.841   4.695
 8375SOL    HW126024   3.867   0.883   4.609
 8375SOL    HW226025   3.950   0.906   4.748
 8376SOL     OW26026   2.141   0.866   2.996
 8376SOL    HW126027   2.221   0.917   3.027
 8376SOL    HW226028   2.068   0.930   2.971
 8377SOL     OW26029   4.203   5.561   7.016
 8377SOL    HW126030   4.298   5.590   7.005
 8377SOL    HW226031   4.165   5.601   0.080
 8378SOL     OW26032   5.184   5.519   4.392
 8378SOL    HW126033   5.181   5.604   4.338
 8378SOL    HW226034   5.101   5.466   4.375
 8379SOL     OW26035   5.662   1.080   1.570
 8379SOL    HW126036   5.735   1.143   1.597
 8379SOL    HW226037   5.612   1.050   1.651
 8380SOL     OW26038   6.477   5.888   0.678
 8380SOL    HW126039   6.430   5.801   0.661
 8380SOL    HW226040   6.484   5.939   0.592
 8381SOL     OW26041   0.406   2.364   1.878
 8381SOL    HW126042   0.433   2.460   1.885
 8381SOL    HW226043   0.360   2.337   1.963
 8382SOL     OW26044   2.590   0.573   0.993
 8382SOL    HW126045   2.518   0.603   1.055
 8382SOL    HW226046   2.678   0.610   1.022
 8383SOL     OW26047   2.809   6.099   6.599
 8383SOL    HW126048   2.866   6.047   6.663
 8383SOL    HW226049   2.851   6.188   6.583
 8384SOL     OW26050   0.619   2.288   1.496
 8384SOL    HW126051   0.658   2.379   1.484
 8384SOL    HW226052   0.683   2.220   1.460
 8385SOL     OW26053   3.717   3.608   1.257
 8385SOL    HW126054   3.660   3.657   1.323
 8385SOL    HW226055   3.812   3.607   1.289
 8386SOL     OW26056   1.880   5.658   2.140
 8386SOL    HW126057   1.821   5.710   2.078
 8386SOL    HW226058   1.971   5.701   2.143
 8387SOL     OW26059   1.607   0.997   2.288
 8387SOL    HW126060   1.631   0.902   2.266
 8387SOL    HW226061   1.542   1.031   2.220
 8388SOL     OW26062   3.993   6.501   1.380
 8388SOL    HW126063   3.935   6.576   1.414
 8388SOL    HW226064   3.954   6.465   1.296
 8389SOL     OW26065   0.443   2.504   4.142
 8389SOL    HW126066   0.403   2.593   4.124
 8389SOL    HW226067   0.520   2.488   4.080
 8390SOL     OW26068   3.089   1.195   5.981
 8390SOL    HW126069   3.101   1.129   6.054
 8390SOL    HW226070   3.022   1.264   6.008
 8391SOL     OW26071   4.952   5.937   1.470
 8391SOL    HW126072   4.920   5.882   1.393
 8391SOL    HW226073   4.908   5.907   1.554
 8392SOL     OW26074   5.613   5.960   5.149
 8392SOL    HW126075   5.657   6.042   5.112
 8392SOL    HW226076   5.678   5.884   5.149
 8393SOL     OW26077   6.961   5.901   2.975
 8393SOL    HW126078   6.997   5.925   3.066
 8393SOL    HW226079   6.928   5.984   2.930
 8394SOL     OW26080   0.463   2.347   2.904
 8394SOL    HW126081   0.446   2.417   2.835
 8394SOL    HW226082   0.480   2.259   2.860
 8395SOL     OW26083   6.882   5.870   5.167
 8395SOL    HW126084   6.820   5.801   5.131
 8395SOL    HW226085   6.948   5.827   5.229
 8396SOL     OW26086   4.901   3.541   2.078
 8396SOL    HW126087   4.978   3.476   2.080
 8396SOL    HW226088   4.816   3.491   2.061
 8397SOL     OW26089   2.192   5.717   3.427
 8397SOL    HW126090   2.268   5.724   3.363
 8397SOL    HW226091   2.111   5.683   3.379
 8398SOL     OW26092   4.218   1.852   0.263
 8398SOL    HW126093   4.240   1.808   0.176
 8398SOL    HW226094   4.128   1.895   0.256
 8399SOL     OW26095   5.793   5.866   0.122
 8399SOL    HW126096   5.827   5.906   0.207
 8399SOL    HW226097   5.750   5.778   0.141
 8400SOL     OW26098   6.702   0.954   2.544
 8400SOL    HW126099   6.760   1.028   2.578
 8400SOL    HW226100   6.731   0.929   2.451
 8401SOL     OW26101   3.083   4.609   6.678
 8401SOL    HW126102   3.171   4.654   6.696
 8401SOL    HW226103   3.029   4.667   6.617
 8402SOL     OW26104   4.407   1.972   6.933
 8402SOL    HW126105   4.464   1.892   6.952
 8402SOL    HW226106   4.364   2.003   7.017
 8403SOL     OW26107   1.890   1.287   4.774
 8403SOL    HW126108   1.924   1.204   4.731
 8403SOL    HW226109   1.952   1.363   4.754
 8404SOL     OW26110   4.742   5.445   5.682
 8404SOL    HW126111   4.815   5.378   5.696
 8404SOL    HW226112   4.655   5.407   5.715
 8405SOL     OW26113   0.449   2.675   5.566
 8405SOL    HW126114   0.373   2.637   5.618
 8405SOL    HW226115   0.531   2.676   5.623
 8406SOL     OW26116   4.954   3.368   1.638
 8406SOL    HW126117   4.887   3.329   1.702
 8406SOL    HW226118   5.045   3.366   1.680
 8407SOL     OW26119   4.867   4.071   2.886
 8407SOL    HW126120   4.816   4.072   2.972
 8407SOL    HW226121   4.936   3.998   2.889
 8408SOL     OW26122   4.960   2.430   4.945
 8408SOL    HW126123   4.966   2.435   5.045
 8408SOL    HW226124   5.007   2.509   4.906
 8409SOL     OW26125   1.507   1.692   3.720
 8409SOL    HW126126   1.560   1.703   3.635
 8409SOL    HW226127   1.509   1.596   3.748
 8410SOL     OW26128   3.990   6.769   1.852
 8410SOL    HW126129   4.036   6.690   1.894
 8410SOL    HW226130   4.027   6.853   1.890
 8411SOL     OW26131   1.424   3.639   4.781
 8411SOL    HW126132   1.429   3.668   4.686
 8411SOL    HW226133   1.349   3.686   4.827
 8412SOL     OW26134   5.245   2.264   3.364
 8412SOL    HW126135   5.197   2.321   3.430
 8412SOL    HW226136   5.301   2.197   3.412
 8413SOL     OW26137   3.689   4.922   0.723
 8413SOL    HW126138   3.642   4.846   0.678
 8413SOL    HW226139   3.748   4.968   0.657
 8414SOL     OW26140   4.119   6.606   3.099
 8414SOL    HW126141   4.084   6.635   3.010
 8414SOL    HW226142   4.115   6.682   3.163
 8415SOL     OW26143   6.549   3.965   2.743
 8415SOL    HW126144   6.451   3.959   2.764
 8415SOL    HW226145   6.569   4.055   2.705
 8416SOL     OW26146   5.493   3.501   2.279
 8416SOL    HW126147   5.515   3.528   2.186
 8416SOL    HW226148   5.555   3.546   2.343
 8417SOL     OW26149   2.832   6.459   6.038
 8417SOL    HW126150   2.761   6.461   5.968
 8417SOL    HW226151   2.814   6.531   6.105
 8418SOL     OW26152   6.758   5.581   3.105
 8418SOL    HW126153   6.758   5.591   3.005
 8418SOL    HW226154   6.804   5.495   3.129
 8419SOL     OW26155   4.338   0.770   3.148
 8419SOL    HW126156   4.435   0.785   3.167
 8419SOL    HW226157   4.297   0.718   3.223
 8420SOL     OW26158   3.874   1.036   6.294
 8420SOL    HW126159   3.882   1.027   6.393
 8420SOL    HW226160   3.819   0.960   6.258
 8421SOL     OW26161   1.875   6.628   2.179
 8421SOL    HW126162   1.974   6.644   2.185
 8421SOL    HW226163   1.828   6.715   2.168
 8422SOL     OW26164   4.693   6.865   0.689
 8422SOL    HW126165   4.665   6.916   0.770
 8422SOL    HW226166   4.618   6.864   0.623
 8423SOL     OW26167   3.416   4.027   0.813
 8423SOL    HW126168   3.412   4.108   0.872
 8423SOL    HW226169   3.462   3.953   0.860
 8424SOL     OW26170   3.478   1.256   2.812
 8424SOL    HW126171   3.382   1.275   2.834
 8424SOL    HW226172   3.528   1.341   2.801
 8425SOL     OW26173   6.329   4.809   0.130
 8425SOL    HW126174   6.417   4.823   0.085
 8425SOL    HW226175   6.313   4.882   0.197
 8426SOL     OW26176   4.072   3.786   3.353
 8426SOL    HW126177   4.130   3.719   3.400
 8426SOL    HW226178   3.989   3.801   3.406
 8427SOL     OW26179   2.180   3.868   6.722
 8427SOL    HW126180   2.251   3.810   6.684
 8427SOL    HW226181   2.139   3.923   6.649
 8428SOL     OW26182   6.726   4.104   2.056
 8428SOL    HW126183   6.767   4.044   2.126
 8428SOL    HW226184   6.779   4.189   2.051
 8429SOL     OW26185   1.561   6.128   3.823
 8429SOL    HW126186   1.609   6.110   3.737
 8429SOL    HW226187   1.463   6.115   3.810
 8430SOL     OW26188   4.284   5.160   2.741
 8430SOL    HW126189   4.187   5.182   2.741
 8430SOL    HW226190   4.296   5.062   2.757
 8431SOL     OW26191   2.940   4.887   1.471
 8431SOL    HW126192   2.902   4.976   1.445
 8431SOL    HW226193   3.010   4.899   1.541
 8432SOL     OW26194   4.461   6.556   6.209
 8432SOL    HW126195   4.519   6.634   6.185
 8432SOL    HW226196   4.384   6.588   6.263
 8433SOL     OW26197   1.104   2.071   6.456
 8433SOL    HW126198   1.136   2.027   6.372
 8433SOL    HW226199   1.041   2.145   6.434
 8434SOL     OW26200   5.326   0.191   5.529
 8434SOL    HW126201   5.294   0.272   5.578
 8434SOL    HW226202   5.399   0.218   5.465
 8435SOL     OW26203   4.117   1.720   1.390
 8435SOL    HW126204   4.190   1.785   1.407
 8435SOL    HW226205   4.129   1.679   1.299
 8436SOL     OW26206   4.258   4.383   1.716
 8436SOL    HW126207   4.175   4.328   1.719
 8436SOL    HW226208   4.337   4.327   1.737
 8437SOL     OW26209   0.744   1.487   0.918
 8437SOL    HW126210   0.667   1.423   0.914
 8437SOL    HW226211   0.710   1.579   0.897
 8438SOL     OW26212   1.607   5.359   2.301
 8438SOL    HW126213   1.657   5.354   2.215
 8438SOL    HW226214   1.666   5.330   2.377
 8439SOL     OW26215   6.947   5.176   2.504
 8439SOL    HW126216   7.005   5.103   2.542
 8439SOL    HW226217   7.000   5.260   2.498
 8440SOL     OW26218   0.856   1.234   2.399
 8440SOL    HW126219   0.897   1.295   2.467
 8440SOL    HW226220   0.764   1.266   2.376
 8441SOL     OW26221   4.201   5.455   6.550
 8441SOL    HW126222   4.234   5.396   6.624
 8441SOL    HW226223   4.114   5.421   6.516
 8442SOL     OW26224   2.270   4.661   6.830
 8442SOL    HW126225   2.212   4.738   6.859
 8442SOL    HW226226   2.358   4.697   6.800
 8443SOL     OW26227   1.466   0.569   3.098
 8443SOL    HW126228   1.561   0.554   3.125
 8443SOL    HW226229   1.462   0.643   3.031
 8444SOL     OW26230   3.201   6.168   3.130
 8444SOL    HW126231   3.265   6.101   3.091
 8444SOL    HW226232   3.251   6.245   3.168
 8445SOL     OW26233   3.723   4.916   2.978
 8445SOL    HW126234   3.641   4.866   2.951
 8445SOL    HW226235   3.744   4.986   2.909
 8446SOL     OW26236   5.717   4.612   2.011
 8446SOL    HW126237   5.782   4.539   2.032
 8446SOL    HW226238   5.633   4.572   1.973
 8447SOL     OW26239   4.619   2.508   1.958
 8447SOL    HW126240   4.617   2.598   2.000
 8447SOL    HW226241   4.712   2.486   1.929
 8448SOL     OW26242   0.798   3.584   6.571
 8448SOL    HW126243   0.871   3.629   6.621
 8448SOL    HW226244   0.709   3.618   6.604
 8449SOL     OW26245   1.617   3.430   4.674
 8449SOL    HW126246   1.560   3.440   4.756
 8449SOL    HW226247   1.655   3.338   4.671
 8450SOL     OW26248   2.518   5.284   2.743
 8450SOL    HW126249   2.534   5.382   2.729
 8450SOL    HW226250   2.599   5.233   2.714
 8451SOL     OW26251   3.592   2.569   1.340
 8451SOL    HW126252   3.624   2.592   1.248
 8451SOL    HW226253   3.611   2.472   1.358
 8452SOL     OW26254   6.923   6.744   0.764
 8452SOL    HW126255   6.862   6.795   0.825
 8452SOL    HW226256   7.012   6.731   0.808
 8453SOL     OW26257   6.451   3.989   5.986
 8453SOL    HW126258   6.391   3.942   5.921
 8453SOL    HW226259   6.416   4.081   6.003
 8454SOL     OW26260   1.773   0.301   4.106
 8454SOL    HW126261   1.815   0.388   4.132
 8454SOL    HW226262   1.754   0.247   4.188
 8455SOL     OW26263   4.747   1.663   1.006
 8455SOL    HW126264   4.767   1.623   0.917
 8455SOL    HW226265   4.832   1.676   1.057
 8456SOL     OW26266   5.488   5.395   2.969
 8456SOL    HW126267   5.450   5.455   2.898
 8456SOL    HW226268   5.441   5.414   3.056
 8457SOL     OW26269   6.938   6.207   5.830
 8457SOL    HW126270   6.997   6.187   5.752
 8457SOL    HW226271   6.981   6.277   5.887
 8458SOL     OW26272   1.301   1.549   0.361
 8458SOL    HW126273   1.385   1.601   0.377
 8458SOL    HW226274   1.242   1.553   0.442
 8459SOL     OW26275   3.147   5.915   1.915
 8459SOL    HW126276   3.174   5.999   1.868
 8459SOL    HW226277   3.225   5.879   1.967
 8460SOL     OW26278   4.714   1.632   0.578
 8460SOL    HW126279   4.773   1.709   0.603
 8460SOL    HW226280   4.618   1.660   0.586
 8461SOL     OW26281   6.472   3.878   1.647
 8461SOL    HW126282   6.374   3.888   1.664
 8461SOL    HW226283   6.522   3.899   1.731
 8462SOL     OW26284   3.704   4.613   6.550
 8462SOL    HW126285   3.635   4.682   6.572
 8462SOL    HW226286   3.710   4.602   6.451
 8463SOL     OW26287   6.718   1.675   0.418
 8463SOL    HW126288   6.729   1.775   0.415
 8463SOL    HW226289   6.771   1.634   0.344
 8464SOL     OW26290   0.151   3.252   0.213
 8464SOL    HW126291   0.089   3.188   0.257
 8464SOL    HW226292   0.122   3.268   0.119
 8465SOL     OW26293   4.321   3.199   1.188
 8465SOL    HW126294   4.399   3.193   1.251
 8465SOL    HW226295   4.263   3.118   1.199
 8466SOL     OW26296   5.991   0.400   5.862
 8466SOL    HW126297   5.997   0.481   5.804
 8466SOL    HW226298   5.999   0.318   5.806
 8467SOL     OW26299   3.642   1.304   1.366
 8467SOL    HW126300   3.649   1.396   1.328
 8467SOL    HW226301   3.733   1.262   1.368
 8468SOL     OW26302   6.264   3.036   6.799
 8468SOL    HW126303   6.265   3.042   6.699
 8468SOL    HW226304   6.178   3.073   6.834
 8469SOL     OW26305   3.669   2.914   5.964
 8469SOL    HW126306   3.706   3.005   5.984
 8469SOL    HW226307   3.680   2.895   5.866
 8470SOL     OW26308   1.519   4.890   1.289
 8470SOL    HW126309   1.578   4.970   1.296
 8470SOL    HW226310   1.561   4.823   1.227
 8471SOL     OW26311   3.757   2.169   5.225
 8471SOL    HW126312   3.849   2.207   5.240
 8471SOL    HW226313   3.758   2.112   5.144
 8472SOL     OW26314   5.504   1.647   5.868
 8472SOL    HW126315   5.493   1.555   5.831
 8472SOL    HW226316   5.492   1.646   5.967
 8473SOL     OW26317   4.735   4.153   6.179
 8473SOL    HW126318   4.658   4.118   6.126
 8473SOL    HW226319   4.819   4.106   6.150
 8474SOL     OW26320   3.682   3.726   2.769
 8474SOL    HW126321   3.673   3.813   2.817
 8474SOL    HW226322   3.760   3.675   2.806
 8475SOL     OW26323   6.434   2.753   1.831
 8475SOL    HW126324   6.358   2.773   1.893
 8475SOL    HW226325   6.432   2.819   1.755
 8476SOL     OW26326   6.030   0.283   1.580
 8476SOL    HW126327   6.115   0.272   1.529
 8476SOL    HW226328   5.953   0.284   1.516
 8477SOL     OW26329   5.878   6.732   1.449
 8477SOL    HW126330   5.970   6.744   1.487
 8477SOL    HW226331   5.861   6.634   1.434
 8478SOL     OW26332   6.942   0.139   5.112
 8478SOL    HW126333   6.883   0.079   5.165
 8478SOL    HW226334   6.999   0.085   5.050
 8479SOL     OW26335   0.881   1.970   1.430
 8479SOL    HW126336   0.881   1.871   1.418
 8479SOL    HW226337   0.835   2.013   1.352
 8480SOL     OW26338   5.091   4.316   6.979
 8480SOL    HW126339   5.028   4.239   6.979
 8480SOL    HW226340   5.077   4.371   6.897
 8481SOL     OW26341   3.793   2.136   3.769
 8481SOL    HW126342   3.871   2.195   3.790
 8481SOL    HW226343   3.763   2.152   3.675
 8482SOL     OW26344   4.584   1.107   0.097
 8482SOL    HW126345   4.545   1.164   0.170
 8482SOL    HW226346   4.662   1.153   0.056
 8483SOL     OW26347   2.743   5.767   3.385
 8483SOL    HW126348   2.797   5.714   3.451
 8483SOL    HW226349   2.679   5.826   3.434
 8484SOL     OW26350   6.103   5.944   4.109
 8484SOL    HW126351   6.105   6.036   4.146
 8484SOL    HW226352   6.042   5.940   4.030
 8485SOL     OW26353   2.727   1.962   0.215
 8485SOL    HW126354   2.719   1.962   0.116
 8485SOL    HW226355   2.767   1.875   0.246
 8486SOL     OW26356   0.773   0.908   2.939
 8486SOL    HW126357   0.795   0.811   2.951
 8486SOL    HW226358   0.856   0.962   2.955
 8487SOL     OW26359   6.080   1.860   5.676
 8487SOL    HW126360   6.006   1.894   5.733
 8487SOL    HW226361   6.049   1.779   5.626
 8488SOL     OW26362   5.158   5.265   1.591
 8488SOL    HW126363   5.197   5.301   1.676
 8488SOL    HW226364   5.227   5.267   1.519
 8489SOL     OW26365   5.071   1.101   1.548
 8489SOL    HW126366   5.121   1.015   1.546
 8489SOL    HW226367   4.988   1.093   1.493
 8490SOL     OW26368   2.369   0.293   6.706
 8490SOL    HW126369   2.348   0.198   6.683
 8490SOL    HW226370   2.301   0.353   6.664
 8491SOL     OW26371   3.228   5.614   2.258
 8491SOL    HW126372   3.131   5.611   2.284
 8491SOL    HW226373   3.266   5.703   2.282
 8492SOL     OW26374   6.037   5.412   4.497
 8492SOL    HW126375   6.011   5.444   4.406
 8492SOL    HW226376   5.985   5.462   4.566
 8493SOL     OW26377   3.912   0.229   0.455
 8493SOL    HW126378   3.818   0.201   0.435
 8493SOL    HW226379   3.912   0.324   0.488
 8494SOL     OW26380   5.874   5.243   2.099
 8494SOL    HW126381   5.848   5.220   2.005
 8494SOL    HW226382   5.974   5.247   2.105
 8495SOL     OW26383   6.787   5.975   0.184
 8495SOL    HW126384   6.862   6.038   0.204
 8495SOL    HW226385   6.764   5.980   0.087
 8496SOL     OW26386   5.142   2.262   2.383
 8496SOL    HW126387   5.159   2.327   2.309
 8496SOL    HW226388   5.094   2.182   2.347
 8497SOL     OW26389   6.662   0.589   3.661
 8497SOL    HW126390   6.596   0.653   3.622
 8497SOL    HW226391   6.619   0.498   3.668
 8498SOL     OW26392   4.768   0.139   4.669
 8498SOL    HW126393   4.845   0.104   4.723
 8498SOL    HW226394   4.780   0.237   4.655
 8499SOL     OW26395   6.463   6.309   6.676
 8499SOL    HW126396   6.388   6.329   6.739
 8499SOL    HW226397   6.426   6.296   6.584
 8500SOL     OW26398   1.897   0.642   5.594
 8500SOL    HW126399   1.991   0.662   5.621
 8500SOL    HW226400   1.869   0.705   5.521
 8501SOL     OW26401   0.440   1.345   6.882
 8501SOL    HW126402   0.496   1.427   6.873
 8501SOL    HW226403   0.367   1.346   6.814
 8502SOL     OW26404   0.476   2.976   6.739
 8502SOL    HW126405   0.509   3.070   6.743
 8502SOL    HW226406   0.381   2.976   6.708
 8503SOL     OW26407   6.060   6.189   4.212
 8503SOL    HW126408   5.967   6.184   4.249
 8503SOL    HW226409   6.091   6.284   4.213
 8504SOL     OW26410   2.459   4.874   2.770
 8504SOL    HW126411   2.464   4.941   2.696
 8504SOL    HW226412   2.550   4.842   2.793
 8505SOL     OW26413   5.187   3.261   2.576
 8505SOL    HW126414   5.260   3.283   2.642
 8505SOL    HW226415   5.217   3.185   2.518
 8506SOL     OW26416   2.739   0.140   0.136
 8506SOL    HW126417   2.827   0.163   0.093
 8506SOL    HW226418   2.701   0.222   0.179
 8507SOL     OW26419   4.661   5.755   5.433
 8507SOL    HW126420   4.612   5.716   5.510
 8507SOL    HW226421   4.610   5.833   5.396
 8508SOL     OW26422   4.007   2.085   6.960
 8508SOL    HW126423   4.065   2.164   6.980
 8508SOL    HW226424   3.934   2.113   6.898
 8509SOL     OW26425   5.479   0.697   3.497
 8509SOL    HW126426   5.409   0.670   3.562
 8509SOL    HW226427   5.546   0.624   3.487
 8510SOL     OW26428   6.228   2.114   4.655
 8510SOL    HW126429   6.142   2.116   4.706
 8510SOL    HW226430   6.257   2.208   4.635
 8511SOL     OW26431   5.955   2.938   1.589
 8511SOL    HW126432   5.874   2.880   1.584
 8511SOL    HW226433   5.927   3.034   1.595
 8512SOL     OW26434   1.363   6.838   4.887
 8512SOL    HW126435   1.387   6.748   4.922
 8512SOL    HW226436   1.412   6.855   4.802
 8513SOL     OW26437   5.891   6.446   6.461
 8513SOL    HW126438   5.837   6.434   6.545
 8513SOL    HW226439   5.830   6.471   6.386
 8514SOL     OW26440   2.438   6.231   4.354
 8514SOL    HW126441   2.479   6.155   4.404
 8514SOL    HW226442   2.469   6.318   4.394
 8515SOL     OW26443   4.777   2.135   1.740
 8515SOL    HW126444   4.796   2.106   1.646
 8515SOL    HW226445   4.737   2.226   1.739
 8516SOL     OW26446   6.943   2.671   2.217
 8516SOL    HW126447   6.947   2.708   2.124
 8516SOL    HW226448   6.956   2.745   2.283
 8517SOL     OW26449   1.925   2.627   6.378
 8517SOL    HW126450   1.991   2.642   6.452
 8517SOL    HW226451   1.836   2.664   6.405
 8518SOL     OW26452   3.980   5.479   0.418
 8518SOL    HW126453   3.962   5.572   0.387
 8518SOL    HW226454   4.068   5.448   0.382
 8519SOL     OW26455   0.758   5.666   2.697
 8519SOL    HW126456   0.793   5.614   2.775
 8519SOL    HW226457   0.788   5.623   2.612
 8520SOL     OW26458   3.973   0.799   6.966
 8520SOL    HW126459   3.881   0.837   6.963
 8520SOL    HW226460   4.000   0.785   0.042
 8521SOL     OW26461   1.450   5.898   6.267
 8521SOL    HW126462   1.393   5.911   6.348
 8521SOL    HW226463   1.539   5.942   6.281
 8522SOL     OW26464   1.288   6.012   5.147
 8522SOL    HW126465   1.371   6.064   5.168
 8522SOL    HW226466   1.279   6.002   5.048
 8523SOL     OW26467   1.447   6.748   0.392
 8523SOL    HW126468   1.366   6.692   0.412
 8523SOL    HW226469   1.514   6.692   0.343
 8524SOL     OW26470   1.195   3.264   6.655
 8524SOL    HW126471   1.225   3.357   6.632
 8524SOL    HW226472   1.258   3.224   6.722
 8525SOL     OW26473   6.411   3.142   3.390
 8525SOL    HW126474   6.426   3.219   3.452
 8525SOL    HW226475   6.497   3.093   3.377
 8526SOL     OW26476   2.275   2.973   2.571
 8526SOL    HW126477   2.302   3.069   2.571
 8526SOL    HW226478   2.248   2.946   2.478
 8527SOL     OW26479   4.317   0.720   4.733
 8527SOL    HW126480   4.365   0.633   4.749
 8527SOL    HW226481   4.326   0.745   4.637
 8528SOL     OW26482   4.972   2.771   6.179
 8528SOL    HW126483   5.016   2.692   6.136
 8528SOL    HW226484   5.040   2.841   6.200
 8529SOL     OW26485   0.590   4.614   0.032
 8529SOL    HW126486   0.560   4.698   7.007
 8529SOL    HW226487   0.519   4.545   0.024
 8530SOL     OW26488   2.109   3.740   5.406
 8530SOL    HW126489   2.155   3.675   5.467
 8530SOL    HW226490   2.165   3.822   5.395
 8531SOL     OW26491   4.994   4.620   2.271
 8531SOL    HW126492   5.006   4.530   2.313
 8531SOL    HW226493   5.046   4.623   2.185
 8532SOL     OW26494   2.909   3.931   6.204
 8532SOL    HW126495   2.867   3.854   6.157
 8532SOL    HW226496   2.892   3.923   6.302
 8533SOL     OW26497   3.311   0.672   4.636
 8533SOL    HW126498   3.235   0.709   4.689
 8533SOL    HW226499   3.387   0.651   4.697
 8534SOL     OW26500   1.324   2.860   2.941
 8534SOL    HW126501   1.393   2.797   2.905
 8534SOL    HW226502   1.284   2.912   2.866
 8535SOL     OW26503   0.369   2.062   4.640
 8535SOL    HW126504   0.326   2.016   4.718
 8535SOL    HW226505   0.299   2.095   4.577
 8536SOL     OW26506   0.346   1.820   6.279
 8536SOL    HW126507   0.370   1.916   6.294
 8536SOL    HW226508   0.307   1.783   6.364
 8537SOL     OW26509   5.799   0.550   2.190
 8537SOL    HW126510   5.715   0.603   2.200
 8537SOL    HW226511   5.781   0.471   2.132
 8538SOL     OW26512   5.655   0.703   4.326
 8538SOL    HW126513   5.560   0.692   4.296
 8538SOL    HW226514   5.709   0.626   4.293
 8539SOL     OW26515   0.299   3.507   1.700
 8539SOL    HW126516   0.338   3.443   1.635
 8539SOL    HW226517   0.203   3.485   1.716
 8540SOL     OW26518   4.057   0.291   6.960
 8540SOL    HW126519   4.090   0.360   0.004
 8540SOL    HW226520   4.035   0.207   7.011
 8541SOL     OW26521   2.958   0.726   5.120
 8541SOL    HW126522   2.934   0.802   5.059
 8541SOL    HW226523   2.899   0.647   5.100
 8542SOL     OW26524   1.947   4.336   6.784
 8542SOL    HW126525   1.976   4.329   6.689
 8542SOL    HW226526   1.942   4.245   6.825
 8543SOL     OW26527   2.383   1.824   6.405
 8543SOL    HW126528   2.404   1.914   6.442
 8543SOL    HW226529   2.422   1.814   6.314
 8544SOL     OW26530   5.237   3.658   5.139
 8544SOL    HW126531   5.297   3.714   5.082
 8544SOL    HW226532   5.143   3.666   5.106
 8545SOL     OW26533   2.993   0.579   6.354
 8545SOL    HW126534   3.042   0.630   6.425
 8545SOL    HW226535   2.985   0.635   6.272
 8546SOL     OW26536   5.486   0.380   1.222
 8546SOL    HW126537   5.452   0.426   1.304
 8546SOL    HW226538   5.467   0.282   1.228
 8547SOL     OW26539   6.096   6.380   5.376
 8547SOL    HW126540   6.049   6.299   5.341
 8547SOL    HW226541   6.028   6.451   5.395
 8548SOL     OW26542   0.622   3.102   6.055
 8548SOL    HW126543   0.666   3.170   5.996
 8548SOL    HW226544   0.528   3.132   6.075
 8549SOL     OW26545   1.464   1.121   3.146
 8549SOL    HW126546   1.530   1.148   3.075
 8549SOL    HW226547   1.494   1.034   3.186
 8550SOL     OW26548   0.084   4.644   6.623
 8550SOL    HW126549   0.068   4.597   6.710
 8550SOL    HW226550   0.154   4.715   6.636
 8551SOL     OW26551   2.199   1.580   6.033
 8551SOL    HW126552   2.276   1.642   6.016
 8551SOL    HW226553   2.155   1.557   5.946
 8552SOL     OW26554   2.700   2.026   2.961
 8552SOL    HW126555   2.768   2.090   2.924
 8552SOL    HW226556   2.734   1.933   2.953
 8553SOL     OW26557   5.336   3.059   6.688
 8553SOL    HW126558   5.372   2.966   6.679
 8553SOL    HW226559   5.336   3.085   6.784
 8554SOL     OW26560   1.303   0.767   0.351
 8554SOL    HW126561   1.265   0.678   0.326
 8554SOL    HW226562   1.382   0.753   0.411
 8555SOL     OW26563   4.729   1.206   4.301
 8555SOL    HW126564   4.822   1.212   4.265
 8555SOL    HW226565   4.670   1.160   4.235
 8556SOL     OW26566   1.515   6.182   0.887
 8556SOL    HW126567   1.478   6.169   0.795
 8556SOL    HW226568   1.605   6.139   0.892
 8557SOL     OW26569   0.503   0.669   0.212
 8557SOL    HW126570   0.457   0.758   0.200
 8557SOL    HW226571   0.601   0.684   0.226
 8558SOL     OW26572   2.723   5.331   4.065
 8558SOL    HW126573   2.736   5.379   4.152
 8558SOL    HW226574   2.625   5.318   4.049
 8559SOL     OW26575   1.351   5.413   2.904
 8559SOL    HW126576   1.346   5.472   2.984
 8559SOL    HW226577   1.260   5.381   2.880
 8560SOL     OW26578   2.924   4.219   1.695
 8560SOL    HW126579   2.963   4.143   1.747
 8560SOL    HW226580   2.929   4.303   1.748
 8561SOL     OW26581   4.384   6.717   2.124
 8561SOL    HW126582   4.478   6.748   2.117
 8561SOL    HW226583   4.345   6.707   2.032
 8562SOL     OW26584   4.421   1.529   6.961
 8562SOL    HW126585   4.402   1.433   6.945
 8562SOL    HW226586   4.458   1.570   6.877
 8563SOL     OW26587   2.652   4.991   2.270
 8563SOL    HW126588   2.710   4.947   2.201
 8563SOL    HW226589   2.620   4.923   2.335
 8564SOL     OW26590   4.308   0.512   6.832
 8564SOL    HW126591   4.388   0.483   6.780
 8564SOL    HW226592   4.227   0.463   6.800
 8565SOL     OW26593   2.609   5.465   1.089
 8565SOL    HW126594   2.688   5.454   1.149
 8565SOL    HW226595   2.556   5.545   1.117
 8566SOL     OW26596   3.210   1.036   3.066
 8566SOL    HW126597   3.306   1.059   3.048
 8566SOL    HW226598   3.161   1.118   3.095
 8567SOL     OW26599   2.037   2.150   1.613
 8567SOL    HW126600   2.045   2.090   1.533
 8567SOL    HW226601   1.956   2.125   1.666
 8568SOL     OW26602   6.646   0.657   6.804
 8568SOL    HW126603   6.660   0.744   6.852
 8568SOL    HW226604   6.733   0.625   6.766
 8569SOL     OW26605   4.916   2.181   6.440
 8569SOL    HW126606   4.918   2.081   6.443
 8569SOL    HW226607   4.830   2.211   6.399
 8570SOL     OW26608   1.492   2.886   4.020
 8570SOL    HW126609   1.586   2.857   4.042
 8570SOL    HW226610   1.460   2.836   3.940
 8571SOL     OW26611   1.588   0.887   3.297
 8571SOL    HW126612   1.595   0.850   3.204
 8571SOL    HW226613   1.510   0.845   3.344
 8572SOL     OW26614   3.010   4.159   5.900
 8572SOL    HW126615   2.994   4.071   5.855
 8572SOL    HW226616   2.923   4.207   5.910
 8573SOL     OW26617   3.997   5.917   0.690
 8573SOL    HW126618   4.084   5.883   0.654
 8573SOL    HW226619   3.945   5.840   0.728
 8574SOL     OW26620   5.268   0.017   5.030
 8574SOL    HW126621   5.329   0.082   4.984
 8574SOL    HW226622   5.230   0.059   5.112
 8575SOL     OW26623   2.953   6.491   3.375
 8575SOL    HW126624   2.926   6.446   3.290
 8575SOL    HW226625   2.986   6.583   3.355
 8576SOL     OW26626   0.903   4.606   3.140
 8576SOL    HW126627   0.917   4.514   3.178
 8576SOL    HW226628   0.992   4.646   3.117
 8577SOL     OW26629   1.691   1.643   0.096
 8577SOL    HW126630   1.724   1.622   0.004
 8577SOL    HW226631   1.593   1.663   0.093
 8578SOL     OW26632   6.798   6.869   5.735
 8578SOL    HW126633   6.792   6.936   5.809
 8578SOL    HW226634   6.843   6.911   5.655
 8579SOL     OW26635   3.258   6.293   2.808
 8579SOL    HW126636   3.315   6.261   2.883
 8579SOL    HW226637   3.310   6.356   2.751
 8580SOL     OW26638   2.403   0.605   1.634
 8580SOL    HW126639   2.369   0.588   1.726
 8580SOL    HW226640   2.418   0.518   1.587
 8581SOL     OW26641   3.020   4.420   1.326
 8581SOL    HW126642   3.052   4.497   1.271
 8581SOL    HW226643   3.028   4.442   1.423
 8582SOL     OW26644   4.021   4.687   5.773
 8582SOL    HW126645   3.929   4.712   5.804
 8582SOL    HW226646   4.088   4.748   5.814
 8583SOL     OW26647   4.412   0.552   2.889
 8583SOL    HW126648   4.504   0.547   2.850
 8583SOL    HW226649   4.391   0.647   2.912
 8584SOL     OW26650   6.607   1.354   4.286
 8584SOL    HW126651   6.707   1.345   4.287
 8584SOL    HW226652   6.567   1.280   4.340
 8585SOL     OW26653   5.476   1.853   2.433
 8585SOL    HW126654   5.441   1.947   2.429
 8585SOL    HW226655   5.409   1.791   2.392
 8586SOL     OW26656   5.986   5.623   1.292
 8586SOL    HW126657   6.018   5.715   1.318
 8586SOL    HW226658   6.032   5.555   1.349
 8587SOL     OW26659   1.896   1.412   6.166
 8587SOL    HW126660   1.827   1.363   6.218
 8587SOL    HW226661   1.942   1.348   6.103
 8588SOL     OW26662   2.877   1.308   6.867
 8588SOL    HW126663   2.945   1.376   6.840
 8588SOL    HW226664   2.892   1.223   6.816
 8589SOL     OW26665   6.788   3.097   6.267
 8589SOL    HW126666   6.795   3.055   6.176
 8589SOL    HW226667   6.880   3.120   6.300
 8590SOL     OW26668   1.719   1.326   2.852
 8590SOL    HW126669   1.740   1.367   2.763
 8590SOL    HW226670   1.679   1.395   2.912
 8591SOL     OW26671   6.660   4.378   0.061
 8591SOL    HW126672   6.608   4.350   0.142
 8591SOL    HW226673   6.672   4.299   7.020
 8592SOL     OW26674   1.203   1.530   6.270
 8592SOL    HW126675   1.226   1.473   6.350
 8592SOL    HW226676   1.114   1.503   6.235
 8593SOL     OW26677   3.491   1.258   6.580
 8593SOL    HW126678   3.409   1.260   6.637
 8593SOL    HW226679   3.465   1.248   6.484
 8594SOL     OW26680   6.710   2.701   5.393
 8594SOL    HW126681   6.727   2.657   5.482
 8594SOL    HW226682   6.796   2.711   5.343
 8595SOL     OW26683   5.891   6.319   2.225
 8595SOL    HW126684   5.941   6.246   2.272
 8595SOL    HW226685   5.884   6.399   2.285
 8596SOL     OW26686   0.729   1.609   3.422
 8596SOL    HW126687   0.811   1.633   3.474
 8596SOL    HW226688   0.660   1.680   3.434
 8597SOL     OW26689   5.845   3.226   0.206
 8597SOL    HW126690   5.789   3.146   0.183
 8597SOL    HW226691   5.942   3.199   0.206
 8598SOL     OW26692   5.952   6.533   3.714
 8598SOL    HW126693   5.959   6.608   3.780
 8598SOL    HW226694   5.890   6.559   3.640
 8599SOL     OW26695   0.831   3.087   3.757
 8599SOL    HW126696   0.743   3.064   3.799
 8599SOL    HW226697   0.834   3.052   3.664
 8600SOL     OW26698   3.849   2.206   1.202
 8600SOL    HW126699   3.890   2.207   1.293
 8600SOL    HW226700   3.787   2.127   1.194
 8601SOL     OW26701   1.133   6.902   3.618
 8601SOL    HW126702   1.151   6.951   3.533
 8601SOL    HW226703   1.094   6.812   3.597
 8602SOL     OW26704   2.031   6.649   4.525
 8602SOL    HW126705   1.946   6.702   4.517
 8602SOL    HW226706   2.050   6.630   4.621
 8603SOL     OW26707   0.137   0.789   0.660
 8603SOL    HW126708   0.087   0.862   0.708
 8603SOL    HW226709   0.085   0.704   0.665
 8604SOL     OW26710   0.594   4.094   6.286
 8604SOL    HW126711   0.585   4.170   6.350
 8604SOL    HW226712   0.532   4.108   6.209
 8605SOL     OW26713   6.944   5.230   4.505
 8605SOL    HW126714   0.005   5.173   4.487
 8605SOL    HW226715   6.962   5.324   4.478
 8606SOL     OW26716   1.971   3.187   7.007
 8606SOL    HW126717   1.969   3.287   7.015
 8606SOL    HW226718   2.066   3.157   6.993
 8607SOL     OW26719   2.548   4.100   1.547
 8607SOL    HW126720   2.597   4.171   1.598
 8607SOL    HW226721   2.499   4.041   1.611
 8608SOL     OW26722   2.277   5.361   3.025
 8608SOL    HW126723   2.262   5.264   3.045
 8608SOL    HW226724   2.206   5.394   2.963
 8609SOL     OW26725   4.564   1.088   4.123
 8609SOL    HW126726   4.605   1.070   4.033
 8609SOL    HW226727   4.465   1.084   4.115
 8610SOL     OW26728   0.684   6.188   2.764
 8610SOL    HW126729   0.646   6.104   2.804
 8610SOL    HW226730   0.732   6.240   2.834
 8611SOL     OW26731   2.573   1.021   4.874
 8611SOL    HW126732   2.517   1.051   4.796
 8611SOL    HW226733   2.524   0.951   4.925
 8612SOL     OW26734   3.842   3.844   3.453
 8612SOL    HW126735   3.743   3.830   3.460
 8612SOL    HW226736   3.879   3.858   3.545
 8613SOL     OW26737   3.600   2.862   1.388
 8613SOL    HW126738   3.527   2.798   1.361
 8613SOL    HW226739   3.689   2.819   1.372
 8614SOL     OW26740   1.081   2.585   2.953
 8614SOL    HW126741   1.106   2.648   2.879
 8614SOL    HW226742   1.035   2.505   2.913
 8615SOL     OW26743   4.198   1.100   3.800
 8615SOL    HW126744   4.265   1.143   3.739
 8615SOL    HW226745   4.112   1.151   3.795
 8616SOL     OW26746   4.234   4.759   2.908
 8616SOL    HW126747   4.263   4.825   2.839
 8616SOL    HW226748   4.140   4.778   2.935
 8617SOL     OW26749   3.763   0.458   3.973
 8617SOL    HW126750   3.831   0.486   3.905
 8617SOL    HW226751   3.757   0.358   3.975
 8618SOL     OW26752   5.646   4.257   0.799
 8618SOL    HW126753   5.738   4.253   0.836
 8618SOL    HW226754   5.579   4.248   0.873
 8619SOL     OW26755   5.248   4.562   0.740
 8619SOL    HW126756   5.314   4.604   0.802
 8619SOL    HW226757   5.234   4.466   0.765
 8620SOL     OW26758   1.857   0.380   4.448
 8620SOL    HW126759   1.878   0.456   4.509
 8620SOL    HW226760   1.941   0.341   4.412
 8621SOL     OW26761   5.092   2.757   1.344
 8621SOL    HW126762   5.074   2.831   1.280
 8621SOL    HW226763   5.007   2.731   1.391
 8622SOL     OW26764   6.213   4.701   2.695
 8622SOL    HW126765   6.269   4.627   2.658
 8622SOL    HW226766   6.116   4.677   2.686
 8623SOL     OW26767   6.825   3.383   4.159
 8623SOL    HW126768   6.763   3.461   4.164
 8623SOL    HW226769   6.785   3.305   4.209
 8624SOL     OW26770   2.953   3.912   5.761
 8624SOL    HW126771   2.907   3.824   5.755
 8624SOL    HW226772   2.982   3.940   5.670
 8625SOL     OW26773   3.501   2.319   5.614
 8625SOL    HW126774   3.522   2.233   5.566
 8625SOL    HW226775   3.572   2.386   5.594
 8626SOL     OW26776   4.432   4.364   0.549
 8626SOL    HW126777   4.461   4.429   0.478
 8626SOL    HW226778   4.338   4.385   0.577
 8627SOL     OW26779   1.869   0.698   2.974
 8627SOL    HW126780   1.952   0.706   3.030
 8627SOL    HW226781   1.813   0.780   2.986
 8628SOL     OW26782   0.851   6.509   0.638
 8628SOL    HW126783   0.809   6.595   0.609
 8628SOL    HW226784   0.932   6.528   0.693
 8629SOL     OW26785   0.083   6.829   4.402
 8629SOL    HW126786   0.073   6.766   4.479
 8629SOL    HW226787   0.163   6.887   4.417
 8630SOL     OW26788   5.133   2.802   2.268
 8630SOL    HW126789   5.206   2.830   2.206
 8630SOL    HW226790   5.152   2.710   2.303
 8631SOL     OW26791   3.141   6.595   0.255
 8631SOL    HW126792   3.209   6.542   0.204
 8631SOL    HW226793   3.078   6.532   0.301
 8632SOL     OW26794   4.925   4.543   5.788
 8632SOL    HW126795   5.024   4.533   5.799
 8632SOL    HW226796   4.904   4.634   5.752
 8633SOL     OW26797   5.333   3.432   6.370
 8633SOL    HW126798   5.386   3.437   6.455
 8633SOL    HW226799   5.250   3.379   6.384
 8634SOL     OW26800   5.100   4.529   0.169
 8634SOL    HW126801   5.088   4.463   0.243
 8634SOL    HW226802   5.100   4.482   0.081
 8635SOL     OW26803   5.687   2.555   6.168
 8635SOL    HW126804   5.651   2.495   6.240
 8635SOL    HW226805   5.615   2.619   6.139
 8636SOL     OW26806   4.913   6.519   1.113
 8636SOL    HW126807   4.864   6.571   1.043
 8636SOL    HW226808   5.004   6.495   1.079
 8637SOL     OW26809   2.184   1.666   6.749
 8637SOL    HW126810   2.257   1.728   6.720
 8637SOL    HW226811   2.223   1.578   6.775
 8638SOL     OW26812   4.664   2.489   4.971
 8638SOL    HW126813   4.740   2.424   4.971
 8638SOL    HW226814   4.693   2.573   5.017
 8639SOL     OW26815   3.830   3.900   6.467
 8639SOL    HW126816   3.773   3.938   6.395
 8639SOL    HW226817   3.773   3.852   6.534
 8640SOL     OW26818   2.543   3.781   1.354
 8640SOL    HW126819   2.621   3.719   1.343
 8640SOL    HW226820   2.508   3.774   1.448
 8641SOL     OW26821   4.142   5.980   2.375
 8641SOL    HW126822   4.135   5.886   2.341
 8641SOL    HW226823   4.228   5.991   2.425
 8642SOL     OW26824   0.876   6.017   3.954
 8642SOL    HW126825   0.783   5.999   3.921
 8642SOL    HW226826   0.938   5.950   3.915
 8643SOL     OW26827   4.206   6.906   0.955
 8643SOL    HW126828   4.159   6.983   0.998
 8643SOL    HW226829   4.175   6.896   0.861
 8644SOL     OW26830   6.121   1.765   7.008
 8644SOL    HW126831   6.080   1.721   0.068
 8644SOL    HW226832   6.056   1.830   6.968
 8645SOL     OW26833   5.655   3.276   2.327
 8645SOL    HW126834   5.609   3.346   2.273
 8645SOL    HW226835   5.722   3.228   2.271
 8646SOL     OW26836   0.161   1.726   5.255
 8646SOL    HW126837   0.111   1.800   5.209
 8646SOL    HW226838   0.245   1.763   5.294
 8647SOL     OW26839   2.269   4.740   2.179
 8647SOL    HW126840   2.317   4.794   2.110
 8647SOL    HW226841   2.272   4.643   2.155
 8648SOL     OW26842   5.874   5.449   0.599
 8648SOL    HW126843   5.833   5.505   0.527
 8648SOL    HW226844   5.880   5.354   0.568
 8649SOL     OW26845   4.377   6.973   1.390
 8649SOL    HW126846   4.323   6.895   1.360
 8649SOL    HW226847   4.316   0.029   1.415
 8650SOL     OW26848   1.908   6.853   4.262
 8650SOL    HW126849   1.859   6.860   4.349
 8650SOL    HW226850   1.945   6.942   4.237
 8651SOL     OW26851   3.533   1.759   0.815
 8651SOL    HW126852   3.575   1.835   0.865
 8651SOL    HW226853   3.595   1.681   0.815
 8652SOL     OW26854   1.332   3.713   3.574
 8652SOL    HW126855   1.337   3.789   3.509
 8652SOL    HW226856   1.249   3.722   3.629
 8653SOL     OW26857   0.027   1.730   6.133
 8653SOL    HW126858   0.101   1.666   6.110
 8653SOL    HW226859   7.000   1.698   6.216
 8654SOL     OW26860   0.784   4.319   1.385
 8654SOL    HW126861   0.770   4.356   1.477
 8654SOL    HW226862   0.860   4.254   1.387
 8655SOL     OW26863   0.631   0.655   5.227
 8655SOL    HW126864   0.539   0.654   5.189
 8655SOL    HW226865   0.697   0.672   5.153
 8656SOL     OW26866   4.766   0.034   1.301
 8656SOL    HW126867   4.723   0.119   1.329
 8656SOL    HW226868   4.850   0.054   1.251
 8657SOL     OW26869   4.809   1.143   2.564
 8657SOL    HW126870   4.794   1.194   2.479
 8657SOL    HW226871   4.742   1.069   2.570
 8658SOL     OW26872   6.998   5.037   1.026
 8658SOL    HW126873   0.034   4.979   0.967
 8658SOL    HW226874   0.002   5.020   1.121
 8659SOL     OW26875   4.434   1.084   2.316
 8659SOL    HW126876   4.393   1.161   2.365
 8659SOL    HW226877   4.377   1.003   2.325
 8660SOL     OW26878   0.025   3.744   1.559
 8660SOL    HW126879   6.960   3.738   1.506
 8660SOL    HW226880   0.077   3.659   1.548
 8661SOL     OW26881   6.701   3.372   2.948
 8661SOL    HW126882   6.689   3.465   2.914
 8661SOL    HW226883   6.772   3.326   2.895
 8662SOL     OW26884   2.783   4.745   3.288
 8662SOL    HW126885   2.701   4.797   3.309
 8662SOL    HW226886   2.847   4.751   3.365
 8663SOL     OW26887   3.677   5.912   2.935
 8663SOL    HW126888   3.777   5.925   2.932
 8663SOL    HW226889   3.647   5.916   3.030
 8664SOL     OW26890   2.990   5.415   4.060
 8664SOL    HW126891   2.994   5.338   4.123
 8664SOL    HW226892   2.962   5.383   3.969
 8665SOL     OW26893   5.388   3.262   6.148
 8665SOL    HW126894   5.386   3.328   6.223
 8665SOL    HW226895   5.424   3.175   6.181
 8666SOL     OW26896   4.420   6.258   2.683
 8666SOL    HW126897   4.444   6.173   2.730
 8666SOL    HW226898   4.329   6.289   2.713
 8667SOL     OW26899   5.145   2.076   4.244
 8667SOL    HW126900   5.176   2.118   4.158
 8667SOL    HW226901   5.224   2.044   4.296
 8668SOL     OW26902   4.882   2.795   5.650
 8668SOL    HW126903   4.788   2.818   5.628
 8668SOL    HW226904   4.885   2.740   5.733
 8669SOL     OW26905   5.960   6.163   5.782
 8669SOL    HW126906   6.050   6.120   5.776
 8669SOL    HW226907   5.923   6.173   5.689
 8670SOL     OW26908   5.878   4.447   5.770
 8670SOL    HW126909   5.827   4.531   5.750
 8670SOL    HW226910   5.843   4.405   5.853
 8671SOL     OW26911   0.006   1.709   2.408
 8671SOL    HW126912   6.982   1.797   2.388
 8671SOL    HW226913   6.956   1.643   2.436
 8672SOL     OW26914   0.589   1.364   3.417
 8672SOL    HW126915   0.649   1.441   3.394
 8672SOL    HW226916   0.497   1.383   3.383
 8673SOL     OW26917   1.147   1.590   1.128
 8673SOL    HW126918   1.100   1.661   1.075
 8673SOL    HW226919   1.116   1.500   1.097
 8674SOL     OW26920   6.471   4.841   3.285
 8674SOL    HW126921   6.440   4.859   3.191
 8674SOL    HW226922   6.435   4.752   3.315
 8675SOL     OW26923   4.229   1.668   5.956
 8675SOL    HW126924   4.321   1.706   5.971
 8675SOL    HW226925   4.162   1.743   5.955
 8676SOL     OW26926   5.714   0.729   0.596
 8676SOL    HW126927   5.706   0.666   0.518
 8676SOL    HW226928   5.782   0.799   0.575
 8677SOL     OW26929   1.533   6.612   5.899
 8677SOL    HW126930   1.450   6.656   5.933
 8677SOL    HW226931   1.593   6.680   5.858
 8678SOL     OW26932   1.689   1.354   1.088
 8678SOL    HW126933   1.682   1.372   1.186
 8678SOL    HW226934   1.780   1.380   1.056
 8679SOL     OW26935   1.962   1.538   4.644
 8679SOL    HW126936   2.031   1.474   4.610
 8679SOL    HW226937   1.941   1.605   4.573
 8680SOL     OW26938   6.609   2.027   6.479
 8680SOL    HW126939   6.680   2.030   6.550
 8680SOL    HW226940   6.652   2.040   6.390
 8681SOL     OW26941   5.327   5.915   1.532
 8681SOL    HW126942   5.350   5.944   1.439
 8681SOL    HW226943   5.399   5.855   1.567
 8682SOL     OW26944   1.114   0.979   0.794
 8682SOL    HW126945   1.016   0.967   0.810
 8682SOL    HW226946   1.150   0.900   0.744
 8683SOL     OW26947   1.982   4.556   4.543
 8683SOL    HW126948   2.039   4.603   4.610
 8683SOL    HW226949   2.023   4.567   4.452
 8684SOL     OW26950   0.708   3.701   4.664
 8684SOL    HW126951   0.740   3.644   4.588
 8684SOL    HW226952   0.780   3.707   4.733
 8685SOL     OW26953   5.015   2.413   5.200
 8685SOL    HW126954   4.929   2.386   5.244
 8685SOL    HW226955   5.091   2.363   5.242
 8686SOL     OW26956   7.002   5.664   2.850
 8686SOL    HW126957   6.980   5.740   2.912
 8686SOL    HW226958   6.923   5.604   2.841
 8687SOL     OW26959   5.935   3.224   3.894
 8687SOL    HW126960   6.032   3.235   3.871
 8687SOL    HW226961   5.913   3.127   3.900
 8688SOL     OW26962   1.161   4.901   6.520
 8688SOL    HW126963   1.162   4.876   6.617
 8688SOL    HW226964   1.073   4.876   6.479
 8689SOL     OW26965   4.867   3.653   6.575
 8689SOL    HW126966   4.929   3.705   6.516
 8689SOL    HW226967   4.821   3.583   6.522
 8690SOL     OW26968   1.862   2.248   3.704
 8690SOL    HW126969   1.859   2.161   3.754
 8690SOL    HW226970   1.815   2.319   3.757
 8691SOL     OW26971   2.985   2.122   5.173
 8691SOL    HW126972   3.043   2.176   5.112
 8691SOL    HW226973   3.036   2.099   5.256
 8692SOL     OW26974   4.290   2.083   5.627
 8692SOL    HW126975   4.331   2.016   5.565
 8692SOL    HW226976   4.361   2.146   5.659
 8693SOL     OW26977   6.851   0.122   6.344
 8693SOL    HW126978   6.786   0.137   6.420
 8693SOL    HW226979   6.915   0.049   6.370
 8694SOL     OW26980   5.454   2.915   4.004
 8694SOL    HW126981   5.481   2.956   4.091
 8694SOL    HW226982   5.535   2.889   3.952
 8695SOL     OW26983   3.531   4.394   5.989
 8695SOL    HW126984   3.484   4.368   5.905
 8695SOL    HW226985   3.629   4.401   5.972
 8696SOL     OW26986   3.381   5.855   6.401
 8696SOL    HW126987   3.428   5.805   6.328
 8696SOL    HW226988   3.318   5.793   6.448
 8697SOL     OW26989   1.498   3.325   5.898
 8697SOL    HW126990   1.562   3.396   5.925
 8697SOL    HW226991   1.499   3.314   5.798
 8698SOL     OW26992   5.635   5.464   4.896
 8698SOL    HW126993   5.680   5.381   4.862
 8698SOL    HW226994   5.596   5.445   4.987
 8699SOL     OW26995   1.585   3.264   0.111
 8699SOL    HW126996   1.663   3.248   0.172
 8699SOL    HW226997   1.527   3.182   0.110
 8700SOL     OW26998   0.870   0.239   5.217
 8700SOL    HW126999   0.774   0.255   5.195
 8700SOL    HW227000   0.896   0.147   5.187
 8701SOL     OW27001   0.799   2.332   6.940
 8701SOL    HW127002   0.773   2.236   6.929
 8701SOL    HW227003   0.816   2.372   6.850
 8702SOL     OW27004   5.741   4.099   1.382
 8702SOL    HW127005   5.819   4.148   1.342
 8702SOL    HW227006   5.660   4.158   1.379
 8703SOL     OW27007   2.799   4.812   1.173
 8703SOL    HW127008   2.827   4.871   1.249
 8703SOL    HW227009   2.751   4.732   1.210
 8704SOL     OW27010   0.952   2.234   3.458
 8704SOL    HW127011   1.049   2.250   3.444
 8704SOL    HW227012   0.938   2.143   3.498
 8705SOL     OW27013   3.842   2.834   6.964
 8705SOL    HW127014   3.907   2.900   7.003
 8705SOL    HW227015   3.893   2.759   6.921
 8706SOL     OW27016   4.519   3.507   6.442
 8706SOL    HW127017   4.424   3.504   6.474
 8706SOL    HW227018   4.533   3.591   6.388
 8707SOL     OW27019   1.705   2.069   5.082
 8707SOL    HW127020   1.607   2.048   5.080
 8707SOL    HW227021   1.718   2.168   5.077
 8708SOL     OW27022   5.909   2.547   2.123
 8708SOL    HW127023   5.825   2.597   2.101
 8708SOL    HW227024   5.972   2.552   2.046
 8709SOL     OW27025   6.861   0.175   5.671
 8709SOL    HW127026   6.929   0.106   5.646
 8709SOL    HW227027   6.802   0.194   5.593
 8710SOL     OW27028   2.333   1.379   3.911
 8710SOL    HW127029   2.334   1.417   4.003
 8710SOL    HW227030   2.426   1.373   3.875
 8711SOL     OW27031   1.890   0.795   1.744
 8711SOL    HW127032   1.799   0.801   1.785
 8711SOL    HW227033   1.959   0.811   1.814
 8712SOL     OW27034   1.584   3.075   5.969
 8712SOL    HW127035   1.557   3.169   5.948
 8712SOL    HW227036   1.552   3.015   5.896
 8713SOL     OW27037   0.560   5.217   2.162
 8713SOL    HW127038   0.509   5.136   2.132
 8713SOL    HW227039   0.632   5.189   2.225
 8714SOL     OW27040   0.210   5.950   0.017
 8714SOL    HW127041   0.123   5.901   0.023
 8714SOL    HW227042   0.237   5.957   6.940
 8715SOL     OW27043   2.062   2.541   0.800
 8715SOL    HW127044   2.091   2.453   0.839
 8715SOL    HW227045   2.117   2.560   0.718
 8716SOL     OW27046   6.717   6.597   1.453
 8716SOL    HW127047   6.682   6.617   1.361
 8716SOL    HW227048   6.691   6.504   1.479
 8717SOL     OW27049   2.763   4.247   0.758
 8717SOL    HW127050   2.671   4.210   0.746
 8717SOL    HW227051   2.786   4.246   0.856
 8718SOL     OW27052   2.332   4.504   6.592
 8718SOL    HW127053   2.311   4.583   6.535
 8718SOL    HW227054   2.315   4.526   6.688
 8719SOL     OW27055   3.866   0.696   5.767
 8719SOL    HW127056   3.877   0.664   5.672
 8719SOL    HW227057   3.875   0.795   5.770
 8720SOL     OW27058   6.818   4.140   4.955
 8720SOL    HW127059   6.811   4.108   5.049
 8720SOL    HW227060   6.756   4.087   4.897
 8721SOL     OW27061   0.658   6.633   6.212
 8721SOL    HW127062   0.746   6.665   6.176
 8721SOL    HW227063   0.584   6.670   6.156
 8722SOL     OW27064   4.025   1.072   1.361
 8722SOL    HW127065   4.111   1.067   1.309
 8722SOL    HW227066   4.023   0.999   1.429
 8723SOL     OW27067   4.537   6.783   2.475
 8723SOL    HW127068   4.528   6.808   2.571
 8723SOL    HW227069   4.633   6.768   2.453
 8724SOL     OW27070   4.145   0.986   4.788
 8724SOL    HW127071   4.197   0.916   4.739
 8724SOL    HW227072   4.136   1.068   4.731
 8725SOL     OW27073   6.975   6.317   3.617
 8725SOL    HW127074   0.049   6.328   3.650
 8725SOL    HW227075   6.913   6.307   3.695
 8726SOL     OW27076   0.718   0.990   0.692
 8726SOL    HW127077   0.681   0.912   0.641
 8726SOL    HW227078   0.644   1.054   0.713
 8727SOL     OW27079   4.495   5.117   6.382
 8727SOL    HW127080   4.514   5.189   6.449
 8727SOL    HW227081   4.579   5.098   6.330
 8728SOL     OW27082   6.990   0.359   3.399
 8728SOL    HW127083   0.063   0.320   3.402
 8728SOL    HW227084   6.947   0.336   3.312
 8729SOL     OW27085   3.661   5.988   6.681
 8729SOL    HW127086   3.619   6.075   6.657
 8729SOL    HW227087   3.730   5.965   6.612
 8730SOL     OW27088   4.949   4.875   2.210
 8730SOL    HW127089   4.939   4.880   2.110
 8730SOL    HW227090   4.954   4.779   2.238
 8731SOL     OW27091   0.918   1.927   3.255
 8731SOL    HW127092   0.911   1.934   3.354
 8731SOL    HW227093   0.978   1.850   3.231
 8732SOL     OW27094   5.660   5.920   0.577
 8732SOL    HW127095   5.607   5.878   0.651
 8732SOL    HW227096   5.603   5.985   0.527
 8733SOL     OW27097   6.431   5.240   1.728
 8733SOL    HW127098   6.479   5.263   1.812
 8733SOL    HW227099   6.414   5.142   1.724
 8734SOL     OW27100   0.134   3.192   2.222
 8734SOL    HW127101   0.097   3.219   2.311
 8734SOL    HW227102   0.209   3.126   2.235
 8735SOL     OW27103   1.645   3.743   5.878
 8735SOL    HW127104   1.677   3.813   5.941
 8735SOL    HW227105   1.655   3.775   5.784
 8736SOL     OW27106   1.006   6.132   2.806
 8736SOL    HW127107   1.079   6.133   2.738
 8736SOL    HW227108   0.920   6.108   2.762
 8737SOL     OW27109   1.696   6.344   0.099
 8737SOL    HW127110   1.767   6.275   0.112
 8737SOL    HW227111   1.735   6.424   0.055
 8738SOL     OW27112   1.229   3.382   3.579
 8738SOL    HW127113   1.214   3.342   3.669
 8738SOL    HW227114   1.323   3.415   3.573
 8739SOL     OW27115   5.412   4.178   5.015
 8739SOL    HW127116   5.509   4.192   5.033
 8739SOL    HW227117   5.358   4.237   5.075
 8740SOL     OW27118   3.161   1.581   4.640
 8740SOL    HW127119   3.168   1.555   4.544
 8740SOL    HW227120   3.145   1.499   4.696
 8741SOL     OW27121   0.956   6.986   2.697
 8741SOL    HW127122   0.947   7.004   2.795
 8741SOL    HW227123   0.964   6.887   2.682
 8742SOL     OW27124   3.127   1.790   2.812
 8742SOL    HW127125   3.062   1.839   2.754
 8742SOL    HW227126   3.220   1.816   2.787
 8743SOL     OW27127   1.351   1.586   1.423
 8743SOL    HW127128   1.402   1.644   1.487
 8743SOL    HW227129   1.305   1.644   1.355
 8744SOL     OW27130   3.502   4.775   6.616
 8744SOL    HW127131   3.434   4.723   6.669
 8744SOL    HW227132   3.491   4.873   6.634
 8745SOL     OW27133   6.184   1.609   5.845
 8745SOL    HW127134   6.219   1.638   5.934
 8745SOL    HW227135   6.094   1.649   5.830
 8746SOL     OW27136   4.398   4.941   4.465
 8746SOL    HW127137   4.476   4.975   4.412
 8746SOL    HW227138   4.340   5.018   4.493
 8747SOL     OW27139   0.363   1.071   1.593
 8747SOL    HW127140   0.282   1.104   1.543
 8747SOL    HW227141   0.429   1.034   1.529
 8748SOL     OW27142   0.838   2.217   3.907
 8748SOL    HW127143   0.905   2.163   3.857
 8748SOL    HW227144   0.752   2.220   3.855
 8749SOL     OW27145   3.110   1.310   5.196
 8749SOL    HW127146   3.083   1.380   5.263
 8749SOL    HW227147   3.041   1.304   5.125
 8750SOL     OW27148   4.120   3.037   6.089
 8750SOL    HW127149   4.076   3.124   6.111
 8750SOL    HW227150   4.063   2.962   6.123
 8751SOL     OW27151   0.957   5.942   2.034
 8751SOL    HW127152   0.969   5.994   2.119
 8751SOL    HW227153   1.045   5.905   2.004
 8752SOL     OW27154   4.688   3.392   6.621
 8752SOL    HW127155   4.652   3.308   6.662
 8752SOL    HW227156   4.621   3.429   6.557
 8753SOL     OW27157   2.447   2.675   0.195
 8753SOL    HW127158   2.385   2.660   0.117
 8753SOL    HW227159   2.513   2.600   0.200
 8754SOL     OW27160   2.628   5.202   0.262
 8754SOL    HW127161   2.539   5.227   0.224
 8754SOL    HW227162   2.671   5.134   0.203
 8755SOL     OW27163   0.061   2.401   2.295
 8755SOL    HW127164   0.122   2.442   2.362
 8755SOL    HW227165   7.009   2.467   2.270
 8756SOL     OW27166   2.086   1.831   3.030
 8756SOL    HW127167   2.007   1.882   3.065
 8756SOL    HW227168   2.134   1.887   2.962
 8757SOL     OW27169   5.319   6.269   5.057
 8757SOL    HW127170   5.337   6.217   4.974
 8757SOL    HW227171   5.237   6.325   5.045
 8758SOL     OW27172   3.254   6.394   4.345
 8758SOL    HW127173   3.225   6.448   4.266
 8758SOL    HW227174   3.292   6.455   4.415
 8759SOL     OW27175   5.555   1.234   0.522
 8759SOL    HW127176   5.645   1.204   0.491
 8759SOL    HW227177   5.556   1.333   0.538
 8760SOL     OW27178   2.107   2.410   4.492
 8760SOL    HW127179   2.149   2.459   4.568
 8760SOL    HW227180   2.156   2.323   4.477
 8761SOL     OW27181   4.812   0.590   2.230
 8761SOL    HW127182   4.728   0.641   2.250
 8761SOL    HW227183   4.878   0.650   2.186
 8762SOL     OW27184   1.450   4.935   2.823
 8762SOL    HW127185   1.448   4.969   2.917
 8762SOL    HW227186   1.542   4.946   2.785
 8763SOL     OW27187   0.526   1.312   6.216
 8763SOL    HW127188   0.459   1.268   6.275
 8763SOL    HW227189   0.503   1.410   6.208
 8764SOL     OW27190   3.490   4.664   5.768
 8764SOL    HW127191   3.449   4.675   5.859
 8764SOL    HW227192   3.423   4.623   5.706
 8765SOL     OW27193   5.095   0.512   5.258
 8765SOL    HW127194   5.101   0.432   5.317
 8765SOL    HW227195   5.009   0.560   5.276
 8766SOL     OW27196   5.169   5.036   5.452
 8766SOL    HW127197   5.143   5.038   5.356
 8766SOL    HW227198   5.123   5.110   5.501
 8767SOL     OW27199   2.879   1.012   4.072
 8767SOL    HW127200   2.926   0.940   4.021
 8767SOL    HW227201   2.781   0.995   4.070
 8768SOL     OW27202   6.333   2.193   0.250
 8768SOL    HW127203   6.356   2.290   0.244
 8768SOL    HW227204   6.265   2.179   0.322
 8769SOL     OW27205   6.325   0.714   0.374
 8769SOL    HW127206   6.235   0.753   0.355
 8769SOL    HW227207   6.316   0.615   0.384
 8770SOL     OW27208   4.774   4.238   1.427
 8770SOL    HW127209   4.734   4.318   1.470
 8770SOL    HW227210   4.764   4.158   1.487
 8771SOL     OW27211   0.140   3.553   0.263
 8771SOL    HW127212   0.169   3.458   0.270
 8771SOL    HW227213   0.206   3.604   0.207
 8772SOL     OW27214   5.625   6.595   3.656
 8772SOL    HW127215   5.592   6.686   3.631
 8772SOL    HW227216   5.557   6.527   3.629
 8773SOL     OW27217   0.020   1.595   3.631
 8773SOL    HW127218   6.953   1.575   3.677
 8773SOL    HW227219   0.060   1.511   3.596
 8774SOL     OW27220   1.911   1.001   0.979
 8774SOL    HW127221   1.941   1.097   0.974
 8774SOL    HW227222   1.837   0.993   1.044
 8775SOL     OW27223   5.049   1.628   4.333
 8775SOL    HW127224   5.146   1.611   4.348
 8775SOL    HW227225   5.035   1.724   4.308
 8776SOL     OW27226   4.038   3.221   0.308
 8776SOL    HW127227   4.124   3.201   0.262
 8776SOL    HW227228   3.986   3.288   0.255
 8777SOL     OW27229   1.126   2.424   3.211
 8777SOL    HW127230   1.041   2.439   3.161
 8777SOL    HW227231   1.197   2.394   3.148
 8778SOL     OW27232   4.048   5.188   6.973
 8778SOL    HW127233   4.111   5.111   6.981
 8778SOL    HW227234   4.005   5.205   0.042
 8779SOL     OW27235   3.617   4.884   3.235
 8779SOL    HW127236   3.680   4.865   3.310
 8779SOL    HW227237   3.668   4.888   3.149
 8780SOL     OW27238   5.740   5.052   3.634
 8780SOL    HW127239   5.736   4.955   3.610
 8780SOL    HW227240   5.834   5.085   3.627
 8781SOL     OW27241   3.272   6.587   2.088
 8781SOL    HW127242   3.224   6.501   2.106
 8781SOL    HW227243   3.300   6.589   1.992
 8782SOL     OW27244   4.997   0.907   1.929
 8782SOL    HW127245   5.080   0.963   1.937
 8782SOL    HW227246   4.927   0.957   1.880
 8783SOL     OW27247   4.903   3.357   4.946
 8783SOL    HW127248   4.863   3.437   4.990
 8783SOL    HW227249   4.892   3.278   5.006
 8784SOL     OW27250   5.702   6.700   0.632
 8784SOL    HW127251   5.630   6.684   0.699
 8784SOL    HW227252   5.672   6.666   0.542
 8785SOL     OW27253   0.552   5.542   6.441
 8785SOL    HW127254   0.549   5.522   6.343
 8785SOL    HW227255   0.611   5.476   6.487
 8786SOL     OW27256   4.240   1.998   2.080
 8786SOL    HW127257   4.230   1.948   1.994
 8786SOL    HW227258   4.243   2.096   2.061
 8787SOL     OW27259   3.809   0.189   1.283
 8787SOL    HW127260   3.818   0.268   1.222
 8787SOL    HW227261   3.899   0.166   1.319
 8788SOL     OW27262   0.650   0.463   4.248
 8788SOL    HW127263   0.638   0.363   4.247
 8788SOL    HW227264   0.735   0.485   4.295
 8789SOL     OW27265   6.957   2.794   4.799
 8789SOL    HW127266   6.922   2.777   4.892
 8789SOL    HW227267   0.019   2.851   4.804
 8790SOL     OW27268   5.464   2.712   6.221
 8790SOL    HW127269   5.378   2.663   6.237
 8790SOL    HW227270   5.525   2.699   6.299
 8791SOL     OW27271   4.116   5.442   6.174
 8791SOL    HW127272   4.179   5.371   6.204
 8791SOL    HW227273   4.066   5.411   6.093
 8792SOL     OW27274   5.676   5.529   1.098
 8792SOL    HW127275   5.624   5.449   1.071
 8792SOL    HW227276   5.739   5.555   1.025
 8793SOL     OW27277   0.185   4.973   4.338
 8793SOL    HW127278   0.239   4.959   4.420
 8793SOL    HW227279   0.152   4.885   4.304
 8794SOL     OW27280   0.710   0.807   2.110
 8794SOL    HW127281   0.799   0.804   2.154
 8794SOL    HW227282   0.676   0.901   2.109
 8795SOL     OW27283   1.697   5.221   5.971
 8795SOL    HW127284   1.644   5.293   6.015
 8795SOL    HW227285   1.744   5.167   6.040
 8796SOL     OW27286   6.667   3.892   3.493
 8796SOL    HW127287   6.652   3.839   3.576
 8796SOL    HW227288   6.609   3.857   3.420
 8797SOL     OW27289   4.723   6.753   4.259
 8797SOL    HW127290   4.725   6.774   4.356
 8797SOL    HW227291   4.816   6.738   4.226
 8798SOL     OW27292   3.645   6.323   5.904
 8798SOL    HW127293   3.651   6.388   5.980
 8798SOL    HW227294   3.718   6.256   5.913
 8799SOL     OW27295   1.716   5.379   1.789
 8799SOL    HW127296   1.801   5.386   1.841
 8799SOL    HW227297   1.702   5.462   1.735
 8800SOL     OW27298   0.052   5.996   5.670
 8800SOL    HW127299   0.113   5.994   5.750
 8800SOL    HW227300   0.011   5.906   5.658
 8801SOL     OW27301   6.415   2.904   5.244
 8801SOL    HW127302   6.332   2.958   5.255
 8801SOL    HW227303   6.477   2.948   5.179
 8802SOL     OW27304   1.313   6.692   6.014
 8802SOL    HW127305   1.349   6.737   6.096
 8802SOL    HW227306   1.253   6.616   6.041
 8803SOL     OW27307   6.547   0.337   6.642
 8803SOL    HW127308   6.467   0.395   6.630
 8803SOL    HW227309   6.534   0.251   6.591
 8804SOL     OW27310   1.593   6.793   2.827
 8804SOL    HW127311   1.598   6.717   2.891
 8804SOL    HW227312   1.507   6.788   2.776
 8805SOL     OW27313   4.848   5.034   2.906
 8805SOL    HW127314   4.752   5.041   2.880
 8805SOL    HW227315   4.903   5.098   2.851
 8806SOL     OW27316   2.162   6.931   0.813
 8806SOL    HW127317   2.178   0.005   0.845
 8806SOL    HW227318   2.246   6.896   0.771
 8807SOL     OW27319   4.985   3.089   0.911
 8807SOL    HW127320   5.035   3.007   0.940
 8807SOL    HW227321   4.924   3.118   0.985
 8808SOL     OW27322   2.134   2.306   0.897
 8808SOL    HW127323   2.079   2.239   0.847
 8808SOL    HW227324   2.136   2.283   0.994
 8809SOL     OW27325   0.942   3.991   2.691
 8809SOL    HW127326   0.863   3.951   2.737
 8809SOL    HW227327   1.024   3.936   2.710
 8810SOL     OW27328   0.665   0.818   6.077
 8810SOL    HW127329   0.591   0.751   6.069
 8810SOL    HW227330   0.752   0.776   6.051
 8811SOL     OW27331   3.110   5.396   2.495
 8811SOL    HW127332   3.098   5.453   2.413
 8811SOL    HW227333   3.204   5.405   2.528
 8812SOL     OW27334   4.988   1.551   6.485
 8812SOL    HW127335   5.038   1.628   6.444
 8812SOL    HW227336   5.051   1.494   6.538
 8813SOL     OW27337   2.577   4.709   3.546
 8813SOL    HW127338   2.607   4.704   3.641
 8813SOL    HW227339   2.554   4.617   3.513
 8814SOL     OW27340   5.125   6.534   6.558
 8814SOL    HW127341   5.201   6.486   6.514
 8814SOL    HW227342   5.041   6.521   6.505
 8815SOL     OW27343   5.692   1.444   0.170
 8815SOL    HW127344   5.743   1.376   0.224
 8815SOL    HW227345   5.594   1.435   0.189
 8816SOL     OW27346   0.862   6.513   5.044
 8816SOL    HW127347   0.900   6.486   4.956
 8816SOL    HW227348   0.801   6.591   5.032
 8817SOL     OW27349   1.498   3.232   4.025
 8817SOL    HW127350   1.555   3.154   4.049
 8817SOL    HW227351   1.475   3.284   4.107
 8818SOL     OW27352   1.255   6.793   4.576
 8818SOL    HW127353   1.234   6.780   4.673
 8818SOL    HW227354   1.331   6.857   4.567
 8819SOL     OW27355   5.764   4.233   5.945
 8819SOL    HW127356   5.773   4.165   5.873
 8819SOL    HW227357   5.668   4.261   5.952
 8820SOL     OW27358   3.059   0.272   4.464
 8820SOL    HW127359   2.986   0.321   4.510
 8820SOL    HW227360   3.148   0.306   4.495
 8821SOL     OW27361   0.567   4.301   6.824
 8821SOL    HW127362   0.623   4.264   6.898
 8821SOL    HW227363   0.489   4.351   6.862
 8822SOL     OW27364   6.466   6.969   3.881
 8822SOL    HW127365   6.450   6.994   3.977
 8822SOL    HW227366   6.562   6.982   3.859
 8823SOL     OW27367   3.841   0.768   2.700
 8823SOL    HW127368   3.888   0.766   2.612
 8823SOL    HW227369   3.889   0.830   2.762
 8824SOL     OW27370   2.252   1.061   1.984
 8824SOL    HW127371   2.295   1.126   2.047
 8824SOL    HW227372   2.222   1.109   1.902
 8825SOL     OW27373   0.190   6.267   0.121
 8825SOL    HW127374   0.114   6.295   0.062
 8825SOL    HW227375   0.206   6.169   0.110
 8826SOL     OW27376   1.087   3.310   0.547
 8826SOL    HW127377   1.090   3.310   0.447
 8826SOL    HW227378   1.173   3.276   0.584
 8827SOL     OW27379   3.807   6.722   2.235
 8827SOL    HW127380   3.849   6.805   2.271
 8827SOL    HW227381   3.854   6.642   2.274
 8828SOL     OW27382   3.488   3.449   6.118
 8828SOL    HW127383   3.475   3.381   6.190
 8828SOL    HW227384   3.429   3.528   6.136
 8829SOL     OW27385   0.162   1.487   2.352
 8829SOL    HW127386   0.262   1.486   2.351
 8829SOL    HW227387   0.130   1.580   2.365
 8830SOL     OW27388   3.009   1.565   4.105
 8830SOL    HW127389   3.013   1.478   4.154
 8830SOL    HW227390   3.015   1.640   4.170
 8831SOL     OW27391   0.251   2.711   2.210
 8831SOL    HW127392   0.277   2.673   2.121
 8831SOL    HW227393   0.212   2.638   2.267
 8832SOL     OW27394   6.216   0.646   4.284
 8832SOL    HW127395   6.152   0.601   4.346
 8832SOL    HW227396   6.285   0.581   4.254
 8833SOL     OW27397   3.213   2.626   0.925
 8833SOL    HW127398   3.254   2.692   0.988
 8833SOL    HW227399   3.144   2.671   0.869
 8834SOL     OW27400   4.913   3.174   5.771
 8834SOL    HW127401   4.976   3.152   5.845
 8834SOL    HW227402   4.821   3.143   5.795
 8835SOL     OW27403   6.309   1.078   5.809
 8835SOL    HW127404   6.328   1.093   5.712
 8835SOL    HW227405   6.372   1.009   5.844
 8836SOL     OW27406   4.696   2.017   0.752
 8836SOL    HW127407   4.707   2.062   0.840
 8836SOL    HW227408   4.746   1.930   0.753
 8837SOL     OW27409   5.541   0.081   1.229
 8837SOL    HW127410   5.466   0.016   1.220
 8837SOL    HW227411   5.581   0.099   1.140
 8838SOL     OW27412   0.480   4.078   2.908
 8838SOL    HW127413   0.535   3.999   2.881
 8838SOL    HW227414   0.537   4.160   2.909
 8839SOL     OW27415   4.748   5.764   3.296
 8839SOL    HW127416   4.698   5.775   3.211
 8839SOL    HW227417   4.831   5.710   3.280
 8840SOL     OW27418   6.878   1.174   1.092
 8840SOL    HW127419   6.957   1.129   1.134
 8840SOL    HW227420   6.821   1.216   1.162
 8841SOL     OW27421   3.408   1.227   1.467
 8841SOL    HW127422   3.499   1.256   1.437
 8841SOL    HW227423   3.342   1.300   1.451
 8842SOL     OW27424   3.791   3.380   4.275
 8842SOL    HW127425   3.761   3.424   4.190
 8842SOL    HW227426   3.891   3.373   4.275
 8843SOL     OW27427   2.334   4.780   6.452
 8843SOL    HW127428   2.364   4.871   6.423
 8843SOL    HW227429   2.259   4.750   6.394
 8844SOL     OW27430   4.517   1.819   5.269
 8844SOL    HW127431   4.576   1.739   5.258
 8844SOL    HW227432   4.482   1.848   5.180
 8845SOL     OW27433   0.311   5.005   2.268
 8845SOL    HW127434   0.242   4.954   2.318
 8845SOL    HW227435   0.402   4.972   2.294
 8846SOL     OW27436   5.413   4.876   3.604
 8846SOL    HW127437   5.402   4.929   3.520
 8846SOL    HW227438   5.399   4.936   3.683
 8847SOL     OW27439   2.183   2.200   2.959
 8847SOL    HW127440   2.106   2.256   2.930
 8847SOL    HW227441   2.186   2.116   2.905
 8848SOL     OW27442   3.688   1.985   1.192
 8848SOL    HW127443   3.596   1.986   1.230
 8848SOL    HW227444   3.745   1.920   1.243
 8849SOL     OW27445   2.632   5.506   4.985
 8849SOL    HW127446   2.612   5.422   5.035
 8849SOL    HW227447   2.686   5.485   4.904
 8850SOL     OW27448   3.011   1.635   1.478
 8850SOL    HW127449   2.946   1.664   1.549
 8850SOL    HW227450   3.040   1.715   1.425
 8851SOL     OW27451   6.856   5.242   2.797
 8851SOL    HW127452   6.954   5.259   2.789
 8851SOL    HW227453   6.837   5.146   2.776
 8852SOL     OW27454   5.338   2.580   5.459
 8852SOL    HW127455   5.319   2.516   5.385
 8852SOL    HW227456   5.252   2.622   5.490
 8853SOL     OW27457   4.676   0.929   5.671
 8853SOL    HW127458   4.685   0.846   5.616
 8853SOL    HW227459   4.670   1.009   5.610
 8854SOL     OW27460   1.738   1.675   6.531
 8854SOL    HW127461   1.767   1.753   6.586
 8854SOL    HW227462   1.798   1.597   6.550
 8855SOL     OW27463   6.358   5.068   6.255
 8855SOL    HW127464   6.413   5.147   6.281
 8855SOL    HW227465   6.396   4.985   6.296
 8856SOL     OW27466   5.586   0.857   4.549
 8856SOL    HW127467   5.616   0.791   4.481
 8856SOL    HW227468   5.512   0.914   4.512
 8857SOL     OW27469   6.481   2.064   3.727
 8857SOL    HW127470   6.578   2.065   3.752
 8857SOL    HW227471   6.452   2.156   3.698
 8858SOL     OW27472   0.048   3.254   6.332
 8858SOL    HW127473   0.135   3.221   6.367
 8858SOL    HW227474   7.009   3.283   6.408
 8859SOL     OW27475   1.910   5.854   5.947
 8859SOL    HW127476   1.877   5.762   5.970
 8859SOL    HW227477   1.901   5.869   5.849
 8860SOL     OW27478   1.548   1.661   2.724
 8860SOL    HW127479   1.516   1.755   2.736
 8860SOL    HW227480   1.647   1.660   2.720
 8861SOL     OW27481   4.019   3.335   7.008
 8861SOL    HW127482   4.008   3.433   0.005
 8861SOL    HW227483   3.929   3.292   6.996
 8862SOL     OW27484   5.682   1.394   4.236
 8862SOL    HW127485   5.588   1.369   4.212
 8862SOL    HW227486   5.690   1.397   4.336
 8863SOL     OW27487   2.046   5.736   5.480
 8863SOL    HW127488   2.069   5.830   5.453
 8863SOL    HW227489   2.118   5.699   5.537
 8864SOL     OW27490   1.424   2.627   6.811
 8864SOL    HW127491   1.451   2.643   6.715
 8864SOL    HW227492   1.376   2.540   6.818
 8865SOL     OW27493   2.827   2.404   6.295
 8865SOL    HW127494   2.861   2.402   6.201
 8865SOL    HW227495   2.820   2.499   6.326
 8866SOL     OW27496   3.084   6.259   4.526
 8866SOL    HW127497   3.097   6.332   4.593
 8866SOL    HW227498   3.111   6.291   4.436
 8867SOL     OW27499   6.556   2.846   3.543
 8867SOL    HW127500   6.593   2.928   3.585
 8867SOL    HW227501   6.481   2.810   3.599
 8868SOL     OW27502   4.213   4.143   6.891
 8868SOL    HW127503   4.167   4.229   6.914
 8868SOL    HW227504   4.206   4.080   6.969
 8869SOL     OW27505   5.128   2.482   3.757
 8869SOL    HW127506   5.085   2.396   3.730
 8869SOL    HW227507   5.190   2.466   3.834
 8870SOL     OW27508   4.341   1.133   0.504
 8870SOL    HW127509   4.418   1.198   0.512
 8870SOL    HW227510   4.360   1.052   0.558
 8871SOL     OW27511   2.428   2.139   3.474
 8871SOL    HW127512   2.362   2.126   3.400
 8871SOL    HW227513   2.515   2.169   3.436
 8872SOL     OW27514   1.346   3.899   4.133
 8872SOL    HW127515   1.284   3.976   4.119
 8872SOL    HW227516   1.421   3.926   4.194
 8873SOL     OW27517   0.397   5.283   4.442
 8873SOL    HW127518   0.461   5.215   4.475
 8873SOL    HW227519   0.372   5.263   4.348
 8874SOL     OW27520   2.997   0.659   1.011
 8874SOL    HW127521   3.089   0.699   1.008
 8874SOL    HW227522   2.971   0.644   1.107
 8875SOL     OW27523   2.037   2.680   4.415
 8875SOL    HW127524   2.048   2.601   4.476
 8875SOL    HW227525   1.964   2.661   4.349
 8876SOL     OW27526   0.762   0.671   4.980
 8876SOL    HW127527   0.676   0.655   4.932
 8876SOL    HW227528   0.822   0.727   4.923
 8877SOL     OW27529   2.800   0.412   4.551
 8877SOL    HW127530   2.760   0.504   4.549
 8877SOL    HW227531   2.781   0.370   4.640
 8878SOL     OW27532   6.808   4.265   6.476
 8878SOL    HW127533   6.789   4.201   6.401
 8878SOL    HW227534   6.737   4.335   6.478
 8879SOL     OW27535   5.428   6.563   6.219
 8879SOL    HW127536   5.488   6.643   6.217
 8879SOL    HW227537   5.468   6.490   6.164
 8880SOL     OW27538   6.724   4.877   5.026
 8880SOL    HW127539   6.667   4.797   5.008
 8880SOL    HW227540   6.693   4.953   4.970
 8881SOL     OW27541   6.389   1.342   1.065
 8881SOL    HW127542   6.471   1.392   1.095
 8881SOL    HW227543   6.309   1.400   1.078
 8882SOL     OW27544   5.610   1.744   6.447
 8882SOL    HW127545   5.703   1.712   6.431
 8882SOL    HW227546   5.606   1.843   6.435
 8883SOL     OW27547   6.477   0.925   5.401
 8883SOL    HW127548   6.493   0.841   5.453
 8883SOL    HW227549   6.420   0.987   5.455
 8884SOL     OW27550   6.434   0.603   6.056
 8884SOL    HW127551   6.389   0.691   6.076
 8884SOL    HW227552   6.364   0.533   6.040
 8885SOL     OW27553   5.504   3.424   1.807
 8885SOL    HW127554   5.493   3.340   1.753
 8885SOL    HW227555   5.498   3.402   1.905
 8886SOL     OW27556   3.205   6.803   5.936
 8886SOL    HW127557   3.270   6.862   5.886
 8886SOL    HW227558   3.235   6.794   6.031
 8887SOL     OW27559   2.658   1.291   0.950
 8887SOL    HW127560   2.677   1.348   0.870
 8887SOL    HW227561   2.740   1.239   0.974
 8888SOL     OW27562   3.236   1.809   2.129
 8888SOL    HW127563   3.245   1.758   2.214
 8888SOL    HW227564   3.266   1.904   2.144
 8889SOL     OW27565   3.819   6.602   4.475
 8889SOL    HW127566   3.787   6.594   4.381
 8889SOL    HW227567   3.742   6.622   4.535
 8890SOL     OW27568   1.232   5.242   4.702
 8890SOL    HW127569   1.139   5.274   4.684
 8890SOL    HW227570   1.237   5.143   4.689
 8891SOL     OW27571   4.760   2.795   6.378
 8891SOL    HW127572   4.703   2.867   6.338
 8891SOL    HW227573   4.845   2.787   6.325
 8892SOL     OW27574   2.177   0.002   2.714
 8892SOL    HW127575   2.230   0.050   2.783
 8892SOL    HW227576   2.130   6.944   2.756
 8893SOL     OW27577   0.406   1.544   1.050
 8893SOL    HW127578   0.318   1.534   1.096
 8893SOL    HW227579   0.477   1.565   1.118
 8894SOL     OW27580   3.970   3.164   6.568
 8894SOL    HW127581   4.031   3.136   6.494
 8894SOL    HW227582   3.999   3.119   6.653
 8895SOL     OW27583   0.400   6.924   2.021
 8895SOL    HW127584   0.316   6.884   1.986
 8895SOL    HW227585   0.474   6.910   1.955
 8896SOL     OW27586   1.687   4.222   5.081
 8896SOL    HW127587   1.703   4.316   5.049
 8896SOL    HW227588   1.773   4.172   5.080
 8897SOL     OW27589   1.272   2.108   1.632
 8897SOL    HW127590   1.225   2.163   1.701
 8897SOL    HW227591   1.354   2.156   1.602
 8898SOL     OW27592   5.373   3.689   4.206
 8898SOL    HW127593   5.394   3.741   4.289
 8898SOL    HW227594   5.282   3.714   4.173
 8899SOL     OW27595   1.416   4.504   0.696
 8899SOL    HW127596   1.409   4.574   0.767
 8899SOL    HW227597   1.491   4.527   0.634
 8900SOL     OW27598   5.393   2.000   3.478
 8900SOL    HW127599   5.489   2.010   3.507
 8900SOL    HW227600   5.390   1.964   3.385
 8901SOL     OW27601   1.626   0.424   2.801
 8901SOL    HW127602   1.655   0.510   2.841
 8901SOL    HW227603   1.537   0.436   2.757
 8902SOL     OW27604   1.398   5.357   6.746
 8902SOL    HW127605   1.339   5.337   6.668
 8902SOL    HW227606   1.346   5.345   6.831
 8903SOL     OW27607   2.251   1.818   3.537
 8903SOL    HW127608   2.274   1.908   3.575
 8903SOL    HW227609   2.155   1.818   3.508
 8904SOL     OW27610   0.534   6.288   3.779
 8904SOL    HW127611   0.604   6.312   3.847
 8904SOL    HW227612   0.514   6.367   3.722
 8905SOL     OW27613   2.497   3.718   5.357
 8905SOL    HW127614   2.444   3.796   5.324
 8905SOL    HW227615   2.435   3.648   5.393
 8906SOL     OW27616   6.264   6.461   5.573
 8906SOL    HW127617   6.210   6.465   5.657
 8906SOL    HW227618   6.208   6.426   5.498
 8907SOL     OW27619   3.246   2.580   5.653
 8907SOL    HW127620   3.199   2.550   5.570
 8907SOL    HW227621   3.344   2.591   5.634
 8908SOL     OW27622   1.030   2.410   1.682
 8908SOL    HW127623   0.993   2.317   1.689
 8908SOL    HW227624   1.002   2.451   1.595
 8909SOL     OW27625   2.162   0.690   6.668
 8909SOL    HW127626   2.178   0.737   6.755
 8909SOL    HW227627   2.137   0.756   6.598
 8910SOL     OW27628   3.124   3.727   6.756
 8910SOL    HW127629   3.049   3.704   6.693
 8910SOL    HW227630   3.092   3.716   6.850
 8911SOL     OW27631   4.199   2.265   4.319
 8911SOL    HW127632   4.282   2.210   4.309
 8911SOL    HW227633   4.178   2.308   4.231
 8912SOL     OW27634   4.587   2.457   6.097
 8912SOL    HW127635   4.549   2.494   6.181
 8912SOL    HW227636   4.552   2.508   6.018
 8913SOL     OW27637   5.252   4.511   1.552
 8913SOL    HW127638   5.291   4.462   1.630
 8913SOL    HW227639   5.173   4.460   1.517
 8914SOL     OW27640   3.407   1.602   4.819
 8914SOL    HW127641   3.401   1.696   4.852
 8914SOL    HW227642   3.441   1.601   4.725
 8915SOL     OW27643   1.760   3.885   2.294
 8915SOL    HW127644   1.750   3.984   2.293
 8915SOL    HW227645   1.676   3.843   2.327
 8916SOL     OW27646   6.630   3.516   2.611
 8916SOL    HW127647   6.541   3.497   2.653
 8916SOL    HW227648   6.620   3.519   2.512
 8917SOL     OW27649   6.166   6.107   6.994
 8917SOL    HW127650   6.153   6.147   0.065
 8917SOL    HW227651   6.200   6.176   6.931
 8918SOL     OW27652   5.507   5.302   6.396
 8918SOL    HW127653   5.566   5.238   6.446
 8918SOL    HW227654   5.418   5.259   6.380
 8919SOL     OW27655   2.853   5.425   1.210
 8919SOL    HW127656   2.886   5.333   1.187
 8919SOL    HW227657   2.818   5.425   1.303
 8920SOL     OW27658   5.843   5.773   5.168
 8920SOL    HW127659   5.932   5.781   5.215
 8920SOL    HW227660   5.788   5.703   5.213
 8921SOL     OW27661   1.534   0.468   3.512
 8921SOL    HW127662   1.440   0.457   3.479
 8921SOL    HW227663   1.544   0.419   3.599
 8922SOL     OW27664   0.443   3.976   0.467
 8922SOL    HW127665   0.416   3.959   0.562
 8922SOL    HW227666   0.390   4.052   0.430
 8923SOL     OW27667   2.339   4.037   6.319
 8923SOL    HW127668   2.312   4.081   6.233
 8923SOL    HW227669   2.271   4.056   6.389
 8924SOL     OW27670   2.635   5.387   5.676
 8924SOL    HW127671   2.657   5.482   5.695
 8924SOL    HW227672   2.707   5.346   5.621
 8925SOL     OW27673   0.124   0.301   2.135
 8925SOL    HW127674   0.082   0.313   2.225
 8925SOL    HW227675   0.057   0.262   2.072
 8926SOL     OW27676   5.098   2.534   1.171
 8926SOL    HW127677   5.099   2.605   1.241
 8926SOL    HW227678   5.040   2.562   1.095
 8927SOL     OW27679   2.211   2.531   4.706
 8927SOL    HW127680   2.281   2.468   4.741
 8927SOL    HW227681   2.188   2.599   4.776
 8928SOL     OW27682   0.680   6.458   5.655
 8928SOL    HW127683   0.737   6.503   5.587
 8928SOL    HW227684   0.693   6.503   5.744
 8929SOL     OW27685   6.284   3.807   3.542
 8929SOL    HW127686   6.384   3.814   3.549
 8929SOL    HW227687   6.257   3.826   3.447
 8930SOL     OW27688   1.238   4.970   4.702
 8930SOL    HW127689   1.212   4.945   4.796
 8930SOL    HW227690   1.273   4.890   4.655
 8931SOL     OW27691   4.625   1.334   0.488
 8931SOL    HW127692   4.660   1.307   0.399
 8931SOL    HW227693   4.641   1.432   0.502
 8932SOL     OW27694   0.123   0.127   6.540
 8932SOL    HW127695   0.089   0.091   6.627
 8932SOL    HW227696   0.083   0.217   6.524
 8933SOL     OW27697   1.693   0.647   4.957
 8933SOL    HW127698   1.792   0.650   4.963
 8933SOL    HW227699   1.653   0.678   5.044
 8934SOL     OW27700   3.187   5.905   2.601
 8934SOL    HW127701   3.137   5.983   2.639
 8934SOL    HW227702   3.242   5.863   2.673
 8935SOL     OW27703   4.953   2.674   3.093
 8935SOL    HW127704   4.905   2.608   3.036
 8935SOL    HW227705   4.944   2.765   3.053
 8936SOL     OW27706   0.921   5.655   1.876
 8936SOL    HW127707   0.998   5.713   1.849
 8936SOL    HW227708   0.840   5.712   1.889
 8937SOL     OW27709   5.955   6.923   4.101
 8937SOL    HW127710   6.040   6.920   4.154
 8937SOL    HW227711   5.909   7.010   4.116
 8938SOL     OW27712   6.168   0.986   0.643
 8938SOL    HW127713   6.252   0.933   0.637
 8938SOL    HW227714   6.174   1.051   0.719
 8939SOL     OW27715   0.611   3.045   3.899
 8939SOL    HW127716   0.536   3.111   3.895
 8939SOL    HW227717   0.611   3.000   3.988
 8940SOL     OW27718   6.489   2.690   1.394
 8940SOL    HW127719   6.451   2.673   1.304
 8940SOL    HW227720   6.511   2.603   1.438
 8941SOL     OW27721   4.683   2.609   1.350
 8941SOL    HW127722   4.710   2.572   1.261
 8941SOL    HW227723   4.764   2.627   1.405
 8942SOL     OW27724   5.795   4.711   4.304
 8942SOL    HW127725   5.869   4.645   4.315
 8942SOL    HW227726   5.747   4.694   4.217
 8943SOL     OW27727   4.945   3.915   6.859
 8943SOL    HW127728   4.935   4.002   6.907
 8943SOL    HW227729   5.020   3.922   6.793
 8944SOL     OW27730   5.251   5.828   4.660
 8944SOL    HW127731   5.275   5.749   4.716
 8944SOL    HW227732   5.222   5.798   4.569
 8945SOL     OW27733   5.968   3.949   5.390
 8945SOL    HW127734   5.892   3.885   5.377
 8945SOL    HW227735   6.020   3.922   5.471
 8946SOL     OW27736   5.513   0.779   5.118
 8946SOL    HW127737   5.417   0.798   5.097
 8946SOL    HW227738   5.530   0.681   5.110
 8947SOL     OW27739   2.063   5.335   6.791
 8947SOL    HW127740   2.111   5.423   6.797
 8947SOL    HW227741   2.068   5.288   6.879
 8948SOL     OW27742   6.913   0.600   2.985
 8948SOL    HW127743   6.907   0.698   3.003
 8948SOL    HW227744   6.889   0.582   2.889
 8949SOL     OW27745   3.426   6.218   0.875
 8949SOL    HW127746   3.465   6.269   0.951
 8949SOL    HW227747   3.485   6.227   0.795
 8950SOL     OW27748   5.025   4.357   1.094
 8950SOL    HW127749   4.942   4.409   1.115
 8950SOL    HW227750   5.040   4.356   0.995
 8951SOL     OW27751   1.930   1.913   4.641
 8951SOL    HW127752   2.002   1.848   4.662
 8951SOL    HW227753   1.881   1.937   4.725
 8952SOL     OW27754   2.204   4.338   4.016
 8952SOL    HW127755   2.150   4.416   4.046
 8952SOL    HW227756   2.267   4.367   3.944
 8953SOL     OW27757   1.199   4.852   2.039
 8953SOL    HW127758   1.174   4.948   2.031
 8953SOL    HW227759   1.130   4.804   2.093
 8954SOL     OW27760   1.874   5.444   5.271
 8954SOL    HW127761   1.819   5.525   5.289
 8954SOL    HW227762   1.969   5.461   5.297
 8955SOL     OW27763   5.742   2.705   4.135
 8955SOL    HW127764   5.811   2.777   4.124
 8955SOL    HW227765   5.706   2.707   4.228
 8956SOL     OW27766   0.927   5.718   6.268
 8956SOL    HW127767   0.883   5.665   6.340
 8956SOL    HW227768   0.881   5.806   6.258
 8957SOL     OW27769   0.725   6.302   3.002
 8957SOL    HW127770   0.651   6.358   3.041
 8957SOL    HW227771   0.706   6.206   3.019
 8958SOL     OW27772   1.501   4.102   5.428
 8958SOL    HW127773   1.553   4.187   5.434
 8958SOL    HW227774   1.562   4.028   5.399
 8959SOL     OW27775   0.426   3.034   2.735
 8959SOL    HW127776   0.486   3.107   2.769
 8959SOL    HW227777   0.370   3.070   2.661
 8960SOL     OW27778   4.980   4.328   3.582
 8960SOL    HW127779   4.986   4.428   3.585
 8960SOL    HW227780   5.018   4.295   3.496
 8961SOL     OW27781   2.650   6.576   5.588
 8961SOL    HW127782   2.621   6.483   5.612
 8961SOL    HW227783   2.738   6.595   5.631
 8962SOL     OW27784   0.705   5.828   1.868
 8962SOL    HW127785   0.641   5.806   1.794
 8962SOL    HW227786   0.706   5.927   1.882
 8963SOL     OW27787   4.157   6.169   4.585
 8963SOL    HW127788   4.091   6.243   4.576
 8963SOL    HW227789   4.233   6.199   4.643
 8964SOL     OW27790   0.718   3.340   4.140
 8964SOL    HW127791   0.762   3.355   4.051
 8964SOL    HW227792   0.632   3.290   4.126
 8965SOL     OW27793   4.195   5.232   0.831
 8965SOL    HW127794   4.231   5.172   0.760
 8965SOL    HW227795   4.097   5.216   0.842
 8966SOL     OW27796   4.960   4.758   6.254
 8966SOL    HW127797   4.931   4.778   6.348
 8966SOL    HW227798   5.028   4.685   6.255
 8967SOL     OW27799   3.045   0.149   3.725
 8967SOL    HW127800   3.043   0.152   3.825
 8967SOL    HW227801   2.955   0.125   3.690
 8968SOL     OW27802   3.388   5.209   1.818
 8968SOL    HW127803   3.381   5.136   1.886
 8968SOL    HW227804   3.357   5.175   1.729
 8969SOL     OW27805   0.318   1.258   2.720
 8969SOL    HW127806   0.343   1.162   2.712
 8969SOL    HW227807   0.399   1.316   2.708
 8970SOL     OW27808   1.669   0.854   5.149
 8970SOL    HW127809   1.665   0.824   5.244
 8970SOL    HW227810   1.619   0.940   5.139
 8971SOL     OW27811   4.566   5.438   0.664
 8971SOL    HW127812   4.527   5.422   0.754
 8971SOL    HW227813   4.522   5.379   0.597
 8972SOL     OW27814   6.508   4.464   0.641
 8972SOL    HW127815   6.420   4.451   0.594
 8972SOL    HW227816   6.576   4.498   0.576
 8973SOL     OW27817   1.262   2.960   2.693
 8973SOL    HW127818   1.269   3.053   2.656
 8973SOL    HW227819   1.306   2.896   2.630
 8974SOL     OW27820   2.224   4.217   4.914
 8974SOL    HW127821   2.267   4.155   4.979
 8974SOL    HW227822   2.198   4.166   4.831
 8975SOL     OW27823   0.401   6.475   5.925
 8975SOL    HW127824   0.489   6.480   5.973
 8975SOL    HW227825   0.360   6.385   5.939
 8976SOL     OW27826   6.771   6.806   1.748
 8976SOL    HW127827   6.746   6.843   1.838
 8976SOL    HW227828   6.823   6.874   1.697
 8977SOL     OW27829   6.758   5.083   5.816
 8977SOL    HW127830   6.693   5.153   5.788
 8977SOL    HW227831   6.838   5.086   5.756
 8978SOL     OW27832   5.614   5.753   6.282
 8978SOL    HW127833   5.700   5.784   6.322
 8978SOL    HW227834   5.623   5.747   6.182
 8979SOL     OW27835   1.208   4.935   5.784
 8979SOL    HW127836   1.218   4.983   5.871
 8979SOL    HW227837   1.299   4.912   5.748
 8980SOL     OW27838   3.628   0.569   5.217
 8980SOL    HW127839   3.591   0.606   5.302
 8980SOL    HW227840   3.625   0.469   5.220
 8981SOL     OW27841   3.655   2.717   0.096
 8981SOL    HW127842   3.629   2.691   0.003
 8981SOL    HW227843   3.712   2.800   0.092
 8982SOL     OW27844   0.844   1.493   1.372
 8982SOL    HW127845   0.861   1.479   1.470
 8982SOL    HW227846   0.860   1.408   1.323
 8983SOL     OW27847   0.983   0.080   2.311
 8983SOL    HW127848   1.077   0.088   2.344
 8983SOL    HW227849   0.921   0.122   2.377
 8984SOL     OW27850   6.237   0.506   3.675
 8984SOL    HW127851   6.229   0.559   3.759
 8984SOL    HW227852   6.327   0.463   3.671
 8985SOL     OW27853   4.477   2.700   0.526
 8985SOL    HW127854   4.509   2.680   0.619
 8985SOL    HW227855   4.381   2.730   0.530
 8986SOL     OW27856   7.011   5.542   0.096
 8986SOL    HW127857   6.962   5.455   0.087
 8986SOL    HW227858   0.041   5.543   0.183
 8987SOL     OW27859   2.054   0.966   1.499
 8987SOL    HW127860   2.075   0.873   1.468
 8987SOL    HW227861   2.112   0.989   1.578
 8988SOL     OW27862   1.477   5.530   1.911
 8988SOL    HW127863   1.487   5.573   2.000
 8988SOL    HW227864   1.554   5.468   1.895
 8989SOL     OW27865   4.964   1.411   1.613
 8989SOL    HW127866   5.007   1.324   1.590
 8989SOL    HW227867   4.885   1.394   1.672
 8990SOL     OW27868   3.993   0.199   1.826
 8990SOL    HW127869   3.922   0.167   1.763
 8990SOL    HW227870   4.066   0.131   1.830
 8991SOL     OW27871   2.100   2.339   0.126
 8991SOL    HW127872   2.015   2.301   0.088
 8991SOL    HW227873   2.080   2.425   0.172
 8992SOL     OW27874   0.132   3.746   0.454
 8992SOL    HW127875   0.060   3.814   0.443
 8992SOL    HW227876   0.110   3.665   0.399
 8993SOL     OW27877   5.906   3.262   4.209
 8993SOL    HW127878   5.942   3.168   4.215
 8993SOL    HW227879   5.978   3.326   4.236
 8994SOL     OW27880   0.628   5.319   3.293
 8994SOL    HW127881   0.668   5.410   3.301
 8994SOL    HW227882   0.696   5.257   3.253
 8995SOL     OW27883   1.820   3.956   5.102
 8995SOL    HW127884   1.748   3.971   5.033
 8995SOL    HW227885   1.897   3.910   5.058
 8996SOL     OW27886   0.770   4.020   2.267
 8996SOL    HW127887   0.803   4.089   2.332
 8996SOL    HW227888   0.819   3.934   2.283
 8997SOL     OW27889   5.112   1.618   5.166
 8997SOL    HW127890   5.177   1.552   5.128
 8997SOL    HW227891   5.121   1.620   5.265
 8998SOL     OW27892   1.519   2.891   6.606
 8998SOL    HW127893   1.452   2.820   6.581
 8998SOL    HW227894   1.562   2.926   6.523
 8999SOL     OW27895   6.484   1.128   4.073
 8999SOL    HW127896   6.392   1.088   4.078
 8999SOL    HW227897   6.515   1.152   4.165
 9000SOL     OW27898   3.160   3.840   0.609
 9000SOL    HW127899   3.142   3.882   0.699
 9000SOL    HW227900   3.256   3.855   0.584
 9001SOL     OW27901   1.541   5.025   3.302
 9001SOL    HW127902   1.570   5.006   3.396
 9001SOL    HW227903   1.621   5.019   3.241
 9002SOL     OW27904   5.487   4.720   5.297
 9002SOL    HW127905   5.547   4.787   5.253
 9002SOL    HW227906   5.432   4.766   5.367
 9003SOL     OW27907   5.893   2.507   6.575
 9003SOL    HW127908   5.979   2.471   6.539
 9003SOL    HW227909   5.847   2.563   6.506
 9004SOL     OW27910   4.457   6.600   1.231
 9004SOL    HW127911   4.524   6.673   1.250
 9004SOL    HW227912   4.471   6.566   1.138
 9005SOL     OW27913   4.854   1.588   2.740
 9005SOL    HW127914   4.942   1.635   2.726
 9005SOL    HW227915   4.870   1.490   2.746
 9006SOL     OW27916   0.879   5.611   1.281
 9006SOL    HW127917   0.864   5.698   1.329
 9006SOL    HW227918   0.964   5.617   1.228
 9007SOL     OW27919   2.356   6.966   4.381
 9007SOL    HW127920   2.286   6.906   4.417
 9007SOL    HW227921   2.443   6.949   4.428
 9008SOL     OW27922   6.447   4.411   2.349
 9008SOL    HW127923   6.498   4.331   2.318
 9008SOL    HW227924   6.397   4.388   2.432
 9009SOL     OW27925   3.234   6.411   0.787
 9009SOL    HW127926   3.306   6.349   0.821
 9009SOL    HW227927   3.153   6.358   0.762
 9010SOL     OW27928   1.148   6.291   5.260
 9010SOL    HW127929   1.061   6.245   5.240
 9010SOL    HW227930   1.213   6.224   5.295
 9011SOL     OW27931   4.757   2.268   1.268
 9011SOL    HW127932   4.710   2.324   1.336
 9011SOL    HW227933   4.711   2.179   1.261
 9012SOL     OW27934   0.087   5.349   1.762
 9012SOL    HW127935   0.178   5.334   1.723
 9012SOL    HW227936   0.095   5.365   1.861
 9013SOL     OW27937   5.862   5.668   3.416
 9013SOL    HW127938   5.794   5.726   3.462
 9013SOL    HW227939   5.930   5.726   3.372
 9014SOL     OW27940   3.308   0.931   1.118
 9014SOL    HW127941   3.222   0.951   1.164
 9014SOL    HW227942   3.318   0.832   1.108
 9015SOL     OW27943   0.374   1.047   5.615
 9015SOL    HW127944   0.410   1.096   5.695
 9015SOL    HW227945   0.281   1.078   5.595
 9016SOL     OW27946   6.143   6.028   6.384
 9016SOL    HW127947   6.067   5.969   6.410
 9016SOL    HW227948   6.174   6.005   6.292
 9017SOL     OW27949   6.630   2.772   3.301
 9017SOL    HW127950   6.584   2.810   3.381
 9017SOL    HW227951   6.622   2.835   3.225
 9018SOL     OW27952   3.713   2.425   5.348
 9018SOL    HW127953   3.747   2.339   5.311
 9018SOL    HW227954   3.615   2.434   5.331
 9019SOL     OW27955   2.385   0.047   0.935
 9019SOL    HW127956   2.481   0.050   0.907
 9019SOL    HW227957   2.368   6.984   0.989
 9020SOL     OW27958   0.492   4.872   3.235
 9020SOL    HW127959   0.556   4.802   3.265
 9020SOL    HW227960   0.493   4.878   3.135
 9021SOL     OW27961   6.724   5.675   5.012
 9021SOL    HW127962   6.639   5.633   5.043
 9021SOL    HW227963   6.802   5.619   5.042
 9022SOL     OW27964   3.429   0.854   0.378
 9022SOL    HW127965   3.332   0.878   0.384
 9022SOL    HW227966   3.465   0.882   0.290
 9023SOL     OW27967   3.190   3.416   3.410
 9023SOL    HW127968   3.134   3.337   3.433
 9023SOL    HW227969   3.151   3.463   3.330
 9024SOL     OW27970   2.174   6.666   0.072
 9024SOL    HW127971   2.080   6.667   0.106
 9024SOL    HW227972   2.234   6.707   0.141
 9025SOL     OW27973   6.161   4.816   1.002
 9025SOL    HW127974   6.256   4.799   1.031
 9025SOL    HW227975   6.102   4.745   1.041
 9026SOL     OW27976   3.279   2.813   5.138
 9026SOL    HW127977   3.357   2.767   5.182
 9026SOL    HW227978   3.232   2.869   5.206
 9027SOL     OW27979   1.854   3.026   3.645
 9027SOL    HW127980   1.775   3.007   3.587
 9027SOL    HW227981   1.824   3.068   3.730
 9028SOL     OW27982   2.840   4.989   5.118
 9028SOL    HW127983   2.779   4.948   5.050
 9028SOL    HW227984   2.923   4.935   5.125
 9029SOL     OW27985   5.168   6.018   3.106
 9029SOL    HW127986   5.174   6.111   3.071
 9029SOL    HW227987   5.079   6.004   3.149
 9030SOL     OW27988   2.826   1.108   2.098
 9030SOL    HW127989   2.755   1.049   2.061
 9030SOL    HW227990   2.888   1.054   2.155
 9031SOL     OW27991   2.609   6.318   6.380
 9031SOL    HW127992   2.636   6.339   6.473
 9031SOL    HW227993   2.522   6.363   6.359
 9032SOL     OW27994   2.126   1.766   1.812
 9032SOL    HW127995   2.057   1.815   1.866
 9032SOL    HW227996   2.209   1.755   1.867
 9033SOL     OW27997   1.628   3.996   2.581
 9033SOL    HW127998   1.600   3.910   2.623
 9033SOL    HW227999   1.728   4.000   2.576
 9034SOL     OW28000   3.384   6.352   6.037
 9034SOL    HW128001   3.404   6.273   5.979
 9034SOL    HW228002   3.285   6.360   6.049
 9035SOL     OW28003   6.903   1.235   4.359
 9035SOL    HW128004   6.865   1.177   4.431
 9035SOL    HW228005   6.987   1.278   4.391
 9036SOL     OW28006   1.197   2.240   5.651
 9036SOL    HW128007   1.185   2.187   5.735
 9036SOL    HW228008   1.146   2.198   5.577
 9037SOL     OW28009   2.070   4.084   6.575
 9037SOL    HW128010   1.976   4.101   6.546
 9037SOL    HW228011   2.127   4.162   6.550
 9038SOL     OW28012   4.888   6.080   5.401
 9038SOL    HW128013   4.877   6.075   5.302
 9038SOL    HW228014   4.954   6.012   5.431
 9039SOL     OW28015   2.247   5.751   5.905
 9039SOL    HW128016   2.242   5.823   5.974
 9039SOL    HW228017   2.289   5.787   5.822
 9040SOL     OW28018   2.020   1.479   2.820
 9040SOL    HW128019   1.998   1.383   2.803
 9040SOL    HW228020   2.021   1.529   2.734
 9041SOL     OW28021   2.046   3.133   0.457
 9041SOL    HW128022   2.130   3.086   0.432
 9041SOL    HW228023   2.022   3.200   0.386
 9042SOL     OW28024   2.709   4.751   4.066
 9042SOL    HW128025   2.792   4.700   4.047
 9042SOL    HW228026   2.670   4.721   4.153
 9043SOL     OW28027   0.355   2.384   5.686
 9043SOL    HW128028   0.406   2.302   5.661
 9043SOL    HW228029   0.362   2.400   5.784
 9044SOL     OW28030   6.125   6.384   0.420
 9044SOL    HW128031   6.210   6.356   0.464
 9044SOL    HW228032   6.060   6.415   0.490
 9045SOL     OW28033   3.010   6.732   3.674
 9045SOL    HW128034   3.081   6.774   3.617
 9045SOL    HW228035   2.994   6.638   3.641
 9046SOL     OW28036   3.300   4.065   4.774
 9046SOL    HW128037   3.329   4.151   4.816
 9046SOL    HW228038   3.203   4.049   4.795
 9047SOL     OW28039   1.251   4.684   4.720
 9047SOL    HW128040   1.215   4.740   4.794
 9047SOL    HW228041   1.350   4.675   4.730
 9048SOL     OW28042   0.486   3.381   4.543
 9048SOL    HW128043   0.439   3.458   4.587
 9048SOL    HW228044   0.527   3.413   4.457
 9049SOL     OW28045   5.020   5.365   6.767
 9049SOL    HW128046   5.107   5.397   6.803
 9049SOL    HW228047   5.005   5.270   6.793
 9050SOL     OW28048   0.060   5.245   6.132
 9050SOL    HW128049   0.086   5.312   6.201
 9050SOL    HW228050   0.093   5.155   6.159
 9051SOL     OW28051   5.354   6.252   6.747
 9051SOL    HW128052   5.443   6.245   6.792
 9051SOL    HW228053   5.292   6.305   6.804
 9052SOL     OW28054   2.113   5.238   4.798
 9052SOL    HW128055   2.133   5.307   4.866
 9052SOL    HW228056   2.015   5.216   4.800
 9053SOL     OW28057   2.671   2.380   3.786
 9053SOL    HW128058   2.598   2.448   3.783
 9053SOL    HW228059   2.710   2.376   3.878
 9054SOL     OW28060   2.985   0.368   1.191
 9054SOL    HW128061   3.076   0.339   1.221
 9054SOL    HW228062   2.945   0.297   1.133
 9055SOL     OW28063   1.275   2.824   4.171
 9055SOL    HW128064   1.358   2.868   4.136
 9055SOL    HW228065   1.231   2.773   4.097
 9056SOL     OW28066   5.418   0.330   3.277
 9056SOL    HW128067   5.375   0.407   3.324
 9056SOL    HW228068   5.355   0.292   3.210
 9057SOL     OW28069   5.507   5.320   6.049
 9057SOL    HW128070   5.487   5.395   6.112
 9057SOL    HW228071   5.601   5.329   6.015
 9058SOL     OW28072   1.519   3.116   4.672
 9058SOL    HW128073   1.544   3.028   4.712
 9058SOL    HW228074   1.434   3.150   4.715
 9059SOL     OW28075   0.068   1.860   2.907
 9059SOL    HW128076   0.058   1.761   2.897
 9059SOL    HW228077   0.030   1.888   2.995
 9060SOL     OW28078   0.363   3.961   1.349
 9060SOL    HW128079   0.360   3.899   1.427
 9060SOL    HW228080   0.449   4.012   1.350
 9061SOL     OW28081   5.310   4.999   1.971
 9061SOL    HW128082   5.279   4.995   1.876
 9061SOL    HW228083   5.358   4.914   1.994
 9062SOL     OW28084   0.742   5.560   3.545
 9062SOL    HW128085   0.674   5.630   3.565
 9062SOL    HW228086   0.756   5.555   3.446
 9063SOL     OW28087   3.807   0.957   2.402
 9063SOL    HW128088   3.750   0.892   2.352
 9063SOL    HW228089   3.761   1.046   2.405
 9064SOL     OW28090   0.719   4.918   3.453
 9064SOL    HW128091   0.702   4.841   3.391
 9064SOL    HW228092   0.652   4.916   3.527
 9065SOL     OW28093   2.319   5.070   5.683
 9065SOL    HW128094   2.384   5.058   5.608
 9065SOL    HW228095   2.343   5.008   5.758
 9066SOL     OW28096   5.343   4.859   5.503
 9066SOL    HW128097   5.269   4.925   5.490
 9066SOL    HW228098   5.337   4.821   5.596
 9067SOL     OW28099   0.115   0.390   4.447
 9067SOL    HW128100   0.107   0.318   4.378
 9067SOL    HW228101   0.211   0.411   4.463
 9068SOL     OW28102   4.726   6.453   4.734
 9068SOL    HW128103   4.699   6.375   4.791
 9068SOL    HW228104   4.763   6.525   4.792
 9069SOL     OW28105   4.989   1.759   2.082
 9069SOL    HW128106   4.939   1.784   1.999
 9069SOL    HW228107   4.952   1.674   2.118
 9070SOL     OW28108   1.560   1.815   5.765
 9070SOL    HW128109   1.484   1.861   5.809
 9070SOL    HW228110   1.596   1.872   5.691
 9071SOL     OW28111   5.412   1.308   5.668
 9071SOL    HW128112   5.387   1.275   5.577
 9071SOL    HW228113   5.334   1.354   5.710
 9072SOL     OW28114   5.029   0.998   3.001
 9072SOL    HW128115   5.076   1.006   3.088
 9072SOL    HW228116   5.080   1.047   2.931
 9073SOL     OW28117   4.580   0.816   6.627
 9073SOL    HW128118   4.603   0.729   6.584
 9073SOL    HW228119   4.610   0.891   6.569
 9074SOL     OW28120   1.689   0.199   1.844
 9074SOL    HW128121   1.772   0.173   1.892
 9074SOL    HW228122   1.674   0.297   1.855
 9075SOL     OW28123   6.541   0.229   1.491
 9075SOL    HW128124   6.593   0.303   1.534
 9075SOL    HW228125   6.462   0.267   1.443
 9076SOL     OW28126   6.719   0.302   2.092
 9076SOL    HW128127   6.620   0.299   2.078
 9076SOL    HW228128   6.739   0.353   2.175
 9077SOL     OW28129   6.470   1.404   6.163
 9077SOL    HW128130   6.386   1.399   6.109
 9077SOL    HW228131   6.529   1.477   6.128
 9078SOL     OW28132   5.683   5.833   6.708
 9078SOL    HW128133   5.718   5.894   6.779
 9078SOL    HW228134   5.584   5.838   6.705
 9079SOL     OW28135   1.103   0.343   6.544
 9079SOL    HW128136   1.182   0.348   6.606
 9079SOL    HW228137   1.019   0.334   6.597
 9080SOL     OW28138   6.301   3.686   0.954
 9080SOL    HW128139   6.372   3.665   0.886
 9080SOL    HW228140   6.285   3.605   1.011
 9081SOL     OW28141   3.916   1.979   0.504
 9081SOL    HW128142   3.851   2.042   0.545
 9081SOL    HW228143   3.868   1.896   0.474
 9082SOL     OW28144   3.154   5.789   5.886
 9082SOL    HW128145   3.073   5.742   5.851
 9082SOL    HW228146   3.180   5.862   5.823
 9083SOL     OW28147   4.723   4.856   6.800
 9083SOL    HW128148   4.632   4.871   6.763
 9083SOL    HW228149   4.730   4.901   6.889
 9084SOL     OW28150   0.968   2.807   5.718
 9084SOL    HW128151   0.899   2.831   5.650
 9084SOL    HW228152   0.964   2.874   5.793
 9085SOL     OW28153   2.471   5.273   6.773
 9085SOL    HW128154   2.388   5.219   6.763
 9085SOL    HW228155   2.452   5.368   6.749
 9086SOL     OW28156   6.812   4.265   0.460
 9086SOL    HW128157   6.909   4.255   0.438
 9086SOL    HW228158   6.802   4.320   0.543
 9087SOL     OW28159   5.760   1.364   1.626
 9087SOL    HW128160   5.835   1.395   1.568
 9087SOL    HW228161   5.679   1.420   1.607
 9088SOL     OW28162   6.402   0.457   0.865
 9088SOL    HW128163   6.372   0.549   0.842
 9088SOL    HW228164   6.353   0.426   0.947
 9089SOL     OW28165   4.446   6.096   3.998
 9089SOL    HW128166   4.447   6.092   3.898
 9089SOL    HW228167   4.526   6.148   4.030
 9090SOL     OW28168   5.672   6.225   4.749
 9090SOL    HW128169   5.703   6.294   4.814
 9090SOL    HW228170   5.726   6.232   4.665
 9091SOL     OW28171   2.900   1.523   1.082
 9091SOL    HW128172   2.935   1.434   1.056
 9091SOL    HW228173   2.816   1.542   1.030
 9092SOL     OW28174   1.346   6.495   5.727
 9092SOL    HW128175   1.423   6.496   5.791
 9092SOL    HW228176   1.366   6.555   5.650
 9093SOL     OW28177   1.490   5.274   0.583
 9093SOL    HW128178   1.466   5.198   0.523
 9093SOL    HW228179   1.529   5.348   0.528
 9094SOL     OW28180   0.062   5.882   2.176
 9094SOL    HW128181   0.092   5.944   2.103
 9094SOL    HW228182   0.138   5.824   2.204
 9095SOL     OW28183   4.065   3.668   6.464
 9095SOL    HW128184   4.056   3.734   6.538
 9095SOL    HW228185   3.977   3.625   6.445
 9096SOL     OW28186   5.941   2.540   2.851
 9096SOL    HW128187   5.863   2.483   2.823
 9096SOL    HW228188   5.912   2.636   2.855
 9097SOL     OW28189   1.561   3.792   6.565
 9097SOL    HW128190   1.533   3.838   6.481
 9097SOL    HW228191   1.520   3.838   6.644
 9098SOL     OW28192   3.660   4.120   2.188
 9098SOL    HW128193   3.713   4.165   2.260
 9098SOL    HW228194   3.721   4.069   2.128
 9099SOL     OW28195   2.368   3.348   1.546
 9099SOL    HW128196   2.413   3.395   1.622
 9099SOL    HW228197   2.340   3.257   1.576
 9100SOL     OW28198   0.202   3.211   1.140
 9100SOL    HW128199   0.171   3.208   1.045
 9100SOL    HW228200   0.290   3.257   1.145
 9101SOL     OW28201   1.492   2.536   2.559
 9101SOL    HW128202   1.438   2.566   2.637
 9101SOL    HW228203   1.503   2.437   2.562
 9102SOL     OW28204   3.818   5.339   1.676
 9102SOL    HW128205   3.792   5.433   1.658
 9102SOL    HW228206   3.898   5.337   1.736
 9103SOL     OW28207   6.773   3.778   0.733
 9103SOL    HW128208   6.740   3.804   0.642
 9103SOL    HW228209   6.696   3.751   0.790
 9104SOL     OW28210   4.588   6.148   1.470
 9104SOL    HW128211   4.600   6.073   1.535
 9104SOL    HW228212   4.677   6.172   1.431
 9105SOL     OW28213   1.648   0.951   6.318
 9105SOL    HW128214   1.587   0.930   6.394
 9105SOL    HW228215   1.732   0.992   6.354
 9106SOL     OW28216   5.898   4.965   6.835
 9106SOL    HW128217   5.918   4.869   6.815
 9106SOL    HW228218   5.977   5.006   6.881
 9107SOL     OW28219   3.701   6.865   0.593
 9107SOL    HW128220   3.664   6.778   0.624
 9107SOL    HW228221   3.686   6.875   0.494
 9108SOL     OW28222   4.830   4.389   5.559
 9108SOL    HW128223   4.860   4.401   5.653
 9108SOL    HW228224   4.815   4.478   5.517
 9109SOL     OW28225   2.459   2.485   3.416
 9109SOL    HW128226   2.428   2.454   3.326
 9109SOL    HW228227   2.558   2.471   3.424
 9110SOL     OW28228   1.929   4.858   3.822
 9110SOL    HW128229   1.900   4.852   3.917
 9110SOL    HW228230   1.981   4.942   3.807
 9111SOL     OW28231   3.858   4.314   1.265
 9111SOL    HW128232   3.929   4.261   1.219
 9111SOL    HW228233   3.786   4.253   1.298
 9112SOL     OW28234   0.914   4.529   2.506
 9112SOL    HW128235   0.868   4.475   2.575
 9112SOL    HW228236   0.846   4.580   2.452
 9113SOL     OW28237   5.211   0.600   0.570
 9113SOL    HW128238   5.305   0.571   0.550
 9113SOL    HW228239   5.153   0.585   0.489
 9114SOL     OW28240   2.154   4.350   1.967
 9114SOL    HW128241   2.097   4.348   1.885
 9114SOL    HW228242   2.097   4.333   2.047
 9115SOL     OW28243   1.184   4.937   4.149
 9115SOL    HW128244   1.160   4.977   4.237
 9115SOL    HW228245   1.235   5.003   4.095
 9116SOL     OW28246   6.296   1.522   6.958
 9116SOL    HW128247   6.258   1.588   0.004
 9116SOL    HW228248   6.363   1.567   6.900
 9117SOL     OW28249   6.405   2.757   6.180
 9117SOL    HW128250   6.467   2.702   6.237
 9117SOL    HW228251   6.332   2.699   6.145
 9118SOL     OW28252   6.187   0.127   0.923
 9118SOL    HW128253   6.245   0.095   0.848
 9118SOL    HW228254   6.116   0.187   0.887
 9119SOL     OW28255   5.815   0.850   2.078
 9119SOL    HW128256   5.795   0.942   2.113
 9119SOL    HW228257   5.810   0.784   2.153
 9120SOL     OW28258   6.046   2.093   5.886
 9120SOL    HW128259   6.107   2.014   5.891
 9120SOL    HW228260   5.980   2.089   5.962
 9121SOL     OW28261   0.630   2.852   5.070
 9121SOL    HW128262   0.685   2.813   4.997
 9121SOL    HW228263   0.621   2.786   5.145
 9122SOL     OW28264   1.704   3.014   2.518
 9122SOL    HW128265   1.750   2.963   2.591
 9122SOL    HW228266   1.646   3.084   2.558
 9123SOL     OW28267   2.857   6.389   5.330
 9123SOL    HW128268   2.826   6.481   5.306
 9123SOL    HW228269   2.798   6.322   5.284
 9124SOL     OW28270   6.535   5.779   5.369
 9124SOL    HW128271   6.555   5.876   5.356
 9124SOL    HW228272   6.517   5.736   5.280
 9125SOL     OW28273   4.749   4.192   3.546
 9125SOL    HW128274   4.698   4.236   3.472
 9125SOL    HW228275   4.843   4.228   3.548
 9126SOL     OW28276   6.278   0.920   1.381
 9126SOL    HW128277   6.317   0.983   1.313
 9126SOL    HW228278   6.285   0.826   1.348
 9127SOL     OW28279   5.840   6.885   6.056
 9127SOL    HW128280   5.816   6.965   6.001
 9127SOL    HW228281   5.904   6.912   6.128
 9128SOL     OW28282   4.286   1.297   5.151
 9128SOL    HW128283   4.330   1.337   5.070
 9128SOL    HW228284   4.195   1.265   5.126
 9129SOL     OW28285   1.761   3.170   6.854
 9129SOL    HW128286   1.824   3.172   6.931
 9129SOL    HW228287   1.668   3.187   6.886
 9130SOL     OW28288   0.113   4.445   6.825
 9130SOL    HW128289   0.048   4.371   6.810
 9130SOL    HW228290   0.090   4.494   6.909
 9131SOL     OW28291   0.322   4.332   5.105
 9131SOL    HW128292   0.383   4.253   5.102
 9131SOL    HW228293   0.229   4.303   5.083
 9132SOL     OW28294   6.779   4.302   4.087
 9132SOL    HW128295   6.878   4.302   4.079
 9132SOL    HW228296   6.753   4.282   4.182
 9133SOL     OW28297   2.484   4.735   0.482
 9133SOL    HW128298   2.466   4.681   0.564
 9133SOL    HW228299   2.582   4.741   0.467
 9134SOL     OW28300   3.569   6.250   0.642
 9134SOL    HW128301   3.649   6.193   0.620
 9134SOL    HW228302   3.509   6.255   0.562
 9135SOL     OW28303   0.257   7.006   2.302
 9135SOL    HW128304   0.308   0.044   2.238
 9135SOL    HW228305   0.304   7.005   2.390
 9136SOL     OW28306   5.281   5.002   5.962
 9136SOL    HW128307   5.343   4.980   6.038
 9136SOL    HW228308   5.258   5.100   5.965
 9137SOL     OW28309   5.137   1.155   0.901
 9137SOL    HW128310   5.215   1.195   0.852
 9137SOL    HW228311   5.155   1.059   0.918
 9138SOL     OW28312   6.205   5.415   5.985
 9138SOL    HW128313   6.230   5.356   5.909
 9138SOL    HW228314   6.261   5.392   6.065
 9139SOL     OW28315   2.930   1.261   5.499
 9139SOL    HW128316   2.863   1.257   5.425
 9139SOL    HW228317   2.892   1.312   5.577
 9140SOL     OW28318   6.550   2.444   2.916
 9140SOL    HW128319   6.511   2.356   2.888
 9140SOL    HW228320   6.490   2.488   2.983
 9141SOL     OW28321   5.268   6.802   6.614
 9141SOL    HW128322   5.299   6.860   6.539
 9141SOL    HW228323   5.269   6.706   6.585
 9142SOL     OW28324   0.282   2.649   5.003
 9142SOL    HW128325   0.317   2.655   5.096
 9142SOL    HW228326   0.330   2.576   4.954
 9143SOL     OW28327   4.832   3.806   0.210
 9143SOL    HW128328   4.806   3.900   0.234
 9143SOL    HW228329   4.837   3.797   0.111
 9144SOL     OW28330   2.113   6.224   6.518
 9144SOL    HW128331   2.118   6.322   6.498
 9144SOL    HW228332   2.189   6.198   6.577
 9145SOL     OW28333   0.227   5.280   0.616
 9145SOL    HW128334   0.205   5.283   0.714
 9145SOL    HW228335   0.210   5.370   0.575
 9146SOL     OW28336   4.989   2.186   1.392
 9146SOL    HW128337   5.010   2.247   1.468
 9146SOL    HW228338   4.914   2.225   1.338
 9147SOL     OW28339   5.432   6.432   4.357
 9147SOL    HW128340   5.423   6.436   4.456
 9147SOL    HW228341   5.517   6.477   4.329
 9148SOL     OW28342   6.111   6.711   2.097
 9148SOL    HW128343   6.181   6.703   2.025
 9148SOL    HW228344   6.021   6.695   2.057
 9149SOL     OW28345   4.735   2.821   4.004
 9149SOL    HW128346   4.742   2.916   3.973
 9149SOL    HW228347   4.738   2.760   3.925
 9150SOL     OW28348   4.058   6.169   3.377
 9150SOL    HW128349   4.013   6.218   3.302
 9150SOL    HW228350   4.044   6.071   3.366
 9151SOL     OW28351   1.410   4.009   2.409
 9151SOL    HW128352   1.362   4.093   2.435
 9151SOL    HW228353   1.483   3.990   2.474
 9152SOL     OW28354   2.218   6.078   4.068
 9152SOL    HW128355   2.258   5.992   4.037
 9152SOL    HW228356   2.216   6.080   4.168
 9153SOL     OW28357   1.732   3.040   0.489
 9153SOL    HW128358   1.782   2.954   0.482
 9153SOL    HW228359   1.719   3.064   0.585
 9154SOL     OW28360   2.657   5.565   6.358
 9154SOL    HW128361   2.558   5.571   6.350
 9154SOL    HW228362   2.696   5.657   6.368
 9155SOL     OW28363   2.364   3.488   0.292
 9155SOL    HW128364   2.385   3.536   0.206
 9155SOL    HW228365   2.365   3.390   0.276
 9156SOL     OW28366   3.364   3.290   1.408
 9156SOL    HW128367   3.404   3.211   1.455
 9156SOL    HW228368   3.437   3.346   1.367
 9157SOL     OW28369   5.867   4.970   5.355
 9157SOL    HW128370   5.790   4.960   5.418
 9157SOL    HW228371   5.935   4.899   5.373
 9158SOL     OW28372   6.388   3.233   4.612
 9158SOL    HW128373   6.346   3.289   4.683
 9158SOL    HW228374   6.463   3.284   4.570
 9159SOL     OW28375   0.001   5.989   3.222
 9159SOL    HW128376   0.074   6.011   3.287
 9159SOL    HW228377   6.948   5.939   3.269
 9160SOL     OW28378   6.771   6.957   4.828
 9160SOL    HW128379   6.841   6.991   4.890
 9160SOL    HW228380   6.812   6.893   4.763
 9161SOL     OW28381   4.882   3.911   4.599
 9161SOL    HW128382   4.971   3.899   4.555
 9161SOL    HW228383   4.873   3.846   4.674
 9162SOL     OW28384   4.894   2.442   3.281
 9162SOL    HW128385   4.863   2.522   3.229
 9162SOL    HW228386   4.965   2.394   3.229
 9163SOL     OW28387   2.179   3.197   3.953
 9163SOL    HW128388   2.172   3.283   4.004
 9163SOL    HW228389   2.190   3.217   3.856
 9164SOL     OW28390   2.716   0.823   6.653
 9164SOL    HW128391   2.626   0.841   6.693
 9164SOL    HW228392   2.787   0.832   6.723
 9165SOL     OW28393   6.346   1.476   6.467
 9165SOL    HW128394   6.380   1.383   6.478
 9165SOL    HW228395   6.294   1.483   6.382
 9166SOL     OW28396   4.546   6.446   1.009
 9166SOL    HW128397   4.601   6.491   0.938
 9166SOL    HW228398   4.606   6.407   1.078
 9167SOL     OW28399   1.624   3.431   6.227
 9167SOL    HW128400   1.708   3.477   6.256
 9167SOL    HW228401   1.603   3.357   6.291
 9168SOL     OW28402   1.604   6.465   5.527
 9168SOL    HW128403   1.569   6.413   5.449
 9168SOL    HW228404   1.539   6.537   5.551
 9169SOL     OW28405   6.642   1.062   4.869
 9169SOL    HW128406   6.673   1.157   4.872
 9169SOL    HW228407   6.721   1.002   4.855
 9170SOL     OW28408   0.182   5.076   0.024
 9170SOL    HW128409   0.100   5.040   7.000
 9170SOL    HW228410   0.250   5.004   0.033
 9171SOL     OW28411   3.436   5.632   0.314
 9171SOL    HW128412   3.511   5.566   0.307
 9171SOL    HW228413   3.364   5.607   0.250
 9172SOL     OW28414   3.332   0.739   5.003
 9172SOL    HW128415   3.358   0.644   4.988
 9172SOL    HW228416   3.406   0.800   4.974
 9173SOL     OW28417   5.392   4.399   4.747
 9173SOL    HW128418   5.326   4.370   4.816
 9173SOL    HW228419   5.478   4.423   4.791
 9174SOL     OW28420   6.364   4.081   0.401
 9174SOL    HW128421   6.378   4.065   0.499
 9174SOL    HW228422   6.273   4.050   0.375
 9175SOL     OW28423   1.658   6.571   4.623
 9175SOL    HW128424   1.612   6.544   4.539
 9175SOL    HW228425   1.628   6.511   4.698
 9176SOL     OW28426   2.771   1.150   5.975
 9176SOL    HW128427   2.798   1.241   6.003
 9176SOL    HW228428   2.830   1.119   5.900
 9177SOL     OW28429   1.561   5.096   4.321
 9177SOL    HW128430   1.553   5.002   4.354
 9177SOL    HW228431   1.495   5.154   4.371
 9178SOL     OW28432   2.278   5.459   0.700
 9178SOL    HW128433   2.308   5.381   0.756
 9178SOL    HW228434   2.356   5.515   0.676
 9179SOL     OW28435   2.548   5.778   4.013
 9179SOL    HW128436   2.454   5.775   3.981
 9179SOL    HW228437   2.552   5.824   4.102
 9180SOL     OW28438   6.180   2.272   3.358
 9180SOL    HW128439   6.105   2.335   3.337
 9180SOL    HW228440   6.149   2.178   3.345
 9181SOL     OW28441   4.413   2.178   3.389
 9181SOL    HW128442   4.315   2.196   3.382
 9181SOL    HW228443   4.454   2.238   3.458
 9182SOL     OW28444   2.853   0.017   2.505
 9182SOL    HW128445   2.768   0.002   2.556
 9182SOL    HW228446   2.928   0.032   2.569
 9183SOL     OW28447   5.496   6.093   0.438
 9183SOL    HW128448   5.521   6.104   0.342
 9183SOL    HW228449   5.398   6.075   0.446
 9184SOL     OW28450   5.034   1.529   0.204
 9184SOL    HW128451   4.942   1.567   0.196
 9184SOL    HW228452   5.101   1.603   0.208
 9185SOL     OW28453   4.418   6.785   4.591
 9185SOL    HW128454   4.393   6.762   4.497
 9185SOL    HW228455   4.336   6.789   4.647
 9186SOL     OW28456   5.636   0.840   3.717
 9186SOL    HW128457   5.577   0.827   3.638
 9186SOL    HW228458   5.728   0.807   3.697
 9187SOL     OW28459   2.675   0.357   1.451
 9187SOL    HW128460   2.602   0.329   1.513
 9187SOL    HW228461   2.763   0.349   1.498
 9188SOL     OW28462   2.115   6.979   2.236
 9188SOL    HW128463   2.057   6.984   2.155
 9188SOL    HW228464   2.085   6.904   2.295
 9189SOL     OW28465   5.488   6.090   2.138
 9189SOL    HW128466   5.554   6.151   2.096
 9189SOL    HW228467   5.527   6.050   2.221
 9190SOL     OW28468   1.099   4.849   0.438
 9190SOL    HW128469   1.071   4.939   0.405
 9190SOL    HW228470   1.106   4.786   0.361
 9191SOL     OW28471   6.065   0.779   5.939
 9191SOL    HW128472   5.988   0.727   5.977
 9191SOL    HW228473   6.144   0.773   6.000
 9192SOL     OW28474   0.850   4.063   5.530
 9192SOL    HW128475   0.875   3.989   5.468
 9192SOL    HW228476   0.928   4.087   5.587
 9193SOL     OW28477   4.832   4.587   0.124
 9193SOL    HW128478   4.932   4.588   0.126
 9193SOL    HW228479   4.801   4.579   0.029
 9194SOL     OW28480   3.269   0.904   3.312
 9194SOL    HW128481   3.239   0.979   3.371
 9194SOL    HW228482   3.251   0.926   3.217
 9195SOL     OW28483   1.530   2.223   4.347
 9195SOL    HW128484   1.521   2.141   4.402
 9195SOL    HW228485   1.553   2.198   4.253
 9196SOL     OW28486   3.825   0.599   4.807
 9196SOL    HW128487   3.812   0.698   4.798
 9196SOL    HW228488   3.913   0.573   4.767
 9197SOL     OW28489   1.369   4.263   1.514
 9197SOL    HW128490   1.289   4.306   1.555
 9197SOL    HW228491   1.361   4.264   1.414
 9198SOL     OW28492   6.436   5.340   5.522
 9198SOL    HW128493   6.414   5.303   5.612
 9198SOL    HW228494   6.375   5.301   5.453
 9199SOL     OW28495   1.152   3.734   6.339
 9199SOL    HW128496   1.129   3.719   6.243
 9199SOL    HW228497   1.142   3.831   6.361
 9200SOL     OW28498   2.944   0.410   0.637
 9200SOL    HW128499   3.006   0.452   0.571
 9200SOL    HW228500   2.992   0.395   0.723
 9201SOL     OW28501   0.612   2.981   0.611
 9201SOL    HW128502   0.628   2.982   0.710
 9201SOL    HW228503   0.691   2.940   0.565
 9202SOL     OW28504   2.213   0.207   3.328
 9202SOL    HW128505   2.171   0.127   3.285
 9202SOL    HW228506   2.247   0.181   3.418
 9203SOL     OW28507   0.334   5.441   6.672
 9203SOL    HW128508   0.272   5.501   6.621
 9203SOL    HW228509   0.423   5.437   6.626
 9204SOL     OW28510   4.421   2.608   6.839
 9204SOL    HW128511   4.374   2.627   6.925
 9204SOL    HW228512   4.455   2.693   6.799
 9205SOL     OW28513   5.912   4.444   2.681
 9205SOL    HW128514   5.855   4.372   2.721
 9205SOL    HW228515   5.982   4.402   2.623
 9206SOL     OW28516   3.872   5.338   1.413
 9206SOL    HW128517   3.912   5.406   1.351
 9206SOL    HW228518   3.902   5.357   1.507
 9207SOL     OW28519   4.263   5.004   0.380
 9207SOL    HW128520   4.251   4.964   0.289
 9207SOL    HW228521   4.350   5.052   0.384
 9208SOL     OW28522   5.821   4.379   4.059
 9208SOL    HW128523   5.920   4.383   4.053
 9208SOL    HW228524   5.782   4.369   3.968
 9209SOL     OW28525   2.846   0.541   0.087
 9209SOL    HW128526   2.941   0.559   0.111
 9209SOL    HW228527   2.842   0.497   7.017
 9210SOL     OW28528   6.705   1.335   2.672
 9210SOL    HW128529   6.638   1.290   2.612
 9210SOL    HW228530   6.787   1.277   2.679
 9211SOL     OW28531   6.564   2.856   4.334
 9211SOL    HW128532   6.641   2.852   4.271
 9211SOL    HW228533   6.538   2.764   4.362
 9212SOL     OW28534   4.109   5.355   4.370
 9212SOL    HW128535   4.145   5.296   4.298
 9212SOL    HW228536   4.011   5.370   4.355
 9213SOL     OW28537   5.460   3.029   5.271
 9213SOL    HW128538   5.381   2.969   5.278
 9213SOL    HW228539   5.488   3.036   5.175
 9214SOL     OW28540   0.437   5.709   5.490
 9214SOL    HW128541   0.353   5.670   5.453
 9214SOL    HW228542   0.459   5.794   5.442
 9215SOL     OW28543   1.102   2.250   0.053
 9215SOL    HW128544   1.062   2.160   0.065
 9215SOL    HW228545   1.043   2.320   0.094
 9216SOL     OW28546   2.703   0.555   3.208
 9216SOL    HW128547   2.745   0.627   3.262
 9216SOL    HW228548   2.710   0.576   3.111
 9217SOL     OW28549   0.074   0.804   5.683
 9217SOL    HW128550   0.010   0.880   5.689
 9217SOL    HW228551   0.128   0.799   5.767
 9218SOL     OW28552   3.758   6.039   0.562
 9218SOL    HW128553   3.723   5.964   0.506
 9218SOL    HW228554   3.858   6.031   0.569
 9219SOL     OW28555   0.417   2.832   0.055
 9219SOL    HW128556   0.328   2.867   0.024
 9219SOL    HW228557   0.456   2.772   7.005
 9220SOL     OW28558   2.584   6.498   1.313
 9220SOL    HW128559   2.605   6.582   1.364
 9220SOL    HW228560   2.571   6.423   1.377
 9221SOL     OW28561   3.199   0.732   4.252
 9221SOL    HW128562   3.170   0.639   4.276
 9221SOL    HW228563   3.123   0.796   4.266
 9222SOL     OW28564   2.910   6.951   6.894
 9222SOL    HW128565   2.961   6.983   6.973
 9222SOL    HW228566   2.834   6.893   6.924
 9223SOL     OW28567   1.283   1.643   5.016
 9223SOL    HW128568   1.256   1.653   5.112
 9223SOL    HW228569   1.365   1.586   5.011
 9224SOL     OW28570   2.961   5.276   5.028
 9224SOL    HW128571   2.886   5.225   5.070
 9224SOL    HW228572   3.047   5.252   5.072
 9225SOL     OW28573   3.720   6.911   6.088
 9225SOL    HW128574   3.739   6.971   6.010
 9225SOL    HW228575   3.718   6.816   6.058
 9226SOL     OW28576   5.397   6.829   1.665
 9226SOL    HW128577   5.450   6.791   1.741
 9226SOL    HW228578   5.458   6.877   1.602
 9227SOL     OW28579   0.874   5.491   2.869
 9227SOL    HW128580   0.949   5.475   2.933
 9227SOL    HW228581   0.844   5.403   2.831
 9228SOL     OW28582   1.386   0.738   6.011
 9228SOL    HW128583   1.300   0.717   6.057
 9228SOL    HW228584   1.380   0.709   5.915
 9229SOL     OW28585   1.438   5.763   4.377
 9229SOL    HW128586   1.537   5.768   4.371
 9229SOL    HW228587   1.397   5.795   4.292
 9230SOL     OW28588   6.030   0.373   2.610
 9230SOL    HW128589   6.115   0.359   2.660
 9230SOL    HW228590   6.042   0.347   2.514
 9231SOL     OW28591   1.935   3.995   3.886
 9231SOL    HW128592   2.029   4.008   3.920
 9231SOL    HW228593   1.938   3.967   3.790
 9232SOL     OW28594   3.176   5.419   0.710
 9232SOL    HW128595   3.083   5.431   0.745
 9232SOL    HW228596   3.202   5.499   0.657
 9233SOL     OW28597   5.737   5.059   1.458
 9233SOL    HW128598   5.830   5.095   1.472
 9233SOL    HW228599   5.730   4.968   1.498
 9234SOL     OW28600   3.492   5.355   4.370
 9234SOL    HW128601   3.397   5.332   4.391
 9234SOL    HW228602   3.495   5.438   4.315
 9235SOL     OW28603   1.657   2.331   3.382
 9235SOL    HW128604   1.701   2.342   3.293
 9235SOL    HW228605   1.665   2.416   3.434
 9236SOL     OW28606   3.596   4.048   5.227
 9236SOL    HW128607   3.644   3.965   5.198
 9236SOL    HW228608   3.509   4.055   5.179
 9237SOL     OW28609   2.183   4.677   4.690
 9237SOL    HW128610   2.281   4.661   4.679
 9237SOL    HW228611   2.159   4.673   4.787
 9238SOL     OW28612   4.207   2.315   5.881
 9238SOL    HW128613   4.175   2.220   5.879
 9238SOL    HW228614   4.295   2.321   5.835
 9239SOL     OW28615   0.217   4.004   1.135
 9239SOL    HW128616   0.142   4.049   1.184
 9239SOL    HW228617   0.283   3.969   1.201
 9240SOL     OW28618   5.497   1.065   0.321
 9240SOL    HW128619   5.575   1.003   0.330
 9240SOL    HW228620   5.495   1.127   0.400
 9241SOL     OW28621   7.003   5.568   5.819
 9241SOL    HW128622   0.041   5.621   5.882
 9241SOL    HW228623   6.957   5.496   5.870
 9242SOL     OW28624   6.591   5.544   0.445
 9242SOL    HW128625   6.671   5.603   0.436
 9242SOL    HW228626   6.507   5.599   0.439
 9243SOL     OW28627   6.089   5.778   3.000
 9243SOL    HW128628   6.069   5.812   3.091
 9243SOL    HW228629   6.048   5.687   2.988
 9244SOL     OW28630   4.524   5.354   5.814
 9244SOL    HW128631   4.499   5.390   5.904
 9244SOL    HW228632   4.527   5.254   5.818
 9245SOL     OW28633   1.447   5.194   2.632
 9245SOL    HW128634   1.524   5.143   2.670
 9245SOL    HW228635   1.418   5.151   2.546
 9246SOL     OW28636   5.690   4.820   3.302
 9246SOL    HW128637   5.672   4.788   3.209
 9246SOL    HW228638   5.787   4.844   3.310
 9247SOL     OW28639   0.531   6.726   3.288
 9247SOL    HW128640   0.555   6.795   3.220
 9247SOL    HW228641   0.567   6.754   3.378
 9248SOL     OW28642   2.149   2.878   6.096
 9248SOL    HW128643   2.082   2.866   6.023
 9248SOL    HW228644   2.178   2.973   6.100
 9249SOL     OW28645   5.533   2.472   5.669
 9249SOL    HW128646   5.458   2.513   5.617
 9249SOL    HW228647   5.560   2.534   5.743
 9250SOL     OW28648   5.427   3.795   4.970
 9250SOL    HW128649   5.354   3.858   4.942
 9250SOL    HW228650   5.446   3.731   4.895
 9251SOL     OW28651   3.743   2.129   3.489
 9251SOL    HW128652   3.676   2.154   3.419
 9251SOL    HW228653   3.835   2.150   3.456
 9252SOL     OW28654   6.475   0.581   4.234
 9252SOL    HW128655   6.509   0.488   4.251
 9252SOL    HW228656   6.552   0.640   4.207
 9253SOL     OW28657   4.602   5.958   5.789
 9253SOL    HW128658   4.583   5.983   5.694
 9253SOL    HW228659   4.622   6.040   5.842
 9254SOL     OW28660   6.182   3.984   1.265
 9254SOL    HW128661   6.126   3.969   1.183
 9254SOL    HW228662   6.275   3.952   1.248
 9255SOL     OW28663   5.072   2.816   6.961
 9255SOL    HW128664   4.996   2.766   7.002
 9255SOL    HW228665   5.051   2.914   6.960
 9256SOL     OW28666   3.773   4.924   3.483
 9256SOL    HW128667   3.720   4.889   3.560
 9256SOL    HW228668   3.867   4.892   3.490
 9257SOL     OW28669   0.922   4.182   2.452
 9257SOL    HW128670   0.933   4.108   2.518
 9257SOL    HW228671   1.010   4.228   2.439
 9258SOL     OW28672   3.776   2.929   3.835
 9258SOL    HW128673   3.825   2.974   3.760
 9258SOL    HW228674   3.834   2.927   3.916
 9259SOL     OW28675   1.355   2.251   0.915
 9259SOL    HW128676   1.346   2.152   0.928
 9259SOL    HW228677   1.264   2.292   0.915
 9260SOL     OW28678   5.126   1.903   5.403
 9260SOL    HW128679   5.156   1.992   5.436
 9260SOL    HW228680   5.196   1.834   5.423
 9261SOL     OW28681   4.344   6.869   6.304
 9261SOL    HW128682   4.334   6.857   6.205
 9261SOL    HW228683   4.283   6.941   6.335
 9262SOL     OW28684   6.414   2.767   5.545
 9262SOL    HW128685   6.461   2.855   5.555
 9262SOL    HW228686   6.342   2.759   5.615
 9263SOL     OW28687   6.033   4.022   0.994
 9263SOL    HW128688   6.048   3.994   0.900
 9263SOL    HW228689   6.104   4.086   1.022
 9264SOL     OW28690   6.190   3.920   0.183
 9264SOL    HW128691   6.178   3.993   0.116
 9264SOL    HW228692   6.286   3.893   0.186
 9265SOL     OW28693   3.420   1.280   0.215
 9265SOL    HW128694   3.487   1.285   0.289
 9265SOL    HW228695   3.350   1.350   0.229
 9266SOL     OW28696   2.732   6.437   2.878
 9266SOL    HW128697   2.721   6.413   2.781
 9266SOL    HW228698   2.728   6.353   2.933
 9267SOL     OW28699   0.335   3.977   5.635
 9267SOL    HW128700   0.424   4.017   5.611
 9267SOL    HW228701   0.317   3.899   5.575
 9268SOL     OW28702   0.701   6.415   2.345
 9268SOL    HW128703   0.706   6.391   2.442
 9268SOL    HW228704   0.787   6.390   2.300
 9269SOL     OW28705   2.873   2.419   6.602
 9269SOL    HW128706   2.961   2.434   6.557
 9269SOL    HW228707   2.839   2.506   6.639
 9270SOL     OW28708   5.006   6.397   5.574
 9270SOL    HW128709   5.028   6.425   5.480
 9270SOL    HW228710   4.907   6.380   5.582
 9271SOL     OW28711   1.267   6.117   1.076
 9271SOL    HW128712   1.175   6.137   1.044
 9271SOL    HW228713   1.331   6.185   1.040
 9272SOL     OW28714   3.020   4.745   6.274
 9272SOL    HW128715   2.961   4.733   6.354
 9272SOL    HW228716   3.037   4.656   6.232
 9273SOL     OW28717   4.990   5.948   3.907
 9273SOL    HW128718   5.054   5.875   3.930
 9273SOL    HW228719   4.974   5.948   3.808
 9274SOL     OW28720   6.045   1.770   6.712
 9274SOL    HW128721   6.125   1.815   6.752
 9274SOL    HW228722   5.966   1.781   6.772
 9275SOL     OW28723   0.676   1.412   0.146
 9275SOL    HW128724   0.605   1.473   0.182
 9275SOL    HW228725   0.729   1.461   0.076
 9276SOL     OW28726   2.369   4.911   4.543
 9276SOL    HW128727   2.421   4.994   4.522
 9276SOL    HW228728   2.311   4.927   4.623
 9277SOL     OW28729   4.226   3.945   0.117
 9277SOL    HW128730   4.320   3.911   0.120
 9277SOL    HW228731   4.186   3.940   0.209
 9278SOL     OW28732   1.885   1.288   4.104
 9278SOL    HW128733   1.837   1.228   4.167
 9278SOL    HW228734   1.903   1.240   4.018
 9279SOL     OW28735   4.665   0.744   1.578
 9279SOL    HW128736   4.599   0.715   1.509
 9279SOL    HW228737   4.657   0.843   1.590
 9280SOL     OW28738   1.931   0.450   3.753
 9280SOL    HW128739   1.853   0.510   3.733
 9280SOL    HW228740   1.971   0.418   3.667
 9281SOL     OW28741   3.034   3.664   0.791
 9281SOL    HW128742   2.963   3.716   0.839
 9281SOL    HW228743   3.121   3.674   0.839
 9282SOL     OW28744   4.997   2.339   4.217
 9282SOL    HW128745   5.009   2.397   4.136
 9282SOL    HW228746   5.058   2.260   4.210
 9283SOL     OW28747   6.248   1.067   2.398
 9283SOL    HW128748   6.242   1.004   2.476
 9283SOL    HW228749   6.325   1.040   2.340
 9284SOL     OW28750   4.276   4.951   0.055
 9284SOL    HW128751   4.181   4.920   0.062
 9284SOL    HW228752   4.334   4.874   0.026
 9285SOL     OW28753   4.915   2.932   0.258
 9285SOL    HW128754   4.931   2.992   0.180
 9285SOL    HW228755   4.818   2.931   0.282
 9286SOL     OW28756   5.919   0.144   5.699
 9286SOL    HW128757   5.887   0.146   5.605
 9286SOL    HW228758   5.855   0.092   5.755
 9287SOL     OW28759   3.227   5.745   1.223
 9287SOL    HW128760   3.248   5.714   1.316
 9287SOL    HW228761   3.248   5.672   1.158
 9288SOL     OW28762   3.404   1.088   5.635
 9288SOL    HW128763   3.364   1.163   5.584
 9288SOL    HW228764   3.335   1.018   5.653
 9289SOL     OW28765   3.808   1.929   2.654
 9289SOL    HW128766   3.868   1.860   2.694
 9289SOL    HW228767   3.713   1.899   2.662
 9290SOL     OW28768   4.379   1.424   4.788
 9290SOL    HW128769   4.407   1.328   4.797
 9290SOL    HW228770   4.283   1.433   4.813
 9291SOL     OW28771   2.368   0.698   5.858
 9291SOL    HW128772   2.449   0.664   5.810
 9291SOL    HW228773   2.396   0.745   5.942
 9292SOL     OW28774   6.309   3.501   5.886
 9292SOL    HW128775   6.211   3.492   5.904
 9292SOL    HW228776   6.359   3.501   5.972
 9293SOL     OW28777   6.437   3.940   0.888
 9293SOL    HW128778   6.516   3.991   0.923
 9293SOL    HW228779   6.418   3.863   0.949
 9294SOL     OW28780   3.702   6.408   5.593
 9294SOL    HW128781   3.797   6.403   5.621
 9294SOL    HW228782   3.644   6.369   5.665
 9295SOL     OW28783   4.898   1.922   3.385
 9295SOL    HW128784   4.956   1.844   3.363
 9295SOL    HW228785   4.937   2.005   3.344
 9296SOL     OW28786   6.765   6.595   6.271
 9296SOL    HW128787   6.778   6.531   6.347
 9296SOL    HW228788   6.746   6.544   6.187
 9297SOL     OW28789   0.348   0.414   1.059
 9297SOL    HW128790   0.436   0.388   1.021
 9297SOL    HW228791   0.304   0.480   0.998
 9298SOL     OW28792   1.677   6.217   5.914
 9298SOL    HW128793   1.728   6.253   5.836
 9298SOL    HW228794   1.687   6.279   5.992
 9299SOL     OW28795   1.025   3.630   4.573
 9299SOL    HW128796   1.076   3.625   4.659
 9299SOL    HW228797   0.946   3.569   4.578
 9300SOL     OW28798   6.632   4.953   4.636
 9300SOL    HW128799   6.721   4.969   4.592
 9300SOL    HW228800   6.636   4.984   4.731
 9301SOL     OW28801   4.701   4.657   3.293
 9301SOL    HW128802   4.640   4.713   3.237
 9301SOL    HW228803   4.648   4.588   3.342
 9302SOL     OW28804   2.294   2.923   3.939
 9302SOL    HW128805   2.249   3.012   3.949
 9302SOL    HW228806   2.323   2.891   4.029
 9303SOL     OW28807   3.817   5.713   0.747
 9303SOL    HW128808   3.782   5.784   0.808
 9303SOL    HW228809   3.746   5.688   0.681
 9304SOL     OW28810   4.554   4.094   0.974
 9304SOL    HW128811   4.628   4.027   0.975
 9304SOL    HW228812   4.587   4.179   0.932
 9305SOL     OW28813   4.738   1.426   1.389
 9305SOL    HW128814   4.784   1.401   1.303
 9305SOL    HW228815   4.807   1.453   1.456
 9306SOL     OW28816   0.403   4.997   4.988
 9306SOL    HW128817   0.450   5.066   4.933
 9306SOL    HW228818   0.414   4.907   4.945
 9307SOL     OW28819   0.806   3.015   1.286
 9307SOL    HW128820   0.778   3.042   1.378
 9307SOL    HW228821   0.848   2.924   1.289
 9308SOL     OW28822   0.591   4.125   1.315
 9308SOL    HW128823   0.648   4.205   1.335
 9308SOL    HW228824   0.638   4.042   1.345
 9309SOL     OW28825   3.701   5.235   5.439
 9309SOL    HW128826   3.757   5.306   5.396
 9309SOL    HW228827   3.709   5.150   5.388
 9310SOL     OW28828   4.603   5.900   6.340
 9310SOL    HW128829   4.513   5.914   6.381
 9310SOL    HW228830   4.601   5.818   6.282
 9311SOL     OW28831   6.209   4.498   1.295
 9311SOL    HW128832   6.225   4.594   1.316
 9311SOL    HW228833   6.240   4.441   1.371
 9312SOL     OW28834   2.008   4.203   0.659
 9312SOL    HW128835   2.021   4.252   0.745
 9312SOL    HW228836   2.061   4.118   0.661
 9313SOL     OW28837   0.416   0.861   1.182
 9313SOL    HW128838   0.325   0.878   1.145
 9313SOL    HW228839   0.476   0.827   1.109
 9314SOL     OW28840   4.541   5.304   6.802
 9314SOL    HW128841   4.572   5.295   6.707
 9314SOL    HW228842   4.449   5.343   6.804
 9315SOL     OW28843   6.643   0.421   4.967
 9315SOL    HW128844   6.600   0.477   4.897
 9315SOL    HW228845   6.604   0.329   4.965
 9316SOL     OW28846   4.505   6.027   5.286
 9316SOL    HW128847   4.530   6.052   5.379
 9316SOL    HW228848   4.526   6.103   5.224
 9317SOL     OW28849   6.606   6.217   2.817
 9317SOL    HW128850   6.508   6.206   2.833
 9317SOL    HW228851   6.625   6.311   2.790
 9318SOL     OW28852   6.749   1.298   4.786
 9318SOL    HW128853   6.680   1.328   4.719
 9318SOL    HW228854   6.838   1.335   4.761
 9319SOL     OW28855   0.531   2.682   5.879
 9319SOL    HW128856   0.576   2.772   5.887
 9319SOL    HW228857   0.584   2.614   5.930
 9320SOL     OW28858   4.527   1.720   6.103
 9320SOL    HW128859   4.445   1.762   6.142
 9320SOL    HW228860   4.527   1.622   6.123
 9321SOL     OW28861   6.684   6.906   2.539
 9321SOL    HW128862   6.602   6.859   2.574
 9321SOL    HW228863   6.699   6.879   2.444
 9322SOL     OW28864   0.020   6.395   5.982
 9322SOL    HW128865   0.039   6.491   5.961
 9322SOL    HW228866   0.091   6.359   6.042
 9323SOL     OW28867   1.624   0.224   5.664
 9323SOL    HW128868   1.627   0.172   5.579
 9323SOL    HW228869   1.529   0.248   5.685
 9324SOL     OW28870   1.397   5.205   0.216
 9324SOL    HW128871   1.442   5.192   0.128
 9324SOL    HW228872   1.413   5.127   0.275
 9325SOL     OW28873   4.921   2.098   1.023
 9325SOL    HW128874   4.974   2.182   1.008
 9325SOL    HW228875   4.982   2.019   1.023
 9326SOL     OW28876   2.861   6.852   1.252
 9326SOL    HW128877   2.789   6.913   1.286
 9326SOL    HW228878   2.820   6.780   1.196
 9327SOL     OW28879   5.285   6.535   2.785
 9327SOL    HW128880   5.292   6.452   2.731
 9327SOL    HW228881   5.209   6.526   2.850
 9328SOL     OW28882   4.236   1.404   6.343
 9328SOL    HW128883   4.166   1.360   6.400
 9328SOL    HW228884   4.318   1.348   6.341
 9329SOL     OW28885   0.080   4.049   2.690
 9329SOL    HW128886   0.076   4.099   2.777
 9329SOL    HW228887   0.066   3.952   2.707
 9330SOL     OW28888   0.205   6.159   0.439
 9330SOL    HW128889   0.246   6.119   0.521
 9330SOL    HW228890   0.227   6.257   0.435
 9331SOL     OW28891   0.641   1.270   5.979
 9331SOL    HW128892   0.591   1.263   6.065
 9331SOL    HW228893   0.717   1.205   5.979
 9332SOL     OW28894   3.343   4.121   3.026
 9332SOL    HW128895   3.289   4.131   3.110
 9332SOL    HW228896   3.282   4.120   2.947
 9333SOL     OW28897   5.125   3.869   1.450
 9333SOL    HW128898   5.105   3.834   1.358
 9333SOL    HW228899   5.086   3.807   1.518
 9334SOL     OW28900   3.723   6.867   3.490
 9334SOL    HW128901   3.780   6.807   3.434
 9334SOL    HW228902   3.741   6.850   3.587
 9335SOL     OW28903   1.219   1.107   6.243
 9335SOL    HW128904   1.189   1.059   6.325
 9335SOL    HW228905   1.300   1.061   6.205
 9336SOL     OW28906   3.380   6.163   6.632
 9336SOL    HW128907   3.443   6.239   6.614
 9336SOL    HW228908   3.334   6.138   6.547
 9337SOL     OW28909   5.040   0.410   2.901
 9337SOL    HW128910   4.971   0.432   2.970
 9337SOL    HW228911   5.012   0.448   2.813
 9338SOL     OW28912   4.623   0.529   1.873
 9338SOL    HW128913   4.544   0.469   1.880
 9338SOL    HW228914   4.633   0.562   1.779
 9339SOL     OW28915   5.740   0.058   0.375
 9339SOL    HW128916   5.698   6.990   0.353
 9339SOL    HW228917   5.763   0.107   0.291
 9340SOL     OW28918   5.345   3.802   5.419
 9340SOL    HW128919   5.415   3.734   5.396
 9340SOL    HW228920   5.378   3.862   5.492
 9341SOL     OW28921   1.192   5.823   6.848
 9341SOL    HW128922   1.165   5.755   6.779
 9341SOL    HW228923   1.234   5.776   6.926
 9342SOL     OW28924   2.455   0.823   4.561
 9342SOL    HW128925   2.467   0.919   4.584
 9342SOL    HW228926   2.357   0.800   4.565
 9343SOL     OW28927   6.157   4.445   3.806
 9343SOL    HW128928   6.134   4.539   3.833
 9343SOL    HW228929   6.194   4.445   3.713
 9344SOL     OW28930   4.433   5.634   1.590
 9344SOL    HW128931   4.505   5.567   1.609
 9344SOL    HW228932   4.399   5.621   1.497
 9345SOL     OW28933   5.968   2.824   1.857
 9345SOL    HW128934   5.978   2.889   1.782
 9345SOL    HW228935   6.056   2.808   1.900
 9346SOL     OW28936   6.228   0.679   0.809
 9346SOL    HW128937   6.150   0.734   0.841
 9346SOL    HW228938   6.289   0.736   0.755
 9347SOL     OW28939   2.030   5.389   1.141
 9347SOL    HW128940   1.970   5.452   1.090
 9347SOL    HW228941   1.991   5.297   1.140
 9348SOL     OW28942   4.453   5.298   1.449
 9348SOL    HW128943   4.484   5.227   1.512
 9348SOL    HW228944   4.499   5.286   1.360
 9349SOL     OW28945   0.670   0.058   2.282
 9349SOL    HW128946   0.690   0.003   2.363
 9349SOL    HW228947   0.696   0.153   2.299
 9350SOL     OW28948   0.701   2.197   5.812
 9350SOL    HW128949   0.796   2.168   5.800
 9350SOL    HW228950   0.687   2.286   5.770
 9351SOL     OW28951   3.311   1.505   6.863
 9351SOL    HW128952   3.303   1.413   6.826
 9351SOL    HW228953   3.404   1.519   6.897
 9352SOL     OW28954   2.816   3.611   0.167
 9352SOL    HW128955   2.854   3.519   0.181
 9352SOL    HW228956   2.788   3.649   0.255
 9353SOL     OW28957   0.907   4.998   1.685
 9353SOL    HW128958   0.881   4.952   1.600
 9353SOL    HW228959   0.827   5.043   1.724
 9354SOL     OW28960   6.914   2.653   6.416
 9354SOL    HW128961   6.885   2.564   6.452
 9354SOL    HW228962   7.013   2.653   6.403
 9355SOL     OW28963   0.910   2.130   4.676
 9355SOL    HW128964   0.968   2.048   4.669
 9355SOL    HW228965   0.833   2.111   4.736
 9356SOL     OW28966   4.229   6.748   1.296
 9356SOL    HW128967   4.320   6.707   1.289
 9356SOL    HW228968   4.182   6.740   1.208
 9357SOL     OW28969   1.253   2.348   6.860
 9357SOL    HW128970   1.210   2.311   6.943
 9357SOL    HW228971   1.252   2.279   6.788
 9358SOL     OW28972   0.428   4.196   2.382
 9358SOL    HW128973   0.388   4.186   2.473
 9358SOL    HW228974   0.521   4.232   2.390
 9359SOL     OW28975   2.106   5.948   6.351
 9359SOL    HW128976   2.029   5.889   6.378
 9359SOL    HW228977   2.099   6.035   6.398
 9360SOL     OW28978   1.530   6.682   6.570
 9360SOL    HW128979   1.469   6.663   6.493
 9360SOL    HW228980   1.576   6.598   6.598
 9361SOL     OW28981   1.685   6.388   4.082
 9361SOL    HW128982   1.706   6.475   4.038
 9361SOL    HW228983   1.599   6.352   4.044
 9362SOL     OW28984   1.815   1.040   2.045
 9362SOL    HW128985   1.830   0.964   2.108
 9362SOL    HW228986   1.856   1.019   1.957
 9363SOL     OW28987   2.924   5.524   2.250
 9363SOL    HW128988   2.888   5.436   2.218
 9363SOL    HW228989   2.947   5.581   2.170
 9364SOL     OW28990   2.539   2.456   1.884
 9364SOL    HW128991   2.580   2.446   1.975
 9364SOL    HW228992   2.537   2.552   1.858
 9365SOL     OW28993   2.927   1.805   4.428
 9365SOL    HW128994   3.001   1.794   4.362
 9365SOL    HW228995   2.965   1.802   4.521
 9366SOL     OW28996   3.570   5.686   0.633
 9366SOL    HW128997   3.497   5.755   0.626
 9366SOL    HW228998   3.529   5.596   0.645
 9367SOL     OW28999   5.027   6.988   1.195
 9367SOL    HW129000   5.042   0.055   1.244
 9367SOL    HW229001   5.022   6.913   1.261
 9368SOL     OW29002   4.006   0.291   2.656
 9368SOL    HW129003   4.047   0.324   2.741
 9368SOL    HW229004   4.011   0.191   2.653
 9369SOL     OW29005   1.206   5.644   6.187
 9369SOL    HW129006   1.109   5.646   6.210
 9369SOL    HW229007   1.228   5.724   6.130
 9370SOL     OW29008   4.413   1.412   4.318
 9370SOL    HW129009   4.454   1.384   4.404
 9370SOL    HW229010   4.447   1.502   4.292
 9371SOL     OW29011   3.507   5.862   1.254
 9371SOL    HW129012   3.408   5.851   1.265
 9371SOL    HW229013   3.533   5.840   1.160
 9372SOL     OW29014   4.573   6.611   1.670
 9372SOL    HW129015   4.621   6.577   1.751
 9372SOL    HW229016   4.559   6.535   1.606
 9373SOL     OW29017   5.965   2.154   0.013
 9373SOL    HW129018   5.866   2.144   7.018
 9373SOL    HW229019   6.012   2.074   6.996
 9374SOL     OW29020   0.526   4.735   5.598
 9374SOL    HW129021   0.471   4.805   5.645
 9374SOL    HW229022   0.619   4.769   5.585
 9375SOL     OW29023   6.768   2.072   0.124
 9375SOL    HW129024   6.816   2.042   0.042
 9375SOL    HW229025   6.828   2.129   0.179
 9376SOL     OW29026   2.062   3.444   2.275
 9376SOL    HW129027   2.120   3.481   2.202
 9376SOL    HW229028   1.968   3.475   2.261
 9377SOL     OW29029   1.801   5.260   2.482
 9377SOL    HW129030   1.881   5.320   2.492
 9377SOL    HW229031   1.817   5.175   2.533
 9378SOL     OW29032   3.645   1.188   3.990
 9378SOL    HW129033   3.662   1.094   4.021
 9378SOL    HW229034   3.723   1.220   3.936
 9379SOL     OW29035   3.641   6.644   4.668
 9379SOL    HW129036   3.612   6.739   4.682
 9379SOL    HW229037   3.614   6.589   4.746
 9380SOL     OW29038   4.447   5.472   6.066
 9380SOL    HW129039   4.367   5.517   6.027
 9380SOL    HW229040   4.419   5.389   6.114
 9381SOL     OW29041   5.426   1.373   4.558
 9381SOL    HW129042   5.366   1.293   4.555
 9381SOL    HW229043   5.417   1.419   4.646
 9382SOL     OW29044   3.464   0.706   4.239
 9382SOL    HW129045   3.366   0.718   4.256
 9382SOL    HW229046   3.478   0.685   4.143
 9383SOL     OW29047   4.828   3.900   3.577
 9383SOL    HW129048   4.830   3.860   3.669
 9383SOL    HW229049   4.788   3.992   3.581
 9384SOL     OW29050   1.636   0.112   2.181
 9384SOL    HW129051   1.705   0.167   2.134
 9384SOL    HW229052   1.568   0.079   2.115
 9385SOL     OW29053   4.096   1.632   3.783
 9385SOL    HW129054   4.026   1.689   3.826
 9385SOL    HW229055   4.186   1.673   3.800
 9386SOL     OW29056   4.327   5.826   5.303
 9386SOL    HW129057   4.381   5.907   5.278
 9386SOL    HW229058   4.239   5.830   5.257
 9387SOL     OW29059   3.759   2.437   0.013
 9387SOL    HW129060   3.711   2.492   6.965
 9387SOL    HW229061   3.768   2.343   6.999
 9388SOL     OW29062   2.015   0.086   4.168
 9388SOL    HW129063   2.070   0.063   4.088
 9388SOL    HW229064   1.927   0.124   4.138
 9389SOL     OW29065   3.758   5.171   2.306
 9389SOL    HW129066   3.681   5.147   2.365
 9389SOL    HW229067   3.750   5.122   2.219
 9390SOL     OW29068   5.137   4.590   5.486
 9390SOL    HW129069   5.109   4.521   5.419
 9390SOL    HW229070   5.133   4.681   5.445
 9391SOL     OW29071   1.241   6.406   4.639
 9391SOL    HW129072   1.187   6.465   4.578
 9391SOL    HW229073   1.200   6.315   4.641
 9392SOL     OW29074   5.101   3.841   2.605
 9392SOL    HW129075   5.087   3.880   2.696
 9392SOL    HW229076   5.021   3.858   2.548
 9393SOL     OW29077   2.938   6.135   6.271
 9393SOL    HW129078   2.842   6.143   6.242
 9393SOL    HW229079   2.970   6.041   6.255
 9394SOL     OW29080   5.164   0.462   1.328
 9394SOL    HW129081   5.210   0.497   1.247
 9394SOL    HW229082   5.067   0.485   1.324
 9395SOL     OW29083   3.239   1.512   0.701
 9395SOL    HW129084   3.148   1.499   0.663
 9395SOL    HW229085   3.259   1.438   0.765
 9396SOL     OW29086   1.604   6.264   6.822
 9396SOL    HW129087   1.681   6.208   6.790
 9396SOL    HW229088   1.571   6.228   6.909
 9397SOL     OW29089   3.981   0.507   6.230
 9397SOL    HW129090   3.933   0.546   6.309
 9397SOL    HW229091   3.926   0.435   6.190
 9398SOL     OW29092   6.924   1.536   6.763
 9398SOL    HW129093   6.984   1.607   6.726
 9398SOL    HW229094   6.859   1.577   6.827
 9399SOL     OW29095   1.973   2.705   3.931
 9399SOL    HW129096   1.912   2.772   3.972
 9399SOL    HW229097   2.044   2.679   3.997
 9400SOL     OW29098   5.475   0.735   0.268
 9400SOL    HW129099   5.575   0.744   0.272
 9400SOL    HW229100   5.447   0.658   0.325
 9401SOL     OW29101   1.251   1.709   2.987
 9401SOL    HW129102   1.253   1.779   2.916
 9401SOL    HW229103   1.241   1.753   3.077
 9402SOL     OW29104   1.233   5.463   3.648
 9402SOL    HW129105   1.147   5.488   3.692
 9402SOL    HW229106   1.224   5.471   3.549
 9403SOL     OW29107   6.436   1.853   2.155
 9403SOL    HW129108   6.444   1.884   2.250
 9403SOL    HW229109   6.410   1.756   2.154
 9404SOL     OW29110   1.975   3.308   0.946
 9404SOL    HW129111   1.981   3.248   0.866
 9404SOL    HW229112   2.061   3.358   0.957
 9405SOL     OW29113   0.153   4.437   5.404
 9405SOL    HW129114   0.101   4.522   5.412
 9405SOL    HW229115   0.248   4.457   5.379
 9406SOL     OW29116   0.133   2.880   6.814
 9406SOL    HW129117   0.034   2.869   6.811
 9406SOL    HW229118   0.159   2.937   6.892
 9407SOL     OW29119   1.890   4.902   4.934
 9407SOL    HW129120   1.797   4.869   4.948
 9407SOL    HW229121   1.906   4.982   4.992
 9408SOL     OW29122   6.669   4.363   4.965
 9408SOL    HW129123   6.610   4.331   4.891
 9408SOL    HW229124   6.740   4.295   4.983
 9409SOL     OW29125   6.744   4.781   2.405
 9409SOL    HW129126   6.793   4.817   2.326
 9409SOL    HW229127   6.808   4.763   2.479
 9410SOL     OW29128   4.099   0.471   1.875
 9410SOL    HW129129   4.030   0.542   1.891
 9410SOL    HW229130   4.059   0.381   1.891
 9411SOL     OW29131   3.913   3.038   3.639
 9411SOL    HW129132   3.863   3.120   3.611
 9411SOL    HW229133   3.927   2.979   3.560
 9412SOL     OW29134   7.007   0.337   1.148
 9412SOL    HW129135   0.059   0.375   1.206
 9412SOL    HW229136   6.962   0.261   1.196
 9413SOL     OW29137   4.006   5.101   3.932
 9413SOL    HW129138   4.075   5.036   3.964
 9413SOL    HW229139   4.021   5.189   3.977
 9414SOL     OW29140   1.886   2.093   4.900
 9414SOL    HW129141   1.926   2.183   4.916
 9414SOL    HW229142   1.814   2.075   4.967
 9415SOL     OW29143   3.872   0.586   2.172
 9415SOL    HW129144   3.782   0.549   2.148
 9415SOL    HW229145   3.876   0.600   2.271
 9416SOL     OW29146   6.901   5.387   5.989
 9416SOL    HW129147   6.963   5.314   6.018
 9416SOL    HW229148   6.860   5.430   6.069
 9417SOL     OW29149   3.387   6.168   1.406
 9417SOL    HW129150   3.397   6.257   1.362
 9417SOL    HW229151   3.471   6.114   1.391
 9418SOL     OW29152   3.302   2.160   4.643
 9418SOL    HW129153   3.263   2.163   4.552
 9418SOL    HW229154   3.390   2.113   4.641
 9419SOL     OW29155   2.999   2.947   6.945
 9419SOL    HW129156   3.088   2.908   6.921
 9419SOL    HW229157   2.959   2.895   0.000
 9420SOL     OW29158   5.546   3.231   6.878
 9420SOL    HW129159   5.593   3.144   6.868
 9420SOL    HW229160   5.453   3.216   6.912
 9421SOL     OW29161   3.625   6.667   5.535
 9421SOL    HW129162   3.660   6.578   5.565
 9421SOL    HW229163   3.672   6.739   5.585
 9422SOL     OW29164   2.496   6.021   4.553
 9422SOL    HW129165   2.432   6.037   4.628
 9422SOL    HW229166   2.540   5.932   4.564
 9423SOL     OW29167   4.098   5.791   3.144
 9423SOL    HW129168   4.190   5.812   3.112
 9423SOL    HW229169   4.063   5.710   3.096
 9424SOL     OW29170   5.394   0.469   4.399
 9424SOL    HW129171   5.403   0.370   4.387
 9424SOL    HW229172   5.434   0.516   4.320
 9425SOL     OW29173   6.839   4.866   0.736
 9425SOL    HW129174   6.848   4.802   0.660
 9425SOL    HW229175   6.873   4.956   0.708
 9426SOL     OW29176   0.110   2.540   6.251
 9426SOL    HW129177   0.125   2.465   6.316
 9426SOL    HW229178   0.063   2.504   6.170
 9427SOL     OW29179   3.338   5.881   2.893
 9427SOL    HW129180   3.386   5.969   2.897
 9427SOL    HW229181   3.303   5.858   2.984
 9428SOL     OW29182   6.537   0.319   6.266
 9428SOL    HW129183   6.575   0.410   6.251
 9428SOL    HW229184   6.535   0.270   6.179
 9429SOL     OW29185   1.816   2.425   4.366
 9429SOL    HW129186   1.760   2.349   4.402
 9429SOL    HW229187   1.888   2.447   4.431
 9430SOL     OW29188   0.610   2.139   4.417
 9430SOL    HW129189   0.540   2.208   4.402
 9430SOL    HW229190   0.580   2.076   4.488
 9431SOL     OW29191   0.452   4.831   6.366
 9431SOL    HW129192   0.375   4.806   6.425
 9431SOL    HW229193   0.436   4.796   6.274
 9432SOL     OW29194   7.010   1.526   3.034
 9432SOL    HW129195   0.027   1.572   3.115
 9432SOL    HW229196   6.923   1.483   3.057
 9433SOL     OW29197   3.946   6.276   2.918
 9433SOL    HW129198   3.847   6.289   2.924
 9433SOL    HW229199   3.970   6.247   2.825
 9434SOL     OW29200   5.330   5.237   4.090
 9434SOL    HW129201   5.379   5.290   4.020
 9434SOL    HW229202   5.312   5.296   4.169
 9435SOL     OW29203   0.672   3.124   1.504
 9435SOL    HW129204   0.591   3.067   1.517
 9435SOL    HW229205   0.644   3.218   1.485
 9436SOL     OW29206   0.875   0.359   3.688
 9436SOL    HW129207   0.861   0.457   3.697
 9436SOL    HW229208   0.816   0.311   3.753
 9437SOL     OW29209   6.788   5.272   4.738
 9437SOL    HW129210   6.831   5.243   4.653
 9437SOL    HW229211   6.744   5.361   4.724
 9438SOL     OW29212   2.762   6.209   1.671
 9438SOL    HW129213   2.789   6.211   1.767
 9438SOL    HW229214   2.754   6.115   1.640
 9439SOL     OW29215   1.413   2.695   0.261
 9439SOL    HW129216   1.376   2.786   0.240
 9439SOL    HW229217   1.478   2.668   0.190
 9440SOL     OW29218   2.876   5.082   2.873
 9440SOL    HW129219   2.868   5.034   2.960
 9440SOL    HW229220   2.971   5.109   2.859
 9441SOL     OW29221   6.551   6.447   4.457
 9441SOL    HW129222   6.540   6.411   4.549
 9441SOL    HW229223   6.484   6.404   4.396
 9442SOL     OW29224   4.714   4.062   0.283
 9442SOL    HW129225   4.618   4.063   0.312
 9442SOL    HW229226   4.773   4.046   0.362
 9443SOL     OW29227   2.146   4.445   3.027
 9443SOL    HW129228   2.178   4.387   2.952
 9443SOL    HW229229   2.105   4.389   3.098
 9444SOL     OW29230   1.056   4.076   0.084
 9444SOL    HW129231   1.054   4.064   0.183
 9444SOL    HW229232   1.105   4.000   0.042
 9445SOL     OW29233   0.259   1.924   3.928
 9445SOL    HW129234   0.355   1.909   3.951
 9445SOL    HW229235   0.217   1.986   3.994
 9446SOL     OW29236   6.557   5.146   3.086
 9446SOL    HW129237   6.525   5.211   3.156
 9446SOL    HW229238   6.627   5.086   3.126
 9447SOL     OW29239   5.641   5.053   2.080
 9447SOL    HW129240   5.551   5.089   2.057
 9447SOL    HW229241   5.689   5.118   2.139
 9448SOL     OW29242   5.477   0.069   5.939
 9448SOL    HW129243   5.499   0.150   5.994
 9448SOL    HW229244   5.383   0.041   5.958
 9449SOL     OW29245   6.242   0.073   1.908
 9449SOL    HW129246   6.311   0.100   1.840
 9449SOL    HW229247   6.152   0.074   1.865
 9450SOL     OW29248   1.582   6.166   4.552
 9450SOL    HW129249   1.639   6.212   4.620
 9450SOL    HW229250   1.635   6.091   4.511
 9451SOL     OW29251   3.839   6.214   6.699
 9451SOL    HW129252   3.901   6.284   6.664
 9451SOL    HW229253   3.882   6.124   6.690
 9452SOL     OW29254   6.910   4.426   0.982
 9452SOL    HW129255   6.963   4.460   0.904
 9452SOL    HW229256   6.874   4.335   0.961
 9453SOL     OW29257   3.779   5.776   3.528
 9453SOL    HW129258   3.823   5.695   3.567
 9453SOL    HW229259   3.697   5.749   3.477
 9454SOL     OW29260   5.089   4.324   0.357
 9454SOL    HW129261   5.041   4.286   0.436
 9454SOL    HW229262   5.103   4.253   0.289
 9455SOL     OW29263   2.877   2.194   2.334
 9455SOL    HW129264   2.801   2.132   2.315
 9455SOL    HW229265   2.888   2.257   2.257
 9456SOL     OW29266   6.452   2.818   2.356
 9456SOL    HW129267   6.411   2.896   2.309
 9456SOL    HW229268   6.402   2.735   2.332
 9457SOL     OW29269   0.156   5.058   3.812
 9457SOL    HW129270   0.226   5.106   3.759
 9457SOL    HW229271   0.142   5.105   3.899
 9458SOL     OW29272   6.186   3.605   6.661
 9458SOL    HW129273   6.212   3.648   6.748
 9458SOL    HW229274   6.141   3.673   6.603
 9459SOL     OW29275   5.003   4.879   4.698
 9459SOL    HW129276   5.002   4.909   4.793
 9459SOL    HW229277   5.047   4.789   4.692
 9460SOL     OW29278   1.056   2.123   2.658
 9460SOL    HW129279   1.153   2.138   2.679
 9460SOL    HW229280   1.010   2.084   2.738
 9461SOL     OW29281   1.155   2.415   2.588
 9461SOL    HW129282   1.082   2.436   2.653
 9461SOL    HW229283   1.155   2.482   2.514
 9462SOL     OW29284   1.633   1.786   4.613
 9462SOL    HW129285   1.611   1.760   4.707
 9462SOL    HW229286   1.698   1.721   4.574
 9463SOL     OW29287   5.560   5.722   0.762
 9463SOL    HW129288   5.556   5.623   0.776
 9463SOL    HW229289   5.558   5.769   0.850
 9464SOL     OW29290   0.756   1.001   1.377
 9464SOL    HW129291   0.678   0.957   1.420
 9464SOL    HW229292   0.809   0.934   1.325
 9465SOL     OW29293   6.877   3.964   1.317
 9465SOL    HW129294   6.961   4.016   1.333
 9465SOL    HW229295   6.798   4.026   1.319
 9466SOL     OW29296   3.819   5.304   6.890
 9466SOL    HW129297   3.910   5.264   6.895
 9466SOL    HW229298   3.750   5.232   6.896
 9467SOL     OW29299   2.416   3.111   1.334
 9467SOL    HW129300   2.438   3.208   1.335
 9467SOL    HW229301   2.500   3.058   1.348
 9468SOL     OW29302   6.558   2.646   0.558
 9468SOL    HW129303   6.506   2.636   0.642
 9468SOL    HW229304   6.565   2.743   0.534
 9469SOL     OW29305   0.549   6.584   1.344
 9469SOL    HW129306   0.574   6.576   1.440
 9469SOL    HW229307   0.467   6.530   1.326
 9470SOL     OW29308   3.979   4.271   0.881
 9470SOL    HW129309   4.052   4.238   0.821
 9470SOL    HW229310   3.979   4.219   0.966
 9471SOL     OW29311   6.220   2.572   5.087
 9471SOL    HW129312   6.216   2.478   5.120
 9471SOL    HW229313   6.186   2.575   4.992
 9472SOL     OW29314   1.905   3.488   6.208
 9472SOL    HW129315   1.910   3.511   6.305
 9472SOL    HW229316   1.993   3.453   6.177
 9473SOL     OW29317   3.065   4.523   0.405
 9473SOL    HW129318   2.995   4.568   0.459
 9473SOL    HW229319   3.092   4.583   0.329
 9474SOL     OW29320   5.497   3.190   1.660
 9474SOL    HW129321   5.460   3.097   1.654
 9474SOL    HW229322   5.591   3.185   1.694
 9475SOL     OW29323   4.575   3.581   5.965
 9475SOL    HW129324   4.507   3.527   6.015
 9475SOL    HW229325   4.624   3.521   5.902
 9476SOL     OW29326   3.373   3.965   5.900
 9476SOL    HW129327   3.434   3.916   5.963
 9476SOL    HW229328   3.302   4.012   5.953
 9477SOL     OW29329   1.825   4.048   1.454
 9477SOL    HW129330   1.904   4.094   1.413
 9477SOL    HW229331   1.840   3.949   1.454
 9478SOL     OW29332   5.400   2.551   0.278
 9478SOL    HW129333   5.412   2.460   0.316
 9478SOL    HW229334   5.309   2.558   0.236
 9479SOL     OW29335   3.952   0.630   1.435
 9479SOL    HW129336   3.932   0.539   1.470
 9479SOL    HW229337   3.869   0.670   1.396
 9480SOL     OW29338   6.134   6.998   6.628
 9480SOL    HW129339   6.158   0.044   6.556
 9480SOL    HW229340   6.100   6.914   6.586
 9481SOL     OW29341   4.215   1.931   2.716
 9481SOL    HW129342   4.196   1.836   2.742
 9481SOL    HW229343   4.129   1.977   2.692
 9482SOL     OW29344   5.997   0.311   0.867
 9482SOL    HW129345   5.972   0.405   0.840
 9482SOL    HW229346   5.937   0.282   0.942
 9483SOL     OW29347   0.218   1.115   0.915
 9483SOL    HW129348   0.309   1.124   0.957
 9483SOL    HW229349   0.195   1.018   0.907
 9484SOL     OW29350   3.204   5.925   4.816
 9484SOL    HW129351   3.230   5.947   4.722
 9484SOL    HW229352   3.116   5.967   4.837
 9485SOL     OW29353   6.681   1.315   7.000
 9485SOL    HW129354   6.630   1.384   6.948
 9485SOL    HW229355   6.765   1.292   6.951
 9486SOL     OW29356   4.789   5.734   0.201
 9486SOL    HW129357   4.853   5.704   0.271
 9486SOL    HW229358   4.823   5.706   0.111
 9487SOL     OW29359   3.475   3.182   3.769
 9487SOL    HW129360   3.471   3.085   3.745
 9487SOL    HW229361   3.504   3.192   3.865
 9488SOL     OW29362   1.450   1.629   0.772
 9488SOL    HW129363   1.350   1.631   0.770
 9488SOL    HW229364   1.486   1.722   0.774
 9489SOL     OW29365   4.728   4.381   0.293
 9489SOL    HW129366   4.780   4.365   0.378
 9489SOL    HW229367   4.773   4.452   0.240
 9490SOL     OW29368   5.785   3.756   3.630
 9490SOL    HW129369   5.811   3.755   3.727
 9490SOL    HW229370   5.693   3.720   3.619
 9491SOL     OW29371   4.892   6.387   2.956
 9491SOL    HW129372   4.929   6.474   2.987
 9491SOL    HW229373   4.815   6.360   3.015
 9492SOL     OW29374   4.833   2.557   4.629
 9492SOL    HW129375   4.860   2.474   4.677
 9492SOL    HW229376   4.739   2.548   4.596
 9493SOL     OW29377   4.376   6.555   3.185
 9493SOL    HW129378   4.362   6.492   3.262
 9493SOL    HW229379   4.288   6.576   3.143
 9494SOL     OW29380   5.433   2.304   1.880
 9494SOL    HW129381   5.413   2.232   1.947
 9494SOL    HW229382   5.375   2.292   1.800
 9495SOL     OW29383   1.059   0.570   2.812
 9495SOL    HW129384   1.057   0.635   2.736
 9495SOL    HW229385   1.024   0.613   2.894
 9496SOL     OW29386   4.114   2.211   2.520
 9496SOL    HW129387   4.196   2.200   2.575
 9496SOL    HW229388   4.120   2.153   2.439
 9497SOL     OW29389   5.787   4.935   4.472
 9497SOL    HW129390   5.834   4.889   4.547
 9497SOL    HW229391   5.786   4.874   4.392
 9498SOL     OW29392   6.318   5.026   4.049
 9498SOL    HW129393   6.404   5.005   4.002
 9498SOL    HW229394   6.335   5.092   4.122
 9499SOL     OW29395   5.784   6.013   5.576
 9499SOL    HW129396   5.705   5.979   5.525
 9499SOL    HW229397   5.831   5.936   5.620
 9500SOL     OW29398   4.263   1.002   0.885
 9500SOL    HW129399   4.208   1.077   0.848
 9500SOL    HW229400   4.274   0.931   0.815
 9501SOL     OW29401   1.570   2.855   4.785
 9501SOL    HW129402   1.540   2.814   4.871
 9501SOL    HW229403   1.516   2.817   4.710
 9502SOL     OW29404   5.748   4.693   5.131
 9502SOL    HW129405   5.831   4.645   5.101
 9502SOL    HW229406   5.757   4.790   5.112
 9503SOL     OW29407   0.441   2.654   6.550
 9503SOL    HW129408   0.448   2.557   6.573
 9503SOL    HW229409   0.531   2.698   6.562
 9504SOL     OW29410   6.180   5.184   1.859
 9504SOL    HW129411   6.115   5.260   1.851
 9504SOL    HW229412   6.265   5.207   1.813
 9505SOL     OW29413   4.352   4.789   5.220
 9505SOL    HW129414   4.318   4.863   5.162
 9505SOL    HW229415   4.277   4.727   5.243
 9506SOL     OW29416   3.298   1.799   1.383
 9506SOL    HW129417   3.340   1.885   1.411
 9506SOL    HW229418   3.301   1.792   1.283
 9507SOL     OW29419   5.784   0.053   2.057
 9507SOL    HW129420   5.801   0.007   1.970
 9507SOL    HW229421   5.860   0.037   2.119
 9508SOL     OW29422   4.929   1.318   2.755
 9508SOL    HW129423   4.888   1.273   2.675
 9508SOL    HW229424   5.025   1.292   2.761
 9509SOL     OW29425   6.753   0.121   2.639
 9509SOL    HW129426   6.738   0.033   2.596
 9509SOL    HW229427   6.720   0.119   2.734
 9510SOL     OW29428   0.691   2.800   3.457
 9510SOL    HW129429   0.603   2.755   3.469
 9510SOL    HW229430   0.759   2.734   3.424
 9511SOL     OW29431   1.158   1.184   0.563
 9511SOL    HW129432   1.225   1.110   0.570
 9511SOL    HW229433   1.067   1.145   0.550
 9512SOL     OW29434   6.529   2.276   1.257
 9512SOL    HW129435   6.583   2.225   1.324
 9512SOL    HW229436   6.460   2.216   1.217
 9513SOL     OW29437   3.956   5.127   0.270
 9513SOL    HW129438   3.888   5.089   0.333
 9513SOL    HW229439   4.029   5.172   0.322
 9514SOL     OW29440   3.433   3.295   6.637
 9514SOL    HW129441   3.409   3.391   6.619
 9514SOL    HW229442   3.350   3.241   6.647
 9515SOL     OW29443   2.506   5.239   3.952
 9515SOL    HW129444   2.408   5.220   3.944
 9515SOL    HW229445   2.555   5.191   3.880
 9516SOL     OW29446   6.593   3.894   6.994
 9516SOL    HW129447   6.622   3.820   6.933
 9516SOL    HW229448   6.538   3.855   0.049
 9517SOL     OW29449   0.989   4.626   1.041
 9517SOL    HW129450   0.993   4.590   1.135
 9517SOL    HW229451   0.963   4.722   1.044
 9518SOL     OW29452   2.080   1.194   0.349
 9518SOL    HW129453   1.999   1.197   0.407
 9518SOL    HW229454   2.136   1.114   0.375
 9519SOL     OW29455   1.016   3.133   5.498
 9519SOL    HW129456   0.957   3.142   5.417
 9519SOL    HW229457   1.040   3.037   5.511
 9520SOL     OW29458   2.061   6.774   2.810
 9520SOL    HW129459   2.079   6.690   2.760
 9520SOL    HW229460   1.969   6.807   2.789
 9521SOL     OW29461   5.445   5.505   4.233
 9521SOL    HW129462   5.383   5.541   4.303
 9521SOL    HW229463   5.523   5.566   4.223
 9522SOL     OW29464   3.737   5.970   0.879
 9522SOL    HW129465   3.820   5.986   0.932
 9522SOL    HW229466   3.736   6.031   0.800
 9523SOL     OW29467   3.464   5.242   4.885
 9523SOL    HW129468   3.473   5.145   4.906
 9523SOL    HW229469   3.367   5.268   4.887
 9524SOL     OW29470   4.122   3.432   0.992
 9524SOL    HW129471   4.210   3.454   0.950
 9524SOL    HW229472   4.105   3.333   0.983
 9525SOL     OW29473   2.727   0.825   6.260
 9525SOL    HW129474   2.645   0.881   6.252
 9525SOL    HW229475   2.701   0.729   6.275
 9526SOL     OW29476   4.835   5.502   2.857
 9526SOL    HW129477   4.787   5.588   2.840
 9526SOL    HW229478   4.771   5.435   2.895
 9527SOL     OW29479   0.462   1.249   2.079
 9527SOL    HW129480   0.364   1.229   2.082
 9527SOL    HW229481   0.476   1.345   2.101
 9528SOL     OW29482   6.843   0.544   2.232
 9528SOL    HW129483   6.810   0.636   2.253
 9528SOL    HW229484   6.921   0.550   2.171
 9529SOL     OW29485   0.695   2.897   5.899
 9529SOL    HW129486   0.792   2.913   5.916
 9529SOL    HW229487   0.640   2.957   5.957
 9530SOL     OW29488   1.185   2.547   3.468
 9530SOL    HW129489   1.272   2.586   3.436
 9530SOL    HW229490   1.159   2.471   3.409
 9531SOL     OW29491   3.517   0.296   3.222
 9531SOL    HW129492   3.503   0.372   3.286
 9531SOL    HW229493   3.520   0.331   3.129
 9532SOL     OW29494   2.053   0.076   1.965
 9532SOL    HW129495   1.998   0.119   2.036
 9532SOL    HW229496   2.123   0.140   1.933
 9533SOL     OW29497   1.752   1.160   5.994
 9533SOL    HW129498   1.713   1.177   6.085
 9533SOL    HW229499   1.851   1.171   5.997
 9534SOL     OW29500   5.488   2.369   5.021
 9534SOL    HW129501   5.556   2.392   4.951
 9534SOL    HW229502   5.466   2.450   5.074
 9535SOL     OW29503   2.814   0.850   5.424
 9535SOL    HW129504   2.904   0.892   5.428
 9535SOL    HW229505   2.781   0.831   5.517
 9536SOL     OW29506   1.489   5.953   5.711
 9536SOL    HW129507   1.484   5.987   5.805
 9536SOL    HW229508   1.502   6.030   5.649
 9537SOL     OW29509   3.040   0.328   1.816
 9537SOL    HW129510   2.975   0.364   1.749
 9537SOL    HW229511   3.086   0.405   1.861
 9538SOL     OW29512   6.665   2.409   4.385
 9538SOL    HW129513   6.603   2.480   4.419
 9538SOL    HW229514   6.611   2.337   4.341
 9539SOL     OW29515   0.576   6.144   0.380
 9539SOL    HW129516   0.656   6.129   0.439
 9539SOL    HW229517   0.531   6.057   0.362
 9540SOL     OW29518   4.681   4.755   4.220
 9540SOL    HW129519   4.616   4.692   4.262
 9540SOL    HW229520   4.767   4.708   4.203
 9541SOL     OW29521   2.129   2.646   4.143
 9541SOL    HW129522   2.099   2.636   4.238
 9541SOL    HW229523   2.211   2.704   4.141
 9542SOL     OW29524   5.023   3.474   4.455
 9542SOL    HW129525   5.075   3.413   4.395
 9542SOL    HW229526   4.955   3.524   4.402
 9543SOL     OW29527   5.712   1.460   3.089
 9543SOL    HW129528   5.665   1.487   3.005
 9543SOL    HW229529   5.744   1.366   3.081
 9544SOL     OW29530   4.559   1.402   2.626
 9544SOL    HW129531   4.589   1.441   2.713
 9544SOL    HW229532   4.625   1.426   2.555
 9545SOL     OW29533   6.881   0.902   3.490
 9545SOL    HW129534   6.949   0.914   3.418
 9545SOL    HW229535   6.879   0.805   3.517
 9546SOL     OW29536   2.593   5.485   0.499
 9546SOL    HW129537   2.614   5.399   0.451
 9546SOL    HW229538   2.677   5.538   0.511
 9547SOL     OW29539   0.764   6.622   3.713
 9547SOL    HW129540   0.738   6.557   3.784
 9547SOL    HW229541   0.770   6.714   3.752
 9548SOL     OW29542   4.903   5.553   4.076
 9548SOL    HW129543   4.818   5.593   4.110
 9548SOL    HW229544   4.882   5.483   4.008
 9549SOL     OW29545   2.507   6.164   0.733
 9549SOL    HW129546   2.408   6.161   0.742
 9549SOL    HW229547   2.549   6.160   0.823
 9550SOL     OW29548   1.119   1.425   0.021
 9550SOL    HW129549   1.171   1.350   7.000
 9550SOL    HW229550   1.172   1.509   0.017
 9551SOL     OW29551   1.083   6.479   4.861
 9551SOL    HW129552   1.131   6.431   4.788
 9551SOL    HW229553   1.097   6.431   4.948
 9552SOL     OW29554   1.746   5.929   3.163
 9552SOL    HW129555   1.796   5.948   3.247
 9552SOL    HW229556   1.809   5.925   3.086
 9553SOL     OW29557   5.815   4.069   5.725
 9553SOL    HW129558   5.753   4.000   5.688
 9553SOL    HW229559   5.812   4.151   5.668
 9554SOL     OW29560   2.229   1.395   1.971
 9554SOL    HW129561   2.321   1.355   1.967
 9554SOL    HW229562   2.196   1.396   2.065
 9555SOL     OW29563   0.082   2.433   0.621
 9555SOL    HW129564   0.018   2.413   0.547
 9555SOL    HW229565   0.175   2.412   0.592
 9556SOL     OW29566   2.102   1.943   1.412
 9556SOL    HW129567   2.129   1.864   1.466
 9556SOL    HW229568   2.159   1.948   1.330
 9557SOL     OW29569   5.303   0.623   2.367
 9557SOL    HW129570   5.288   0.718   2.394
 9557SOL    HW229571   5.398   0.610   2.340
 9558SOL     OW29572   6.409   4.943   2.339
 9558SOL    HW129573   6.327   5.000   2.330
 9558SOL    HW229574   6.382   4.849   2.361
 9559SOL     OW29575   6.739   3.133   1.816
 9559SOL    HW129576   6.815   3.173   1.868
 9559SOL    HW229577   6.732   3.036   1.836
 9560SOL     OW29578   3.252   1.836   3.675
 9560SOL    HW129579   3.182   1.887   3.725
 9560SOL    HW229580   3.277   1.754   3.727
 9561SOL     OW29581   4.527   6.455   0.632
 9561SOL    HW129582   4.487   6.535   0.675
 9561SOL    HW229583   4.517   6.375   0.691
 9562SOL     OW29584   5.115   5.133   2.551
 9562SOL    HW129585   5.186   5.062   2.541
 9562SOL    HW229586   5.146   5.202   2.616
 9563SOL     OW29587   6.472   5.939   6.971
 9563SOL    HW129588   6.404   5.912   6.904
 9563SOL    HW229589   6.512   6.027   6.944
 9564SOL     OW29590   2.943   6.656   0.032
 9564SOL    HW129591   2.897   6.740   0.060
 9564SOL    HW229592   3.013   6.632   0.099
 9565SOL     OW29593   3.676   5.844   4.927
 9565SOL    HW129594   3.595   5.848   4.868
 9565SOL    HW229595   3.738   5.773   4.894
 9566SOL     OW29596   2.807   4.403   5.409
 9566SOL    HW129597   2.800   4.305   5.394
 9566SOL    HW229598   2.868   4.442   5.339
 9567SOL     OW29599   5.978   5.447   5.823
 9567SOL    HW129600   6.009   5.482   5.734
 9567SOL    HW229601   6.051   5.460   5.891
 9568SOL     OW29602   4.814   3.596   6.218
 9568SOL    HW129603   4.737   3.657   6.231
 9568SOL    HW229604   4.815   3.527   6.290
 9569SOL     OW29605   6.611   0.818   0.308
 9569SOL    HW129606   6.696   0.789   0.265
 9569SOL    HW229607   6.537   0.756   0.280
 9570SOL     OW29608   0.656   0.954   0.256
 9570SOL    HW129609   0.691   1.047   0.249
 9570SOL    HW229610   0.563   0.951   0.220
 9571SOL     OW29611   2.024   3.686   0.443
 9571SOL    HW129612   2.105   3.639   0.478
 9571SOL    HW229613   2.050   3.746   0.368
 9572SOL     OW29614   1.317   4.554   1.220
 9572SOL    HW129615   1.225   4.582   1.190
 9572SOL    HW229616   1.386   4.596   1.161
 9573SOL     OW29617   1.605   1.863   0.770
 9573SOL    HW129618   1.649   1.788   0.720
 9573SOL    HW229619   1.642   1.867   0.863
 9574SOL     OW29620   2.697   2.037   5.724
 9574SOL    HW129621   2.792   2.066   5.730
 9574SOL    HW229622   2.679   1.966   5.792
 9575SOL     OW29623   5.757   0.886   2.388
 9575SOL    HW129624   5.687   0.852   2.450
 9575SOL    HW229625   5.845   0.846   2.412
 9576SOL     OW29626   3.299   1.633   5.336
 9576SOL    HW129627   3.302   1.707   5.269
 9576SOL    HW229628   3.260   1.551   5.295
 9577SOL     OW29629   1.153   6.544   3.210
 9577SOL    HW129630   1.058   6.572   3.218
 9577SOL    HW229631   1.173   6.475   3.281
 9578SOL     OW29632   6.163   3.227   2.128
 9578SOL    HW129633   6.206   3.312   2.097
 9578SOL    HW229634   6.186   3.211   2.224
 9579SOL     OW29635   1.063   6.489   2.436
 9579SOL    HW129636   1.106   6.579   2.435
 9579SOL    HW229637   1.059   6.453   2.343
 9580SOL     OW29638   4.290   3.477   5.816
 9580SOL    HW129639   4.191   3.466   5.826
 9580SOL    HW229640   4.310   3.532   5.735
 9581SOL     OW29641   1.090   4.504   5.591
 9581SOL    HW129642   1.151   4.445   5.645
 9581SOL    HW229643   0.996   4.468   5.596
 9582SOL     OW29644   4.142   4.864   4.687
 9582SOL    HW129645   4.106   4.775   4.661
 9582SOL    HW229646   4.223   4.853   4.743
 9583SOL     OW29647   1.715   4.255   1.686
 9583SOL    HW129648   1.655   4.333   1.668
 9583SOL    HW229649   1.809   4.277   1.658
 9584SOL     OW29650   5.809   6.071   6.178
 9584SOL    HW129651   5.730   6.084   6.238
 9584SOL    HW229652   5.879   6.138   6.201
 9585SOL     OW29653   5.854   0.529   4.567
 9585SOL    HW129654   5.787   0.463   4.533
 9585SOL    HW229655   5.940   0.517   4.518
 9586SOL     OW29656   5.741   3.425   3.100
 9586SOL    HW129657   5.821   3.365   3.095
 9586SOL    HW229658   5.706   3.426   3.193
 9587SOL     OW29659   4.832   6.764   2.401
 9587SOL    HW129660   4.820   6.802   2.310
 9587SOL    HW229661   4.924   6.784   2.434
 9588SOL     OW29662   0.395   0.629   1.719
 9588SOL    HW129663   0.408   0.609   1.621
 9588SOL    HW229664   0.476   0.676   1.754
 9589SOL     OW29665   2.756   1.578   6.432
 9589SOL    HW129666   2.676   1.518   6.418
 9589SOL    HW229667   2.748   1.624   6.520
 9590SOL     OW29668   6.588   3.985   4.474
 9590SOL    HW129669   6.598   3.916   4.403
 9590SOL    HW229670   6.645   4.064   4.453
 9591SOL     OW29671   1.366   4.967   1.789
 9591SOL    HW129672   1.421   5.040   1.831
 9591SOL    HW229673   1.379   4.882   1.840
 9592SOL     OW29674   4.672   5.002   1.869
 9592SOL    HW129675   4.654   5.064   1.793
 9592SOL    HW229676   4.603   4.930   1.871
 9593SOL     OW29677   0.792   2.861   4.294
 9593SOL    HW129678   0.838   2.772   4.300
 9593SOL    HW229679   0.859   2.932   4.273
 9594SOL     OW29680   6.415   6.890   2.373
 9594SOL    HW129681   6.378   6.940   2.451
 9594SOL    HW229682   6.395   6.940   2.289
 9595SOL     OW29683   1.096   5.230   3.814
 9595SOL    HW129684   1.188   5.226   3.854
 9595SOL    HW229685   1.070   5.139   3.781
 9596SOL     OW29686   5.424   6.103   4.791
 9596SOL    HW129687   5.509   6.155   4.795
 9596SOL    HW229688   5.433   6.020   4.845
 9597SOL     OW29689   1.916   3.748   0.928
 9597SOL    HW129690   1.899   3.784   1.020
 9597SOL    HW229691   1.837   3.694   0.898
 9598SOL     OW29692   0.158   5.380   5.657
 9598SOL    HW129693   0.233   5.392   5.722
 9598SOL    HW229694   0.083   5.443   5.681
 9599SOL     OW29695   4.626   1.774   4.909
 9599SOL    HW129696   4.706   1.769   4.969
 9599SOL    HW229697   4.621   1.864   4.866
 9600SOL     OW29698   0.968   6.808   0.052
 9600SOL    HW129699   1.062   6.839   0.035
 9600SOL    HW229700   0.904   6.860   7.015
 9601SOL     OW29701   0.501   5.279   5.655
 9601SOL    HW129702   0.402   5.291   5.660
 9601SOL    HW229703   0.524   5.221   5.576
 9602SOL     OW29704   0.914   5.672   0.519
 9602SOL    HW129705   0.887   5.576   0.509
 9602SOL    HW229706   0.862   5.714   0.593
 9603SOL     OW29707   1.679   5.698   3.876
 9603SOL    HW129708   1.773   5.718   3.904
 9603SOL    HW229709   1.650   5.765   3.808
 9604SOL     OW29710   6.280   1.153   6.709
 9604SOL    HW129711   6.229   1.195   6.634
 9604SOL    HW229712   6.377   1.176   6.700
 9605SOL     OW29713   1.848   6.141   6.621
 9605SOL    HW129714   1.841   6.047   6.588
 9605SOL    HW229715   1.927   6.185   6.580
 9606SOL     OW29716   6.160   6.448   4.048
 9606SOL    HW129717   6.188   6.469   4.141
 9606SOL    HW229718   6.215   6.500   3.983
 9607SOL     OW29719   0.875   2.147   1.707
 9607SOL    HW129720   0.887   2.107   1.797
 9607SOL    HW229721   0.846   2.077   1.642
 9608SOL     OW29722   0.132   6.706   2.225
 9608SOL    HW129723   0.202   6.643   2.189
 9608SOL    HW229724   0.148   6.798   2.189
 9609SOL     OW29725   1.495   3.516   4.430
 9609SOL    HW129726   1.432   3.594   4.433
 9609SOL    HW229727   1.542   3.508   4.518
 9610SOL     OW29728   3.069   1.703   6.525
 9610SOL    HW129729   3.034   1.780   6.470
 9610SOL    HW229730   3.153   1.731   6.571
 9611SOL     OW29731   6.622   7.005   1.385
 9611SOL    HW129732   6.592   0.068   1.434
 9611SOL    HW229733   6.697   6.962   1.435
 9612SOL     OW29734   5.559   2.610   1.533
 9612SOL    HW129735   5.559   2.597   1.632
 9612SOL    HW229736   5.470   2.644   1.504
 9613SOL     OW29737   5.884   6.195   5.381
 9613SOL    HW129738   5.867   6.256   5.458
 9613SOL    HW229739   5.867   6.101   5.408
 9614SOL     OW29740   3.867   3.192   2.337
 9614SOL    HW129741   3.889   3.135   2.417
 9614SOL    HW229742   3.869   3.135   2.254
 9615SOL     OW29743   0.875   6.494   3.447
 9615SOL    HW129744   0.807   6.546   3.499
 9615SOL    HW229745   0.852   6.397   3.448
 9616SOL     OW29746   3.162   3.349   0.669
 9616SOL    HW129747   3.086   3.380   0.612
 9616SOL    HW229748   3.131   3.340   0.764
 9617SOL     OW29749   0.915   4.622   3.542
 9617SOL    HW129750   0.986   4.635   3.472
 9617SOL    HW229751   0.829   4.662   3.510
 9618SOL     OW29752   4.423   5.993   6.719
 9618SOL    HW129753   4.518   5.965   6.713
 9618SOL    HW229754   4.416   6.091   6.700
 9619SOL     OW29755   2.721   6.652   0.373
 9619SOL    HW129756   2.754   6.687   0.461
 9619SOL    HW229757   2.669   6.724   0.326
 9620SOL     OW29758   3.450   1.461   6.287
 9620SOL    HW129759   3.373   1.497   6.235
 9620SOL    HW229760   3.469   1.367   6.258
 9621SOL     OW29761   1.308   1.309   1.021
 9621SOL    HW129762   1.304   1.316   1.120
 9621SOL    HW229763   1.334   1.398   0.982
 9622SOL     OW29764   6.448   0.381   5.526
 9622SOL    HW129765   6.520   0.447   5.504
 9622SOL    HW229766   6.370   0.428   5.567
 9623SOL     OW29767   4.125   6.071   6.520
 9623SOL    HW129768   4.140   6.109   6.611
 9623SOL    HW229769   4.213   6.058   6.474
 9624SOL     OW29770   3.914   5.278   4.720
 9624SOL    HW129771   3.977   5.347   4.684
 9624SOL    HW229772   3.821   5.314   4.718
 9625SOL     OW29773   4.689   3.804   5.876
 9625SOL    HW129774   4.629   3.844   5.808
 9625SOL    HW229775   4.648   3.720   5.913
 9626SOL     OW29776   2.224   3.332   6.325
 9626SOL    HW129777   2.194   3.421   6.361
 9626SOL    HW229778   2.248   3.341   6.229
 9627SOL     OW29779   0.793   5.180   0.141
 9627SOL    HW129780   0.761   5.247   0.209
 9627SOL    HW229781   0.773   5.214   0.049
 9628SOL     OW29782   6.281   1.958   6.824
 9628SOL    HW129783   6.311   2.053   6.839
 9628SOL    HW229784   6.295   1.905   6.908
 9629SOL     OW29785   6.292   5.712   3.412
 9629SOL    HW129786   6.291   5.628   3.466
 9629SOL    HW229787   6.264   5.789   3.470
 9630SOL     OW29788   5.723   6.534   6.199
 9630SOL    HW129789   5.705   6.485   6.113
 9630SOL    HW229790   5.673   6.621   6.198
 9631SOL     OW29791   4.349   1.020   6.931
 9631SOL    HW129792   4.417   1.020   7.004
 9631SOL    HW229793   4.318   0.926   6.913
 9632SOL     OW29794   3.624   6.314   2.056
 9632SOL    HW129795   3.674   6.240   2.101
 9632SOL    HW229796   3.567   6.277   1.982
 9633SOL     OW29797   3.446   3.160   2.178
 9633SOL    HW129798   3.468   3.122   2.088
 9633SOL    HW229799   3.426   3.085   2.241
 9634SOL     OW29800   5.451   4.194   2.532
 9634SOL    HW129801   5.516   4.198   2.608
 9634SOL    HW229802   5.414   4.286   2.515
 9635SOL     OW29803   0.392   4.762   4.119
 9635SOL    HW129804   0.337   4.678   4.116
 9635SOL    HW229805   0.448   4.762   4.202
 9636SOL     OW29806   5.102   2.885   4.662
 9636SOL    HW129807   5.113   2.940   4.744
 9636SOL    HW229808   5.191   2.876   4.616
 9637SOL     OW29809   2.376   2.829   0.403
 9637SOL    HW129810   2.414   2.800   0.316
 9637SOL    HW229811   2.311   2.760   0.436
 9638SOL     OW29812   6.375   5.006   5.605
 9638SOL    HW129813   6.467   5.046   5.603
 9638SOL    HW229814   6.383   4.906   5.601
 9639SOL     OW29815   3.746   1.417   2.942
 9639SOL    HW129816   3.769   1.389   3.035
 9639SOL    HW229817   3.818   1.386   2.879
 9640SOL     OW29818   4.621   0.302   3.160
 9640SOL    HW129819   4.618   0.241   3.239
 9640SOL    HW229820   4.671   0.257   3.085
 9641SOL     OW29821   6.097   3.670   3.181
 9641SOL    HW129822   6.008   3.659   3.224
 9641SOL    HW229823   6.112   3.596   3.115
 9642SOL     OW29824   1.276   0.460   3.900
 9642SOL    HW129825   1.342   0.453   3.975
 9642SOL    HW229826   1.307   0.405   3.822
 9643SOL     OW29827   4.752   4.821   3.863
 9643SOL    HW129828   4.842   4.853   3.835
 9643SOL    HW229829   4.710   4.769   3.788
 9644SOL     OW29830   1.158   5.930   4.875
 9644SOL    HW129831   1.238   5.938   4.815
 9644SOL    HW229832   1.080   5.975   4.832
 9645SOL     OW29833   0.368   5.277   6.886
 9645SOL    HW129834   0.386   5.323   6.973
 9645SOL    HW229835   0.342   5.346   6.817
 9646SOL     OW29836   3.697   5.842   5.952
 9646SOL    HW129837   3.639   5.883   6.023
 9646SOL    HW229838   3.685   5.892   5.866
 9647SOL     OW29839   6.177   6.799   3.229
 9647SOL    HW129840   6.199   6.702   3.226
 9647SOL    HW229841   6.199   6.835   3.320
 9648SOL     OW29842   4.156   2.074   1.593
 9648SOL    HW129843   4.101   2.157   1.593
 9648SOL    HW229844   4.253   2.098   1.592
 9649SOL     OW29845   1.542   4.923   6.910
 9649SOL    HW129846   1.469   4.875   6.958
 9649SOL    HW229847   1.574   4.999   6.966
 9650SOL     OW29848   6.975   5.293   4.939
 9650SOL    HW129849   6.916   5.274   4.860
 9650SOL    HW229850   0.023   5.219   4.947
 9651SOL     OW29851   4.094   1.534   0.232
 9651SOL    HW129852   4.018   1.594   0.255
 9651SOL    HW229853   4.144   1.572   0.155
 9652SOL     OW29854   6.794   3.514   0.046
 9652SOL    HW129855   6.710   3.562   0.021
 9652SOL    HW229856   6.798   3.427   7.017
 9653SOL     OW29857   3.923   4.416   6.253
 9653SOL    HW129858   3.887   4.334   6.297
 9653SOL    HW229859   3.870   4.496   6.284
 9654SOL     OW29860   3.702   3.513   3.402
 9654SOL    HW129861   3.642   3.467   3.468
 9654SOL    HW229862   3.670   3.607   3.388
 9655SOL     OW29863   4.224   1.031   1.762
 9655SOL    HW129864   4.124   1.031   1.775
 9655SOL    HW229865   4.252   1.120   1.725
 9656SOL     OW29866   5.929   3.789   0.705
 9656SOL    HW129867   5.839   3.817   0.672
 9656SOL    HW229868   5.955   3.702   0.663
 9657SOL     OW29869   5.597   3.408   3.350
 9657SOL    HW129870   5.553   3.464   3.420
 9657SOL    HW229871   5.638   3.327   3.393
 9658SOL     OW29872   5.522   2.112   2.234
 9658SOL    HW129873   5.612   2.153   2.249
 9658SOL    HW229874   5.482   2.086   2.322
 9659SOL     OW29875   2.541   2.953   0.822
 9659SOL    HW129876   2.515   3.005   0.903
 9659SOL    HW229877   2.487   2.983   0.744
 9660SOL     OW29878   0.517   5.804   1.678
 9660SOL    HW129879   0.496   5.786   1.582
 9660SOL    HW229880   0.434   5.791   1.733
 9661SOL     OW29881   5.587   4.923   0.758
 9661SOL    HW129882   5.643   4.845   0.787
 9661SOL    HW229883   5.492   4.909   0.787
 9662SOL     OW29884   5.764   4.985   6.180
 9662SOL    HW129885   5.806   5.052   6.241
 9662SOL    HW229886   5.822   4.971   6.100
 9663SOL     OW29887   0.708   5.182   3.543
 9663SOL    HW129888   0.652   5.239   3.483
 9663SOL    HW229889   0.733   5.098   3.495
 9664SOL     OW29890   5.072   3.893   2.896
 9664SOL    HW129891   5.146   3.922   2.957
 9664SOL    HW229892   5.048   3.798   2.916
 9665SOL     OW29893   5.725   5.926   6.462
 9665SOL    HW129894   5.721   5.901   6.558
 9665SOL    HW229895   5.655   5.994   6.442
 9666SOL     OW29896   5.491   3.492   6.965
 9666SOL    HW129897   5.416   3.494   0.012
 9666SOL    HW229898   5.507   3.398   6.935
 9667SOL     OW29899   6.001   6.111   6.664
 9667SOL    HW129900   6.074   6.098   6.597
 9667SOL    HW229901   6.017   6.052   6.743
 9668SOL     OW29902   0.254   0.003   5.733
 9668SOL    HW129903   0.213   7.006   5.822
 9668SOL    HW229904   0.277   6.936   5.690
 9669SOL     OW29905   4.161   0.150   0.385
 9669SOL    HW129906   4.225   0.220   0.416
 9669SOL    HW229907   4.068   0.177   0.408
 9670SOL     OW29908   0.424   6.903   6.579
 9670SOL    HW129909   0.369   6.872   6.501
 9670SOL    HW229910   0.504   6.953   6.545
 9671SOL     OW29911   1.557   5.542   6.639
 9671SOL    HW129912   1.525   5.461   6.689
 9671SOL    HW229913   1.502   5.554   6.556
 9672SOL     OW29914   0.820   3.459   4.580
 9672SOL    HW129915   0.752   3.432   4.648
 9672SOL    HW229916   0.829   3.386   4.512
 9673SOL     OW29917   2.229   4.092   1.132
 9673SOL    HW129918   2.288   4.082   1.212
 9673SOL    HW229919   2.167   4.169   1.146
 9674SOL     OW29920   2.747   6.376   4.023
 9674SOL    HW129921   2.699   6.290   4.002
 9674SOL    HW229922   2.844   6.357   4.037
 9675SOL     OW29923   4.811   3.813   1.346
 9675SOL    HW129924   4.872   3.891   1.330
 9675SOL    HW229925   4.850   3.731   1.304
 9676SOL     OW29926   0.981   2.834   6.267
 9676SOL    HW129927   0.892   2.873   6.292
 9676SOL    HW229928   1.027   2.800   6.349
 9677SOL     OW29929   6.559   5.385   0.662
 9677SOL    HW129930   6.476   5.395   0.717
 9677SOL    HW229931   6.548   5.434   0.576
 9678SOL     OW29932   3.655   3.185   4.929
 9678SOL    HW129933   3.665   3.280   4.958
 9678SOL    HW229934   3.742   3.151   4.894
 9679SOL     OW29935   2.061   1.627   5.018
 9679SOL    HW129936   2.155   1.614   5.049
 9679SOL    HW229937   1.998   1.591   5.087
 9680SOL     OW29938   4.595   5.774   3.032
 9680SOL    HW129939   4.685   5.798   2.995
 9680SOL    HW229940   4.555   5.701   2.978
 9681SOL     OW29941   1.768   1.847   2.348
 9681SOL    HW129942   1.747   1.750   2.338
 9681SOL    HW229943   1.712   1.900   2.285
 9682SOL     OW29944   5.211   5.257   5.005
 9682SOL    HW129945   5.224   5.304   5.093
 9682SOL    HW229946   5.116   5.263   4.977
 9683SOL     OW29947   2.511   6.254   1.964
 9683SOL    HW129948   2.509   6.219   1.870
 9683SOL    HW229949   2.455   6.197   2.023
 9684SOL     OW29950   1.160   4.209   5.881
 9684SOL    HW129951   1.138   4.113   5.898
 9684SOL    HW229952   1.083   4.253   5.835
 9685SOL     OW29953   3.804   4.835   1.510
 9685SOL    HW129954   3.893   4.823   1.466
 9685SOL    HW229955   3.731   4.808   1.447
 9686SOL     OW29956   0.038   1.995   6.038
 9686SOL    HW129957   0.047   1.903   6.075
 9686SOL    HW229958   7.014   1.992   5.949
 9687SOL     OW29959   5.543   0.656   2.149
 9687SOL    HW129960   5.506   0.568   2.120
 9687SOL    HW229961   5.568   0.710   2.069
 9688SOL     OW29962   0.250   4.488   1.227
 9688SOL    HW129963   0.223   4.498   1.322
 9688SOL    HW229964   0.326   4.423   1.220
 9689SOL     OW29965   1.198   6.705   0.706
 9689SOL    HW129966   1.143   6.676   0.784
 9689SOL    HW229967   1.144   6.767   0.649
 9690SOL     OW29968   6.274   5.293   5.312
 9690SOL    HW129969   6.274   5.194   5.302
 9690SOL    HW229970   6.292   5.336   5.224
 9691SOL     OW29971   3.133   3.923   1.590
 9691SOL    HW129972   3.059   3.858   1.576
 9691SOL    HW229973   3.113   3.981   1.670
 9692SOL     OW29974   5.298   4.966   0.719
 9692SOL    HW129975   5.239   4.947   0.798
 9692SOL    HW229976   5.284   4.896   0.649
 9693SOL     OW29977   5.138   3.775   4.135
 9693SOL    HW129978   5.093   3.694   4.097
 9693SOL    HW229979   5.126   3.852   4.072
 9694SOL     OW29980   3.615   6.697   2.464
 9694SOL    HW129981   3.564   6.691   2.379
 9694SOL    HW229982   3.662   6.785   2.470
 9695SOL     OW29983   0.921   2.600   3.889
 9695SOL    HW129984   0.846   2.657   3.855
 9695SOL    HW229985   0.925   2.515   3.838
 9696SOL     OW29986   5.747   1.858   2.439
 9696SOL    HW129987   5.653   1.828   2.458
 9696SOL    HW229988   5.799   1.859   2.525
 9697SOL     OW29989   0.460   6.337   0.523
 9697SOL    HW129990   0.505   6.271   0.463
 9697SOL    HW229991   0.508   6.425   0.518
 9698SOL     OW29992   5.829   3.528   0.113
 9698SOL    HW129993   5.834   3.578   0.200
 9698SOL    HW229994   5.810   3.431   0.132
 9699SOL     OW29995   1.128   5.345   1.161
 9699SOL    HW129996   1.101   5.435   1.126
 9699SOL    HW229997   1.157   5.287   1.085
 9700SOL     OW29998   5.697   6.992   5.066
 9700SOL    HW129999   5.618   0.020   5.028
 9700SOL    HW230000   5.772   0.037   5.079
 9701SOL     OW30001   4.516   3.310   6.240
 9701SOL    HW130002   4.535   3.388   6.299
 9701SOL    HW230003   4.445   3.334   6.174
 9702SOL     OW30004   3.876   2.749   1.336
 9702SOL    HW130005   3.827   2.751   1.249
 9702SOL    HW230006   3.922   2.661   1.346
 9703SOL     OW30007   6.519   3.862   4.972
 9703SOL    HW130008   6.575   3.903   5.044
 9703SOL    HW230009   6.553   3.889   4.882
 9704SOL     OW30010   2.276   4.157   3.152
 9704SOL    HW130011   2.239   4.101   3.079
 9704SOL    HW230012   2.282   4.104   3.236
 9705SOL     OW30013   6.397   3.442   5.561
 9705SOL    HW130014   6.374   3.492   5.477
 9705SOL    HW230015   6.368   3.494   5.641
 9706SOL     OW30016   1.398   1.899   2.386
 9706SOL    HW130017   1.469   1.931   2.324
 9706SOL    HW230018   1.309   1.932   2.355
 9707SOL     OW30019   6.528   4.991   2.632
 9707SOL    HW130020   6.533   4.914   2.568
 9707SOL    HW230021   6.620   5.013   2.664
 9708SOL     OW30022   2.164   0.656   2.202
 9708SOL    HW130023   2.262   0.662   2.220
 9708SOL    HW230024   2.112   0.668   2.287
 9709SOL     OW30025   5.782   2.117   2.352
 9709SOL    HW130026   5.775   2.022   2.380
 9709SOL    HW230027   5.845   2.124   2.274
 9710SOL     OW30028   6.134   5.726   4.294
 9710SOL    HW130029   6.043   5.686   4.306
 9710SOL    HW230030   6.130   5.797   4.224
 9711SOL     OW30031   4.082   0.064   0.123
 9711SOL    HW130032   4.146   7.012   0.095
 9711SOL    HW230033   4.121   0.117   0.198
 9712SOL     OW30034   5.482   2.275   6.961
 9712SOL    HW130035   5.533   2.351   6.922
 9712SOL    HW230036   5.400   2.310   7.007
 9713SOL     OW30037   1.087   6.351   4.020
 9713SOL    HW130038   1.186   6.337   4.025
 9713SOL    HW230039   1.065   6.398   3.934
 9714SOL     OW30040   2.822   4.836   4.884
 9714SOL    HW130041   2.730   4.818   4.849
 9714SOL    HW230042   2.847   4.762   4.947
 9715SOL     OW30043   6.454   3.843   0.210
 9715SOL    HW130044   6.436   3.763   0.267
 9715SOL    HW230045   6.482   3.920   0.268
 9716SOL     OW30046   3.088   5.003   0.035
 9716SOL    HW130047   3.015   5.003   6.987
 9716SOL    HW230048   3.057   4.957   0.118
 9717SOL     OW30049   4.610   0.825   5.208
 9717SOL    HW130050   4.526   0.862   5.248
 9717SOL    HW230051   4.688   0.879   5.240
 9718SOL     OW30052   3.057   2.018   0.217
 9718SOL    HW130053   3.073   2.088   0.286
 9718SOL    HW230054   2.958   2.010   0.199
 9719SOL     OW30055   4.592   6.226   5.121
 9719SOL    HW130056   4.563   6.292   5.191
 9719SOL    HW230057   4.577   6.266   5.031
 9720SOL     OW30058   2.056   3.743   3.144
 9720SOL    HW130059   2.051   3.656   3.194
 9720SOL    HW230060   2.081   3.726   3.049
 9721SOL     OW30061   0.776   1.679   0.614
 9721SOL    HW130062   0.861   1.646   0.572
 9721SOL    HW230063   0.700   1.620   0.587
 9722SOL     OW30064   3.940   3.082   4.925
 9722SOL    HW130065   3.888   3.010   4.880
 9722SOL    HW230066   3.932   3.072   5.024
 9723SOL     OW30067   6.365   5.759   4.065
 9723SOL    HW130068   6.304   5.810   4.125
 9723SOL    HW230069   6.327   5.756   3.973
 9724SOL     OW30070   0.500   5.356   0.144
 9724SOL    HW130071   0.425   5.422   0.142
 9724SOL    HW230072   0.579   5.395   0.097
 9725SOL     OW30073   3.312   5.600   5.740
 9725SOL    HW130074   3.243   5.528   5.740
 9725SOL    HW230075   3.376   5.586   5.815
 9726SOL     OW30076   6.052   1.085   4.333
 9726SOL    HW130077   6.080   0.996   4.369
 9726SOL    HW230078   5.952   1.094   4.339
 9727SOL     OW30079   1.129   1.332   6.710
 9727SOL    HW130080   1.034   1.306   6.725
 9727SOL    HW230081   1.187   1.287   6.778
 9728SOL     OW30082   5.237   0.097   6.140
 9728SOL    HW130083   5.303   0.055   6.201
 9728SOL    HW230084   5.210   0.031   6.069
 9729SOL     OW30085   0.409   5.153   3.369
 9729SOL    HW130086   0.497   5.198   3.355
 9729SOL    HW230087   0.403   5.072   3.309
 9730SOL     OW30088   0.166   4.518   3.359
 9730SOL    HW130089   0.262   4.501   3.380
 9730SOL    HW230090   0.121   4.432   3.338
 9731SOL     OW30091   5.366   3.845   2.474
 9731SOL    HW130092   5.412   3.870   2.559
 9731SOL    HW230093   5.267   3.846   2.488
 9732SOL     OW30094   1.231   3.267   2.297
 9732SOL    HW130095   1.208   3.265   2.200
 9732SOL    HW230096   1.311   3.209   2.313
 9733SOL     OW30097   6.210   5.282   2.559
 9733SOL    HW130098   6.125   5.230   2.558
 9733SOL    HW230099   6.203   5.359   2.495
 9734SOL     OW30100   5.937   6.655   5.377
 9734SOL    HW130101   5.974   6.705   5.456
 9734SOL    HW230102   5.858   6.705   5.341
 9735SOL     OW30103   1.284   2.225   2.352
 9735SOL    HW130104   1.375   2.236   2.392
 9735SOL    HW230105   1.229   2.305   2.374
 9736SOL     OW30106   4.713   2.374   5.297
 9736SOL    HW130107   4.664   2.444   5.348
 9736SOL    HW230108   4.647   2.319   5.245
 9737SOL     OW30109   6.092   2.075   2.593
 9737SOL    HW130110   6.008   2.128   2.598
 9737SOL    HW230111   6.073   1.979   2.615
 9738SOL     OW30112   1.500   5.906   2.425
 9738SOL    HW130113   1.566   5.843   2.384
 9738SOL    HW230114   1.464   5.865   2.510
 9739SOL     OW30115   5.733   6.920   0.072
 9739SOL    HW130116   5.749   6.838   0.126
 9739SOL    HW230117   5.819   6.971   0.062
 9740SOL     OW30118   0.013   1.057   2.168
 9740SOL    HW130119   6.992   1.003   2.094
 9740SOL    HW230120   0.083   1.002   2.214
 9741SOL     OW30121   3.054   1.280   4.707
 9741SOL    HW130122   3.154   1.279   4.703
 9741SOL    HW230123   3.019   1.188   4.693
 9742SOL     OW30124   3.941   2.430   5.688
 9742SOL    HW130125   3.900   2.444   5.778
 9742SOL    HW230126   4.024   2.374   5.698
 9743SOL     OW30127   6.208   3.336   3.876
 9743SOL    HW130128   6.276   3.286   3.928
 9743SOL    HW230129   6.224   3.434   3.886
 9744SOL     OW30130   1.857   0.221   3.867
 9744SOL    HW130131   1.887   0.299   3.811
 9744SOL    HW230132   1.804   0.254   3.945
 9745SOL     OW30133   6.517   0.682   5.522
 9745SOL    HW130134   6.465   0.633   5.592
 9745SOL    HW230135   6.598   0.630   5.498
 9746SOL     OW30136   4.341   5.220   6.153
 9746SOL    HW130137   4.271   5.148   6.152
 9746SOL    HW230138   4.413   5.196   6.218
 9747SOL     OW30139   2.481   2.526   2.711
 9747SOL    HW130140   2.554   2.460   2.728
 9747SOL    HW230141   2.453   2.569   2.797
 9748SOL     OW30142   1.054   0.620   3.346
 9748SOL    HW130143   1.076   0.712   3.314
 9748SOL    HW230144   0.956   0.611   3.358
 9749SOL     OW30145   6.546   1.512   1.999
 9749SOL    HW130146   6.502   1.459   1.925
 9749SOL    HW230147   6.604   1.583   1.959
 9750SOL     OW30148   6.383   4.693   3.784
 9750SOL    HW130149   6.468   4.653   3.749
 9750SOL    HW230150   6.317   4.702   3.709
 9751SOL     OW30151   2.651   0.943   1.949
 9751SOL    HW130152   2.683   0.862   1.902
 9751SOL    HW230153   2.653   1.021   1.887
 9752SOL     OW30154   3.615   3.161   0.151
 9752SOL    HW130155   3.685   3.151   0.081
 9752SOL    HW230156   3.530   3.120   0.118
 9753SOL     OW30157   6.307   5.862   5.079
 9753SOL    HW130158   6.285   5.838   4.984
 9753SOL    HW230159   6.330   5.959   5.084
 9754SOL     OW30160   3.683   0.773   1.381
 9754SOL    HW130161   3.732   0.812   1.304
 9754SOL    HW230162   3.635   0.845   1.431
 9755SOL     OW30163   3.387   4.261   6.500
 9755SOL    HW130164   3.400   4.189   6.432
 9755SOL    HW230165   3.412   4.226   6.590
 9756SOL     OW30166   5.938   0.806   6.293
 9756SOL    HW130167   5.852   0.764   6.320
 9756SOL    HW230168   5.920   0.895   6.251
 9757SOL     OW30169   4.912   3.713   3.797
 9757SOL    HW130170   5.004   3.730   3.763
 9757SOL    HW230171   4.875   3.631   3.752
 9758SOL     OW30172   1.872   0.661   0.941
 9758SOL    HW130173   1.839   0.751   0.970
 9758SOL    HW230174   1.926   0.671   0.858
 9759SOL     OW30175   0.997   1.113   0.146
 9759SOL    HW130176   1.013   1.142   0.052
 9759SOL    HW230177   1.080   1.124   0.200
 9760SOL     OW30178   4.542   2.400   0.457
 9760SOL    HW130179   4.605   2.347   0.514
 9760SOL    HW230180   4.564   2.386   0.361
 9761SOL     OW30181   1.803   1.850   1.625
 9761SOL    HW130182   1.813   1.876   1.529
 9761SOL    HW230183   1.792   1.750   1.631
 9762SOL     OW30184   2.430   1.789   5.622
 9762SOL    HW130185   2.425   1.876   5.572
 9762SOL    HW230186   2.342   1.771   5.666
 9763SOL     OW30187   6.131   1.616   1.035
 9763SOL    HW130188   6.196   1.634   1.108
 9763SOL    HW230189   6.047   1.577   1.074
 9764SOL     OW30190   5.460   1.750   2.077
 9764SOL    HW130191   5.388   1.725   2.143
 9764SOL    HW230192   5.417   1.778   1.991
 9765SOL     OW30193   6.720   1.252   1.309
 9765SOL    HW130194   6.631   1.245   1.355
 9765SOL    HW230195   6.792   1.261   1.377
 9766SOL     OW30196   2.011   1.070   4.627
 9766SOL    HW130197   1.950   1.018   4.567
 9766SOL    HW230198   2.081   1.009   4.664
 9767SOL     OW30199   2.159   3.428   5.676
 9767SOL    HW130200   2.180   3.333   5.653
 9767SOL    HW230201   2.065   3.435   5.708
 9768SOL     OW30202   6.242   2.459   0.834
 9768SOL    HW130203   6.331   2.452   0.878
 9768SOL    HW230204   6.187   2.528   0.882
 9769SOL     OW30205   2.972   1.939   4.920
 9769SOL    HW130206   3.001   2.013   4.858
 9769SOL    HW230207   2.930   1.980   5.001
 9770SOL     OW30208   3.127   2.517   6.499
 9770SOL    HW130209   3.204   2.453   6.502
 9770SOL    HW230210   3.141   2.582   6.424
 9771SOL     OW30211   2.658   6.184   2.916
 9771SOL    HW130212   2.743   6.141   2.887
 9771SOL    HW230213   2.638   6.159   3.010
 9772SOL     OW30214   1.054   6.360   1.531
 9772SOL    HW130215   0.982   6.302   1.569
 9772SOL    HW230216   1.093   6.316   1.450
 9773SOL     OW30217   4.668   5.577   1.887
 9773SOL    HW130218   4.746   5.592   1.948
 9773SOL    HW230219   4.583   5.579   1.939
 9774SOL     OW30220   0.718   5.691   4.380
 9774SOL    HW130221   0.671   5.654   4.460
 9774SOL    HW230222   0.652   5.711   4.309
 9775SOL     OW30223   2.103   0.878   4.069
 9775SOL    HW130224   2.033   0.850   4.004
 9775SOL    HW230225   2.156   0.953   4.030
 9776SOL     OW30226   1.558   5.828   6.643
 9776SOL    HW130227   1.649   5.856   6.611
 9776SOL    HW230228   1.551   5.729   6.643
 9777SOL     OW30229   5.016   0.077   6.347
 9777SOL    HW130230   5.084   0.068   6.275
 9777SOL    HW230231   4.966   0.163   6.335
 9778SOL     OW30232   0.404   2.301   4.322
 9778SOL    HW130233   0.429   2.382   4.268
 9778SOL    HW230234   0.311   2.313   4.357
 9779SOL     OW30235   1.103   1.771   3.846
 9779SOL    HW130236   1.020   1.745   3.894
 9779SOL    HW230237   1.180   1.769   3.909
 9780SOL     OW30238   2.093   2.196   1.146
 9780SOL    HW130239   1.996   2.181   1.127
 9780SOL    HW230240   2.140   2.108   1.150
 9781SOL     OW30241   1.881   3.397   3.988
 9781SOL    HW130242   1.936   3.429   4.066
 9781SOL    HW230243   1.890   3.297   3.981
 9782SOL     OW30244   0.134   2.477   1.246
 9782SOL    HW130245   0.210   2.488   1.309
 9782SOL    HW230246   0.167   2.482   1.152
 9783SOL     OW30247   3.424   1.481   3.058
 9783SOL    HW130248   3.415   1.514   3.152
 9783SOL    HW230249   3.500   1.528   3.014
 9784SOL     OW30250   1.947   1.576   0.536
 9784SOL    HW130251   2.039   1.575   0.497
 9784SOL    HW230252   1.880   1.574   0.461
 9785SOL     OW30253   6.858   1.983   4.445
 9785SOL    HW130254   6.935   1.928   4.413
 9785SOL    HW230255   6.846   2.062   4.386
 9786SOL     OW30256   2.334   4.853   1.310
 9786SOL    HW130257   2.286   4.925   1.260
 9786SOL    HW230258   2.314   4.764   1.270
 9787SOL     OW30259   3.665   2.907   2.906
 9787SOL    HW130260   3.729   2.974   2.943
 9787SOL    HW230261   3.682   2.894   2.808
 9788SOL     OW30262   6.970   6.425   1.777
 9788SOL    HW130263   6.972   6.466   1.686
 9788SOL    HW230264   6.896   6.466   1.831
 9789SOL     OW30265   3.598   0.417   6.740
 9789SOL    HW130266   3.538   0.428   6.819
 9789SOL    HW230267   3.559   0.350   6.677
 9790SOL     OW30268   6.985   4.220   4.673
 9790SOL    HW130269   6.902   4.259   4.631
 9790SOL    HW230270   0.042   4.283   4.659
 9791SOL     OW30271   1.017   6.526   0.852
 9791SOL    HW130272   0.933   6.534   0.906
 9791SOL    HW230273   1.095   6.515   0.915
 9792SOL     OW30274   3.996   5.580   1.335
 9792SOL    HW130275   4.033   5.633   1.259
 9792SOL    HW230276   3.937   5.638   1.390
 9793SOL     OW30277   4.584   1.743   2.213
 9793SOL    HW130278   4.628   1.741   2.303
 9793SOL    HW230279   4.607   1.661   2.162
 9794SOL     OW30280   4.646   4.257   4.959
 9794SOL    HW130281   4.673   4.324   5.029
 9794SOL    HW230282   4.567   4.292   4.909
 9795SOL     OW30283   0.961   3.875   3.510
 9795SOL    HW130284   1.036   3.912   3.455
 9795SOL    HW230285   0.883   3.937   3.506
 9796SOL     OW30286   3.224   3.831   3.570
 9796SOL    HW130287   3.248   3.762   3.502
 9796SOL    HW230288   3.283   3.822   3.650
 9797SOL     OW30289   3.002   6.878   6.387
 9797SOL    HW130290   3.070   6.950   6.398
 9797SOL    HW230291   3.049   6.790   6.375
 9798SOL     OW30292   1.315   3.201   0.657
 9798SOL    HW130293   1.369   3.144   0.596
 9798SOL    HW230294   1.298   3.152   0.743
 9799SOL     OW30295   2.836   6.595   6.264
 9799SOL    HW130296   2.932   6.618   6.278
 9799SOL    HW230297   2.799   6.553   6.347
 9800SOL     OW30298   5.897   3.267   4.553
 9800SOL    HW130299   5.838   3.346   4.537
 9800SOL    HW230300   5.985   3.281   4.508
 9801SOL     OW30301   5.984   5.348   6.206
 9801SOL    HW130302   6.079   5.372   6.185
 9801SOL    HW230303   5.982   5.263   6.258
 9802SOL     OW30304   4.459   4.950   1.208
 9802SOL    HW130305   4.462   5.050   1.210
 9802SOL    HW230306   4.548   4.914   1.239
 9803SOL     OW30307   0.856   4.184   6.361
 9803SOL    HW130308   0.796   4.154   6.286
 9803SOL    HW230309   0.831   4.136   6.445
 9804SOL     OW30310   6.410   5.768   2.696
 9804SOL    HW130311   6.451   5.821   2.621
 9804SOL    HW230312   6.447   5.801   2.783
 9805SOL     OW30313   0.482   6.718   3.853
 9805SOL    HW130314   0.439   6.712   3.943
 9805SOL    HW230315   0.573   6.758   3.861
 9806SOL     OW30316   3.156   2.466   6.131
 9806SOL    HW130317   3.217   2.484   6.054
 9806SOL    HW230318   3.102   2.384   6.111
 9807SOL     OW30319   2.939   3.775   1.856
 9807SOL    HW130320   2.954   3.688   1.905
 9807SOL    HW230321   2.865   3.763   1.790
 9808SOL     OW30322   4.407   6.704   3.557
 9808SOL    HW130323   4.330   6.767   3.556
 9808SOL    HW230324   4.471   6.729   3.630
 9809SOL     OW30325   0.060   2.620   0.807
 9809SOL    HW130326   6.985   2.621   0.839
 9809SOL    HW230327   0.074   2.541   0.747
 9810SOL     OW30328   1.991   1.525   6.554
 9810SOL    HW130329   2.019   1.548   6.461
 9810SOL    HW230330   2.054   1.568   6.619
 9811SOL     OW30331   6.449   3.802   4.006
 9811SOL    HW130332   6.378   3.843   3.948
 9811SOL    HW230333   6.530   3.860   4.005
 9812SOL     OW30334   2.467   6.676   4.718
 9812SOL    HW130335   2.508   6.585   4.721
 9812SOL    HW230336   2.403   6.682   4.642
 9813SOL     OW30337   5.122   2.459   0.774
 9813SOL    HW130338   5.150   2.364   0.790
 9813SOL    HW230339   5.111   2.474   0.676
 9814SOL     OW30340   5.744   1.692   0.244
 9814SOL    HW130341   5.704   1.612   0.200
 9814SOL    HW230342   5.734   1.684   0.343
 9815SOL     OW30343   4.581   2.414   4.547
 9815SOL    HW130344   4.648   2.353   4.505
 9815SOL    HW230345   4.492   2.370   4.549
 9816SOL     OW30346   1.557   0.586   0.900
 9816SOL    HW130347   1.592   0.566   0.808
 9816SOL    HW230348   1.457   0.588   0.898
 9817SOL     OW30349   0.484   6.994   3.695
 9817SOL    HW130350   0.508   0.041   3.764
 9817SOL    HW230351   0.384   6.987   3.688
 9818SOL     OW30352   6.223   2.396   4.772
 9818SOL    HW130353   6.321   2.382   4.783
 9818SOL    HW230354   6.174   2.350   4.847
 9819SOL     OW30355   3.772   1.859   3.572
 9819SOL    HW130356   3.739   1.948   3.540
 9819SOL    HW230357   3.846   1.872   3.638
 9820SOL     OW30358   3.798   4.399   5.948
 9820SOL    HW130359   3.848   4.387   6.034
 9820SOL    HW230360   3.850   4.359   5.873
 9821SOL     OW30361   5.213   5.872   6.874
 9821SOL    HW130362   5.276   5.855   6.799
 9821SOL    HW230363   5.120   5.886   6.839
 9822SOL     OW30364   0.567   0.119   2.669
 9822SOL    HW130365   0.583   0.211   2.632
 9822SOL    HW230366   0.626   0.054   2.621
 9823SOL     OW30367   3.362   0.891   2.616
 9823SOL    HW130368   3.441   0.931   2.662
 9823SOL    HW230369   3.392   0.817   2.556
 9824SOL     OW30370   1.069   4.258   5.361
 9824SOL    HW130371   0.981   4.284   5.400
 9824SOL    HW230372   1.130   4.226   5.433
 9825SOL     OW30373   3.617   5.124   5.687
 9825SOL    HW130374   3.546   5.065   5.650
 9825SOL    HW230375   3.670   5.163   5.611
 9826SOL     OW30376   4.302   6.351   5.837
 9826SOL    HW130377   4.261   6.442   5.847
 9826SOL    HW230378   4.388   6.346   5.886
 9827SOL     OW30379   1.950   4.302   5.004
 9827SOL    HW130380   1.950   4.275   4.908
 9827SOL    HW230381   1.902   4.390   5.014
 9828SOL     OW30382   3.828   2.650   6.724
 9828SOL    HW130383   3.729   2.644   6.738
 9828SOL    HW230384   3.865   2.558   6.710
 9829SOL     OW30385   2.934   6.428   0.407
 9829SOL    HW130386   2.856   6.425   0.343
 9829SOL    HW230387   2.901   6.448   0.499
 9830SOL     OW30388   5.358   1.278   0.737
 9830SOL    HW130389   5.331   1.373   0.721
 9830SOL    HW230390   5.413   1.245   0.660
 9831SOL     OW30391   1.186   6.221   1.312
 9831SOL    HW130392   1.217   6.197   1.220
 9831SOL    HW230393   1.265   6.244   1.368
 9832SOL     OW30394   4.396   5.461   2.019
 9832SOL    HW130395   4.407   5.524   2.096
 9832SOL    HW230396   4.370   5.371   2.053
 9833SOL     OW30397   3.501   3.880   4.991
 9833SOL    HW130398   3.410   3.920   4.975
 9833SOL    HW230399   3.491   3.783   5.011
 9834SOL     OW30400   2.304   3.933   5.892
 9834SOL    HW130401   2.286   3.961   5.798
 9834SOL    HW230402   2.386   3.875   5.894
 9835SOL     OW30403   4.992   1.481   4.551
 9835SOL    HW130404   5.005   1.551   4.481
 9835SOL    HW230405   5.060   1.494   4.624
 9836SOL     OW30406   5.850   3.646   3.289
 9836SOL    HW130407   5.756   3.658   3.257
 9836SOL    HW230408   5.857   3.676   3.384
 9837SOL     OW30409   2.172   0.436   4.200
 9837SOL    HW130410   2.163   0.359   4.264
 9837SOL    HW230411   2.259   0.429   4.151
 9838SOL     OW30412   1.196   6.470   6.108
 9838SOL    HW130413   1.191   6.423   6.196
 9838SOL    HW230414   1.174   6.406   6.035
 9839SOL     OW30415   6.775   1.678   1.876
 9839SOL    HW130416   6.819   1.748   1.821
 9839SOL    HW230417   6.809   1.684   1.970
 9840SOL     OW30418   0.363   0.767   0.522
 9840SOL    HW130419   0.276   0.797   0.562
 9840SOL    HW230420   0.389   0.830   0.448
 9841SOL     OW30421   1.269   3.945   4.979
 9841SOL    HW130422   1.342   3.998   4.936
 9841SOL    HW230423   1.191   3.939   4.916
 9842SOL     OW30424   3.517   3.145   3.107
 9842SOL    HW130425   3.592   3.201   3.141
 9842SOL    HW230426   3.518   3.144   3.007
 9843SOL     OW30427   6.309   1.996   0.936
 9843SOL    HW130428   6.386   1.946   0.977
 9843SOL    HW230429   6.344   2.071   0.881
 9844SOL     OW30430   4.287   6.613   2.783
 9844SOL    HW130431   4.207   6.667   2.807
 9844SOL    HW230432   4.276   6.520   2.817
 9845SOL     OW30433   2.659   1.871   4.787
 9845SOL    HW130434   2.650   1.879   4.886
 9845SOL    HW230435   2.701   1.783   4.764
 9846SOL     OW30436   3.229   4.116   3.301
 9846SOL    HW130437   3.149   4.081   3.252
 9846SOL    HW230438   3.199   4.185   3.368
 9847SOL     OW30439   2.980   3.080   6.145
 9847SOL    HW130440   2.887   3.089   6.181
 9847SOL    HW230441   3.022   2.997   6.182
 9848SOL     OW30442   4.301   2.585   6.398
 9848SOL    HW130443   4.303   2.610   6.301
 9848SOL    HW230444   4.390   2.549   6.425
 9849SOL     OW30445   6.347   0.662   6.784
 9849SOL    HW130446   6.444   0.684   6.789
 9849SOL    HW230447   6.304   0.719   6.714
 9850SOL     OW30448   4.029   6.190   2.635
 9850SOL    HW130449   3.984   6.172   2.548
 9850SOL    HW230450   4.083   6.275   2.627
 9851SOL     OW30451   4.219   1.936   5.344
 9851SOL    HW130452   4.274   1.896   5.417
 9851SOL    HW230453   4.182   1.864   5.286
 9852SOL     OW30454   4.339   1.688   3.359
 9852SOL    HW130455   4.413   1.711   3.423
 9852SOL    HW230456   4.257   1.739   3.383
 9853SOL     OW30457   5.366   3.828   2.167
 9853SOL    HW130458   5.362   3.794   2.261
 9853SOL    HW230459   5.357   3.927   2.166
 9854SOL     OW30460   6.100   5.151   4.966
 9854SOL    HW130461   6.091   5.241   4.924
 9854SOL    HW230462   6.102   5.081   4.894
 9855SOL     OW30463   0.648   4.688   1.372
 9855SOL    HW130464   0.625   4.618   1.440
 9855SOL    HW230465   0.656   4.646   1.282
 9856SOL     OW30466   4.171   4.172   0.690
 9856SOL    HW130467   4.090   4.143   0.639
 9856SOL    HW230468   4.207   4.257   0.650
 9857SOL     OW30469   5.090   1.713   2.763
 9857SOL    HW130470   5.147   1.693   2.842
 9857SOL    HW230471   5.105   1.807   2.733
 9858SOL     OW30472   5.026   0.603   1.850
 9858SOL    HW130473   5.013   0.700   1.872
 9858SOL    HW230474   4.951   0.571   1.793
 9859SOL     OW30475   6.326   0.337   1.370
 9859SOL    HW130476   6.241   0.285   1.377
 9859SOL    HW230477   6.355   0.342   1.275
 9860SOL     OW30478   0.150   1.170   1.463
 9860SOL    HW130479   0.131   1.119   1.379
 9860SOL    HW230480   0.203   1.251   1.441
 9861SOL     OW30481   3.537   6.338   4.669
 9861SOL    HW130482   3.585   6.280   4.603
 9861SOL    HW230483   3.496   6.416   4.622
 9862SOL     OW30484   2.420   3.347   1.129
 9862SOL    HW130485   2.380   3.312   1.044
 9862SOL    HW230486   2.362   3.420   1.164
 9863SOL     OW30487   3.132   6.872   2.905
 9863SOL    HW130488   3.054   6.889   2.844
 9863SOL    HW230489   3.186   6.956   2.914
 9864SOL     OW30490   4.441   6.115   3.721
 9864SOL    HW130491   4.370   6.046   3.715
 9864SOL    HW230492   4.517   6.091   3.661
 9865SOL     OW30493   0.555   0.441   3.545
 9865SOL    HW130494   0.653   0.458   3.556
 9865SOL    HW230495   0.541   0.370   3.476
 9866SOL     OW30496   5.008   4.274   4.544
 9866SOL    HW130497   4.982   4.232   4.631
 9866SOL    HW230498   5.107   4.287   4.542
 9867SOL     OW30499   4.079   0.818   0.207
 9867SOL    HW130500   4.029   0.754   0.264
 9867SOL    HW230501   4.177   0.808   0.223
 9868SOL     OW30502   0.940   4.570   6.874
 9868SOL    HW130503   0.949   4.541   6.969
 9868SOL    HW230504   0.877   4.509   6.826
 9869SOL     OW30505   1.820   3.924   3.544
 9869SOL    HW130506   1.767   3.848   3.581
 9869SOL    HW230507   1.918   3.907   3.558
 9870SOL     OW30508   4.708   5.951   2.389
 9870SOL    HW130509   4.793   5.903   2.407
 9870SOL    HW230510   4.728   6.040   2.348
 9871SOL     OW30511   1.393   0.312   6.011
 9871SOL    HW130512   1.426   0.235   6.065
 9871SOL    HW230513   1.470   0.371   5.986
 9872SOL     OW30514   2.465   5.102   2.959
 9872SOL    HW130515   2.447   5.021   2.904
 9872SOL    HW230516   2.451   5.184   2.903
 9873SOL     OW30517   2.395   2.718   0.759
 9873SOL    HW130518   2.443   2.787   0.813
 9873SOL    HW230519   2.314   2.760   0.717
 9874SOL     OW30520   0.759   1.874   4.004
 9874SOL    HW130521   0.780   1.969   4.027
 9874SOL    HW230522   0.714   1.830   4.082
 9875SOL     OW30523   0.953   0.639   1.941
 9875SOL    HW130524   0.879   0.700   1.912
 9875SOL    HW230525   0.991   0.672   2.027
 9876SOL     OW30526   6.761   0.817   2.270
 9876SOL    HW130527   6.674   0.769   2.258
 9876SOL    HW230528   6.759   0.903   2.219
 9877SOL     OW30529   2.202   6.240   2.720
 9877SOL    HW130530   2.199   6.325   2.667
 9877SOL    HW230531   2.193   6.162   2.658
 9878SOL     OW30532   1.921   5.574   6.091
 9878SOL    HW130533   2.014   5.581   6.127
 9878SOL    HW230534   1.924   5.546   5.995
 9879SOL     OW30535   5.375   5.262   4.379
 9879SOL    HW130536   5.339   5.281   4.470
 9879SOL    HW230537   5.403   5.348   4.335
 9880SOL     OW30538   1.840   3.190   5.232
 9880SOL    HW130539   1.802   3.257   5.168
 9880SOL    HW230540   1.912   3.138   5.186
 9881SOL     OW30541   1.519   2.735   5.052
 9881SOL    HW130542   1.610   2.759   5.084
 9881SOL    HW230543   1.519   2.641   5.018
 9882SOL     OW30544   1.223   2.239   3.509
 9882SOL    HW130545   1.223   2.273   3.603
 9882SOL    HW230546   1.315   2.252   3.469
 9883SOL     OW30547   0.866   5.854   1.418
 9883SOL    HW130548   0.877   5.940   1.369
 9883SOL    HW230549   0.769   5.827   1.416
 9884SOL     OW30550   4.046   1.591   3.522
 9884SOL    HW130551   4.062   1.673   3.468
 9884SOL    HW230552   4.086   1.603   3.613
 9885SOL     OW30553   0.335   3.792   5.427
 9885SOL    HW130554   0.259   3.731   5.448
 9885SOL    HW230555   0.314   3.843   5.343
 9886SOL     OW30556   0.812   5.224   2.744
 9886SOL    HW130557   0.751   5.203   2.820
 9886SOL    HW230558   0.759   5.233   2.660
 9887SOL     OW30559   3.940   1.501   6.489
 9887SOL    HW130560   3.979   1.525   6.578
 9887SOL    HW230561   3.926   1.585   6.436
 9888SOL     OW30562   0.208   4.307   0.938
 9888SOL    HW130563   0.199   4.227   0.997
 9888SOL    HW230564   0.238   4.385   0.993
 9889SOL     OW30565   6.773   5.210   0.977
 9889SOL    HW130566   6.717   5.170   0.905
 9889SOL    HW230567   6.861   5.162   0.982
 9890SOL     OW30568   2.010   1.963   0.352
 9890SOL    HW130569   1.961   1.921   0.276
 9890SOL    HW230570   2.108   1.964   0.333
 9891SOL     OW30571   6.139   2.645   0.455
 9891SOL    HW130572   6.177   2.733   0.428
 9891SOL    HW230573   6.136   2.584   0.376
 9892SOL     OW30574   6.753   5.833   6.922
 9892SOL    HW130575   6.779   5.886   6.841
 9892SOL    HW230576   6.654   5.843   6.938
 9893SOL     OW30577   1.791   0.414   1.038
 9893SOL    HW130578   1.757   0.493   0.987
 9893SOL    HW230579   1.846   0.445   1.115
 9894SOL     OW30580   2.218   2.355   1.557
 9894SOL    HW130581   2.141   2.303   1.594
 9894SOL    HW230582   2.258   2.306   1.479
 9895SOL     OW30583   5.242   3.389   5.257
 9895SOL    HW130584   5.341   3.378   5.250
 9895SOL    HW230585   5.213   3.469   5.205
 9896SOL     OW30586   5.997   0.028   6.278
 9896SOL    HW130587   6.059   6.980   6.239
 9896SOL    HW230588   6.050   0.100   6.323
 9897SOL     OW30589   5.359   5.555   2.793
 9897SOL    HW130590   5.378   5.648   2.824
 9897SOL    HW230591   5.271   5.554   2.745
 9898SOL     OW30592   2.334   5.962   6.610
 9898SOL    HW130593   2.409   6.005   6.660
 9898SOL    HW230594   2.343   5.982   6.512
 9899SOL     OW30595   6.973   5.742   0.431
 9899SOL    HW130596   0.030   5.791   0.390
 9899SOL    HW230597   6.978   5.751   0.531
 9900SOL     OW30598   1.525   3.798   3.883
 9900SOL    HW130599   1.514   3.741   3.965
 9900SOL    HW230600   1.435   3.828   3.852
 9901SOL     OW30601   3.115   1.698   5.854
 9901SOL    HW130602   3.030   1.676   5.807
 9901SOL    HW230603   3.173   1.616   5.858
 9902SOL     OW30604   2.731   4.960   0.168
 9902SOL    HW130605   2.697   4.882   0.116
 9902SOL    HW230606   2.821   4.939   0.204
 9903SOL     OW30607   5.031   1.246   2.100
 9903SOL    HW130608   5.076   1.205   2.020
 9903SOL    HW230609   4.978   1.177   2.148
 9904SOL     OW30610   1.481   3.001   6.854
 9904SOL    HW130611   1.533   2.946   6.920
 9904SOL    HW230612   1.502   2.968   6.761
 9905SOL     OW30613   3.547   0.777   6.723
 9905SOL    HW130614   3.480   0.845   6.693
 9905SOL    HW230615   3.580   0.725   6.645
 9906SOL     OW30616   3.473   3.346   1.874
 9906SOL    HW130617   3.540   3.278   1.845
 9906SOL    HW230618   3.381   3.315   1.852
 9907SOL     OW30619   6.510   1.044   0.054
 9907SOL    HW130620   6.538   1.022   0.148
 9907SOL    HW230621   6.438   1.113   0.057
 9908SOL     OW30622   5.101   1.667   3.504
 9908SOL    HW130623   5.076   1.630   3.593
 9908SOL    HW230624   5.200   1.678   3.498
 9909SOL     OW30625   3.954   6.911   4.182
 9909SOL    HW130626   3.936   7.009   4.182
 9909SOL    HW230627   3.906   6.868   4.106
 9910SOL     OW30628   0.833   3.723   1.774
 9910SOL    HW130629   0.886   3.803   1.746
 9910SOL    HW230630   0.762   3.751   1.839
 9911SOL     OW30631   3.128   6.808   2.139
 9911SOL    HW130632   3.187   6.888   2.149
 9911SOL    HW230633   3.180   6.731   2.102
 9912SOL     OW30634   3.885   1.604   1.883
 9912SOL    HW130635   3.901   1.508   1.908
 9912SOL    HW230636   3.903   1.616   1.785
 9913SOL     OW30637   6.497   4.222   0.196
 9913SOL    HW130638   6.436   4.188   0.268
 9913SOL    HW230639   6.443   4.272   0.128
 9914SOL     OW30640   6.111   3.054   4.902
 9914SOL    HW130641   6.095   3.043   5.000
 9914SOL    HW230642   6.026   3.084   4.858
 9915SOL     OW30643   4.595   0.804   3.709
 9915SOL    HW130644   4.499   0.787   3.687
 9915SOL    HW230645   4.652   0.781   3.630
 9916SOL     OW30646   2.193   3.198   3.211
 9916SOL    HW130647   2.095   3.218   3.222
 9916SOL    HW230648   2.219   3.127   3.277
 9917SOL     OW30649   6.022   3.379   6.717
 9917SOL    HW130650   5.923   3.395   6.720
 9917SOL    HW230651   6.069   3.467   6.706
 9918SOL     OW30652   3.231   1.368   2.891
 9918SOL    HW130653   3.166   1.314   2.945
 9918SOL    HW230654   3.298   1.410   2.952
 9919SOL     OW30655   5.714   5.710   1.325
 9919SOL    HW130656   5.794   5.652   1.312
 9919SOL    HW230657   5.646   5.688   1.255
 9920SOL     OW30658   4.454   1.821   1.697
 9920SOL    HW130659   4.430   1.845   1.603
 9920SOL    HW230660   4.474   1.904   1.748
 9921SOL     OW30661   4.644   5.664   6.185
 9921SOL    HW130662   4.726   5.672   6.128
 9921SOL    HW230663   4.596   5.579   6.161
 9922SOL     OW30664   1.443   5.027   0.437
 9922SOL    HW130665   1.514   4.960   0.459
 9922SOL    HW230666   1.355   4.980   0.426
 9923SOL     OW30667   5.077   4.506   6.789
 9923SOL    HW130668   5.076   4.597   6.831
 9923SOL    HW230669   4.993   4.492   6.738
 9924SOL     OW30670   6.922   2.136   4.678
 9924SOL    HW130671   6.928   2.111   4.581
 9924SOL    HW230672   7.013   2.160   4.712
 9925SOL     OW30673   6.786   4.116   4.327
 9925SOL    HW130674   6.837   4.169   4.394
 9925SOL    HW230675   6.840   4.037   4.298
 9926SOL     OW30676   2.518   3.200   0.638
 9926SOL    HW130677   2.537   3.285   0.588
 9926SOL    HW230678   2.602   3.165   0.679
 9927SOL     OW30679   6.899   0.100   1.237
 9927SOL    HW130680   6.819   0.120   1.293
 9927SOL    HW230681   6.942   0.016   1.270
 9928SOL     OW30682   4.735   5.879   1.870
 9928SOL    HW130683   4.807   5.821   1.907
 9928SOL    HW230684   4.730   5.866   1.771
 9929SOL     OW30685   2.109   5.215   5.373
 9929SOL    HW130686   2.164   5.136   5.346
 9929SOL    HW230687   2.085   5.208   5.470
 9930SOL     OW30688   6.203   0.251   5.112
 9930SOL    HW130689   6.265   0.222   5.185
 9930SOL    HW230690   6.242   0.227   5.023
 9931SOL     OW30691   1.210   4.503   4.920
 9931SOL    HW130692   1.160   4.535   5.001
 9931SOL    HW230693   1.198   4.568   4.846
 9932SOL     OW30694   2.152   5.236   0.020
 9932SOL    HW130695   2.217   5.240   0.095
 9932SOL    HW230696   2.090   5.159   0.033
 9933SOL     OW30697   1.583   4.681   2.954
 9933SOL    HW130698   1.630   4.729   2.880
 9933SOL    HW230699   1.492   4.654   2.924
 9934SOL     OW30700   6.274   1.494   5.575
 9934SOL    HW130701   6.181   1.468   5.548
 9934SOL    HW230702   6.273   1.526   5.670
 9935SOL     OW30703   3.240   0.450   0.155
 9935SOL    HW130704   3.172   0.377   0.145
 9935SOL    HW230705   3.332   0.411   0.147
 9936SOL     OW30706   6.692   5.183   5.439
 9936SOL    HW130707   6.685   5.111   5.508
 9936SOL    HW230708   6.657   5.149   5.352
 9937SOL     OW30709   6.700   2.164   5.798
 9937SOL    HW130710   6.644   2.121   5.869
 9937SOL    HW230711   6.652   2.244   5.762
 9938SOL     OW30712   6.674   5.474   3.449
 9938SOL    HW130713   6.617   5.521   3.516
 9938SOL    HW230714   6.758   5.527   3.433
 9939SOL     OW30715   3.595   2.372   0.224
 9939SOL    HW130716   3.685   2.335   0.203
 9939SOL    HW230717   3.603   2.469   0.247
 9940SOL     OW30718   0.837   0.710   1.053
 9940SOL    HW130719   0.828   0.810   1.047
 9940SOL    HW230720   0.915   0.681   0.997
 9941SOL     OW30721   3.195   3.868   5.198
 9941SOL    HW130722   3.102   3.835   5.186
 9941SOL    HW230723   3.219   3.928   5.121
 9942SOL     OW30724   1.930   5.108   2.677
 9942SOL    HW130725   2.001   5.173   2.653
 9942SOL    HW230726   1.970   5.018   2.692
 9943SOL     OW30727   0.074   5.825   5.327
 9943SOL    HW130728   0.086   5.739   5.377
 9943SOL    HW230729   0.111   5.900   5.382
 9944SOL     OW30730   2.223   4.290   6.468
 9944SOL    HW130731   2.273   4.351   6.530
 9944SOL    HW230732   2.244   4.313   6.373
 9945SOL     OW30733   6.209   5.341   6.762
 9945SOL    HW130734   6.150   5.326   6.841
 9945SOL    HW230735   6.302   5.359   6.794
 9946SOL     OW30736   5.188   1.191   4.591
 9946SOL    HW130737   5.126   1.114   4.607
 9946SOL    HW230738   5.166   1.265   4.655
 9947SOL     OW30739   1.109   3.899   5.926
 9947SOL    HW130740   1.061   3.817   5.957
 9947SOL    HW230741   1.207   3.883   5.925
 9948SOL     OW30742   4.689   4.433   3.882
 9948SOL    HW130743   4.626   4.441   3.959
 9948SOL    HW230744   4.779   4.403   3.915
 9949SOL     OW30745   4.885   4.933   3.207
 9949SOL    HW130746   4.867   4.987   3.125
 9949SOL    HW230747   4.965   4.876   3.192
 9950SOL     OW30748   6.083   5.905   5.261
 9950SOL    HW130749   6.152   5.900   5.188
 9950SOL    HW230750   6.118   5.962   5.335
 9951SOL     OW30751   6.002   1.688   4.111
 9951SOL    HW130752   6.018   1.616   4.043
 9951SOL    HW230753   5.932   1.750   4.078
 9952SOL     OW30754   7.006   3.683   0.878
 9952SOL    HW130755   6.934   3.700   0.810
 9952SOL    HW230756   6.999   3.749   0.952
 9953SOL     OW30757   6.254   2.525   3.956
 9953SOL    HW130758   6.311   2.555   4.033
 9953SOL    HW230759   6.162   2.502   3.990
 9954SOL     OW30760   5.729   6.441   5.863
 9954SOL    HW130761   5.738   6.390   5.777
 9954SOL    HW230762   5.806   6.504   5.872
 9955SOL     OW30763   6.589   3.427   4.769
 9955SOL    HW130764   6.540   3.408   4.854
 9955SOL    HW230765   6.679   3.465   4.790
 9956SOL     OW30766   2.407   0.096   1.787
 9956SOL    HW130767   2.429   0.005   1.821
 9956SOL    HW230768   2.371   0.152   1.861
 9957SOL     OW30769   5.290   5.313   2.677
 9957SOL    HW130770   5.334   5.287   2.592
 9957SOL    HW230771   5.336   5.394   2.714
 9958SOL     OW30772   3.179   5.319   0.427
 9958SOL    HW130773   3.165   5.233   0.477
 9958SOL    HW230774   3.187   5.394   0.492
 9959SOL     OW30775   4.062   3.695   5.658
 9959SOL    HW130776   4.098   3.769   5.714
 9959SOL    HW230777   4.114   3.689   5.572
 9960SOL     OW30778   6.905   0.124   1.802
 9960SOL    HW130779   6.865   0.215   1.801
 9960SOL    HW230780   6.932   0.100   1.896
 9961SOL     OW30781   1.833   6.360   4.509
 9961SOL    HW130782   1.932   6.377   4.500
 9961SOL    HW230783   1.789   6.442   4.545
 9962SOL     OW30784   6.635   6.485   3.308
 9962SOL    HW130785   6.721   6.535   3.305
 9962SOL    HW230786   6.568   6.537   3.361
 9963SOL     OW30787   3.189   3.171   6.689
 9963SOL    HW130788   3.120   3.116   6.642
 9963SOL    HW230789   3.148   3.255   6.724
 9964SOL     OW30790   4.368   5.234   4.727
 9964SOL    HW130791   4.298   5.246   4.797
 9964SOL    HW230792   4.325   5.228   4.637
 9965SOL     OW30793   4.042   6.403   6.666
 9965SOL    HW130794   4.128   6.364   6.634
 9965SOL    HW230795   4.035   6.498   6.636
 9966SOL     OW30796   1.180   5.022   1.585
 9966SOL    HW130797   1.241   5.013   1.664
 9966SOL    HW230798   1.086   5.007   1.614
 9967SOL     OW30799   0.083   5.359   2.861
 9967SOL    HW130800   0.126   5.414   2.789
 9967SOL    HW230801   0.096   5.404   2.949
 9968SOL     OW30802   3.545   3.977   1.773
 9968SOL    HW130803   3.470   3.913   1.757
 9968SOL    HW230804   3.632   3.929   1.766
 9969SOL     OW30805   1.916   3.754   2.630
 9969SOL    HW130806   1.944   3.822   2.562
 9969SOL    HW230807   1.977   3.675   2.625
 9970SOL     OW30808   5.401   4.355   1.736
 9970SOL    HW130809   5.488   4.306   1.743
 9970SOL    HW230810   5.328   4.298   1.774
 9971SOL     OW30811   1.630   4.774   0.796
 9971SOL    HW130812   1.684   4.793   0.879
 9971SOL    HW230813   1.576   4.854   0.772
 9972SOL     OW30814   6.003   4.293   1.464
 9972SOL    HW130815   5.934   4.356   1.500
 9972SOL    HW230816   6.093   4.336   1.466
 9973SOL     OW30817   5.585   1.979   3.724
 9973SOL    HW130818   5.656   1.953   3.790
 9973SOL    HW230819   5.495   1.968   3.766
 9974SOL     OW30820   0.373   2.119   2.560
 9974SOL    HW130821   0.367   2.022   2.540
 9974SOL    HW230822   0.416   2.133   2.649
 9975SOL     OW30823   6.181   2.879   0.309
 9975SOL    HW130824   6.214   2.839   0.223
 9975SOL    HW230825   6.083   2.897   0.301
 9976SOL     OW30826   1.277   5.863   5.402
 9976SOL    HW130827   1.266   5.936   5.470
 9976SOL    HW230828   1.249   5.897   5.312
 9977SOL     OW30829   5.804   5.578   5.667
 9977SOL    HW130830   5.785   5.515   5.591
 9977SOL    HW230831   5.849   5.528   5.741
 9978SOL     OW30832   0.830   2.808   4.875
 9978SOL    HW130833   0.825   2.711   4.850
 9978SOL    HW230834   0.819   2.864   4.793
 9979SOL     OW30835   5.996   4.534   5.119
 9979SOL    HW130836   5.991   4.563   5.215
 9979SOL    HW230837   5.985   4.435   5.113
 9980SOL     OW30838   2.787   6.870   0.176
 9980SOL    HW130839   2.742   6.959   0.170
 9980SOL    HW230840   2.869   6.879   0.233
 9981SOL     OW30841   2.767   1.761   2.940
 9981SOL    HW130842   2.863   1.732   2.939
 9981SOL    HW230843   2.708   1.681   2.932
 9982SOL     OW30844   6.279   5.499   3.591
 9982SOL    HW130845   6.250   5.459   3.678
 9982SOL    HW230846   6.275   5.429   3.519
 9983SOL     OW30847   0.138   1.618   2.738
 9983SOL    HW130848   0.234   1.607   2.712
 9983SOL    HW230849   0.082   1.629   2.656
 9984SOL     OW30850   2.733   2.288   6.842
 9984SOL    HW130851   2.798   2.362   6.859
 9984SOL    HW230852   2.751   2.247   6.753
 9985SOL     OW30853   2.140   0.698   1.497
 9985SOL    HW130854   2.114   0.652   1.583
 9985SOL    HW230855   2.232   0.670   1.472
 9986SOL     OW30856   5.961   4.423   5.492
 9986SOL    HW130857   5.902   4.423   5.573
 9986SOL    HW230858   5.939   4.343   5.435
 9987SOL     OW30859   5.611   3.365   5.963
 9987SOL    HW130860   5.514   3.342   5.970
 9987SOL    HW230861   5.657   3.300   5.903
 9988SOL     OW30862   0.069   0.015   4.890
 9988SOL    HW130863   0.101   6.961   4.831
 9988SOL    HW230864   0.091   0.103   4.848
 9989SOL     OW30865   6.972   3.328   3.676
 9989SOL    HW130866   6.910   3.406   3.671
 9989SOL    HW230867   6.924   3.249   3.715
 9990SOL     OW30868   1.706   5.345   3.550
 9990SOL    HW130869   1.744   5.434   3.572
 9990SOL    HW230870   1.606   5.348   3.556
 9991SOL     OW30871   3.057   2.197   4.797
 9991SOL    HW130872   3.101   2.228   4.881
 9991SOL    HW230873   3.125   2.194   4.723
 9992SOL     OW30874   5.974   5.117   6.318
 9992SOL    HW130875   6.024   5.035   6.288
 9992SOL    HW230876   5.988   5.130   6.416
 9993SOL     OW30877   2.622   1.317   1.310
 9993SOL    HW130878   2.661   1.237   1.265
 9993SOL    HW230879   2.689   1.391   1.312
 9994SOL     OW30880   6.143   4.273   3.075
 9994SOL    HW130881   6.222   4.250   3.131
 9994SOL    HW230882   6.174   4.319   2.992
 9995SOL     OW30883   4.534   1.657   3.734
 9995SOL    HW130884   4.539   1.557   3.734
 9995SOL    HW230885   4.515   1.689   3.642
 9996SOL     OW30886   2.829   4.177   6.955
 9996SOL    HW130887   2.848   4.188   0.033
 9996SOL    HW230888   2.775   4.255   6.923
 9997SOL     OW30889   3.280   1.472   5.883
 9997SOL    HW130890   3.241   1.409   5.951
 9997SOL    HW230891   3.377   1.486   5.904
 9998SOL     OW30892   6.109   5.394   4.844
 9998SOL    HW130893   6.031   5.452   4.818
 9998SOL    HW230894   6.171   5.386   4.766
 9999SOL     OW30895   6.088   3.062   5.795
 9999SOL    HW130896   6.178   3.064   5.838
 9999SOL    HW230897   6.030   3.132   5.835
10000SOL     OW30898   6.654   2.923   0.021
10000SOL    HW130899   6.592   2.971   0.084
10000SOL    HW230900   6.616   2.926   6.948
10001SOL     OW30901   4.539   0.666   2.100
10001SOL    HW130902   4.578   0.660   2.008
10001SOL    HW230903   4.441   0.688   2.092
10002SOL     OW30904   1.422   6.388   2.158
10002SOL    HW130905   1.444   6.472   2.208
10002SOL    HW230906   1.449   6.309   2.212
10003SOL     OW30907   3.175   1.987   4.057
10003SOL    HW130908   3.243   2.019   3.991
10003SOL    HW230909   3.129   2.067   4.097
10004SOL     OW30910   6.643   2.346   3.623
10004SOL    HW130911   6.736   2.381   3.635
10004SOL    HW230912   6.588   2.369   3.703
10005SOL     OW30913   5.310   0.416   2.969
10005SOL    HW130914   5.337   0.480   3.041
10005SOL    HW230915   5.211   0.413   2.962
10006SOL     OW30916   3.860   0.166   4.160
10006SOL    HW130917   3.855   0.215   4.247
10006SOL    HW230918   3.940   0.195   4.109
10007SOL     OW30919   0.435   3.844   5.035
10007SOL    HW130920   0.473   3.761   4.995
10007SOL    HW230921   0.358   3.876   4.979
10008SOL     OW30922   3.587   0.478   4.342
10008SOL    HW130923   3.527   0.547   4.302
10008SOL    HW230924   3.674   0.519   4.368
10009SOL     OW30925   1.901   4.105   1.900
10009SOL    HW130926   1.850   4.191   1.895
10009SOL    HW230927   1.837   4.030   1.919
10010SOL     OW30928   2.257   1.024   6.854
10010SOL    HW130929   2.158   1.022   6.865
10010SOL    HW230930   2.301   1.025   6.945
10011SOL     OW30931   6.955   0.413   5.039
10011SOL    HW130932   6.976   0.318   5.065
10011SOL    HW230933   6.856   0.423   5.027
10012SOL     OW30934   6.151   1.149   3.183
10012SOL    HW130935   6.140   1.246   3.164
10012SOL    HW230936   6.084   1.121   3.253
10013SOL     OW30937   0.316   0.649   2.749
10013SOL    HW130938   0.242   0.581   2.752
10013SOL    HW230939   0.333   0.683   2.841
10014SOL     OW30940   1.106   4.001   6.358
10014SOL    HW130941   1.048   4.076   6.327
10014SOL    HW230942   1.186   4.038   6.405
10015SOL     OW30943   1.798   5.103   0.210
10015SOL    HW130944   1.807   5.199   0.237
10015SOL    HW230945   1.813   5.044   0.290
10016SOL     OW30946   1.434   1.171   6.669
10016SOL    HW130947   1.397   1.099   6.728
10016SOL    HW230948   1.392   1.164   6.578
10017SOL     OW30949   2.777   2.023   4.383
10017SOL    HW130950   2.772   2.069   4.472
10017SOL    HW230951   2.836   1.943   4.391
10018SOL     OW30952   5.474   7.002   6.274
10018SOL    HW130953   5.552   0.040   6.254
10018SOL    HW230954   5.440   0.003   6.366
10019SOL     OW30955   1.182   1.309   2.722
10019SOL    HW130956   1.242   1.318   2.642
10019SOL    HW230957   1.194   1.219   2.762
10020SOL     OW30958   1.470   2.572   1.667
10020SOL    HW130959   1.412   2.491   1.679
10020SOL    HW230960   1.461   2.631   1.747
10021SOL     OW30961   6.957   3.496   0.576
10021SOL    HW130962   6.924   3.464   0.487
10021SOL    HW230963   6.967   3.595   0.574
10022SOL     OW30964   1.685   1.236   6.258
10022SOL    HW130965   1.734   1.206   6.340
10022SOL    HW230966   1.588   1.243   6.278
10023SOL     OW30967   6.326   3.924   0.633
10023SOL    HW130968   6.285   3.835   0.613
10023SOL    HW230969   6.370   3.920   0.723
10024SOL     OW30970   1.404   5.243   3.847
10024SOL    HW130971   1.467   5.315   3.877
10024SOL    HW230972   1.387   5.253   3.748
10025SOL     OW30973   2.233   0.478   1.226
10025SOL    HW130974   2.318   0.532   1.222
10025SOL    HW230975   2.155   0.537   1.206
10026SOL     OW30976   5.742   0.219   3.435
10026SOL    HW130977   5.663   0.175   3.393
10026SOL    HW230978   5.822   0.206   3.378
10027SOL     OW30979   5.851   3.533   4.446
10027SOL    HW130980   5.888   3.606   4.504
10027SOL    HW230981   5.764   3.501   4.485
10028SOL     OW30982   1.937   0.882   0.562
10028SOL    HW130983   1.869   0.948   0.593
10028SOL    HW230984   1.968   0.828   0.641
10029SOL     OW30985   5.728   1.800   3.250
10029SOL    HW130986   5.800   1.839   3.307
10029SOL    HW230987   5.689   1.720   3.296
10030SOL     OW30988   1.939   0.710   3.896
10030SOL    HW130989   2.018   0.653   3.876
10030SOL    HW230990   1.873   0.703   3.822
10031SOL     OW30991   5.083   4.718   3.181
10031SOL    HW130992   5.060   4.729   3.085
10031SOL    HW230993   5.172   4.760   3.199
10032SOL     OW30994   2.641   1.660   5.355
10032SOL    HW130995   2.671   1.587   5.294
10032SOL    HW230996   2.657   1.633   5.450
10033SOL     OW30997   5.647   2.919   4.413
10033SOL    HW130998   5.631   2.820   4.422
10033SOL    HW230999   5.587   2.956   4.342
10034SOL     OW31000   3.993   0.040   5.498
10034SOL    HW131001   3.929   0.105   5.539
10034SOL    HW231002   3.964   0.018   5.405
10035SOL     OW31003   6.956   4.962   1.299
10035SOL    HW131004   6.883   4.898   1.274
10035SOL    HW231005   7.007   4.926   1.377
10036SOL     OW31006   6.856   1.680   0.195
10036SOL    HW131007   6.860   1.686   0.095
10036SOL    HW231008   6.865   1.771   0.235
10037SOL     OW31009   0.133   0.527   6.393
10037SOL    HW131010   0.171   0.457   6.332
10037SOL    HW231011   0.171   0.515   6.485
10038SOL     OW31012   6.592   6.638   1.212
10038SOL    HW131013   6.540   6.724   1.210
10038SOL    HW231014   6.629   6.619   1.121
10039SOL     OW31015   3.005   0.796   3.940
10039SOL    HW131016   2.987   0.825   3.846
10039SOL    HW231017   3.081   0.731   3.941
10040SOL     OW31018   6.737   3.247   0.638
10040SOL    HW131019   6.688   3.267   0.723
10040SOL    HW231020   6.761   3.150   0.635
10041SOL     OW31021   3.472   6.799   0.386
10041SOL    HW131022   3.481   6.703   0.359
10041SOL    HW231023   3.430   6.805   0.476
10042SOL     OW31024   6.842   2.300   2.684
10042SOL    HW131025   6.766   2.286   2.621
10042SOL    HW231026   6.898   2.218   2.687
10043SOL     OW31027   0.130   1.786   5.797
10043SOL    HW131028   0.183   1.793   5.882
10043SOL    HW231029   0.035   1.766   5.819
10044SOL     OW31030   2.814   2.295   5.434
10044SOL    HW131031   2.875   2.226   5.473
10044SOL    HW231032   2.725   2.254   5.414
10045SOL     OW31033   4.128   1.084   0.131
10045SOL    HW131034   4.107   0.989   0.155
10045SOL    HW231035   4.208   1.086   0.071
10046SOL     OW31036   1.385   5.205   1.343
10046SOL    HW131037   1.294   5.247   1.341
10046SOL    HW231038   1.383   5.124   1.401
10047SOL     OW31039   0.528   3.106   0.056
10047SOL    HW131040   0.506   3.164   6.997
10047SOL    HW231041   0.479   3.019   0.048
10048SOL     OW31042   5.915   6.590   2.336
10048SOL    HW131043   5.830   6.620   2.293
10048SOL    HW231044   5.980   6.666   2.338
10049SOL     OW31045   0.142   1.367   5.262
10049SOL    HW131046   0.078   1.427   5.309
10049SOL    HW231047   0.223   1.353   5.320
10050SOL     OW31048   5.658   3.188   5.606
10050SOL    HW131049   5.649   3.127   5.527
10050SOL    HW231050   5.690   3.136   5.685
10051SOL     OW31051   0.708   4.541   4.136
10051SOL    HW131052   0.777   4.481   4.097
10051SOL    HW231053   0.722   4.634   4.103
10052SOL     OW31054   1.578   0.177   3.480
10052SOL    HW131055   1.560   0.262   3.529
10052SOL    HW231056   1.636   0.118   3.536
10053SOL     OW31057   5.008   5.646   4.653
10053SOL    HW131058   4.990   5.553   4.621
10053SOL    HW231059   5.015   5.708   4.574
10054SOL     OW31060   5.754   3.957   4.564
10054SOL    HW131061   5.731   4.031   4.628
10054SOL    HW231062   5.670   3.920   4.526
10055SOL     OW31063   6.974   1.857   6.764
10055SOL    HW131064   6.916   1.826   6.839
10055SOL    HW231065   0.050   1.856   6.792
10056SOL     OW31066   6.058   2.992   3.516
10056SOL    HW131067   6.122   2.939   3.460
10056SOL    HW231068   6.107   3.068   3.560
10057SOL     OW31069   5.727   4.522   6.169
10057SOL    HW131070   5.661   4.472   6.226
10057SOL    HW231071   5.679   4.565   6.092
10058SOL     OW31072   6.505   3.699   5.229
10058SOL    HW131073   6.524   3.754   5.148
10058SOL    HW231074   6.585   3.645   5.253
10059SOL     OW31075   0.472   0.859   6.601
10059SOL    HW131076   0.554   0.893   6.648
10059SOL    HW231077   0.449   0.768   6.637
10060SOL     OW31078   2.542   2.131   2.584
10060SOL    HW131079   2.580   2.196   2.650
10060SOL    HW231080   2.489   2.061   2.633
10061SOL     OW31081   3.954   6.997   2.969
10061SOL    HW131082   3.859   0.008   2.979
10061SOL    HW231083   4.004   7.016   3.053
10062SOL     OW31084   6.192   0.264   3.910
10062SOL    HW131085   6.109   0.274   3.966
10062SOL    HW231086   6.253   0.342   3.926
10063SOL     OW31087   1.476   3.275   5.065
10063SOL    HW131088   1.555   3.336   5.070
10063SOL    HW231089   1.458   3.234   5.155
10064SOL     OW31090   2.824   6.423   0.643
10064SOL    HW131091   2.841   6.461   0.733
10064SOL    HW231092   2.725   6.417   0.626
10065SOL     OW31093   0.904   1.289   1.979
10065SOL    HW131094   0.842   1.260   1.906
10065SOL    HW231095   0.981   1.225   1.983
10066SOL     OW31096   6.275   3.522   3.597
10066SOL    HW131097   6.180   3.499   3.615
10066SOL    HW231098   6.282   3.620   3.574
10067SOL     OW31099   6.705   1.938   4.777
10067SOL    HW131100   6.752   2.005   4.719
10067SOL    HW231101   6.647   1.986   4.842
10068SOL     OW31102   1.766   2.570   2.670
10068SOL    HW131103   1.790   2.571   2.573
10068SOL    HW231104   1.749   2.663   2.702
10069SOL     OW31105   2.476   5.141   1.529
10069SOL    HW131106   2.425   5.223   1.501
10069SOL    HW231107   2.496   5.086   1.448
10070SOL     OW31108   3.993   5.623   5.389
10070SOL    HW131109   4.007   5.675   5.305
10070SOL    HW231110   3.898   5.594   5.396
10071SOL     OW31111   5.979   0.193   3.284
10071SOL    HW131112   6.061   0.245   3.306
10071SOL    HW231113   5.999   0.127   3.212
10072SOL     OW31114   6.686   2.253   2.080
10072SOL    HW131115   6.768   2.226   2.028
10072SOL    HW231116   6.687   2.352   2.094
10073SOL     OW31117   6.496   4.293   4.762
10073SOL    HW131118   6.405   4.254   4.760
10073SOL    HW231119   6.509   4.353   4.683
10074SOL     OW31120   1.123   4.579   0.521
10074SOL    HW131121   1.218   4.549   0.518
10074SOL    HW231122   1.118   4.677   0.503
10075SOL     OW31123   1.486   3.373   1.779
10075SOL    HW131124   1.393   3.409   1.772
10075SOL    HW231125   1.508   3.359   1.876
10076SOL     OW31126   5.131   5.679   4.111
10076SOL    HW131127   5.177   5.628   4.039
10076SOL    HW231128   5.045   5.633   4.135
10077SOL     OW31129   5.752   3.055   6.217
10077SOL    HW131130   5.757   3.155   6.215
10077SOL    HW231131   5.658   3.025   6.204
10078SOL     OW31132   6.467   6.586   4.800
10078SOL    HW131133   6.417   6.511   4.757
10078SOL    HW231134   6.555   6.552   4.835
10079SOL     OW31135   4.828   2.466   2.976
10079SOL    HW131136   4.784   2.379   3.000
10079SOL    HW231137   4.798   2.495   2.885
10080SOL     OW31138   5.167   0.423   6.382
10080SOL    HW131139   5.143   0.452   6.475
10080SOL    HW231140   5.265   0.404   6.378
10081SOL     OW31141   2.158   3.089   1.333
10081SOL    HW131142   2.251   3.090   1.297
10081SOL    HW231143   2.122   2.996   1.329
10082SOL     OW31144   1.059   4.297   1.204
10082SOL    HW131145   1.157   4.293   1.224
10082SOL    HW231146   1.020   4.206   1.206
10083SOL     OW31147   3.418   4.948   3.531
10083SOL    HW131148   3.325   4.966   3.498
10083SOL    HW231149   3.478   4.930   3.453
10084SOL     OW31150   0.902   0.708   4.577
10084SOL    HW131151   0.974   0.777   4.564
10084SOL    HW231152   0.914   0.634   4.512
10085SOL     OW31153   4.757   6.970   0.307
10085SOL    HW131154   4.679   6.982   0.368
10085SOL    HW231155   4.835   6.935   0.358
10086SOL     OW31156   0.031   6.649   2.491
10086SOL    HW131157   6.961   6.605   2.497
10086SOL    HW231158   0.058   6.656   2.396
10087SOL     OW31159   1.578   6.652   5.043
10087SOL    HW131160   1.573   6.746   5.074
10087SOL    HW231161   1.501   6.600   5.079
10088SOL     OW31162   0.345   2.543   6.853
10088SOL    HW131163   0.272   2.580   6.911
10088SOL    HW231164   0.416   2.612   6.840
10089SOL     OW31165   3.958   1.771   2.096
10089SOL    HW131166   3.921   1.701   2.034
10089SOL    HW231167   3.884   1.807   2.153
10090SOL     OW31168   2.430   6.008   2.493
10090SOL    HW131169   2.332   6.000   2.511
10090SOL    HW231170   2.473   6.065   2.563
10091SOL     OW31171   6.893   3.788   5.246
10091SOL    HW131172   6.803   3.746   5.253
10091SOL    HW231173   6.964   3.722   5.269
10092SOL     OW31174   0.633   1.712   4.236
10092SOL    HW131175   0.624   1.613   4.236
10092SOL    HW231176   0.687   1.741   4.315
10093SOL     OW31177   5.383   4.453   5.484
10093SOL    HW131178   5.321   4.529   5.504
10093SOL    HW231179   5.471   4.489   5.454
10094SOL     OW31180   3.597   1.279   0.761
10094SOL    HW131181   3.672   1.242   0.706
10094SOL    HW231182   3.613   1.259   0.857
10095SOL     OW31183   4.782   3.081   5.484
10095SOL    HW131184   4.685   3.080   5.506
10095SOL    HW231185   4.819   2.988   5.494
10096SOL     OW31186   5.389   1.829   2.693
10096SOL    HW131187   5.301   1.876   2.696
10096SOL    HW231188   5.408   1.799   2.599
10097SOL     OW31189   1.282   2.165   6.645
10097SOL    HW131190   1.223   2.105   6.593
10097SOL    HW231191   1.367   2.181   6.595
10098SOL     OW31192   3.416   5.592   3.915
10098SOL    HW131193   3.502   5.552   3.946
10098SOL    HW231194   3.348   5.585   3.988
10099SOL     OW31195   6.738   4.801   1.313
10099SOL    HW131196   6.701   4.737   1.381
10099SOL    HW231197   6.744   4.755   1.224
10100SOL     OW31198   4.481   5.265   4.339
10100SOL    HW131199   4.545   5.190   4.324
10100SOL    HW231200   4.399   5.251   4.284
10101SOL     OW31201   0.944   1.731   1.303
10101SOL    HW131202   1.009   1.712   1.230
10101SOL    HW231203   0.921   1.645   1.350
10102SOL     OW31204   6.862   6.156   2.854
10102SOL    HW131205   6.896   6.175   2.762
10102SOL    HW231206   6.762   6.161   2.854
10103SOL     OW31207   6.536   6.281   6.377
10103SOL    HW131208   6.468   6.352   6.361
10103SOL    HW231209   6.511   6.198   6.328
10104SOL     OW31210   2.449   0.205   4.454
10104SOL    HW131211   2.385   0.135   4.422
10104SOL    HW231212   2.489   0.176   4.541
10105SOL     OW31213   2.978   0.786   6.162
10105SOL    HW131214   3.040   0.864   6.175
10105SOL    HW231215   2.883   0.816   6.170
10106SOL     OW31216   5.438   5.506   1.271
10106SOL    HW131217   5.357   5.550   1.234
10106SOL    HW231218   5.508   5.499   1.200
10107SOL     OW31219   4.881   4.453   6.586
10107SOL    HW131220   4.812   4.410   6.528
10107SOL    HW231221   4.867   4.552   6.586
10108SOL     OW31222   1.951   2.834   0.032
10108SOL    HW131223   1.854   2.851   0.013
10108SOL    HW231224   2.007   2.889   6.989
10109SOL     OW31225   1.514   2.236   1.238
10109SOL    HW131226   1.602   2.238   1.191
10109SOL    HW231227   1.440   2.233   1.170
10110SOL     OW31228   4.905   6.297   2.676
10110SOL    HW131229   4.877   6.366   2.609
10110SOL    HW231230   4.903   6.338   2.768
10111SOL     OW31231   1.382   2.335   2.077
10111SOL    HW131232   1.368   2.276   2.157
10111SOL    HW231233   1.478   2.335   2.052
10112SOL     OW31234   0.027   2.441   3.300
10112SOL    HW131235   6.985   2.509   3.340
10112SOL    HW231236   7.011   2.410   3.212
10113SOL     OW31237   6.780   0.773   5.836
10113SOL    HW131238   6.836   0.848   5.800
10113SOL    HW231239   6.790   0.693   5.777
10114SOL     OW31240   4.823   1.873   1.852
10114SOL    HW131241   4.732   1.844   1.880
10114SOL    HW231242   4.820   1.969   1.823
10115SOL     OW31243   3.788   3.314   6.229
10115SOL    HW131244   3.710   3.264   6.268
10115SOL    HW231245   3.798   3.401   6.276
10116SOL     OW31246   6.630   0.936   4.440
10116SOL    HW131247   6.656   0.839   4.435
10116SOL    HW231248   6.695   0.984   4.499
10117SOL     OW31249   6.262   4.182   3.782
10117SOL    HW131250   6.210   4.153   3.701
10117SOL    HW231251   6.221   4.264   3.820
10118SOL     OW31252   4.364   5.922   4.467
10118SOL    HW131253   4.333   5.917   4.562
10118SOL    HW231254   4.309   5.989   4.418
10119SOL     OW31255   6.989   5.104   5.673
10119SOL    HW131256   0.002   5.198   5.663
10119SOL    HW231257   0.016   5.045   5.608
10120SOL     OW31258   2.073   3.193   2.177
10120SOL    HW131259   1.980   3.213   2.149
10120SOL    HW231260   2.111   3.271   2.227
10121SOL     OW31261   6.245   4.196   1.017
10121SOL    HW131262   6.304   4.128   0.972
10121SOL    HW231263   6.290   4.285   1.016
10122SOL     OW31264   1.045   0.298   4.091
10122SOL    HW131265   1.087   0.280   4.002
10122SOL    HW231266   0.957   0.344   4.077
10123SOL     OW31267   6.410   5.202   6.585
10123SOL    HW131268   6.371   5.288   6.553
10123SOL    HW231269   6.337   5.139   6.609
10124SOL     OW31270   1.551   5.242   2.957
10124SOL    HW131271   1.603   5.284   3.031
10124SOL    HW231272   1.472   5.300   2.934
10125SOL     OW31273   2.072   1.511   5.402
10125SOL    HW131274   2.138   1.488   5.331
10125SOL    HW231275   1.982   1.527   5.360
10126SOL     OW31276   6.717   6.422   6.673
10126SOL    HW131277   6.705   6.493   6.744
10126SOL    HW231278   6.629   6.379   6.655
10127SOL     OW31279   2.368   6.430   6.315
10127SOL    HW131280   2.411   6.490   6.248
10127SOL    HW231281   2.285   6.473   6.350
10128SOL     OW31282   3.035   2.032   6.787
10128SOL    HW131283   2.974   2.090   6.733
10128SOL    HW231284   3.130   2.053   6.764
10129SOL     OW31285   6.119   1.599   4.967
10129SOL    HW131286   6.096   1.610   4.870
10129SOL    HW231287   6.066   1.523   5.005
10130SOL     OW31288   1.456   1.506   2.924
10130SOL    HW131289   1.491   1.553   2.843
10130SOL    HW231290   1.390   1.565   2.971
10131SOL     OW31291   1.361   6.385   4.062
10131SOL    HW131292   1.412   6.320   4.118
10131SOL    HW231293   1.369   6.476   4.101
10132SOL     OW31294   6.841   0.851   1.544
10132SOL    HW131295   6.879   0.937   1.578
10132SOL    HW231296   6.752   0.834   1.586
10133SOL     OW31297   5.912   6.390   0.036
10133SOL    HW131298   6.010   6.397   0.056
10133SOL    HW231299   5.859   6.423   0.114
10134SOL     OW31300   6.324   6.933   2.112
10134SOL    HW131301   6.237   6.901   2.149
10134SOL    HW231302   6.308   6.981   2.026
10135SOL     OW31303   6.349   0.072   2.561
10135SOL    HW131304   6.398   0.160   2.561
10135SOL    HW231305   6.278   0.074   2.631
10136SOL     OW31306   5.257   1.720   2.261
10136SOL    HW131307   5.228   1.633   2.301
10136SOL    HW231308   5.179   1.761   2.213
10137SOL     OW31309   6.332   5.607   5.443
10137SOL    HW131310   6.392   5.686   5.428
10137SOL    HW231311   6.386   5.530   5.477
10138SOL     OW31312   0.768   2.047   0.310
10138SOL    HW131313   0.864   2.032   0.332
10138SOL    HW231314   0.712   2.029   0.390
10139SOL     OW31315   3.521   3.023   6.535
10139SOL    HW131316   3.486   3.110   6.570
10139SOL    HW231317   3.593   2.989   6.596
10140SOL     OW31318   0.884   6.576   5.503
10140SOL    HW131319   0.934   6.547   5.421
10140SOL    HW231320   0.913   6.668   5.529
10141SOL     OW31321   1.784   2.762   4.606
10141SOL    HW131322   1.816   2.668   4.617
10141SOL    HW231323   1.721   2.785   4.680
10142SOL     OW31324   3.797   6.365   3.945
10142SOL    HW131325   3.879   6.341   3.996
10142SOL    HW231326   3.762   6.284   3.898
10143SOL     OW31327   4.921   3.238   6.806
10143SOL    HW131328   4.916   3.331   6.845
10143SOL    HW231329   4.949   3.244   6.711
10144SOL     OW31330   3.992   6.707   6.295
10144SOL    HW131331   4.028   6.620   6.258
10144SOL    HW231332   3.918   6.688   6.359
10145SOL     OW31333   5.191   6.249   6.248
10145SOL    HW131334   5.265   6.289   6.302
10145SOL    HW231335   5.224   6.169   6.199
10146SOL     OW31336   0.197   2.780   4.328
10146SOL    HW131337   0.270   2.750   4.266
10146SOL    HW231338   0.227   2.770   4.423
10147SOL     OW31339   5.014   5.288   5.555
10147SOL    HW131340   4.940   5.223   5.570
10147SOL    HW231341   5.011   5.321   5.461
10148SOL     OW31342   0.933   4.182   0.828
10148SOL    HW131343   0.989   4.258   0.794
10148SOL    HW231344   0.838   4.196   0.803
10149SOL     OW31345   3.493   4.514   0.354
10149SOL    HW131346   3.448   4.603   0.351
10149SOL    HW231347   3.568   4.513   0.288
10150SOL     OW31348   4.088   4.547   0.997
10150SOL    HW131349   4.013   4.498   0.952
10150SOL    HW231350   4.053   4.630   1.040
10151SOL     OW31351   6.071   6.799   5.558
10151SOL    HW131352   6.165   6.766   5.563
10151SOL    HW231353   6.070   6.890   5.516
10152SOL     OW31354   4.164   6.418   2.546
10152SOL    HW131355   4.126   6.376   2.463
10152SOL    HW231356   4.236   6.482   2.521
10153SOL     OW31357   4.590   4.474   2.689
10153SOL    HW131358   4.510   4.504   2.741
10153SOL    HW231359   4.576   4.496   2.592
10154SOL     OW31360   5.312   5.479   5.574
10154SOL    HW131361   5.254   5.554   5.543
10154SOL    HW231362   5.355   5.435   5.495
10155SOL     OW31363   4.167   1.784   4.769
10155SOL    HW131364   4.228   1.816   4.697
10155SOL    HW231365   4.153   1.685   4.760
10156SOL     OW31366   5.054   2.533   0.499
10156SOL    HW131367   4.959   2.544   0.528
10156SOL    HW231368   5.081   2.610   0.441
10157SOL     OW31369   0.306   3.516   1.332
10157SOL    HW131370   0.360   3.455   1.274
10157SOL    HW231371   0.229   3.465   1.371
10158SOL     OW31372   6.212   4.911   0.376
10158SOL    HW131373   6.124   4.919   0.329
10158SOL    HW231374   6.225   4.990   0.436
10159SOL     OW31375   3.294   3.004   1.754
10159SOL    HW131376   3.260   3.098   1.756
10159SOL    HW231377   3.265   2.956   1.837
10160SOL     OW31378   1.132   5.023   2.898
10160SOL    HW131379   1.085   4.963   2.834
10160SOL    HW231380   1.227   5.033   2.871
10161SOL     OW31381   5.133   3.289   5.488
10161SOL    HW131382   5.161   3.329   5.401
10161SOL    HW231383   5.110   3.363   5.552
10162SOL     OW31384   1.813   3.227   2.359
10162SOL    HW131385   1.878   3.267   2.423
10162SOL    HW231386   1.783   3.138   2.393
10163SOL     OW31387   2.174   6.077   5.597
10163SOL    HW131388   2.260   6.122   5.576
10163SOL    HW231389   2.149   6.094   5.692
10164SOL     OW31390   1.185   2.719   3.189
10164SOL    HW131391   1.219   2.789   3.128
10164SOL    HW231392   1.140   2.647   3.136
10165SOL     OW31393   6.961   3.947   4.152
10165SOL    HW131394   6.920   3.873   4.100
10165SOL    HW231395   6.989   3.913   4.242
10166SOL     OW31396   2.535   0.843   1.656
10166SOL    HW131397   2.509   0.940   1.650
10166SOL    HW231398   2.456   0.786   1.632
10167SOL     OW31399   2.487   0.966   6.431
10167SOL    HW131400   2.521   0.878   6.464
10167SOL    HW231401   2.402   0.952   6.380
10168SOL     OW31402   6.626   0.781   6.457
10168SOL    HW131403   6.641   0.732   6.543
10168SOL    HW231404   6.670   0.871   6.462
10169SOL     OW31405   5.677   2.964   3.784
10169SOL    HW131406   5.768   2.967   3.826
10169SOL    HW231407   5.651   3.056   3.755
10170SOL     OW31408   5.596   5.571   6.675
10170SOL    HW131409   5.641   5.526   6.597
10170SOL    HW231410   5.655   5.643   6.709
10171SOL     OW31411   2.241   3.649   6.021
10171SOL    HW131412   2.179   3.727   6.023
10171SOL    HW231413   2.332   3.678   6.052
10172SOL     OW31414   5.864   0.529   3.047
10172SOL    HW131415   5.811   0.467   2.989
10172SOL    HW231416   5.812   0.612   3.063
10173SOL     OW31417   3.322   4.090   5.070
10173SOL    HW131418   3.291   4.134   5.154
10173SOL    HW231419   3.411   4.129   5.043
10174SOL     OW31420   4.076   5.570   2.991
10174SOL    HW131421   4.133   5.498   3.031
10174SOL    HW231422   4.086   5.569   2.892
10175SOL     OW31423   0.367   1.079   3.276
10175SOL    HW131424   0.427   1.154   3.247
10175SOL    HW231425   0.312   1.049   3.198
10176SOL     OW31426   6.630   1.372   5.813
10176SOL    HW131427   6.578   1.349   5.731
10176SOL    HW231428   6.710   1.426   5.788
10177SOL     OW31429   2.634   0.997   3.677
10177SOL    HW131430   2.603   0.987   3.582
10177SOL    HW231431   2.651   1.094   3.696
10178SOL     OW31432   0.871   2.098   0.609
10178SOL    HW131433   0.939   2.031   0.638
10178SOL    HW231434   0.780   2.056   0.610
10179SOL     OW31435   7.014   4.700   0.871
10179SOL    HW131436   0.052   4.669   0.795
10179SOL    HW231437   6.934   4.747   0.835
10180SOL     OW31438   4.529   6.862   5.413
10180SOL    HW131439   4.453   6.894   5.470
10180SOL    HW231440   4.499   6.783   5.359
10181SOL     OW31441   6.130   3.498   2.359
10181SOL    HW131442   6.127   3.412   2.410
10181SOL    HW231443   6.039   3.517   2.322
10182SOL     OW31444   5.084   2.268   0.424
10182SOL    HW131445   5.057   2.359   0.454
10182SOL    HW231446   5.129   2.220   0.499
10183SOL     OW31447   5.837   1.602   6.480
10183SOL    HW131448   5.936   1.601   6.490
10183SOL    HW231449   5.795   1.598   6.570
10184SOL     OW31450   5.661   1.914   5.551
10184SOL    HW131451   5.744   1.860   5.558
10184SOL    HW231452   5.617   1.919   5.641
10185SOL     OW31453   3.689   5.521   1.905
10185SOL    HW131454   3.683   5.536   2.004
10185SOL    HW231455   3.694   5.422   1.887
10186SOL     OW31456   3.480   3.589   5.788
10186SOL    HW131457   3.440   3.498   5.796
10186SOL    HW231458   3.412   3.652   5.750
10187SOL     OW31459   2.023   4.489   6.518
10187SOL    HW131460   1.945   4.427   6.522
10187SOL    HW231461   2.107   4.437   6.505
10188SOL     OW31462   3.613   0.639   6.502
10188SOL    HW131463   3.518   0.618   6.478
10188SOL    HW231464   3.655   0.558   6.543
10189SOL     OW31465   1.228   1.859   6.290
10189SOL    HW131466   1.260   1.786   6.230
10189SOL    HW231467   1.282   1.942   6.273
10190SOL     OW31468   4.071   5.666   1.641
10190SOL    HW131469   4.029   5.670   1.550
10190SOL    HW231470   4.154   5.721   1.641
10191SOL     OW31471   5.582   6.512   6.454
10191SOL    HW131472   5.576   6.503   6.355
10191SOL    HW231473   5.576   6.609   6.479
10192SOL     OW31474   1.829   1.873   4.205
10192SOL    HW131475   1.889   1.905   4.132
10192SOL    HW231476   1.819   1.944   4.274
10193SOL     OW31477   3.288   3.503   3.776
10193SOL    HW131478   3.339   3.452   3.706
10193SOL    HW231479   3.279   3.447   3.858
10194SOL     OW31480   2.830   0.408   3.429
10194SOL    HW131481   2.881   0.332   3.390
10194SOL    HW231482   2.893   0.473   3.470
10195SOL     OW31483   3.801   6.395   2.276
10195SOL    HW131484   3.739   6.413   2.199
10195SOL    HW231485   3.749   6.353   2.351
10196SOL     OW31486   5.911   2.063   3.683
10196SOL    HW131487   5.909   2.132   3.755
10196SOL    HW231488   5.915   2.107   3.594
10197SOL     OW31489   5.788   0.251   1.444
10197SOL    HW131490   5.789   0.153   1.423
10197SOL    HW231491   5.705   0.274   1.495
10198SOL     OW31492   2.698   6.933   0.783
10198SOL    HW131493   2.742   6.856   0.737
10198SOL    HW231494   2.748   7.017   0.763
10199SOL     OW31495   0.910   1.074   0.526
10199SOL    HW131496   0.887   1.052   0.431
10199SOL    HW231497   0.836   1.043   0.586
10200SOL     OW31498   5.291   3.984   4.568
10200SOL    HW131499   5.211   3.932   4.539
10200SOL    HW231500   5.261   4.064   4.621
10201SOL     OW31501   1.686   5.069   2.800
10201SOL    HW131502   1.771   5.104   2.759
10201SOL    HW231503   1.647   5.138   2.859
10202SOL     OW31504   0.766   3.334   2.332
10202SOL    HW131505   0.783   3.271   2.257
10202SOL    HW231506   0.842   3.399   2.338
10203SOL     OW31507   1.768   3.576   2.445
10203SOL    HW131508   1.671   3.565   2.423
10203SOL    HW231509   1.777   3.613   2.537
10204SOL     OW31510   3.071   4.815   5.127
10204SOL    HW131511   3.132   4.774   5.195
10204SOL    HW231512   3.001   4.749   5.101
10205SOL     OW31513   4.777   1.522   3.420
10205SOL    HW131514   4.847   1.489   3.356
10205SOL    HW231515   4.793   1.482   3.510
10206SOL     OW31516   5.152   6.894   6.860
10206SOL    HW131517   5.196   6.878   6.948
10206SOL    HW231518   5.207   6.853   6.787
10207SOL     OW31519   4.441   1.221   2.858
10207SOL    HW131520   4.471   1.240   2.765
10207SOL    HW231521   4.341   1.227   2.863
10208SOL     OW31522   5.725   4.170   5.014
10208SOL    HW131523   5.816   4.130   5.021
10208SOL    HW231524   5.731   4.261   4.973
10209SOL     OW31525   5.957   0.400   6.492
10209SOL    HW131526   5.959   0.478   6.555
10209SOL    HW231527   5.990   0.429   6.402
10210SOL     OW31528   5.140   5.622   1.811
10210SOL    HW131529   5.158   5.631   1.713
10210SOL    HW231530   5.130   5.713   1.852
10211SOL     OW31531   4.333   5.273   5.375
10211SOL    HW131532   4.277   5.355   5.384
10211SOL    HW231533   4.280   5.193   5.404
10212SOL     OW31534   6.939   0.541   5.289
10212SOL    HW131535   7.004   0.615   5.303
10212SOL    HW231536   6.938   0.515   5.192
10213SOL     OW31537   6.365   1.010   2.767
10213SOL    HW131538   6.322   1.011   2.858
10213SOL    HW231539   6.298   0.978   2.699
10214SOL     OW31540   6.945   0.661   1.910
10214SOL    HW131541   7.005   0.707   1.845
10214SOL    HW231542   6.996   0.637   1.992
10215SOL     OW31543   4.008   3.982   6.977
10215SOL    HW131544   4.076   3.947   0.022
10215SOL    HW231545   3.930   3.919   6.973
10216SOL     OW31546   5.123   0.146   1.379
10216SOL    HW131547   5.210   0.134   1.428
10216SOL    HW231548   5.111   0.243   1.358
10217SOL     OW31549   2.553   1.901   5.069
10217SOL    HW131550   2.489   1.840   5.117
10217SOL    HW231551   2.640   1.903   5.117
10218SOL     OW31552   2.545   1.774   0.458
10218SOL    HW131553   2.635   1.748   0.424
10218SOL    HW231554   2.513   1.856   0.411
10219SOL     OW31555   0.869   3.367   0.736
10219SOL    HW131556   0.798   3.389   0.669
10219SOL    HW231557   0.957   3.357   0.688
10220SOL     OW31558   4.144   1.910   1.138
10220SOL    HW131559   4.193   1.823   1.134
10220SOL    HW231560   4.180   1.965   1.214
10221SOL     OW31561   2.782   0.085   5.100
10221SOL    HW131562   2.866   0.139   5.096
10221SOL    HW231563   2.762   0.047   5.010
10222SOL     OW31564   1.787   5.401   5.795
10222SOL    HW131565   1.712   5.465   5.808
10222SOL    HW231566   1.782   5.329   5.864
10223SOL     OW31567   0.194   4.651   0.677
10223SOL    HW131568   0.274   4.596   0.702
10223SOL    HW231569   0.221   4.722   0.613
10224SOL     OW31570   1.462   0.336   4.098
10224SOL    HW131571   1.557   0.327   4.067
10224SOL    HW231572   1.422   0.245   4.109
10225SOL     OW31573   6.375   6.157   4.022
10225SOL    HW131574   6.382   6.083   3.956
10225SOL    HW231575   6.359   6.243   3.974
10226SOL     OW31576   1.392   1.316   0.529
10226SOL    HW131577   1.396   1.407   0.488
10226SOL    HW231578   1.298   1.281   0.524
10227SOL     OW31579   5.486   4.898   6.540
10227SOL    HW131580   5.455   4.879   6.633
10227SOL    HW231581   5.492   4.813   6.488
10228SOL     OW31582   0.866   5.859   2.960
10228SOL    HW131583   0.960   5.885   2.978
10228SOL    HW231584   0.864   5.773   2.909
10229SOL     OW31585   1.351   0.079   2.677
10229SOL    HW131586   1.425   0.073   2.610
10229SOL    HW231587   1.386   0.116   2.763
10230SOL     OW31588   6.671   0.740   3.321
10230SOL    HW131589   6.712   0.658   3.362
10230SOL    HW231590   6.716   0.759   3.234
10231SOL     OW31591   4.965   0.182   5.081
10231SOL    HW131592   5.052   0.180   5.131
10231SOL    HW231593   4.890   0.190   5.147
10232SOL     OW31594   3.355   2.147   4.904
10232SOL    HW131595   3.338   2.178   4.810
10232SOL    HW231596   3.288   2.188   4.966
10233SOL     OW31597   4.853   1.444   5.896
10233SOL    HW131598   4.813   1.499   5.968
10233SOL    HW231599   4.781   1.396   5.845
10234SOL     OW31600   4.738   6.109   1.714
10234SOL    HW131601   4.687   6.048   1.774
10234SOL    HW231602   4.802   6.164   1.767
10235SOL     OW31603   5.769   1.303   6.753
10235SOL    HW131604   5.791   1.258   6.839
10235SOL    HW231605   5.775   1.402   6.764
10236SOL     OW31606   2.273   5.539   2.232
10236SOL    HW131607   2.239   5.447   2.214
10236SOL    HW231608   2.373   5.537   2.237
10237SOL     OW31609   6.241   3.013   2.641
10237SOL    HW131610   6.331   2.972   2.628
10237SOL    HW231611   6.186   2.955   2.701
10238SOL     OW31612   4.812   4.451   4.758
10238SOL    HW131613   4.713   4.466   4.759
10238SOL    HW231614   4.850   4.496   4.677
10239SOL     OW31615   0.065   4.215   4.384
10239SOL    HW131616   0.161   4.215   4.358
10239SOL    HW231617   0.045   4.296   4.438
10240SOL     OW31618   0.042   4.309   4.104
10240SOL    HW131619   0.011   4.222   4.142
10240SOL    HW231620   0.076   4.295   4.011
10241SOL     OW31621   2.168   0.813   2.470
10241SOL    HW131622   2.238   0.885   2.471
10241SOL    HW231623   2.138   0.795   2.564
10242SOL     OW31624   6.804   7.001   5.963
10242SOL    HW131625   6.844   6.942   6.033
10242SOL    HW231626   6.848   0.071   5.965
10243SOL     OW31627   1.413   5.711   1.739
10243SOL    HW131628   1.376   5.669   1.655
10243SOL    HW231629   1.438   5.639   1.803
10244SOL     OW31630   2.295   6.241   0.296
10244SOL    HW131631   2.321   6.328   0.339
10244SOL    HW231632   2.314   6.245   0.198
10245SOL     OW31633   2.535   2.109   6.914
10245SOL    HW131634   2.581   2.193   6.886
10245SOL    HW231635   2.453   2.132   6.967
10246SOL     OW31636   3.277   3.972   4.513
10246SOL    HW131637   3.307   4.025   4.433
10246SOL    HW231638   3.287   4.028   4.595
10247SOL     OW31639   0.726   4.536   5.295
10247SOL    HW131640   0.818   4.566   5.317
10247SOL    HW231641   0.721   4.436   5.301
10248SOL     OW31642   3.713   0.244   2.075
10248SOL    HW131643   3.708   0.247   1.975
10248SOL    HW231644   3.805   0.268   2.105
10249SOL     OW31645   5.209   1.168   6.123
10249SOL    HW131646   5.242   1.183   6.216
10249SOL    HW231647   5.208   1.256   6.073
10250SOL     OW31648   6.516   0.452   7.015
10250SOL    HW131649   6.562   0.512   6.949
10250SOL    HW231650   6.552   0.470   0.087
10251SOL     OW31651   2.558   3.885   0.295
10251SOL    HW131652   2.539   3.874   0.197
10251SOL    HW231653   2.628   3.820   0.323
10252SOL     OW31654   6.738   4.998   2.022
10252SOL    HW131655   6.825   5.046   2.010
10252SOL    HW231656   6.746   4.930   2.095
10253SOL     OW31657   3.936   5.578   6.892
10253SOL    HW131658   3.984   5.531   6.966
10253SOL    HW231659   3.897   5.511   6.829
10254SOL     OW31660   2.201   2.475   5.115
10254SOL    HW131661   2.199   2.563   5.069
10254SOL    HW231662   2.294   2.437   5.110
10255SOL     OW31663   3.232   5.897   2.337
10255SOL    HW131664   3.146   5.938   2.306
10255SOL    HW231665   3.234   5.893   2.436
10256SOL     OW31666   6.152   0.190   6.469
10256SOL    HW131667   6.233   0.245   6.448
10256SOL    HW231668   6.078   0.251   6.498
10257SOL     OW31669   1.190   6.003   5.768
10257SOL    HW131670   1.104   6.022   5.722
10257SOL    HW231671   1.261   5.986   5.700
10258SOL     OW31672   3.987   0.322   3.232
10258SOL    HW131673   4.041   0.400   3.199
10258SOL    HW231674   3.906   0.355   3.280
10259SOL     OW31675   7.011   4.017   3.170
10259SOL    HW131676   7.013   4.093   3.235
10259SOL    HW231677   6.918   4.007   3.134
10260SOL     OW31678   1.231   0.048   1.785
10260SOL    HW131679   1.217   6.972   1.809
10260SOL    HW231680   1.171   0.106   1.840
10261SOL     OW31681   1.200   5.729   2.656
10261SOL    HW131682   1.298   5.743   2.641
10261SOL    HW231683   1.183   5.712   2.752
10262SOL     OW31684   1.493   4.604   5.118
10262SOL    HW131685   1.430   4.526   5.117
10262SOL    HW231686   1.441   4.689   5.130
10263SOL     OW31687   6.373   1.890   5.775
10263SOL    HW131688   6.384   1.949   5.696
10263SOL    HW231689   6.280   1.853   5.777
10264SOL     OW31690   0.222   0.746   5.921
10264SOL    HW131691   0.302   0.694   5.893
10264SOL    HW231692   0.251   0.829   5.969
10265SOL     OW31693   3.919   1.320   2.218
10265SOL    HW131694   3.873   1.300   2.304
10265SOL    HW231695   3.852   1.332   2.145
10266SOL     OW31696   3.095   4.188   6.448
10266SOL    HW131697   3.032   4.242   6.504
10266SOL    HW231698   3.187   4.228   6.454
10267SOL     OW31699   6.988   2.234   6.138
10267SOL    HW131700   0.006   2.150   6.099
10267SOL    HW231701   0.003   2.313   6.087
10268SOL     OW31702   5.776   5.861   1.715
10268SOL    HW131703   5.682   5.846   1.683
10268SOL    HW231704   5.806   5.952   1.687
10269SOL     OW31705   2.739   2.731   6.314
10269SOL    HW131706   2.643   2.707   6.328
10269SOL    HW231707   2.748   2.787   6.231
10270SOL     OW31708   1.629   5.840   0.774
10270SOL    HW131709   1.532   5.827   0.795
10270SOL    HW231710   1.679   5.854   0.860
10271SOL     OW31711   4.534   4.573   1.307
10271SOL    HW131712   4.531   4.503   1.235
10271SOL    HW231713   4.441   4.604   1.327
10272SOL     OW31714   1.015   0.929   5.739
10272SOL    HW131715   0.956   0.988   5.795
10272SOL    HW231716   0.959   0.867   5.685
10273SOL     OW31717   3.844   5.626   4.801
10273SOL    HW131718   3.855   5.567   4.881
10273SOL    HW231719   3.774   5.587   4.741
10274SOL     OW31720   1.328   5.234   5.862
10274SOL    HW131721   1.339   5.285   5.947
10274SOL    HW231722   1.237   5.253   5.824
10275SOL     OW31723   1.259   6.660   2.726
10275SOL    HW131724   1.202   6.646   2.808
10275SOL    HW231725   1.251   6.755   2.697
10276SOL     OW31726   6.201   5.746   5.978
10276SOL    HW131727   6.186   5.651   5.952
10276SOL    HW231728   6.291   5.776   5.945
10277SOL     OW31729   2.560   6.439   4.481
10277SOL    HW131730   2.549   6.427   4.580
10277SOL    HW231731   2.647   6.399   4.453
10278SOL     OW31732   6.230   0.504   5.602
10278SOL    HW131733   6.212   0.410   5.633
10278SOL    HW231734   6.160   0.565   5.640
10279SOL     OW31735   3.399   6.659   4.180
10279SOL    HW131736   3.403   6.573   4.128
10279SOL    HW231737   3.491   6.688   4.204
10280SOL     OW31738   1.729   4.153   0.113
10280SOL    HW131739   1.707   4.228   0.174
10280SOL    HW231740   1.817   4.170   0.068
10281SOL     OW31741   4.369   0.635   3.713
10281SOL    HW131742   4.318   0.678   3.788
10281SOL    HW231743   4.317   0.558   3.677
10282SOL     OW31744   1.117   1.725   4.456
10282SOL    HW131745   1.151   1.779   4.379
10282SOL    HW231746   1.191   1.673   4.496
10283SOL     OW31747   1.242   3.813   0.128
10283SOL    HW131748   1.275   3.863   0.208
10283SOL    HW231749   1.173   3.746   0.156
10284SOL     OW31750   5.702   3.028   5.388
10284SOL    HW131751   5.748   2.940   5.382
10284SOL    HW231752   5.603   3.014   5.377
10285SOL     OW31753   5.802   0.047   0.795
10285SOL    HW131754   5.719   0.038   0.740
10285SOL    HW231755   5.860   6.986   0.782
10286SOL     OW31756   3.986   0.514   3.570
10286SOL    HW131757   3.932   0.488   3.490
10286SOL    HW231758   4.058   0.447   3.586
10287SOL     OW31759   1.871   6.498   1.927
10287SOL    HW131760   1.782   6.454   1.915
10287SOL    HW231761   1.874   6.543   2.016
10288SOL     OW31762   6.004   6.309   3.863
10288SOL    HW131763   6.055   6.333   3.946
10288SOL    HW231764   5.983   6.392   3.812
10289SOL     OW31765   3.522   0.979   1.864
10289SOL    HW131766   3.435   1.024   1.844
10289SOL    HW231767   3.596   1.030   1.821
10290SOL     OW31768   4.101   3.532   2.750
10290SOL    HW131769   4.105   3.433   2.736
10290SOL    HW231770   4.105   3.578   2.661
10291SOL     OW31771   3.086   0.650   5.375
10291SOL    HW131772   3.169   0.705   5.368
10291SOL    HW231773   3.033   0.658   5.291
10292SOL     OW31774   0.488   1.107   4.438
10292SOL    HW131775   0.555   1.171   4.478
10292SOL    HW231776   0.537   1.031   4.395
10293SOL     OW31777   2.290   5.970   3.708
10293SOL    HW131778   2.354   6.022   3.765
10293SOL    HW231779   2.313   5.984   3.612
10294SOL     OW31780   5.587   1.376   3.350
10294SOL    HW131781   5.627   1.395   3.261
10294SOL    HW231782   5.575   1.278   3.361
10295SOL     OW31783   0.316   5.682   6.211
10295SOL    HW131784   0.250   5.658   6.283
10295SOL    HW231785   0.396   5.622   6.217
10296SOL     OW31786   6.783   2.985   0.595
10296SOL    HW131787   6.868   2.960   0.549
10296SOL    HW231788   6.707   2.977   0.531
10297SOL     OW31789   1.538   5.383   5.091
10297SOL    HW131790   1.543   5.480   5.117
10297SOL    HW231791   1.488   5.374   5.005
10298SOL     OW31792   4.855   3.475   3.688
10298SOL    HW131793   4.823   3.381   3.702
10298SOL    HW231794   4.949   3.473   3.653
10299SOL     OW31795   5.016   4.243   3.247
10299SOL    HW131796   4.963   4.325   3.268
10299SOL    HW231797   5.074   4.260   3.168
10300SOL     OW31798   0.999   4.824   2.754
10300SOL    HW131799   0.983   4.893   2.684
10300SOL    HW231800   1.041   4.743   2.712
10301SOL     OW31801   5.064   1.580   1.364
10301SOL    HW131802   5.055   1.527   1.448
10301SOL    HW231803   5.147   1.552   1.315
10302SOL     OW31804   1.330   5.875   3.239
10302SOL    HW131805   1.353   5.778   3.251
10302SOL    HW231806   1.395   5.932   3.289
10303SOL     OW31807   3.638   3.439   1.562
10303SOL    HW131808   3.607   3.530   1.534
10303SOL    HW231809   3.625   3.375   1.487
10304SOL     OW31810   0.042   6.894   2.589
10304SOL    HW131811   0.039   6.800   2.554
10304SOL    HW231812   7.000   6.903   2.667
10305SOL     OW31813   1.462   5.465   1.188
10305SOL    HW131814   1.483   5.394   1.255
10305SOL    HW231815   1.364   5.465   1.168
10306SOL     OW31816   4.340   6.191   0.407
10306SOL    HW131817   4.274   6.124   0.373
10306SOL    HW231818   4.405   6.213   0.335
10307SOL     OW31819   1.897   1.707   5.737
10307SOL    HW131820   1.988   1.667   5.738
10307SOL    HW231821   1.842   1.668   5.810
10308SOL     OW31822   3.245   5.839   3.177
10308SOL    HW131823   3.179   5.764   3.170
10308SOL    HW231824   3.269   5.854   3.273
10309SOL     OW31825   0.115   6.437   3.302
10309SOL    HW131826   0.050   6.392   3.241
10309SOL    HW231827   0.168   6.505   3.251
10310SOL     OW31828   3.675   4.134   3.230
10310SOL    HW131829   3.663   4.212   3.169
10310SOL    HW231830   3.766   4.094   3.215
10311SOL     OW31831   6.637   5.269   0.271
10311SOL    HW131832   6.583   5.351   0.292
10311SOL    HW231833   6.576   5.193   0.253
10312SOL     OW31834   2.423   4.539   0.737
10312SOL    HW131835   2.448   4.462   0.679
10312SOL    HW231836   2.465   4.528   0.827
10313SOL     OW31837   5.292   0.163   3.093
10313SOL    HW131838   5.354   0.088   3.113
10313SOL    HW231839   5.291   0.180   2.994
10314SOL     OW31840   6.709   6.252   0.877
10314SOL    HW131841   6.745   6.168   0.835
10314SOL    HW231842   6.782   6.320   0.882
10315SOL     OW31843   6.303   5.137   4.637
10315SOL    HW131844   6.203   5.141   4.631
10315SOL    HW231845   6.343   5.167   4.550
10316SOL     OW31846   6.987   4.565   3.809
10316SOL    HW131847   6.924   4.627   3.856
10316SOL    HW231848   0.006   4.612   3.729
10317SOL     OW31849   4.001   4.893   0.459
10317SOL    HW131850   3.924   4.956   0.462
10317SOL    HW231851   4.085   4.943   0.436
10318SOL     OW31852   5.713   5.215   2.364
10318SOL    HW131853   5.781   5.157   2.409
10318SOL    HW231854   5.756   5.264   2.288
10319SOL     OW31855   5.871   6.249   2.975
10319SOL    HW131856   5.933   6.271   2.899
10319SOL    HW231857   5.814   6.328   2.996
10320SOL     OW31858   6.952   6.328   1.299
10320SOL    HW131859   6.895   6.247   1.316
10320SOL    HW231860   0.003   6.306   1.232
10321SOL     OW31861   4.163   5.547   4.059
10321SOL    HW131862   4.177   5.631   4.111
10321SOL    HW231863   4.248   5.494   4.056
10322SOL     OW31864   6.107   3.202   0.139
10322SOL    HW131865   6.087   3.164   0.048
10322SOL    HW231866   6.109   3.302   0.134
10323SOL     OW31867   5.127   2.776   5.532
10323SOL    HW131868   5.045   2.734   5.571
10323SOL    HW231869   5.104   2.869   5.500
10324SOL     OW31870   3.199   3.045   3.412
10324SOL    HW131871   3.166   2.978   3.478
10324SOL    HW231872   3.122   3.099   3.378
10325SOL     OW31873   0.512   3.187   2.958
10325SOL    HW131874   0.516   3.121   3.033
10325SOL    HW231875   0.590   3.249   2.964
10326SOL     OW31876   5.633   1.897   0.651
10326SOL    HW131877   5.538   1.908   0.621
10326SOL    HW231878   5.691   1.961   0.603
10327SOL     OW31879   0.329   0.681   3.030
10327SOL    HW131880   0.369   0.671   3.122
10327SOL    HW231881   0.237   0.643   3.029
10328SOL     OW31882   6.096   2.468   1.912
10328SOL    HW131883   6.180   2.425   1.946
10328SOL    HW231884   6.051   2.407   1.847
10329SOL     OW31885   3.347   6.778   2.752
10329SOL    HW131886   3.294   6.764   2.669
10329SOL    HW231887   3.285   6.789   2.830
10330SOL     OW31888   3.676   5.144   1.530
10330SOL    HW131889   3.731   5.061   1.537
10330SOL    HW231890   3.720   5.217   1.581
10331SOL     OW31891   6.221   0.718   3.300
10331SOL    HW131892   6.209   0.694   3.204
10331SOL    HW231893   6.190   0.643   3.358
10332SOL     OW31894   0.010   2.766   5.801
10332SOL    HW131895   6.936   2.736   5.818
10332SOL    HW231896   0.029   2.848   5.855
10333SOL     OW31897   4.964   4.549   4.555
10333SOL    HW131898   5.018   4.465   4.549
10333SOL    HW231899   4.995   4.613   4.485
10334SOL     OW31900   1.608   4.776   4.345
10334SOL    HW131901   1.663   4.798   4.265
10334SOL    HW231902   1.520   4.738   4.316
10335SOL     OW31903   1.822   5.241   1.526
10335SOL    HW131904   1.767   5.256   1.608
10335SOL    HW231905   1.865   5.327   1.499
10336SOL     OW31906   3.961   6.572   2.668
10336SOL    HW131907   3.870   6.540   2.640
10336SOL    HW231908   4.030   6.526   2.613
10337SOL     OW31909   0.696   5.003   5.116
10337SOL    HW131910   0.674   4.941   5.191
10337SOL    HW231911   0.773   5.061   5.142
10338SOL     OW31912   2.867   6.028   2.854
10338SOL    HW131913   2.859   5.933   2.824
10338SOL    HW231914   2.888   6.031   2.952
10339SOL     OW31915   2.732   5.896   1.208
10339SOL    HW131916   2.760   5.992   1.197
10339SOL    HW231917   2.812   5.837   1.199
10340SOL     OW31918   2.327   0.290   0.552
10340SOL    HW131919   2.293   0.359   0.488
10340SOL    HW231920   2.354   0.333   0.637
10341SOL     OW31921   2.158   1.388   2.232
10341SOL    HW131922   2.178   1.324   2.305
10341SOL    HW231923   2.077   1.442   2.255
10342SOL     OW31924   2.144   6.474   5.023
10342SOL    HW131925   2.098   6.515   5.101
10342SOL    HW231926   2.227   6.525   5.003
10343SOL     OW31927   2.170   3.352   5.191
10343SOL    HW131928   2.159   3.450   5.175
10343SOL    HW231929   2.106   3.301   5.134
10344SOL     OW31930   3.475   4.948   5.309
10344SOL    HW131931   3.457   4.949   5.211
10344SOL    HW231932   3.574   4.948   5.325
10345SOL     OW31933   2.080   1.157   6.555
10345SOL    HW131934   2.053   1.188   6.646
10345SOL    HW231935   2.173   1.187   6.535
10346SOL     OW31936   5.327   5.927   0.163
10346SOL    HW131937   5.311   5.904   0.067
10346SOL    HW231938   5.407   5.986   0.171
10347SOL     OW31939   5.510   1.691   1.803
10347SOL    HW131940   5.491   1.611   1.745
10347SOL    HW231941   5.520   1.662   1.898
10348SOL     OW31942   0.784   6.219   5.536
10348SOL    HW131943   0.723   6.271   5.596
10348SOL    HW231944   0.762   6.239   5.441
10349SOL     OW31945   6.966   1.746   0.595
10349SOL    HW131946   6.920   1.820   0.546
10349SOL    HW231947   6.909   1.664   0.592
10350SOL     OW31948   2.100   4.720   4.979
10350SOL    HW131949   2.149   4.734   5.065
10350SOL    HW231950   2.025   4.787   4.973
10351SOL     OW31951   4.964   4.334   4.942
10351SOL    HW131952   5.017   4.272   4.884
10351SOL    HW231953   4.911   4.396   4.883
10352SOL     OW31954   5.478   2.046   0.322
10352SOL    HW131955   5.432   1.982   0.384
10352SOL    HW231956   5.524   1.996   0.250
10353SOL     OW31957   6.782   2.698   3.599
10353SOL    HW131958   6.827   2.668   3.515
10353SOL    HW231959   6.705   2.757   3.576
10354SOL     OW31960   0.439   3.453   0.679
10354SOL    HW131961   0.434   3.362   0.638
10354SOL    HW231962   0.424   3.522   0.609
10355SOL     OW31963   0.882   1.361   1.098
10355SOL    HW131964   0.954   1.307   1.054
10355SOL    HW231965   0.839   1.421   1.031
10356SOL     OW31966   6.280   3.643   6.161
10356SOL    HW131967   6.223   3.689   6.094
10356SOL    HW231968   6.265   3.544   6.156
10357SOL     OW31969   1.280   2.826   5.940
10357SOL    HW131970   1.350   2.824   5.869
10357SOL    HW231971   1.216   2.901   5.921
10358SOL     OW31972   0.589   2.409   2.491
10358SOL    HW131973   0.521   2.432   2.561
10358SOL    HW231974   0.553   2.336   2.432
10359SOL     OW31975   6.043   1.753   2.487
10359SOL    HW131976   6.023   1.681   2.421
10359SOL    HW231977   5.979   1.746   2.564
10360SOL     OW31978   5.941   3.937   1.845
10360SOL    HW131979   5.867   3.981   1.793
10360SOL    HW231980   6.018   3.919   1.784
10361SOL     OW31981   0.703   1.644   1.720
10361SOL    HW131982   0.669   1.562   1.674
10361SOL    HW231983   0.789   1.623   1.766
10362SOL     OW31984   1.127   5.124   2.033
10362SOL    HW131985   1.126   5.211   2.083
10362SOL    HW231986   1.187   5.133   1.954
10363SOL     OW31987   4.982   4.722   6.910
10363SOL    HW131988   5.033   4.794   6.957
10363SOL    HW231989   4.894   4.757   6.881
10364SOL     OW31990   6.090   4.353   2.471
10364SOL    HW131991   6.044   4.269   2.444
10364SOL    HW231992   6.110   4.408   2.390
10365SOL     OW31993   5.890   5.988   0.330
10365SOL    HW131994   5.969   6.025   0.282
10365SOL    HW231995   5.912   5.976   0.427
10366SOL     OW31996   2.550   5.999   3.461
10366SOL    HW131997   2.494   6.001   3.378
10366SOL    HW231998   2.534   6.083   3.513
10367SOL     OW31999   5.523   1.494   1.485
10367SOL    HW132000   5.434   1.522   1.519
10367SOL    HW232001   5.521   1.489   1.385
10368SOL     OW32002   2.142   5.936   2.221
10368SOL    HW132003   2.116   5.869   2.291
10368SOL    HW232004   2.131   5.895   2.130
10369SOL     OW32005   3.516   0.232   6.547
10369SOL    HW132006   3.520   0.154   6.609
10369SOL    HW232007   3.607   0.249   6.509
10370SOL     OW32008   1.103   1.046   5.417
10370SOL    HW132009   1.129   0.952   5.397
10370SOL    HW232010   1.139   1.072   5.507
10371SOL     OW32011   3.550   5.384   2.743
10371SOL    HW132012   3.504   5.468   2.773
10371SOL    HW232013   3.648   5.401   2.733
10372SOL     OW32014   2.917   6.781   1.746
10372SOL    HW132015   2.872   6.691   1.744
10372SOL    HW232016   3.010   6.772   1.713
10373SOL     OW32017   0.917   2.025   5.694
10373SOL    HW132018   0.840   2.016   5.631
10373SOL    HW232019   0.946   1.934   5.725
10374SOL     OW32020   3.519   5.911   4.730
10374SOL    HW132021   3.557   5.977   4.665
10374SOL    HW232022   3.420   5.910   4.723
10375SOL     OW32023   2.422   3.648   0.028
10375SOL    HW132024   2.517   3.672   0.010
10375SOL    HW232025   2.376   3.725   0.071
10376SOL     OW32026   1.983   4.640   2.979
10376SOL    HW132027   2.062   4.579   2.973
10376SOL    HW232028   1.926   4.613   3.057
10377SOL     OW32029   1.280   0.749   2.892
10377SOL    HW132030   1.197   0.716   2.849
10377SOL    HW232031   1.261   0.835   2.940
10378SOL     OW32032   6.990   4.598   4.116
10378SOL    HW132033   6.992   4.499   4.101
10378SOL    HW232034   6.924   4.639   4.054
10379SOL     OW32035   1.638   6.331   4.789
10379SOL    HW132036   1.726   6.309   4.830
10379SOL    HW232037   1.565   6.285   4.840
10380SOL     OW32038   2.276   2.906   4.634
10380SOL    HW132039   2.358   2.851   4.618
10380SOL    HW232040   2.225   2.914   4.548
10381SOL     OW32041   4.677   4.726   2.176
10381SOL    HW132042   4.742   4.770   2.114
10381SOL    HW232043   4.721   4.647   2.219
10382SOL     OW32044   3.467   5.475   1.650
10382SOL    HW132045   3.474   5.531   1.732
10382SOL    HW232046   3.497   5.382   1.669
10383SOL     OW32047   2.568   4.385   0.553
10383SOL    HW132048   2.608   4.380   0.645
10383SOL    HW232049   2.585   4.300   0.504
10384SOL     OW32050   5.944   6.440   1.444
10384SOL    HW132051   5.885   6.372   1.490
10384SOL    HW232052   6.031   6.397   1.421
10385SOL     OW32053   4.473   4.819   6.690
10385SOL    HW132054   4.466   4.721   6.672
10385SOL    HW232055   4.394   4.849   6.743
10386SOL     OW32056   6.879   1.339   0.197
10386SOL    HW132057   6.821   1.389   0.133
10386SOL    HW232058   6.865   1.374   0.290
10387SOL     OW32059   4.887   2.974   2.219
10387SOL    HW132060   4.819   2.972   2.146
10387SOL    HW232061   4.970   2.927   2.188
10388SOL     OW32062   3.125   0.713   5.923
10388SOL    HW132063   3.222   0.709   5.949
10388SOL    HW232064   3.073   0.757   5.996
10389SOL     OW32065   0.841   3.164   0.906
10389SOL    HW132066   0.921   3.184   0.963
10389SOL    HW232067   0.828   3.237   0.839
10390SOL     OW32068   3.232   2.264   1.441
10390SOL    HW132069   3.218   2.311   1.354
10390SOL    HW232070   3.152   2.277   1.499
10391SOL     OW32071   5.698   6.470   4.268
10391SOL    HW132072   5.712   6.503   4.175
10391SOL    HW232073   5.724   6.374   4.274
10392SOL     OW32074   6.559   4.921   3.958
10392SOL    HW132075   6.499   4.863   4.013
10392SOL    HW232076   6.552   4.894   3.861
10393SOL     OW32077   1.781   4.228   3.608
10393SOL    HW132078   1.813   4.134   3.597
10393SOL    HW232079   1.858   4.288   3.628
10394SOL     OW32080   2.462   5.959   4.217
10394SOL    HW132081   2.491   5.910   4.299
10394SOL    HW232082   2.393   6.027   4.242
10395SOL     OW32083   7.016   6.948   0.349
10395SOL    HW132084   0.031   0.022   0.341
10395SOL    HW232085   6.950   6.931   0.277
10396SOL     OW32086   2.848   1.477   4.630
10396SOL    HW132087   2.908   1.415   4.681
10396SOL    HW232088   2.902   1.528   4.563
10397SOL     OW32089   3.136   2.060   2.408
10397SOL    HW132090   3.186   2.024   2.330
10397SOL    HW232091   3.059   2.115   2.376
10398SOL     OW32092   0.010   2.767   1.971
10398SOL    HW132093   0.110   2.768   1.962
10398SOL    HW232094   6.988   2.798   1.886
10399SOL     OW32095   6.452   3.040   1.816
10399SOL    HW132096   6.378   3.088   1.770
10399SOL    HW232097   6.540   3.071   1.779
10400SOL     OW32098   4.239   6.717   0.465
10400SOL    HW132099   4.224   6.622   0.493
10400SOL    HW232100   4.198   6.732   0.375
10401SOL     OW32101   6.390   0.877   4.249
10401SOL    HW132102   6.347   0.787   4.239
10401SOL    HW232103   6.457   0.874   4.324
10402SOL     OW32104   6.492   2.614   4.496
10402SOL    HW132105   6.550   2.629   4.576
10402SOL    HW232106   6.396   2.614   4.524
10403SOL     OW32107   2.913   0.859   3.704
10403SOL    HW132108   2.907   0.786   3.635
10403SOL    HW232109   2.821   0.886   3.732
10404SOL     OW32110   0.086   0.001   5.957
10404SOL    HW132111   0.031   6.991   6.035
10404SOL    HW232112   0.058   0.093   5.930
10405SOL     OW32113   0.776   1.369   5.773
10405SOL    HW132114   0.718   1.355   5.853
10405SOL    HW232115   0.744   1.311   5.698
10406SOL     OW32116   3.166   4.910   1.630
10406SOL    HW132117   3.210   4.959   1.706
10406SOL    HW232118   3.164   4.813   1.650
10407SOL     OW32119   3.511   6.237   6.238
10407SOL    HW132120   3.442   6.195   6.296
10407SOL    HW232121   3.468   6.294   6.169
10408SOL     OW32122   5.136   1.054   0.197
10408SOL    HW132123   5.186   1.059   0.110
10408SOL    HW232124   5.197   1.017   0.268
10409SOL     OW32125   6.285   4.880   0.719
10409SOL    HW132126   6.311   4.830   0.636
10409SOL    HW232127   6.271   4.815   0.794
10410SOL     OW32128   5.632   1.884   0.088
10410SOL    HW132129   5.605   1.828   0.009
10410SOL    HW232130   5.656   1.824   0.164
10411SOL     OW32131   2.823   5.344   3.030
10411SOL    HW132132   2.828   5.383   3.122
10411SOL    HW232133   2.805   5.246   3.036
10412SOL     OW32134   6.259   1.136   0.439
10412SOL    HW132135   6.337   1.184   0.479
10412SOL    HW232136   6.192   1.115   0.510
10413SOL     OW32137   0.246   1.785   1.324
10413SOL    HW132138   0.276   1.702   1.371
10413SOL    HW232139   0.316   1.856   1.334
10414SOL     OW32140   4.845   3.681   5.692
10414SOL    HW132141   4.804   3.739   5.763
10414SOL    HW232142   4.783   3.674   5.614
10415SOL     OW32143   0.553   5.523   6.159
10415SOL    HW132144   0.586   5.610   6.122
10415SOL    HW232145   0.558   5.453   6.088
10416SOL     OW32146   6.033   2.465   4.108
10416SOL    HW132147   6.041   2.451   4.207
10416SOL    HW232148   5.957   2.527   4.089
10417SOL     OW32149   3.209   4.890   4.546
10417SOL    HW132150   3.153   4.972   4.548
10417SOL    HW232151   3.182   4.829   4.622
10418SOL     OW32152   0.303   4.452   5.781
10418SOL    HW132153   0.379   4.421   5.838
10418SOL    HW232154   0.294   4.551   5.789
10419SOL     OW32155   0.863   0.363   0.048
10419SOL    HW132156   0.790   0.295   0.053
10419SOL    HW232157   0.951   0.318   0.065
10420SOL     OW32158   0.314   3.088   2.506
10420SOL    HW132159   0.304   3.183   2.477
10420SOL    HW232160   0.350   3.033   2.430
10421SOL     OW32161   1.654   1.269   3.457
10421SOL    HW132162   1.558   1.251   3.475
10421SOL    HW232163   1.663   1.320   3.371
10422SOL     OW32164   6.660   2.307   5.321
10422SOL    HW132165   6.755   2.315   5.352
10422SOL    HW232166   6.609   2.247   5.383
10423SOL     OW32167   4.782   4.778   4.495
10423SOL    HW132168   4.797   4.800   4.399
10423SOL    HW232169   4.869   4.751   4.537
10424SOL     OW32170   5.170   1.909   6.686
10424SOL    HW132171   5.105   1.969   6.733
10424SOL    HW232172   5.255   1.904   6.740
10425SOL     OW32173   1.720   0.164   2.734
10425SOL    HW132174   1.697   0.255   2.768
10425SOL    HW232175   1.804   0.168   2.680
10426SOL     OW32176   6.603   3.902   0.553
10426SOL    HW132177   6.632   3.938   0.464
10426SOL    HW232178   6.504   3.896   0.556
10427SOL     OW32179   4.307   2.085   0.155
10427SOL    HW132180   4.274   2.012   0.214
10427SOL    HW232181   4.267   2.172   0.183
10428SOL     OW32182   3.838   0.606   4.484
10428SOL    HW132183   3.907   0.631   4.416
10428SOL    HW232184   3.836   0.674   4.556
10429SOL     OW32185   6.945   5.573   1.679
10429SOL    HW132186   7.001   5.491   1.687
10429SOL    HW232187   7.003   5.651   1.657
10430SOL     OW32188   4.566   6.985   3.017
10430SOL    HW132189   4.657   0.002   2.998
10430SOL    HW232190   4.564   6.945   3.109
10431SOL     OW32191   3.252   0.015   5.559
10431SOL    HW132192   3.165   0.059   5.578
10431SOL    HW232193   3.250   6.993   5.468
10432SOL     OW32194   6.296   0.703   3.895
10432SOL    HW132195   6.206   0.744   3.911
10432SOL    HW232196   6.362   0.775   3.874
10433SOL     OW32197   1.961   6.742   1.724
10433SOL    HW132198   2.020   6.780   1.795
10433SOL    HW232199   1.893   6.681   1.766
10434SOL     OW32200   3.462   6.932   3.505
10434SOL    HW132201   3.557   6.908   3.489
10434SOL    HW232202   3.422   6.966   3.419
10435SOL     OW32203   6.239   6.927   5.255
10435SOL    HW132204   6.313   6.937   5.189
10435SOL    HW232205   6.205   6.833   5.254
10436SOL     OW32206   0.783   4.923   4.652
10436SOL    HW132207   0.863   4.889   4.603
10436SOL    HW232208   0.802   4.927   4.750
10437SOL     OW32209   6.293   5.245   5.737
10437SOL    HW132210   6.203   5.265   5.698
10437SOL    HW232211   6.319   5.151   5.713
10438SOL     OW32212   5.236   6.397   0.235
10438SOL    HW132213   5.178   6.470   0.200
10438SOL    HW232214   5.191   6.309   0.221
10439SOL     OW32215   3.643   0.635   5.512
10439SOL    HW132216   3.691   0.722   5.508
10439SOL    HW232217   3.560   0.644   5.568
10440SOL     OW32218   0.667   6.952   1.213
10440SOL    HW132219   0.677   6.963   1.114
10440SOL    HW232220   0.713   6.868   1.242
10441SOL     OW32221   5.360   1.631   6.495
10441SOL    HW132222   5.455   1.656   6.475
10441SOL    HW232223   5.300   1.709   6.477
10442SOL     OW32224   3.519   5.569   5.905
10442SOL    HW132225   3.603   5.603   5.863
10442SOL    HW232226   3.505   5.613   5.994
10443SOL     OW32227   5.760   3.685   4.754
10443SOL    HW132228   5.681   3.746   4.745
10443SOL    HW232229   5.830   3.711   4.688
10444SOL     OW32230   3.702   5.355   5.006
10444SOL    HW132231   3.607   5.357   4.972
10444SOL    HW232232   3.720   5.266   5.047
10445SOL     OW32233   0.056   4.951   4.635
10445SOL    HW132234   0.152   4.971   4.618
10445SOL    HW232235   0.003   4.966   4.551
10446SOL     OW32236   0.550   4.102   6.616
10446SOL    HW132237   0.501   4.171   6.562
10446SOL    HW232238   0.584   4.143   6.701
10447SOL     OW32239   6.733   1.914   1.266
10447SOL    HW132240   6.800   1.853   1.307
10447SOL    HW232241   6.734   2.002   1.314
10448SOL     OW32242   4.005   3.411   1.276
10448SOL    HW132243   4.054   3.417   1.189
10448SOL    HW232244   4.043   3.336   1.330
10449SOL     OW32245   2.657   5.444   4.685
10449SOL    HW132246   2.702   5.377   4.627
10449SOL    HW232247   2.558   5.427   4.685
10450SOL     OW32248   6.868   2.617   6.795
10450SOL    HW132249   6.829   2.572   6.876
10450SOL    HW232250   6.894   2.710   6.818
10451SOL     OW32251   2.696   4.753   2.861
10451SOL    HW132252   2.769   4.791   2.918
10451SOL    HW232253   2.660   4.670   2.903
10452SOL     OW32254   0.543   3.604   3.919
10452SOL    HW132255   0.585   3.693   3.900
10452SOL    HW232256   0.496   3.608   4.008
10453SOL     OW32257   5.921   6.079   1.663
10453SOL    HW132258   5.877   6.154   1.615
10453SOL    HW232259   5.991   6.038   1.604
10454SOL     OW32260   5.153   3.055   1.807
10454SOL    HW132261   5.229   3.005   1.766
10454SOL    HW232262   5.090   3.086   1.735
10455SOL     OW32263   0.290   5.373   3.843
10455SOL    HW132264   0.387   5.347   3.844
10455SOL    HW232265   0.247   5.340   3.759
10456SOL     OW32266   3.140   6.017   1.405
10456SOL    HW132267   3.228   6.064   1.412
10456SOL    HW232268   3.077   6.074   1.352
10457SOL     OW32269   3.900   4.008   3.786
10457SOL    HW132270   3.851   4.059   3.857
10457SOL    HW232271   3.912   4.067   3.706
10458SOL     OW32272   0.904   0.144   0.525
10458SOL    HW132273   0.870   0.156   0.618
10458SOL    HW232274   0.833   0.171   0.460
10459SOL     OW32275   5.754   5.502   2.116
10459SOL    HW132276   5.676   5.452   2.077
10459SOL    HW232277   5.820   5.437   2.153
10460SOL     OW32278   2.556   5.913   1.881
10460SOL    HW132279   2.503   5.955   1.954
10460SOL    HW232280   2.607   5.834   1.917
10461SOL     OW32281   1.864   6.822   6.867
10461SOL    HW132282   1.832   6.842   6.774
10461SOL    HW232283   1.949   6.769   6.862
10462SOL     OW32284   5.974   0.453   0.432
10462SOL    HW132285   5.939   0.375   0.485
10462SOL    HW232286   6.045   0.500   0.485
10463SOL     OW32287   2.971   4.438   6.856
10463SOL    HW132288   3.007   4.517   6.807
10463SOL    HW232289   2.872   4.450   6.870
10464SOL     OW32290   4.481   0.483   1.366
10464SOL    HW132291   4.386   0.498   1.395
10464SOL    HW232292   4.500   0.385   1.365
10465SOL     OW32293   0.178   5.698   5.946
10465SOL    HW132294   0.235   5.754   5.886
10465SOL    HW232295   0.236   5.646   6.009
10466SOL     OW32296   4.962   5.304   4.901
10466SOL    HW132297   4.953   5.351   4.813
10466SOL    HW232298   4.883   5.324   4.958
10467SOL     OW32299   2.199   1.770   5.439
10467SOL    HW132300   2.202   1.735   5.532
10467SOL    HW232301   2.114   1.741   5.395
10468SOL     OW32302   3.487   6.222   4.390
10468SOL    HW132303   3.404   6.274   4.373
10468SOL    HW232304   3.554   6.240   4.318
10469SOL     OW32305   2.191   3.975   0.661
10469SOL    HW132306   2.188   3.938   0.754
10469SOL    HW232307   2.267   3.934   0.611
10470SOL     OW32308   2.337   1.656   3.762
10470SOL    HW132309   2.274   1.697   3.696
10470SOL    HW232310   2.290   1.582   3.810
10471SOL     OW32311   2.910   3.798   1.512
10471SOL    HW132312   2.902   3.712   1.461
10471SOL    HW232313   2.874   3.873   1.457
10472SOL     OW32314   3.975   6.928   2.394
10472SOL    HW132315   4.004   6.976   2.477
10472SOL    HW232316   4.056   6.896   2.345
10473SOL     OW32317   5.756   6.160   7.008
10473SOL    HW132318   5.803   6.082   6.966
10473SOL    HW232319   5.817   6.239   7.009
10474SOL     OW32320   4.023   0.814   4.283
10474SOL    HW132321   4.034   0.873   4.202
10474SOL    HW232322   3.992   0.724   4.254
10475SOL     OW32323   4.129   6.862   1.541
10475SOL    HW132324   4.188   6.842   1.619
10475SOL    HW232325   4.158   6.808   1.462
10476SOL     OW32326   6.165   5.082   6.039
10476SOL    HW132327   6.234   5.046   5.975
10476SOL    HW232328   6.207   5.099   6.128
10477SOL     OW32329   5.617   4.080   4.767
10477SOL    HW132330   5.525   4.040   4.767
10477SOL    HW232331   5.640   4.112   4.858
10478SOL     OW32332   0.494   6.440   0.848
10478SOL    HW132333   0.443   6.484   0.775
10478SOL    HW232334   0.572   6.390   0.809
10479SOL     OW32335   1.975   3.717   2.323
10479SOL    HW132336   1.902   3.785   2.313
10479SOL    HW232337   1.950   3.651   2.394
10480SOL     OW32338   5.293   6.938   2.167
10480SOL    HW132339   5.289   0.015   2.193
10480SOL    HW232340   5.383   6.901   2.187
10481SOL     OW32341   2.297   1.042   5.337
10481SOL    HW132342   2.205   1.013   5.362
10481SOL    HW232343   2.363   1.006   5.403
10482SOL     OW32344   0.760   6.071   4.962
10482SOL    HW132345   0.718   6.107   4.878
10482SOL    HW232346   0.727   5.979   4.979
10483SOL     OW32347   6.393   5.900   6.543
10483SOL    HW132348   6.338   5.910   6.626
10483SOL    HW232349   6.337   5.917   6.463
10484SOL     OW32350   0.526   0.873   1.448
10484SOL    HW132351   0.475   0.899   1.366
10484SOL    HW232352   0.526   0.773   1.457
10485SOL     OW32353   2.943   3.507   3.241
10485SOL    HW132354   2.920   3.550   3.154
10485SOL    HW232355   2.935   3.574   3.314
10486SOL     OW32356   6.500   6.328   5.212
10486SOL    HW132357   6.414   6.366   5.180
10486SOL    HW232358   6.516   6.357   5.307
10487SOL     OW32359   4.537   2.014   1.867
10487SOL    HW132360   4.531   2.062   1.954
10487SOL    HW232361   4.614   2.051   1.814
10488SOL     OW32362   0.052   2.105   5.454
10488SOL    HW132363   0.008   2.025   5.494
10488SOL    HW232364   0.065   2.175   5.524
10489SOL     OW32365   5.510   4.717   3.946
10489SOL    HW132366   5.474   4.795   3.997
10489SOL    HW232367   5.610   4.713   3.957
10490SOL     OW32368   5.978   6.941   6.996
10490SOL    HW132369   6.069   6.903   6.979
10490SOL    HW232370   5.927   6.943   6.910
10491SOL     OW32371   1.070   2.792   6.545
10491SOL    HW132372   1.044   2.817   6.639
10491SOL    HW232373   1.117   2.869   6.502
10492SOL     OW32374   4.501   0.622   0.619
10492SOL    HW132375   4.454   0.571   0.547
10492SOL    HW232376   4.578   0.672   0.580
10493SOL     OW32377   4.169   5.520   0.865
10493SOL    HW132378   4.096   5.569   0.818
10493SOL    HW232379   4.145   5.424   0.874
10494SOL     OW32380   0.820   4.443   6.056
10494SOL    HW132381   0.785   4.357   6.017
10494SOL    HW232382   0.804   4.518   5.992
10495SOL     OW32383   0.833   6.148   6.413
10495SOL    HW132384   0.846   6.246   6.402
10495SOL    HW232385   0.792   6.130   6.503
10496SOL     OW32386   0.118   3.612   5.400
10496SOL    HW132387   0.125   3.533   5.461
10496SOL    HW232388   0.164   3.592   5.314
10497SOL     OW32389   2.347   6.963   1.368
10497SOL    HW132390   2.371   6.928   1.277
10497SOL    HW232391   2.272   0.010   1.360
10498SOL     OW32392   4.370   5.616   0.642
10498SOL    HW132393   4.345   5.562   0.722
10498SOL    HW232394   4.411   5.556   0.573
10499SOL     OW32395   5.569   5.347   2.002
10499SOL    HW132396   5.585   5.292   1.920
10499SOL    HW232397   5.510   5.425   1.979
10500SOL     OW32398   6.739   4.301   5.644
10500SOL    HW132399   6.752   4.400   5.631
10500SOL    HW232400   6.795   4.270   5.721
10501SOL     OW32401   2.480   5.562   2.732
10501SOL    HW132402   2.546   5.585   2.804
10501SOL    HW232403   2.485   5.631   2.660
10502SOL     OW32404   2.959   3.705   2.542
10502SOL    HW132405   3.029   3.633   2.547
10502SOL    HW232406   2.874   3.672   2.583
10503SOL     OW32407   6.438   2.756   6.558
10503SOL    HW132408   6.349   2.748   6.513
10503SOL    HW232409   6.511   2.743   6.490
10504SOL     OW32410   1.583   2.569   6.179
10504SOL    HW132411   1.638   2.652   6.166
10504SOL    HW232412   1.599   2.507   6.103
10505SOL     OW32413   6.333   6.381   1.539
10505SOL    HW132414   6.405   6.314   1.523
10505SOL    HW232415   6.265   6.374   1.467
10506SOL     OW32416   1.176   2.456   0.329
10506SOL    HW132417   1.202   2.487   0.238
10506SOL    HW232418   1.126   2.370   0.322
10507SOL     OW32419   1.643   4.728   6.424
10507SOL    HW132420   1.663   4.636   6.393
10507SOL    HW232421   1.718   4.789   6.397
10508SOL     OW32422   1.003   5.120   4.937
10508SOL    HW132423   0.996   5.188   4.863
10508SOL    HW232424   0.962   5.034   4.907
10509SOL     OW32425   5.485   2.843   3.380
10509SOL    HW132426   5.402   2.787   3.380
10509SOL    HW232427   5.540   2.822   3.299
10510SOL     OW32428   4.683   5.496   4.523
10510SOL    HW132429   4.630   5.566   4.570
10510SOL    HW232430   4.622   5.432   4.477
10511SOL     OW32431   3.461   1.870   2.403
10511SOL    HW132432   3.482   1.800   2.472
10511SOL    HW232433   3.446   1.827   2.315
10512SOL     OW32434   4.462   0.882   4.887
10512SOL    HW132435   4.407   0.812   4.842
10512SOL    HW232436   4.504   0.844   4.970
10513SOL     OW32437   5.189   3.432   1.778
10513SOL    HW132438   5.232   3.518   1.750
10513SOL    HW232439   5.244   3.390   1.851
10514SOL     OW32440   0.942   2.768   1.303
10514SOL    HW132441   0.949   2.750   1.401
10514SOL    HW232442   1.024   2.734   1.257
10515SOL     OW32443   2.192   3.057   4.840
10515SOL    HW132444   2.266   3.057   4.907
10515SOL    HW232445   2.217   3.000   4.762
10516SOL     OW32446   3.527   2.695   0.542
10516SOL    HW132447   3.579   2.639   0.606
10516SOL    HW232448   3.431   2.667   0.543
10517SOL     OW32449   0.961   3.461   3.579
10517SOL    HW132450   0.931   3.485   3.672
10517SOL    HW232451   1.060   3.443   3.580
10518SOL     OW32452   0.727   5.295   2.467
10518SOL    HW132453   0.761   5.388   2.479
10518SOL    HW232454   0.627   5.295   2.470
10519SOL     OW32455   2.539   6.383   1.057
10519SOL    HW132456   2.508   6.288   1.049
10519SOL    HW232457   2.549   6.406   1.154
10520SOL     OW32458   0.096   1.679   5.537
10520SOL    HW132459   0.177   1.667   5.479
10520SOL    HW232460   0.125   1.703   5.629
10521SOL     OW32461   6.285   3.088   1.032
10521SOL    HW132462   6.189   3.089   1.003
10521SOL    HW232463   6.319   3.182   1.035
10522SOL     OW32464   4.895   2.552   3.536
10522SOL    HW132465   4.957   2.490   3.583
10522SOL    HW232466   4.902   2.540   3.437
10523SOL     OW32467   6.830   4.787   3.934
10523SOL    HW132468   6.732   4.807   3.942
10523SOL    HW232469   6.883   4.866   3.963
10524SOL     OW32470   6.296   6.497   3.827
10524SOL    HW132471   6.392   6.522   3.836
10524SOL    HW232472   6.261   6.529   3.738
10525SOL     OW32473   4.704   1.498   5.087
10525SOL    HW132474   4.760   1.437   5.030
10525SOL    HW232475   4.738   1.591   5.079
10526SOL     OW32476   0.868   5.009   0.756
10526SOL    HW132477   0.894   4.913   0.748
10526SOL    HW232478   0.890   5.056   0.670
10527SOL     OW32479   0.660   0.828   4.618
10527SOL    HW132480   0.646   0.823   4.520
10527SOL    HW232481   0.758   0.819   4.638
10528SOL     OW32482   1.085   4.258   6.185
10528SOL    HW132483   1.009   4.294   6.239
10528SOL    HW232484   1.132   4.334   6.138
10529SOL     OW32485   1.130   6.328   0.042
10529SOL    HW132486   1.038   6.366   0.051
10529SOL    HW232487   1.131   6.257   6.991
10530SOL     OW32488   0.544   6.591   0.516
10530SOL    HW132489   0.557   6.619   0.421
10530SOL    HW232490   0.590   6.656   0.576
10531SOL     OW32491   2.834   2.903   5.346
10531SOL    HW132492   2.737   2.887   5.365
10531SOL    HW232493   2.888   2.875   5.425
10532SOL     OW32494   5.730   6.170   6.624
10532SOL    HW132495   5.676   6.189   6.705
10532SOL    HW232496   5.822   6.141   6.651
10533SOL     OW32497   2.781   5.451   3.388
10533SOL    HW132498   2.867   5.467   3.437
10533SOL    HW232499   2.736   5.538   3.370
10534SOL     OW32500   1.484   6.087   2.828
10534SOL    HW132501   1.473   5.998   2.872
10534SOL    HW232502   1.460   6.160   2.892
10535SOL     OW32503   2.969   2.072   2.915
10535SOL    HW132504   3.021   2.092   2.833
10535SOL    HW232505   2.969   1.973   2.932
10536SOL     OW32506   5.298   1.686   3.991
10536SOL    HW132507   5.302   1.625   4.070
10536SOL    HW232508   5.203   1.713   3.975
10537SOL     OW32509   4.574   6.872   3.274
10537SOL    HW132510   4.603   6.779   3.249
10537SOL    HW232511   4.654   6.928   3.292
10538SOL     OW32512   6.459   2.851   2.631
10538SOL    HW132513   6.479   2.807   2.543
10538SOL    HW232514   6.499   2.796   2.705
10539SOL     OW32515   6.149   0.211   3.003
10539SOL    HW132516   6.188   0.256   3.083
10539SOL    HW232517   6.097   0.131   3.032
10540SOL     OW32518   2.652   3.641   5.892
10540SOL    HW132519   2.585   3.566   5.893
10540SOL    HW232520   2.697   3.644   5.803
10541SOL     OW32521   3.017   3.281   5.032
10541SOL    HW132522   2.996   3.221   5.110
10541SOL    HW232523   2.984   3.238   4.948
10542SOL     OW32524   5.590   6.894   4.294
10542SOL    HW132525   5.624   6.882   4.200
10542SOL    HW232526   5.495   6.862   4.299
10543SOL     OW32527   0.112   2.865   5.142
10543SOL    HW132528   0.134   2.782   5.091
10543SOL    HW232529   0.194   2.897   5.190
10544SOL     OW32530   1.161   0.961   3.805
10544SOL    HW132531   1.232   0.901   3.769
10544SOL    HW232532   1.153   1.043   3.748
10545SOL     OW32533   1.924   2.156   2.780
10545SOL    HW132534   1.974   2.216   2.717
10545SOL    HW232535   1.889   2.077   2.729
10546SOL     OW32536   3.079   6.777   1.021
10546SOL    HW132537   3.158   6.814   1.070
10546SOL    HW232538   3.001   6.838   1.033
10547SOL     OW32539   4.248   0.013   4.901
10547SOL    HW132540   4.160   0.041   4.939
10547SOL    HW232541   4.317   0.009   4.974
10548SOL     OW32542   1.008   4.563   4.372
10548SOL    HW132543   0.983   4.600   4.282
10548SOL    HW232544   1.095   4.514   4.364
10549SOL     OW32545   0.124   1.532   1.063
10549SOL    HW132546   0.065   1.452   1.050
10549SOL    HW232547   0.125   1.586   0.979
10550SOL     OW32548   3.492   6.122   3.423
10550SOL    HW132549   3.583   6.157   3.446
10550SOL    HW232550   3.438   6.196   3.381
10551SOL     OW32551   3.110   1.974   5.925
10551SOL    HW132552   3.156   2.039   5.865
10551SOL    HW232553   3.123   1.881   5.890
10552SOL     OW32554   3.260   0.429   4.519
10552SOL    HW132555   3.273   0.523   4.550
10552SOL    HW232556   3.348   0.382   4.516
10553SOL     OW32557   0.135   5.098   0.422
10553SOL    HW132558   0.151   5.163   0.496
10553SOL    HW232559   0.150   5.142   0.334
10554SOL     OW32560   6.011   4.913   2.828
10554SOL    HW132561   5.944   4.918   2.901
10554SOL    HW232562   5.984   4.843   2.762
10555SOL     OW32563   3.301   2.262   0.596
10555SOL    HW132564   3.369   2.218   0.655
10555SOL    HW232565   3.257   2.337   0.647
10556SOL     OW32566   1.898   2.053   3.033
10556SOL    HW132567   1.907   2.099   2.945
10556SOL    HW232568   1.934   2.112   3.105
10557SOL     OW32569   2.333   4.500   3.726
10557SOL    HW132570   2.401   4.562   3.686
10557SOL    HW232571   2.241   4.533   3.705
10558SOL     OW32572   2.634   5.644   5.987
10558SOL    HW132573   2.558   5.650   6.051
10558SOL    HW232574   2.692   5.566   6.011
10559SOL     OW32575   3.926   6.958   6.295
10559SOL    HW132576   3.848   6.962   6.233
10559SOL    HW232577   3.960   6.864   6.301
10560SOL     OW32578   5.103   6.526   1.952
10560SOL    HW132579   5.024   6.469   1.976
10560SOL    HW232580   5.118   6.521   1.853
10561SOL     OW32581   6.080   4.503   0.346
10561SOL    HW132582   6.028   4.547   0.418
10561SOL    HW232583   6.029   4.424   0.311
10562SOL     OW32584   3.300   6.190   2.006
10562SOL    HW132585   3.217   6.221   1.960
10562SOL    HW232586   3.312   6.241   2.092
10563SOL     OW32587   0.525   0.427   0.546
10563SOL    HW132588   0.524   0.390   0.453
10563SOL    HW232589   0.573   0.515   0.546
10564SOL     OW32590   5.531   5.699   3.673
10564SOL    HW132591   5.588   5.618   3.660
10564SOL    HW232592   5.568   5.754   3.748
10565SOL     OW32593   0.019   6.716   5.414
10565SOL    HW132594   0.100   6.757   5.372
10565SOL    HW232595   7.006   6.641   5.357
10566SOL     OW32596   2.739   2.599   0.264
10566SOL    HW132597   2.794   2.649   0.198
10566SOL    HW232598   2.697   2.664   0.328
10567SOL     OW32599   1.353   2.162   6.227
10567SOL    HW132600   1.400   2.210   6.301
10567SOL    HW232601   1.347   2.222   6.147
10568SOL     OW32602   5.353   2.270   5.928
10568SOL    HW132603   5.316   2.198   5.870
10568SOL    HW232604   5.297   2.353   5.919
10569SOL     OW32605   5.360   6.904   1.199
10569SOL    HW132606   5.314   6.830   1.151
10569SOL    HW232607   5.351   6.889   1.298
10570SOL     OW32608   0.733   4.932   4.305
10570SOL    HW132609   0.807   4.925   4.373
10570SOL    HW232610   0.651   4.886   4.341
10571SOL     OW32611   0.503   4.018   5.965
10571SOL    HW132612   0.404   4.005   5.967
10571SOL    HW232613   0.550   3.934   5.991
10572SOL     OW32614   6.402   4.183   1.282
10572SOL    HW132615   6.343   4.132   1.220
10572SOL    HW232616   6.346   4.239   1.343
10573SOL     OW32617   5.287   1.288   3.402
10573SOL    HW132618   5.314   1.202   3.358
10573SOL    HW232619   5.195   1.278   3.440
10574SOL     OW32620   0.489   1.625   3.735
10574SOL    HW132621   0.401   1.657   3.700
10574SOL    HW232622   0.481   1.605   3.832
10575SOL     OW32623   6.090   0.760   1.543
10575SOL    HW132624   6.161   0.689   1.535
10575SOL    HW232625   6.079   0.806   1.455
10576SOL     OW32626   2.549   4.737   3.816
10576SOL    HW132627   2.463   4.787   3.806
10576SOL    HW232628   2.610   4.788   3.878
10577SOL     OW32629   4.033   6.141   0.354
10577SOL    HW132630   4.026   6.053   0.308
10577SOL    HW232631   4.051   6.213   0.287
10578SOL     OW32632   6.956   2.647   3.812
10578SOL    HW132633   6.902   2.684   3.737
10578SOL    HW232634   6.905   2.573   3.856
10579SOL     OW32635   1.611   3.637   0.988
10579SOL    HW132636   1.587   3.541   0.997
10579SOL    HW232637   1.609   3.664   0.892
10580SOL     OW32638   6.606   6.921   6.225
10580SOL    HW132639   6.636   6.911   6.320
10580SOL    HW232640   6.677   6.886   6.164
10581SOL     OW32641   5.599   0.207   2.620
10581SOL    HW132642   5.521   0.264   2.648
10581SOL    HW232643   5.664   0.263   2.568
10582SOL     OW32644   5.727   4.221   6.466
10582SOL    HW132645   5.778   4.306   6.482
10582SOL    HW232646   5.635   4.230   6.504
10583SOL     OW32647   2.731   0.715   4.807
10583SOL    HW132648   2.753   0.662   4.889
10583SOL    HW232649   2.637   0.747   4.813
10584SOL     OW32650   0.246   0.105   5.464
10584SOL    HW132651   0.164   0.157   5.444
10584SOL    HW232652   0.252   0.088   5.562
10585SOL     OW32653   0.676   0.621   5.506
10585SOL    HW132654   0.658   0.624   5.408
10585SOL    HW232655   0.612   0.679   5.554
10586SOL     OW32656   4.404   4.549   5.396
10586SOL    HW132657   4.416   4.613   5.472
10586SOL    HW232658   4.354   4.468   5.429
10587SOL     OW32659   1.152   5.696   5.588
10587SOL    HW132660   1.214   5.717   5.512
10587SOL    HW232661   1.203   5.699   5.674
10588SOL     OW32662   1.272   4.452   4.418
10588SOL    HW132663   1.285   4.550   4.432
10588SOL    HW232664   1.296   4.403   4.501
10589SOL     OW32665   5.639   6.256   3.476
10589SOL    HW132666   5.559   6.294   3.522
10589SOL    HW232667   5.716   6.253   3.539
10590SOL     OW32668   0.411   5.597   2.840
10590SOL    HW132669   0.511   5.595   2.830
10590SOL    HW232670   0.384   5.681   2.887
10591SOL     OW32671   1.384   1.850   1.821
10591SOL    HW132672   1.311   1.904   1.863
10591SOL    HW232673   1.471   1.900   1.829
10592SOL     OW32674   5.807   2.192   5.575
10592SOL    HW132675   5.722   2.151   5.609
10592SOL    HW232676   5.829   2.153   5.486
10593SOL     OW32677   2.837   6.172   1.948
10593SOL    HW132678   2.886   6.124   2.021
10593SOL    HW232679   2.747   6.200   1.982
10594SOL     OW32680   3.126   0.331   3.538
10594SOL    HW132681   3.093   0.264   3.605
10594SOL    HW232682   3.128   0.289   3.448
10595SOL     OW32683   6.411   6.749   0.750
10595SOL    HW132684   6.319   6.712   0.765
10595SOL    HW232685   6.437   6.805   0.829
10596SOL     OW32686   5.010   2.122   6.796
10596SOL    HW132687   4.982   2.207   6.752
10596SOL    HW232688   4.969   2.116   6.887
10597SOL     OW32689   2.425   0.381   6.179
10597SOL    HW132690   2.425   0.288   6.214
10597SOL    HW232691   2.447   0.380   6.081
10598SOL     OW32692   2.630   2.008   6.038
10598SOL    HW132693   2.597   2.085   5.984
10598SOL    HW232694   2.599   2.018   6.133
10599SOL     OW32695   6.782   3.639   6.049
10599SOL    HW132696   6.876   3.672   6.057
10599SOL    HW232697   6.778   3.566   5.981
10600SOL     OW32698   2.947   1.806   1.139
10600SOL    HW132699   2.941   1.707   1.133
10600SOL    HW232700   2.980   1.832   1.230
10601SOL     OW32701   0.250   6.461   5.567
10601SOL    HW132702   0.173   6.515   5.601
10601SOL    HW232703   0.219   6.398   5.497
10602SOL     OW32704   0.571   0.199   0.715
10602SOL    HW132705   0.531   0.125   0.660
10602SOL    HW232706   0.556   0.287   0.669
10603SOL     OW32707   5.009   6.929   2.222
10603SOL    HW132708   4.975   0.001   2.203
10603SOL    HW232709   5.108   6.925   2.205
10604SOL     OW32710   6.455   6.950   4.404
10604SOL    HW132711   6.516   0.002   4.437
10604SOL    HW232712   6.455   6.949   4.304
10605SOL     OW32713   2.330   1.476   1.211
10605SOL    HW132714   2.348   1.412   1.136
10605SOL    HW232715   2.344   1.429   1.298
10606SOL     OW32716   6.613   0.863   0.895
10606SOL    HW132717   6.708   0.866   0.926
10606SOL    HW232718   6.590   0.770   0.867
10607SOL     OW32719   3.826   4.214   6.396
10607SOL    HW132720   3.874   4.138   6.440
10607SOL    HW232721   3.787   4.273   6.467
10608SOL     OW32722   6.033   3.517   2.934
10608SOL    HW132723   6.095   3.577   2.882
10608SOL    HW232724   5.941   3.556   2.935
10609SOL     OW32725   4.722   1.509   6.791
10609SOL    HW132726   4.769   1.422   6.799
10609SOL    HW232727   4.698   1.526   6.695
10610SOL     OW32728   0.938   1.083   4.091
10610SOL    HW132729   0.923   1.181   4.104
10610SOL    HW232730   1.036   1.064   4.099
10611SOL     OW32731   3.171   5.228   5.238
10611SOL    HW132732   3.266   5.244   5.264
10611SOL    HW232733   3.120   5.194   5.317
10612SOL     OW32734   5.609   1.645   3.437
10612SOL    HW132735   5.697   1.664   3.480
10612SOL    HW232736   5.595   1.546   3.432
10613SOL     OW32737   6.174   0.036   4.520
10613SOL    HW132738   6.106   6.982   4.522
10613SOL    HW232739   6.243   0.020   4.590
10614SOL     OW32740   4.724   0.547   6.569
10614SOL    HW132741   4.710   0.580   6.476
10614SOL    HW232742   4.750   0.450   6.567
10615SOL     OW32743   2.195   2.283   6.324
10615SOL    HW132744   2.120   2.220   6.345
10615SOL    HW232745   2.193   2.359   6.390
10616SOL     OW32746   2.621   6.644   6.768
10616SOL    HW132747   2.665   6.689   6.846
10616SOL    HW232748   2.688   6.586   6.721
10617SOL     OW32749   2.735   3.051   1.380
10617SOL    HW132750   2.742   2.962   1.426
10617SOL    HW232751   2.708   3.121   1.446
10618SOL     OW32752   0.521   5.401   5.175
10618SOL    HW132753   0.609   5.449   5.181
10618SOL    HW232754   0.455   5.459   5.125
10619SOL     OW32755   1.041   2.113   3.083
10619SOL    HW132756   1.137   2.134   3.067
10619SOL    HW232757   1.033   2.033   3.143
10620SOL     OW32758   2.868   0.385   6.887
10620SOL    HW132759   2.793   0.366   6.823
10620SOL    HW232760   2.951   0.406   6.836
10621SOL     OW32761   1.226   3.861   3.199
10621SOL    HW132762   1.221   3.911   3.286
10621SOL    HW232763   1.135   3.858   3.157
10622SOL     OW32764   4.390   3.385   0.440
10622SOL    HW132765   4.442   3.303   0.417
10622SOL    HW232766   4.315   3.361   0.503
10623SOL     OW32767   5.588   6.260   6.850
10623SOL    HW132768   5.651   6.220   6.916
10623SOL    HW232769   5.613   6.356   6.833
10624SOL     OW32770   0.346   2.360   4.908
10624SOL    HW132771   0.331   2.309   4.993
10624SOL    HW232772   0.443   2.355   4.883
10625SOL     OW32773   6.562   4.089   6.710
10625SOL    HW132774   6.476   4.054   6.747
10625SOL    HW232775   6.579   4.049   6.620
10626SOL     OW32776   4.707   3.421   1.035
10626SOL    HW132777   4.621   3.407   1.083
10626SOL    HW232778   4.701   3.381   0.943
10627SOL     OW32779   5.023   6.025   5.871
10627SOL    HW132780   5.051   5.984   5.958
10627SOL    HW232781   5.043   5.962   5.796
10628SOL     OW32782   4.771   0.851   1.010
10628SOL    HW132783   4.792   0.813   0.920
10628SOL    HW232784   4.851   0.898   1.046
10629SOL     OW32785   3.176   5.318   4.817
10629SOL    HW132786   3.159   5.237   4.762
10629SOL    HW232787   3.089   5.353   4.852
10630SOL     OW32788   4.101   0.280   2.921
10630SOL    HW132789   4.089   0.317   3.013
10630SOL    HW232790   4.125   0.183   2.927
10631SOL     OW32791   4.644   5.990   6.997
10631SOL    HW132792   4.640   5.973   0.076
10631SOL    HW232793   4.657   5.904   6.948
10632SOL     OW32794   4.810   5.399   3.201
10632SOL    HW132795   4.755   5.420   3.120
10632SOL    HW232796   4.902   5.372   3.173
10633SOL     OW32797   1.964   2.725   2.001
10633SOL    HW132798   2.003   2.816   1.989
10633SOL    HW232799   1.867   2.726   1.976
10634SOL     OW32800   0.251   4.363   6.586
10634SOL    HW132801   0.203   4.378   6.673
10634SOL    HW232802   0.184   4.349   6.513
10635SOL     OW32803   2.667   3.777   0.007
10635SOL    HW132804   2.733   3.791   6.953
10635SOL    HW232805   2.710   3.723   0.080
10636SOL     OW32806   6.722   2.141   6.223
10636SOL    HW132807   6.643   2.200   6.235
10636SOL    HW232808   6.806   2.197   6.225
10637SOL     OW32809   3.390   0.414   6.931
10637SOL    HW132810   3.314   0.350   6.925
10637SOL    HW232811   3.381   0.469   7.014
10638SOL     OW32812   6.992   5.098   1.963
10638SOL    HW132813   7.008   5.138   2.053
10638SOL    HW232814   0.038   5.137   1.898
10639SOL     OW32815   1.927   4.250   0.918
10639SOL    HW132816   1.903   4.163   0.877
10639SOL    HW232817   1.853   4.282   0.977
10640SOL     OW32818   4.297   0.020   3.154
10640SOL    HW132819   4.251   6.972   3.211
10640SOL    HW232820   4.359   6.994   3.090
10641SOL     OW32821   0.821   0.401   3.427
10641SOL    HW132822   0.793   0.309   3.399
10641SOL    HW232823   0.852   0.398   3.522
10642SOL     OW32824   5.500   2.234   6.622
10642SOL    HW132825   5.577   2.263   6.679
10642SOL    HW232826   5.528   2.235   6.525
10643SOL     OW32827   1.914   4.919   5.510
10643SOL    HW132828   1.957   4.977   5.579
10643SOL    HW232829   1.828   4.883   5.546
10644SOL     OW32830   0.448   2.531   2.692
10644SOL    HW132831   0.505   2.612   2.700
10644SOL    HW232832   0.354   2.553   2.716
10645SOL     OW32833   2.250   2.988   3.399
10645SOL    HW132834   2.164   2.962   3.441
10645SOL    HW232835   2.308   2.907   3.388
10646SOL     OW32836   5.301   1.111   3.935
10646SOL    HW132837   5.395   1.079   3.944
10646SOL    HW232838   5.241   1.057   3.995
10647SOL     OW32839   3.739   5.072   5.011
10647SOL    HW132840   3.644   5.043   5.024
10647SOL    HW232841   3.777   5.027   4.930
10648SOL     OW32842   5.920   5.427   5.222
10648SOL    HW132843   5.826   5.460   5.230
10648SOL    HW232844   5.920   5.334   5.184
10649SOL     OW32845   0.286   3.343   2.876
10649SOL    HW132846   0.245   3.384   2.957
10649SOL    HW232847   0.341   3.264   2.903
10650SOL     OW32848   6.710   0.681   4.419
10650SOL    HW132849   6.788   0.635   4.460
10650SOL    HW232850   6.719   0.681   4.320
10651SOL     OW32851   5.009   5.620   5.808
10651SOL    HW132852   5.071   5.698   5.799
10651SOL    HW232853   4.981   5.589   5.717
10652SOL     OW32854   1.747   6.798   6.427
10652SOL    HW132855   1.663   6.763   6.468
10652SOL    HW232856   1.735   6.805   6.328
10653SOL     OW32857   3.646   6.072   4.545
10653SOL    HW132858   3.579   6.118   4.487
10653SOL    HW232859   3.727   6.050   4.491
10654SOL     OW32860   5.495   1.100   4.352
10654SOL    HW132861   5.485   1.194   4.321
10654SOL    HW232862   5.586   1.087   4.391
10655SOL     OW32863   1.290   4.569   1.530
10655SOL    HW132864   1.348   4.648   1.547
10655SOL    HW232865   1.285   4.552   1.432
10656SOL     OW32866   6.448   1.385   1.441
10656SOL    HW132867   6.411   1.442   1.367
10656SOL    HW232868   6.374   1.360   1.504
10657SOL     OW32869   5.910   0.505   3.857
10657SOL    HW132870   5.901   0.520   3.759
10657SOL    HW232871   5.819   0.491   3.897
10658SOL     OW32872   6.202   3.723   4.724
10658SOL    HW132873   6.252   3.804   4.695
10658SOL    HW232874   6.249   3.680   4.801
10659SOL     OW32875   0.966   5.364   1.367
10659SOL    HW132876   1.021   5.337   1.288
10659SOL    HW232877   0.929   5.456   1.352
10660SOL     OW32878   6.817   3.364   5.499
10660SOL    HW132879   6.821   3.283   5.440
10660SOL    HW232880   6.758   3.346   5.577
10661SOL     OW32881   1.683   3.997   6.746
10661SOL    HW132882   1.718   3.940   6.820
10661SOL    HW232883   1.664   4.089   6.782
10662SOL     OW32884   2.837   1.525   3.311
10662SOL    HW132885   2.866   1.602   3.253
10662SOL    HW232886   2.871   1.539   3.404
10663SOL     OW32887   1.542   1.889   4.096
10663SOL    HW132888   1.620   1.898   4.034
10663SOL    HW232889   1.575   1.873   4.189
10664SOL     OW32890   1.351   5.199   4.454
10664SOL    HW132891   1.368   5.199   4.552
10664SOL    HW232892   1.309   5.286   4.427
10665SOL     OW32893   1.847   3.082   6.038
10665SOL    HW132894   1.902   3.013   5.991
10665SOL    HW232895   1.758   3.090   5.991
10666SOL     OW32896   3.676   3.328   2.147
10666SOL    HW132897   3.601   3.282   2.099
10666SOL    HW232898   3.749   3.350   2.083
10667SOL     OW32899   5.637   2.108   2.877
10667SOL    HW132900   5.687   2.027   2.908
10667SOL    HW232901   5.620   2.168   2.954
10668SOL     OW32902   3.349   2.111   5.243
10668SOL    HW132903   3.277   2.101   5.313
10668SOL    HW232904   3.341   2.201   5.201
10669SOL     OW32905   5.505   1.102   1.130
10669SOL    HW132906   5.550   1.173   1.075
10669SOL    HW232907   5.492   1.020   1.074
10670SOL     OW32908   4.949   3.510   4.039
10670SOL    HW132909   4.888   3.525   3.961
10670SOL    HW232910   5.017   3.441   4.015
10671SOL     OW32911   1.065   2.082   4.253
10671SOL    HW132912   1.032   2.144   4.182
10671SOL    HW232913   0.999   2.009   4.269
10672SOL     OW32914   5.853   3.721   1.586
10672SOL    HW132915   5.792   3.734   1.664
10672SOL    HW232916   5.831   3.788   1.515
10673SOL     OW32917   1.835   0.852   1.262
10673SOL    HW132918   1.815   0.830   1.357
10673SOL    HW232919   1.785   0.934   1.235
10674SOL     OW32920   3.846   3.003   4.572
10674SOL    HW132921   3.882   3.096   4.576
10674SOL    HW232922   3.846   2.962   4.664
10675SOL     OW32923   3.837   0.177   5.697
10675SOL    HW132924   3.777   0.246   5.656
10675SOL    HW232925   3.904   0.221   5.756
10676SOL     OW32926   1.262   6.126   5.523
10676SOL    HW132927   1.181   6.180   5.547
10676SOL    HW232928   1.342   6.161   5.571
10677SOL     OW32929   0.632   1.995   0.555
10677SOL    HW132930   0.550   2.052   0.560
10677SOL    HW232931   0.609   1.901   0.579
10678SOL     OW32932   3.797   5.386   3.843
10678SOL    HW132933   3.868   5.363   3.909
10678SOL    HW232934   3.834   5.450   3.775
10679SOL     OW32935   4.448   4.738   0.026
10679SOL    HW132936   4.497   4.825   0.029
10679SOL    HW232937   4.507   4.668   7.004
10680SOL     OW32938   3.670   1.736   4.345
10680SOL    HW132939   3.656   1.641   4.318
10680SOL    HW232940   3.622   1.796   4.282
10681SOL     OW32941   6.308   3.370   6.131
10681SOL    HW132942   6.389   3.319   6.102
10681SOL    HW232943   6.237   3.305   6.162
10682SOL     OW32944   6.336   3.261   5.393
10682SOL    HW132945   6.334   3.310   5.480
10682SOL    HW232946   6.300   3.320   5.321
10683SOL     OW32947   4.212   0.370   3.621
10683SOL    HW132948   4.233   0.301   3.691
10683SOL    HW232949   4.253   0.343   3.534
10684SOL     OW32950   5.411   4.689   0.953
10684SOL    HW132951   5.342   4.723   1.017
10684SOL    HW232952   5.502   4.706   0.990
10685SOL     OW32953   0.144   5.225   2.275
10685SOL    HW132954   0.054   5.183   2.264
10685SOL    HW232955   0.215   5.156   2.263
10686SOL     OW32956   2.534   4.340   0.115
10686SOL    HW132957   2.444   4.359   0.155
10686SOL    HW232958   2.523   4.279   0.037
10687SOL     OW32959   6.516   4.415   3.105
10687SOL    HW132960   6.601   4.444   3.062
10687SOL    HW232961   6.443   4.411   3.036
10688SOL     OW32962   5.443   1.097   1.985
10688SOL    HW132963   5.499   1.058   1.912
10688SOL    HW232964   5.483   1.074   2.074
10689SOL     OW32965   0.372   0.275   1.900
10689SOL    HW132966   0.323   0.350   1.945
10689SOL    HW232967   0.418   0.219   1.970
10690SOL     OW32968   6.529   5.586   3.697
10690SOL    HW132969   6.440   5.547   3.675
10690SOL    HW232970   6.591   5.514   3.730
10691SOL     OW32971   2.897   1.918   2.227
10691SOL    HW132972   2.965   1.919   2.299
10691SOL    HW232973   2.918   1.989   2.160
10692SOL     OW32974   2.938   0.337   5.025
10692SOL    HW132975   2.950   0.347   5.124
10692SOL    HW232976   2.997   0.403   4.978
10693SOL     OW32977   0.448   5.867   1.201
10693SOL    HW132978   0.503   5.951   1.207
10693SOL    HW232979   0.494   5.801   1.142
10694SOL     OW32980   4.994   6.056   6.276
10694SOL    HW132981   4.920   6.086   6.335
10694SOL    HW232982   5.064   6.127   6.271
10695SOL     OW32983   1.087   3.062   1.215
10695SOL    HW132984   0.993   3.031   1.229
10695SOL    HW232985   1.090   3.124   1.136
10696SOL     OW32986   6.305   4.030   4.999
10696SOL    HW132987   6.289   4.072   4.910
10696SOL    HW232988   6.374   3.958   4.990
10697SOL     OW32989   0.729   6.333   5.304
10697SOL    HW132990   0.718   6.431   5.293
10697SOL    HW232991   0.796   6.299   5.238
10698SOL     OW32992   4.928   4.172   6.783
10698SOL    HW132993   4.883   4.108   6.721
10698SOL    HW232994   4.936   4.261   6.739
10699SOL     OW32995   3.605   4.590   0.817
10699SOL    HW132996   3.530   4.636   0.863
10699SOL    HW232997   3.627   4.505   0.865
10700SOL     OW32998   6.077   6.689   0.414
10700SOL    HW132999   6.101   6.602   0.458
10700SOL    HW233000   6.160   6.734   0.382
10701SOL     OW33001   3.222   0.079   6.710
10701SOL    HW133002   3.294   0.103   6.645
10701SOL    HW233003   3.142   0.136   6.695
10702SOL     OW33004   5.092   3.192   2.894
10702SOL    HW133005   5.017   3.126   2.891
10702SOL    HW233006   5.138   3.186   2.983
10703SOL     OW33007   2.225   2.630   5.710
10703SOL    HW133008   2.172   2.612   5.793
10703SOL    HW233009   2.299   2.693   5.730
10704SOL     OW33010   6.520   5.482   2.513
10704SOL    HW133011   6.431   5.463   2.471
10704SOL    HW233012   6.585   5.411   2.487
10705SOL     OW33013   5.985   4.625   1.099
10705SOL    HW133014   5.903   4.633   1.042
10705SOL    HW233015   6.003   4.529   1.118
10706SOL     OW33016   4.749   6.936   1.916
10706SOL    HW133017   4.712   6.927   1.823
10706SOL    HW233018   4.831   6.879   1.925
10707SOL     OW33019   6.409   6.835   4.137
10707SOL    HW133020   6.394   6.816   4.040
10707SOL    HW233021   6.390   6.753   4.190
10708SOL     OW33022   4.907   1.471   2.162
10708SOL    HW133023   4.810   1.470   2.134
10708SOL    HW233024   4.950   1.385   2.136
10709SOL     OW33025   5.727   5.420   3.740
10709SOL    HW133026   5.762   5.397   3.831
10709SOL    HW233027   5.804   5.432   3.677
10710SOL     OW33028   5.670   0.521   3.461
10710SOL    HW133029   5.719   0.571   3.389
10710SOL    HW233030   5.703   0.427   3.464
10711SOL     OW33031   2.301   0.109   3.554
10711SOL    HW133032   2.247   0.110   3.639
10711SOL    HW233033   2.305   0.016   3.518
10712SOL     OW33034   4.362   0.385   3.095
10712SOL    HW133035   4.393   0.416   3.005
10712SOL    HW233036   4.437   0.337   3.140
10713SOL     OW33037   1.491   2.744   0.522
10713SOL    HW133038   1.452   2.698   0.442
10713SOL    HW233039   1.421   2.801   0.565
10714SOL     OW33040   4.292   3.157   5.298
10714SOL    HW133041   4.202   3.126   5.329
10714SOL    HW233042   4.306   3.253   5.323
10715SOL     OW33043   4.841   0.121   2.412
10715SOL    HW133044   4.825   0.219   2.402
10715SOL    HW233045   4.805   0.073   2.332
10716SOL     OW33046   6.450   2.620   3.115
10716SOL    HW133047   6.505   2.670   3.183
10716SOL    HW233048   6.398   2.548   3.161
10717SOL     OW33049   1.835   2.958   0.821
10717SOL    HW133050   1.806   2.924   0.910
10717SOL    HW233051   1.797   2.900   0.749
10718SOL     OW33052   1.266   4.387   6.518
10718SOL    HW133053   1.183   4.406   6.465
10718SOL    HW233054   1.308   4.303   6.485
10719SOL     OW33055   5.838   6.129   3.272
10719SOL    HW133056   5.822   6.132   3.173
10719SOL    HW233057   5.756   6.160   3.320
10720SOL     OW33058   5.993   5.210   4.171
10720SOL    HW133059   5.901   5.175   4.154
10720SOL    HW233060   6.012   5.286   4.109
10721SOL     OW33061   5.137   4.017   5.244
10721SOL    HW133062   5.233   4.041   5.261
10721SOL    HW233063   5.082   4.049   5.321
10722SOL     OW33064   6.138   4.234   0.072
10722SOL    HW133065   6.210   4.280   0.021
10722SOL    HW233066   6.049   4.271   0.047
10723SOL     OW33067   6.879   1.927   6.501
10723SOL    HW133068   6.936   2.004   6.473
10723SOL    HW233069   6.910   1.892   6.589
10724SOL     OW33070   0.171   6.587   6.251
10724SOL    HW133071   0.137   6.581   6.157
10724SOL    HW233072   0.251   6.529   6.261
10725SOL     OW33073   2.440   5.937   5.415
10725SOL    HW133074   2.430   6.032   5.446
10725SOL    HW233075   2.414   5.932   5.318
10726SOL     OW33076   4.726   0.188   4.084
10726SOL    HW133077   4.766   0.175   4.175
10726SOL    HW233078   4.637   0.233   4.094
10727SOL     OW33079   0.841   5.405   6.217
10727SOL    HW133080   0.883   5.341   6.152
10727SOL    HW233081   0.746   5.422   6.189
10728SOL     OW33082   0.945   5.014   6.767
10728SOL    HW133083   1.021   4.952   6.746
10728SOL    HW233084   0.859   4.963   6.767
10729SOL     OW33085   6.294   1.403   1.879
10729SOL    HW133086   6.211   1.458   1.884
10729SOL    HW233087   6.289   1.328   1.945
10730SOL     OW33088   3.407   6.779   0.860
10730SOL    HW133089   3.372   6.729   0.939
10730SOL    HW233090   3.394   6.724   0.777
10731SOL     OW33091   3.605   0.518   0.705
10731SOL    HW133092   3.537   0.559   0.644
10731SOL    HW233093   3.581   0.538   0.800
10732SOL     OW33094   0.867   4.843   5.881
10732SOL    HW133095   0.934   4.847   5.956
10732SOL    HW233096   0.914   4.821   5.796
10733SOL     OW33097   6.110   1.524   6.575
10733SOL    HW133098   6.204   1.504   6.545
10733SOL    HW233099   6.096   1.623   6.576
10734SOL     OW33100   1.605   1.349   0.747
10734SOL    HW133101   1.580   1.267   0.799
10734SOL    HW233102   1.531   1.372   0.684
10735SOL     OW33103   0.598   2.997   2.297
10735SOL    HW133104   0.592   3.061   2.373
10735SOL    HW233105   0.634   2.910   2.330
10736SOL     OW33106   1.799   0.457   3.338
10736SOL    HW133107   1.715   0.471   3.390
10736SOL    HW233108   1.784   0.485   3.243
10737SOL     OW33109   1.031   1.814   1.002
10737SOL    HW133110   1.054   1.903   1.042
10737SOL    HW233111   0.940   1.819   0.961
10738SOL     OW33112   3.051   6.169   2.691
10738SOL    HW133113   2.973   6.137   2.746
10738SOL    HW233114   3.117   6.213   2.751
10739SOL     OW33115   2.015   1.549   1.392
10739SOL    HW133116   2.076   1.572   1.467
10739SOL    HW233117   1.945   1.620   1.382
10740SOL     OW33118   6.909   4.537   5.602
10740SOL    HW133119   6.950   4.620   5.638
10740SOL    HW233120   6.971   4.460   5.619
10741SOL     OW33121   4.059   0.859   1.547
10741SOL    HW133122   4.040   0.773   1.500
10741SOL    HW233123   4.106   0.840   1.633
10742SOL     OW33124   6.472   6.943   0.937
10742SOL    HW133125   6.453   0.020   0.922
10742SOL    HW233126   6.492   6.927   1.034
10743SOL     OW33127   1.770   2.126   5.761
10743SOL    HW133128   1.800   2.220   5.744
10743SOL    HW233129   1.827   2.086   5.833
10744SOL     OW33130   3.729   1.763   0.507
10744SOL    HW133131   3.667   1.824   0.458
10744SOL    HW233132   3.682   1.723   0.586
10745SOL     OW33133   6.615   6.235   5.985
10745SOL    HW133134   6.659   6.316   6.024
10745SOL    HW233135   6.684   6.166   5.963
10746SOL     OW33136   1.108   4.232   0.396
10746SOL    HW133137   1.041   4.206   0.465
10746SOL    HW233138   1.191   4.178   0.408
10747SOL     OW33139   3.550   1.283   4.700
10747SOL    HW133140   3.514   1.363   4.748
10747SOL    HW233141   3.575   1.212   4.767
10748SOL     OW33142   5.669   0.722   1.557
10748SOL    HW133143   5.746   0.786   1.549
10748SOL    HW233144   5.641   0.717   1.653
10749SOL     OW33145   7.002   5.977   4.053
10749SOL    HW133146   6.921   5.922   4.070
10749SOL    HW233147   6.978   6.074   4.057
10750SOL     OW33148   3.733   6.958   4.863
10750SOL    HW133149   3.781   6.875   4.891
10750SOL    HW233150   3.771   6.991   4.776
10751SOL     OW33151   2.053   4.564   4.093
10751SOL    HW133152   2.108   4.598   4.017
10751SOL    HW233153   1.956   4.581   4.074
10752SOL     OW33154   6.280   4.566   5.143
10752SOL    HW133155   6.181   4.557   5.136
10752SOL    HW233156   6.323   4.479   5.118
10753SOL     OW33157   6.492   4.332   4.272
10753SOL    HW133158   6.492   4.260   4.203
10753SOL    HW233159   6.542   4.411   4.238
10754SOL     OW33160   0.730   0.169   3.400
10754SOL    HW133161   0.788   0.090   3.420
10754SOL    HW233162   0.636   0.149   3.427
10755SOL     OW33163   0.089   0.489   0.705
10755SOL    HW133164   0.124   0.444   0.623
10755SOL    HW233165   0.105   0.430   0.785
10756SOL     OW33166   6.753   5.379   5.715
10756SOL    HW133167   6.819   5.373   5.789
10756SOL    HW233168   6.667   5.416   5.749
10757SOL     OW33169   1.644   1.944   0.175
10757SOL    HW133170   1.717   1.879   0.155
10757SOL    HW233171   1.599   1.972   0.090
10758SOL     OW33172   0.591   6.057   4.360
10758SOL    HW133173   0.669   6.048   4.423
10758SOL    HW233174   0.609   6.131   4.295
10759SOL     OW33175   1.860   3.518   0.672
10759SOL    HW133176   1.948   3.505   0.717
10759SOL    HW233177   1.866   3.486   0.578
10760SOL     OW33178   6.067   0.879   3.503
10760SOL    HW133179   6.125   0.815   3.452
10760SOL    HW233180   6.090   0.875   3.600
10761SOL     OW33181   0.602   5.738   5.754
10761SOL    HW133182   0.689   5.734   5.706
10761SOL    HW233183   0.528   5.755   5.689
10762SOL     OW33184   2.890   0.929   4.964
10762SOL    HW133185   2.964   0.967   4.908
10762SOL    HW233186   2.816   0.899   4.904
10763SOL     OW33187   3.669   6.576   2.691
10763SOL    HW133188   3.673   6.651   2.757
10763SOL    HW233189   3.641   6.613   2.602
10764SOL     OW33190   5.392   2.107   5.036
10764SOL    HW133191   5.302   2.113   4.993
10764SOL    HW233192   5.437   2.196   5.033
10765SOL     OW33193   4.574   2.959   0.617
10765SOL    HW133194   4.532   2.869   0.628
10765SOL    HW233195   4.517   3.028   0.663
10766SOL     OW33196   4.395   4.694   0.616
10766SOL    HW133197   4.342   4.654   0.690
10766SOL    HW233198   4.355   4.670   0.528
10767SOL     OW33199   2.667   0.614   1.380
10767SOL    HW133200   2.659   0.651   1.473
10767SOL    HW233201   2.654   0.515   1.383
10768SOL     OW33202   5.445   5.094   1.546
10768SOL    HW133203   5.523   5.051   1.500
10768SOL    HW233204   5.391   5.144   1.479
10769SOL     OW33205   2.103   3.748   5.738
10769SOL    HW133206   2.195   3.758   5.775
10769SOL    HW233207   2.040   3.720   5.810
10770SOL     OW33208   4.849   6.298   3.922
10770SOL    HW133209   4.794   6.332   3.846
10770SOL    HW233210   4.922   6.240   3.888
10771SOL     OW33211   4.047   0.287   3.995
10771SOL    HW133212   4.103   0.225   3.939
10771SOL    HW233213   4.081   0.380   3.984
10772SOL     OW33214   6.028   6.427   4.867
10772SOL    HW133215   5.938   6.418   4.910
10772SOL    HW233216   6.040   6.520   4.833
10773SOL     OW33217   5.810   4.739   6.319
10773SOL    HW133218   5.782   4.824   6.275
10773SOL    HW233219   5.787   4.661   6.260
10774SOL     OW33220   1.839   1.077   5.308
10774SOL    HW133221   1.846   1.173   5.280
10774SOL    HW233222   1.825   1.020   5.227
10775SOL     OW33223   0.488   4.866   2.605
10775SOL    HW133224   0.495   4.918   2.690
10775SOL    HW233225   0.414   4.799   2.612
10776SOL     OW33226   0.660   1.068   6.951
10776SOL    HW133227   0.616   1.073   6.861
10776SOL    HW233228   0.601   1.112   7.019
10777SOL     OW33229   3.612   5.300   1.077
10777SOL    HW133230   3.665   5.266   0.999
10777SOL    HW233231   3.618   5.400   1.079
10778SOL     OW33232   4.911   0.027   4.298
10778SOL    HW133233   5.005   7.017   4.278
10778SOL    HW233234   4.863   6.975   4.348
10779SOL     OW33235   5.841   2.970   3.070
10779SOL    HW133236   5.907   2.908   3.112
10779SOL    HW233237   5.856   3.063   3.104
10780SOL     OW33238   1.577   0.814   4.446
10780SOL    HW133239   1.548   0.799   4.541
10780SOL    HW233240   1.596   0.726   4.403
10781SOL     OW33241   3.917   1.293   3.543
10781SOL    HW133242   4.002   1.286   3.490
10781SOL    HW233243   3.855   1.356   3.497
10782SOL     OW33244   0.060   0.905   3.290
10782SOL    HW133245   0.141   0.852   3.316
10782SOL    HW233246   0.068   0.932   3.194
10783SOL     OW33247   0.353   2.711   2.977
10783SOL    HW133248   0.294   2.790   2.992
10783SOL    HW233249   0.410   2.695   3.058
10784SOL     OW33250   3.309   1.239   4.073
10784SOL    HW133251   3.388   1.255   4.131
10784SOL    HW233252   3.324   1.282   3.984
10785SOL     OW33253   0.928   3.718   0.588
10785SOL    HW133254   0.878   3.632   0.590
10785SOL    HW233255   1.022   3.703   0.560
10786SOL     OW33256   5.650   4.979   2.676
10786SOL    HW133257   5.678   4.913   2.606
10786SOL    HW233258   5.650   4.934   2.765
10787SOL     OW33259   0.909   0.699   5.592
10787SOL    HW133260   0.964   0.632   5.642
10787SOL    HW233261   0.820   0.661   5.569
10788SOL     OW33262   0.752   3.810   0.773
10788SOL    HW133263   0.738   3.904   0.805
10788SOL    HW233264   0.821   3.811   0.701
10789SOL     OW33265   6.633   3.185   6.738
10789SOL    HW133266   6.686   3.149   6.662
10789SOL    HW233267   6.588   3.109   6.786
10790SOL     OW33268   0.624   6.889   1.863
10790SOL    HW133269   0.689   6.925   1.930
10790SOL    HW233270   0.599   6.960   1.798
10791SOL     OW33271   6.925   5.799   2.407
10791SOL    HW133272   6.937   5.847   2.320
10791SOL    HW233273   6.846   5.738   2.401
10792SOL     OW33274   3.016   3.032   5.186
10792SOL    HW133275   3.100   3.035   5.240
10792SOL    HW233276   2.957   2.960   5.221
10793SOL     OW33277   6.096   3.980   5.886
10793SOL    HW133278   6.053   4.037   5.817
10793SOL    HW233279   6.166   3.922   5.843
10794SOL     OW33280   4.069   3.609   4.331
10794SOL    HW133281   4.087   3.514   4.304
10794SOL    HW233282   4.003   3.650   4.268
10795SOL     OW33283   0.261   5.262   3.151
10795SOL    HW133284   0.285   5.237   3.244
10795SOL    HW233285   0.204   5.345   3.152
10796SOL     OW33286   6.695   0.295   5.217
10796SOL    HW133287   6.643   0.339   5.144
10796SOL    HW233288   6.767   0.239   5.176
10797SOL     OW33289   3.757   3.142   1.477
10797SOL    HW133290   3.774   3.161   1.381
10797SOL    HW233291   3.664   3.106   1.488
10798SOL     OW33292   2.530   1.356   0.369
10798SOL    HW133293   2.610   1.394   0.323
10798SOL    HW233294   2.525   1.391   0.462
10799SOL     OW33295   4.336   0.657   2.496
10799SOL    HW133296   4.359   0.749   2.525
10799SOL    HW233297   4.259   0.660   2.432
10800SOL     OW33298   1.072   6.060   6.226
10800SOL    HW133299   0.996   6.077   6.289
10800SOL    HW233300   1.157   6.049   6.278
10801SOL     OW33301   1.064   7.016   0.235
10801SOL    HW133302   1.109   6.953   0.298
10801SOL    HW233303   1.014   6.963   0.166
10802SOL     OW33304   0.357   6.802   2.963
10802SOL    HW133305   0.403   6.730   2.910
10802SOL    HW233306   0.304   6.860   2.902
10803SOL     OW33307   1.778   5.491   6.488
10803SOL    HW133308   1.697   5.498   6.546
10803SOL    HW233309   1.826   5.406   6.509
10804SOL     OW33310   6.860   2.634   3.327
10804SOL    HW133311   6.902   2.618   3.238
10804SOL    HW233312   6.785   2.700   3.317
10805SOL     OW33313   5.579   0.852   5.403
10805SOL    HW133314   5.493   0.880   5.445
10805SOL    HW233315   5.564   0.833   5.306
10806SOL     OW33316   3.898   5.016   6.725
10806SOL    HW133317   3.866   5.022   6.819
10806SOL    HW233318   3.881   4.924   6.689
10807SOL     OW33319   0.962   5.615   4.011
10807SOL    HW133320   1.020   5.612   4.093
10807SOL    HW233321   0.952   5.523   3.974
10808SOL     OW33322   0.443   2.846   6.121
10808SOL    HW133323   0.443   2.771   6.055
10808SOL    HW233324   0.400   2.814   6.206
10809SOL     OW33325   2.126   4.373   4.327
10809SOL    HW133326   2.028   4.356   4.339
10809SOL    HW233327   2.139   4.453   4.267
10810SOL     OW33328   6.852   0.200   3.597
10810SOL    HW133329   6.920   0.164   3.661
10810SOL    HW233330   6.888   0.281   3.551
10811SOL     OW33331   4.715   5.011   4.997
10811SOL    HW133332   4.684   5.059   4.915
10811SOL    HW233333   4.730   5.077   5.071
10812SOL     OW33334   6.842   3.727   6.400
10812SOL    HW133335   6.904   3.786   6.348
10812SOL    HW233336   6.757   3.715   6.348
10813SOL     OW33337   0.614   3.415   6.230
10813SOL    HW133338   0.629   3.407   6.131
10813SOL    HW233339   0.687   3.471   6.270
10814SOL     OW33340   2.665   0.052   0.464
10814SOL    HW133341   2.681   0.148   0.439
10814SOL    HW233342   2.570   0.041   0.492
10815SOL     OW33343   5.093   2.079   3.212
10815SOL    HW133344   5.150   2.110   3.289
10815SOL    HW233345   5.134   2.109   3.126
10816SOL     OW33346   3.389   2.923   2.884
10816SOL    HW133347   3.487   2.924   2.902
10816SOL    HW233348   3.350   3.012   2.905
10817SOL     OW33349   3.195   0.685   3.481
10817SOL    HW133350   3.267   0.630   3.525
10817SOL    HW233351   3.235   0.770   3.447
10818SOL     OW33352   4.912   4.821   5.706
10818SOL    HW133353   4.884   4.860   5.619
10818SOL    HW233354   4.987   4.874   5.744
10819SOL     OW33355   5.762   5.380   6.001
10819SOL    HW133356   5.814   5.365   6.085
10819SOL    HW233357   5.825   5.395   5.925
10820SOL     OW33358   0.506   5.560   4.532
10820SOL    HW133359   0.455   5.588   4.450
10820SOL    HW233360   0.486   5.464   4.552
10821SOL     OW33361   4.252   6.137   3.050
10821SOL    HW133362   4.286   6.160   3.141
10821SOL    HW233363   4.244   6.219   2.995
10822SOL     OW33364   5.458   1.871   0.969
10822SOL    HW133365   5.546   1.894   0.928
10822SOL    HW233366   5.472   1.837   1.062
10823SOL     OW33367   0.379   0.498   3.771
10823SOL    HW133368   0.399   0.461   3.681
10823SOL    HW233369   0.430   0.583   3.785
10824SOL     OW33370   1.085   1.761   2.514
10824SOL    HW133371   1.153   1.713   2.459
10824SOL    HW233372   1.026   1.815   2.454
10825SOL     OW33373   1.309   2.074   0.529
10825SOL    HW133374   1.370   2.135   0.578
10825SOL    HW233375   1.362   2.010   0.473
10826SOL     OW33376   0.841   2.162   2.478
10826SOL    HW133377   0.760   2.203   2.520
10826SOL    HW233378   0.918   2.170   2.541
10827SOL     OW33379   6.355   2.990   4.815
10827SOL    HW133380   6.371   3.036   4.728
10827SOL    HW233381   6.263   3.011   4.848
10828SOL     OW33382   6.964   4.021   6.790
10828SOL    HW133383   6.923   3.951   6.730
10828SOL    HW233384   0.044   4.013   6.786
10829SOL     OW33385   4.496   3.724   0.362
10829SOL    HW133386   4.585   3.684   0.386
10829SOL    HW233387   4.440   3.733   0.445
10830SOL     OW33388   4.772   1.754   3.856
10830SOL    HW133389   4.685   1.745   3.809
10830SOL    HW233390   4.838   1.799   3.796
10831SOL     OW33391   3.685   0.270   1.826
10831SOL    HW133392   3.674   0.368   1.807
10831SOL    HW233393   3.709   0.222   1.742
10832SOL     OW33394   6.483   3.441   6.381
10832SOL    HW133395   6.508   3.531   6.417
10832SOL    HW233396   6.466   3.447   6.283
10833SOL     OW33397   0.270   2.631   1.009
10833SOL    HW133398   0.210   2.653   0.932
10833SOL    HW233399   0.354   2.589   0.974
10834SOL     OW33400   6.588   0.999   0.535
10834SOL    HW133401   6.572   0.951   0.449
10834SOL    HW233402   6.549   1.091   0.529
10835SOL     OW33403   5.077   3.360   0.050
10835SOL    HW133404   5.017   3.329   0.124
10835SOL    HW233405   5.029   3.427   7.014
10836SOL     OW33406   1.285   1.033   2.764
10836SOL    HW133407   1.289   0.953   2.704
10836SOL    HW233408   1.366   1.091   2.749
10837SOL     OW33409   6.124   4.507   2.239
10837SOL    HW133410   6.085   4.583   2.188
10837SOL    HW233411   6.150   4.434   2.175
10838SOL     OW33412   5.434   6.418   3.622
10838SOL    HW133413   5.352   6.460   3.582
10838SOL    HW233414   5.418   6.320   3.635
10839SOL     OW33415   4.683   3.317   0.767
10839SOL    HW133416   4.773   3.308   0.724
10839SOL    HW233417   4.613   3.283   0.704
10840SOL     OW33418   3.414   0.626   2.448
10840SOL    HW133419   3.376   0.545   2.404
10840SOL    HW233420   3.513   0.629   2.432
10841SOL     OW33421   6.323   5.015   5.018
10841SOL    HW133422   6.384   5.077   4.969
10841SOL    HW233423   6.228   5.039   4.997
10842SOL     OW33424   4.425   2.686   1.309
10842SOL    HW133425   4.511   2.639   1.330
10842SOL    HW233426   4.380   2.713   1.394
10843SOL     OW33427   1.883   1.695   0.975
10843SOL    HW133428   1.944   1.767   0.940
10843SOL    HW233429   1.831   1.656   0.899
10844SOL     OW33430   6.952   5.066   4.060
10844SOL    HW133431   7.001   4.993   4.109
10844SOL    HW233432   6.994   5.154   4.081
10845SOL     OW33433   4.340   6.166   4.779
10845SOL    HW133434   4.361   6.193   4.873
10845SOL    HW233435   4.321   6.068   4.777
10846SOL     OW33436   5.792   6.716   6.844
10846SOL    HW133437   5.880   6.684   6.878
10846SOL    HW233438   5.754   6.783   6.908
10847SOL     OW33439   2.889   2.251   0.040
10847SOL    HW133440   2.871   2.344   0.008
10847SOL    HW233441   2.852   2.186   6.993
10848SOL     OW33442   0.721   3.873   1.097
10848SOL    HW133443   0.640   3.924   1.065
10848SOL    HW233444   0.717   3.779   1.063
10849SOL     OW33445   2.816   4.932   4.331
10849SOL    HW133446   2.754   4.973   4.264
10849SOL    HW233447   2.762   4.890   4.404
10850SOL     OW33448   4.170   6.326   0.157
10850SOL    HW133449   4.237   6.397   0.179
10850SOL    HW233450   4.107   6.360   0.087
10851SOL     OW33451   2.839   4.040   1.411
10851SOL    HW133452   2.743   4.043   1.382
10851SOL    HW233453   2.858   4.118   1.471
10852SOL     OW33454   2.240   1.402   6.923
10852SOL    HW133455   2.301   1.362   6.854
10852SOL    HW233456   2.294   1.447   6.994
10853SOL     OW33457   2.741   3.188   6.209
10853SOL    HW133458   2.659   3.202   6.153
10853SOL    HW233459   2.716   3.198   6.306
10854SOL     OW33460   4.975   5.008   4.926
10854SOL    HW133461   4.948   5.099   4.895
10854SOL    HW233462   4.894   4.955   4.951
10855SOL     OW33463   3.856   0.662   0.696
10855SOL    HW133464   3.763   0.634   0.673
10855SOL    HW233465   3.874   0.752   0.657
10856SOL     OW33466   6.909   0.883   6.649
10856SOL    HW133467   6.853   0.906   6.570
10856SOL    HW233468   7.003   0.913   6.633
10857SOL     OW33469   0.465   1.665   2.626
10857SOL    HW133470   0.423   1.691   2.539
10857SOL    HW233471   0.453   1.740   2.692
10858SOL     OW33472   1.655   6.511   1.202
10858SOL    HW133473   1.698   6.602   1.200
10858SOL    HW233474   1.566   6.516   1.157
10859SOL     OW33475   6.706   4.645   4.657
10859SOL    HW133476   6.662   4.558   4.633
10859SOL    HW233477   6.707   4.655   4.756
10860SOL     OW33478   0.153   3.982   3.684
10860SOL    HW133479   0.127   4.069   3.642
10860SOL    HW233480   0.253   3.977   3.690
10861SOL     OW33481   2.923   3.619   3.488
10861SOL    HW133482   2.972   3.592   3.571
10861SOL    HW233483   2.838   3.567   3.482
10862SOL     OW33484   2.311   0.965   5.757
10862SOL    HW133485   2.327   0.877   5.803
10862SOL    HW233486   2.385   1.028   5.779
10863SOL     OW33487   2.359   0.466   4.592
10863SOL    HW133488   2.339   0.400   4.666
10863SOL    HW233489   2.407   0.419   4.518
10864SOL     OW33490   2.894   6.605   1.450
10864SOL    HW133491   2.900   6.614   1.549
10864SOL    HW233492   2.820   6.663   1.415
10865SOL     OW33493   6.482   1.396   0.175
10865SOL    HW133494   6.552   1.359   0.113
10865SOL    HW233495   6.397   1.344   0.164
10866SOL     OW33496   5.487   5.070   0.132
10866SOL    HW133497   5.583   5.041   0.126
10866SOL    HW233498   5.476   5.158   0.086
10867SOL     OW33499   3.128   4.244   0.440
10867SOL    HW133500   3.175   4.230   0.527
10867SOL    HW233501   3.116   4.342   0.424
10868SOL     OW33502   4.994   1.872   3.743
10868SOL    HW133503   5.057   1.795   3.747
10868SOL    HW233504   5.016   1.929   3.663
10869NA      NA33505   6.481   2.687   5.315
10870NA      NA33506   4.492   4.596   5.146
10871NA      NA33507   1.658   3.276   1.638
10872NA      NA33508   5.131   3.792   5.319
10873NA      NA33509   4.261   2.290   4.956
10874NA      NA33510   3.731   4.770   1.738
10875NA      NA33511   6.659   5.414   5.468
10876NA      NA33512   3.347   3.287   4.578
10877NA      NA33513   4.841   6.293   6.902
10878NA      NA33514   3.557   6.622   5.298
10879NA      NA33515   6.335   5.101   2.666
10880NA      NA33516   2.567   0.574   3.745
10881NA      NA33517   3.667   5.225   1.303
10882NA      NA33518   3.757   3.393   2.381
   7.01961   7.01961   7.01961
