Generated by trjconv : CNT in water t= 111.00000
33518
    1C        C    1   2.834   2.765   4.746
    1C        C    2   2.893   2.716   4.864
    1C        C    3   2.836   2.766   4.982
    1C        C    4   2.848   2.772   4.259
    1C        C    5   2.897   2.723   4.382
    1C        C    6   2.843   2.770   4.504
    1C        C    7   3.009   2.638   4.624
    1C        C    8   2.892   2.717   4.626
    1C        C    9   3.073   2.604   4.745
    1C        C   10   3.006   2.630   4.866
    1C        C   11   3.178   2.486   4.973
    1C        C   12   3.057   2.556   4.974
    1C        C   13   2.848   2.769   3.771
    1C        C   14   2.899   2.720   3.893
    1C        C   15   2.847   2.773   4.014
    1C        C   16   3.015   2.644   4.138
    1C        C   17   2.900   2.726   4.136
    1C        C   18   3.078   2.610   4.260
    1C        C   19   3.014   2.643   4.381
    1C        C   20   3.207   2.558   4.502
    1C        C   21   3.074   2.605   4.503
    1C        C   22   3.275   2.533   4.623
    1C        C   23   3.204   2.550   4.745
    1C        C   24   3.409   2.481   4.861
    1C        C   25   3.267   2.500   4.862
    1C        C   26   3.483   2.475   4.980
    1C        C   27   2.842   2.759   3.279
    1C        C   28   2.897   2.720   3.403
    1C        C   29   2.848   2.766   3.527
    1C        C   30   3.016   2.637   3.650
    1C        C   31   2.904   2.723   3.650
    1C        C   32   3.074   2.599   3.773
    1C        C   33   3.012   2.637   3.894
    1C        C   34   3.208   2.554   4.014
    1C        C   35   3.078   2.610   4.017
    1C        C   36   3.276   2.533   4.137
    1C        C   37   3.210   2.560   4.259
    1C        C   38   3.415   2.503   4.380
    1C        C   39   3.277   2.535   4.381
    1C        C   40   3.486   2.500   4.503
    1C        C   41   3.414   2.508   4.624
    1C        C   42   3.629   2.484   4.745
    1C        C   43   3.487   2.487   4.743
    1C        C   44   3.705   2.482   4.864
    1C        C   45   3.622   2.476   4.977
    1C        C   46   2.833   2.746   2.790
    1C        C   47   2.889   2.704   2.912
    1C        C   48   2.835   2.751   3.034
    1C        C   49   3.013   2.637   3.160
    1C        C   50   2.893   2.710   3.157
    1C        C   51   3.078   2.608   3.283
    1C        C   52   3.015   2.641   3.404
    1C        C   53   3.205   2.546   3.526
    1C        C   54   3.075   2.603   3.526
    1C        C   55   3.274   2.529   3.648
    1C        C   56   3.204   2.545   3.770
    1C        C   57   3.414   2.510   3.891
    1C        C   58   3.274   2.529   3.892
    1C        C   59   3.483   2.502   4.014
    1C        C   60   3.413   2.501   4.136
    1C        C   61   3.626   2.499   4.258
    1C        C   62   3.485   2.495   4.258
    1C        C   63   3.699   2.504   4.379
    1C        C   64   3.627   2.497   4.501
    1C        C   65   3.832   2.547   4.621
    1C        C   66   3.697   2.505   4.623
    1C        C   67   3.902   2.560   4.743
    1C        C   68   3.839   2.526   4.865
    1C        C   69   4.054   2.581   4.973
    1C        C   70   3.923   2.530   4.978
    1C        C   71   2.815   2.727   2.305
    1C        C   72   2.876   2.686   2.426
    1C        C   73   2.828   2.740   2.548
    1C        C   74   3.004   2.619   2.672
    1C        C   75   2.884   2.694   2.669
    1C        C   76   3.069   2.589   2.794
    1C        C   77   3.007   2.627   2.915
    1C        C   78   3.202   2.542   3.038
    1C        C   79   3.072   2.598   3.038
    1C        C   80   3.271   2.525   3.159
    1C        C   81   3.206   2.549   3.282
    1C        C   82   3.410   2.497   3.401
    1C        C   83   3.271   2.518   3.404
    1C        C   84   3.484   2.496   3.522
    1C        C   85   3.413   2.506   3.643
    1C        C   86   3.622   2.502   3.767
    1C        C   87   3.481   2.504   3.767
    1C        C   88   3.693   2.505   3.889
    1C        C   89   3.625   2.506   4.013
    1C        C   90   3.832   2.546   4.132
    1C        C   91   3.694   2.515   4.136
    1C        C   92   3.900   2.569   4.254
    1C        C   93   3.835   2.541   4.376
    1C        C   94   4.026   2.630   4.498
    1C        C   95   3.900   2.567   4.499
    1C        C   96   4.092   2.662   4.619
    1C        C   97   4.032   2.617   4.739
    1C        C   98   4.188   2.766   4.860
    1C        C   99   4.098   2.654   4.859
    1C        C  100   4.209   2.842   4.976
    1C        C  101   2.817   2.725   2.065
    1C        C  102   2.987   2.591   2.187
    1C        C  103   2.871   2.675   2.185
    1C        C  104   3.060   2.573   2.308
    1C        C  105   2.996   2.612   2.427
    1C        C  106   3.194   2.531   2.549
    1C        C  107   3.064   2.586   2.549
    1C        C  108   3.267   2.518   2.669
    1C        C  109   3.201   2.540   2.792
    1C        C  110   3.406   2.492   2.912
    1C        C  111   3.268   2.522   2.915
    1C        C  112   3.480   2.491   3.033
    1C        C  113   3.411   2.501   3.156
    1C        C  114   3.622   2.503   3.277
    1C        C  115   3.481   2.497   3.278
    1C        C  116   3.694   2.510   3.399
    1C        C  117   3.625   2.499   3.522
    1C        C  118   3.831   2.539   3.644
    1C        C  119   3.694   2.503   3.645
    1C        C  120   3.898   2.562   3.766
    1C        C  121   3.830   2.541   3.887
    1C        C  122   4.022   2.635   4.009
    1C        C  123   3.896   2.571   4.009
    1C        C  124   4.084   2.672   4.130
    1C        C  125   4.025   2.635   4.253
    1C        C  126   4.191   2.764   4.377
    1C        C  127   4.084   2.671   4.376
    1C        C  128   4.240   2.819   4.497
    1C        C  129   4.193   2.761   4.617
    1C        C  130   4.322   2.933   4.736
    1C        C  131   4.239   2.817   4.738
    1C        C  132   4.349   3.005   4.855
    1C        C  133   4.285   2.958   4.970
    1C        C  134   3.169   2.464   2.083
    1C        C  135   3.037   2.512   2.079
    1C        C  136   3.258   2.472   2.191
    1C        C  137   3.190   2.515   2.306
    1C        C  138   3.401   2.483   2.425
    1C        C  139   3.261   2.503   2.428
    1C        C  140   3.476   2.484   2.544
    1C        C  141   3.407   2.497   2.667
    1C        C  142   3.616   2.494   2.786
    1C        C  143   3.476   2.483   2.789
    1C        C  144   3.690   2.499   2.907
    1C        C  145   3.621   2.495   3.030
    1C        C  146   3.827   2.536   3.151
    1C        C  147   3.689   2.508   3.153
    1C        C  148   3.896   2.560   3.272
    1C        C  149   3.832   2.541   3.397
    1C        C  150   4.024   2.622   3.521
    1C        C  151   3.896   2.563   3.520
    1C        C  152   4.081   2.665   3.643
    1C        C  153   4.023   2.628   3.766
    1C        C  154   4.192   2.761   3.886
    1C        C  155   4.084   2.670   3.887
    1C        C  156   4.243   2.808   4.008
    1C        C  157   4.196   2.759   4.132
    1C        C  158   4.335   2.918   4.251
    1C        C  159   4.246   2.809   4.254
    1C        C  160   4.373   2.982   4.371
    1C        C  161   4.329   2.929   4.494
    1C        C  162   4.434   3.115   4.613
    1C        C  163   4.364   2.992   4.616
    1C        C  164   4.462   3.184   4.734
    1C        C  165   4.430   3.120   4.855
    1C        C  166   4.515   3.320   4.972
    1C        C  167   4.469   3.189   4.971
    1C        C  168   3.475   2.433   2.071
    1C        C  169   3.398   2.457   2.186
    1C        C  170   3.616   2.465   2.304
    1C        C  171   3.474   2.467   2.305
    1C        C  172   3.691   2.483   2.422
    1C        C  173   3.617   2.485   2.543
    1C        C  174   3.825   2.533   2.665
    1C        C  175   3.687   2.506   2.664
    1C        C  176   3.893   2.557   2.786
    1C        C  177   3.828   2.532   2.909
    1C        C  178   4.022   2.624   3.027
    1C        C  179   3.895   2.562   3.030
    1C        C  180   4.081   2.657   3.150
    1C        C  181   4.023   2.622   3.274
    1C        C  182   4.192   2.746   3.395
    1C        C  183   4.084   2.655   3.397
    1C        C  184   4.243   2.801   3.515
    1C        C  185   4.190   2.755   3.638
    1C        C  186   4.329   2.914   3.762
    1C        C  187   4.240   2.804   3.760
    1C        C  188   4.370   2.975   3.883
    1C        C  189   4.332   2.918   4.006
    1C        C  190   4.435   3.103   4.124
    1C        C  191   4.373   2.976   4.128
    1C        C  192   4.462   3.171   4.245
    1C        C  193   4.438   3.108   4.370
    1C        C  194   4.502   3.313   4.488
    1C        C  195   4.465   3.177   4.490
    1C        C  196   4.518   3.385   4.609
    1C        C  197   4.508   3.318   4.733
    1C        C  198   4.554   3.533   4.848
    1C        C  199   4.533   3.391   4.853
    1C        C  200   4.588   3.615   4.960
    1C        C  201   3.613   2.410   2.072
    1C        C  202   3.826   2.501   2.181
    1C        C  203   3.691   2.453   2.184
    1C        C  204   3.896   2.536   2.299
    1C        C  205   3.828   2.516   2.421
    1C        C  206   4.019   2.612   2.538
    1C        C  207   3.894   2.546   2.542
    1C        C  208   4.082   2.652   2.659
    1C        C  209   4.019   2.623   2.782
    1C        C  210   4.195   2.742   2.905
    1C        C  211   4.082   2.657   2.903
    1C        C  212   4.249   2.788   3.027
    1C        C  213   4.194   2.742   3.149
    1C        C  214   4.326   2.908   3.270
    1C        C  215   4.241   2.795   3.272
    1C        C  216   4.362   2.969   3.392
    1C        C  217   4.331   2.911   3.517
    1C        C  218   4.430   3.099   3.637
    1C        C  219   4.370   2.971   3.639
    1C        C  220   4.457   3.168   3.758
    1C        C  221   4.432   3.102   3.881
    1C        C  222   4.496   3.305   4.002
    1C        C  223   4.460   3.169   4.002
    1C        C  224   4.512   3.377   4.122
    1C        C  225   4.502   3.306   4.244
    1C        C  226   4.521   3.520   4.366
    1C        C  227   4.516   3.379   4.364
    1C        C  228   4.518   3.596   4.485
    1C        C  229   4.528   3.526   4.607
    1C        C  230   4.505   3.741   4.724
    1C        C  231   4.531   3.602   4.726
    1C        C  232   4.496   3.816   4.843
    1C        C  233   4.546   3.749   4.956
    1C        C  234   4.015   2.607   2.061
    1C        C  235   3.891   2.545   2.064
    1C        C  236   4.086   2.643   2.176
    1C        C  237   4.021   2.605   2.295
    1C        C  238   4.196   2.728   2.418
    1C        C  239   4.084   2.642   2.416
    1C        C  240   4.251   2.779   2.538
    1C        C  241   4.194   2.737   2.660
    1C        C  242   4.331   2.901   2.783
    1C        C  243   4.244   2.790   2.781
    1C        C  244   4.374   2.958   2.905
    1C        C  245   4.337   2.898   3.028
    1C        C  246   4.425   3.094   3.144
    1C        C  247   4.368   2.965   3.148
    1C        C  248   4.449   3.159   3.267
    1C        C  249   4.421   3.098   3.391
    1C        C  250   4.493   3.298   3.512
    1C        C  251   4.449   3.163   3.513
    1C        C  252   4.504   3.371   3.633
    1C        C  253   4.494   3.304   3.756
    1C        C  254   4.518   3.514   3.875
    1C        C  255   4.511   3.373   3.878
    1C        C  256   4.510   3.586   3.996
    1C        C  257   4.513   3.519   4.120
    1C        C  258   4.497   3.729   4.240
    1C        C  259   4.515   3.589   4.243
    1C        C  260   4.477   3.804   4.359
    1C        C  261   4.490   3.734   4.481
    1C        C  262   4.421   3.937   4.601
    1C        C  263   4.472   3.805   4.602
    1C        C  264   4.396   4.004   4.722
    1C        C  265   4.429   3.940   4.844
    1C        C  266   4.315   4.127   4.953
    1C        C  267   4.389   4.009   4.959
    1C        C  268   4.258   2.775   2.058
    1C        C  269   4.197   2.730   2.176
    1C        C  270   4.339   2.890   2.294
    1C        C  271   4.249   2.780   2.298
    1C        C  272   4.374   2.951   2.416
    1C        C  273   4.332   2.895   2.539
    1C        C  274   4.438   3.082   2.657
    1C        C  275   4.371   2.957   2.660
    1C        C  276   4.464   3.150   2.778
    1C        C  277   4.440   3.083   2.900
    1C        C  278   4.499   3.289   3.023
    1C        C  279   4.460   3.153   3.021
    1C        C  280   4.510   3.361   3.144
    1C        C  281   4.491   3.294   3.267
    1C        C  282   4.510   3.506   3.387
    1C        C  283   4.502   3.365   3.388
    1C        C  284   4.510   3.578   3.508
    1C        C  285   4.509   3.512   3.633
    1C        C  286   4.493   3.726   3.750
    1C        C  287   4.512   3.586   3.754
    1C        C  288   4.474   3.796   3.872
    1C        C  289   4.491   3.726   3.994
    1C        C  290   4.426   3.926   4.115
    1C        C  291   4.478   3.795   4.117
    1C        C  292   4.398   3.995   4.235
    1C        C  293   4.427   3.935   4.360
    1C        C  294   4.324   4.126   4.476
    1C        C  295   4.394   4.003   4.479
    1C        C  296   4.287   4.189   4.597
    1C        C  297   4.320   4.125   4.718
    1C        C  298   4.193   4.308   4.833
    1C        C  299   4.278   4.193   4.836
    1C        C  300   4.165   4.397   4.942
    1C        C  301   4.344   2.884   2.057
    1C        C  302   4.465   3.067   2.174
    1C        C  303   4.393   2.943   2.174
    1C        C  304   4.485   3.137   2.296
    1C        C  305   4.441   3.075   2.415
    1C        C  306   4.505   3.282   2.535
    1C        C  307   4.465   3.147   2.535
    1C        C  308   4.517   3.354   2.656
    1C        C  309   4.504   3.285   2.778
    1C        C  310   4.524   3.497   2.897
    1C        C  311   4.519   3.356   2.900
    1C        C  312   4.514   3.570   3.018
    1C        C  313   4.513   3.502   3.142
    1C        C  314   4.492   3.714   3.261
    1C        C  315   4.516   3.574   3.263
    1C        C  316   4.475   3.783   3.382
    1C        C  317   4.494   3.718   3.506
    1C        C  318   4.426   3.923   3.625
    1C        C  319   4.474   3.791   3.626
    1C        C  320   4.394   3.988   3.747
    1C        C  321   4.423   3.927   3.871
    1C        C  322   4.313   4.107   3.987
    1C        C  323   4.392   3.990   3.993
    1C        C  324   4.271   4.163   4.110
    1C        C  325   4.321   4.113   4.232
    1C        C  326   4.178   4.275   4.349
    1C        C  327   4.279   4.176   4.352
    1C        C  328   4.130   4.330   4.470
    1C        C  329   4.191   4.292   4.592
    1C        C  330   4.019   4.430   4.710
    1C        C  331   4.133   4.345   4.710
    1C        C  332   3.963   4.481   4.829
    1C        C  333   4.043   4.467   4.943
    1C        C  334   4.551   3.264   2.056
    1C        C  335   4.530   3.126   2.061
    1C        C  336   4.539   3.343   2.171
    1C        C  337   4.518   3.275   2.293
    1C        C  338   4.521   3.492   2.406
    1C        C  339   4.519   3.351   2.412
    1C        C  340   4.517   3.563   2.528
    1C        C  341   4.522   3.495   2.652
    1C        C  342   4.490   3.705   2.770
    1C        C  343   4.517   3.567   2.774
    1C        C  344   4.474   3.776   2.892
    1C        C  345   4.493   3.709   3.015
    1C        C  346   4.425   3.911   3.133
    1C        C  347   4.476   3.780   3.137
    1C        C  348   4.392   3.976   3.254
    1C        C  349   4.423   3.915   3.377
    1C        C  350   4.317   4.098   3.497
    1C        C  351   4.391   3.978   3.499
    1C        C  352   4.271   4.155   3.618
    1C        C  353   4.313   4.103   3.742
    1C        C  354   4.169   4.261   3.863
    1C        C  355   4.268   4.160   3.864
    1C        C  356   4.118   4.312   3.985
    1C        C  357   4.172   4.264   4.106
    1C        C  358   4.002   4.392   4.228
    1C        C  359   4.121   4.317   4.227
    1C        C  360   3.944   4.435   4.349
    1C        C  361   4.011   4.406   4.470
    1C        C  362   3.823   4.514   4.588
    1C        C  363   3.952   4.456   4.588
    1C        C  364   3.756   4.547   4.708
    1C        C  365   3.833   4.537   4.826
    1C        C  366   3.625   4.589   4.948
    1C        C  367   3.762   4.569   4.942
    1C        C  368   4.515   3.560   2.052
    1C        C  369   4.531   3.484   2.168
    1C        C  370   4.503   3.704   2.284
    1C        C  371   4.521   3.564   2.284
    1C        C  372   4.482   3.772   2.405
    1C        C  373   4.498   3.703   2.527
    1C        C  374   4.426   3.905   2.645
    1C        C  375   4.480   3.775   2.648
    1C        C  376   4.399   3.972   2.766
    1C        C  377   4.431   3.910   2.888
    1C        C  378   4.318   4.091   3.008
    1C        C  379   4.397   3.975   3.010
    1C        C  380   4.272   4.147   3.129
    1C        C  381   4.314   4.093   3.253
    1C        C  382   4.168   4.247   3.372
    1C        C  383   4.273   4.153   3.375
    1C        C  384   4.117   4.299   3.494
    1C        C  385   4.170   4.254   3.617
    1C        C  386   3.995   4.374   3.740
    1C        C  387   4.114   4.298   3.739
    1C        C  388   3.934   4.413   3.861
    1C        C  389   3.997   4.385   3.984
    1C        C  390   3.811   4.487   4.105
    1C        C  391   3.938   4.425   4.106
    1C        C  392   3.742   4.512   4.226
    1C        C  393   3.815   4.494   4.346
    1C        C  394   3.613   4.555   4.473
    1C        C  395   3.752   4.528   4.467
    1C        C  396   3.540   4.564   4.593
    1C        C  397   3.616   4.565   4.712
    1C        C  398   3.406   4.548   4.836
    1C        C  399   3.545   4.576   4.833
    1C        C  400   3.341   4.508   4.954
    1C        C  401   4.501   3.699   2.046
    1C        C  402   4.452   3.911   2.164
    1C        C  403   4.496   3.776   2.163
    1C        C  404   4.409   3.973   2.283
    1C        C  405   4.433   3.905   2.404
    1C        C  406   4.327   4.094   2.521
    1C        C  407   4.400   3.973   2.523
    1C        C  408   4.278   4.145   2.643
    1C        C  409   4.315   4.086   2.765
    1C        C  410   4.171   4.245   2.885
    1C        C  411   4.272   4.146   2.886
    1C        C  412   4.118   4.291   3.007
    1C        C  413   4.174   4.249   3.130
    1C        C  414   3.995   4.369   3.249
    1C        C  415   4.115   4.293   3.250
    1C        C  416   3.936   4.406   3.372
    1C        C  417   3.998   4.375   3.495
    1C        C  418   3.806   4.468   3.614
    1C        C  419   3.935   4.409   3.617
    1C        C  420   3.743   4.497   3.736
    1C        C  421   3.807   4.476   3.860
    1C        C  422   3.603   4.528   3.985
    1C        C  423   3.743   4.505   3.983
    1C        C  424   3.534   4.547   4.106
    1C        C  425   3.604   4.540   4.229
    1C        C  426   3.396   4.546   4.354
    1C        C  427   3.537   4.552   4.353
    1C        C  428   3.325   4.549   4.476
    1C        C  429   3.399   4.559   4.596
    1C        C  430   3.189   4.522   4.720
    1C        C  431   3.329   4.548   4.718
    1C        C  432   3.122   4.489   4.841
    1C        C  433   3.204   4.488   4.955
    1C        C  434   4.385   4.118   2.051
    1C        C  435   4.442   3.990   2.049
    1C        C  436   4.299   4.157   2.159
    1C        C  437   4.332   4.093   2.281
    1C        C  438   4.181   4.249   2.400
    1C        C  439   4.283   4.151   2.400
    1C        C  440   4.123   4.293   2.522
    1C        C  441   4.177   4.244   2.643
    1C        C  442   4.000   4.370   2.763
    1C        C  443   4.113   4.285   2.762
    1C        C  444   3.936   4.403   2.884
    1C        C  445   3.996   4.362   3.005
    1C        C  446   3.804   4.456   3.125
    1C        C  447   3.934   4.401   3.126
    1C        C  448   3.742   4.483   3.248
    1C        C  449   3.809   4.468   3.371
    1C        C  450   3.599   4.513   3.494
    1C        C  451   3.739   4.491   3.492
    1C        C  452   3.532   4.533   3.617
    1C        C  453   3.606   4.533   3.737
    1C        C  454   3.396   4.551   3.862
    1C        C  455   3.537   4.540   3.861
    1C        C  456   3.327   4.539   3.984
    1C        C  457   3.393   4.545   4.108
    1C        C  458   3.188   4.502   4.234
    1C        C  459   3.326   4.534   4.232
    1C        C  460   3.124   4.483   4.358
    1C        C  461   3.188   4.516   4.480
    1C        C  462   2.991   4.432   4.601
    1C        C  463   3.117   4.496   4.601
    1C        C  464   2.928   4.399   4.723
    1C        C  465   2.988   4.440   4.845
    1C        C  466   2.798   4.328   4.961
    1C        C  467   2.898   4.426   4.955
    1C        C  468   4.119   4.277   2.040
    1C        C  469   4.187   4.246   2.159
    1C        C  470   4.001   4.363   2.273
    1C        C  471   4.123   4.290   2.278
    1C        C  472   3.937   4.394   2.395
    1C        C  473   4.001   4.364   2.517
    1C        C  474   3.811   4.459   2.638
    1C        C  475   3.942   4.405   2.639
    1C        C  476   3.741   4.482   2.759
    1C        C  477   3.808   4.463   2.881
    1C        C  478   3.600   4.512   3.005
    1C        C  479   3.739   4.485   3.003
    1C        C  480   3.532   4.522   3.128
    1C        C  481   3.604   4.516   3.249
    1C        C  482   3.392   4.534   3.372
    1C        C  483   3.533   4.524   3.370
    1C        C  484   3.322   4.529   3.495
    1C        C  485   3.391   4.536   3.619
    1C        C  486   3.187   4.499   3.744
    1C        C  487   3.322   4.542   3.742
    1C        C  488   3.124   4.471   3.868
    1C        C  489   3.192   4.496   3.989
    1C        C  490   2.995   4.417   4.112
    1C        C  491   3.122   4.479   4.111
    1C        C  492   2.938   4.380   4.236
    1C        C  493   2.998   4.420   4.357
    1C        C  494   2.829   4.295   4.481
    1C        C  495   2.933   4.390   4.479
    1C        C  496   2.774   4.249   4.603
    1C        C  497   2.819   4.307   4.724
    1C        C  498   2.658   4.163   4.840
    1C        C  499   2.752   4.269   4.842
    1C        C  500   2.586   4.117   4.951
    1C        C  501   4.001   4.351   2.038
    1C        C  502   3.808   4.455   2.150
    1C        C  503   3.936   4.397   2.153
    1C        C  504   3.741   4.477   2.272
    1C        C  505   3.805   4.445   2.394
    1C        C  506   3.602   4.500   2.515
    1C        C  507   3.740   4.470   2.517
    1C        C  508   3.531   4.510   2.637
    1C        C  509   3.602   4.509   2.759
    1C        C  510   3.391   4.522   2.885
    1C        C  511   3.532   4.518   2.881
    1C        C  512   3.318   4.526   3.006
    1C        C  513   3.391   4.531   3.127
    1C        C  514   3.184   4.499   3.252
    1C        C  515   3.321   4.531   3.250
    1C        C  516   3.120   4.470   3.375
    1C        C  517   3.185   4.494   3.498
    1C        C  518   2.996   4.407   3.623
    1C        C  519   3.122   4.471   3.622
    1C        C  520   2.936   4.373   3.746
    1C        C  521   2.996   4.411   3.868
    1C        C  522   2.830   4.282   3.992
    1C        C  523   2.938   4.372   3.991
    1C        C  524   2.782   4.234   4.117
    1C        C  525   2.827   4.293   4.237
    1C        C  526   2.693   4.129   4.361
    1C        C  527   2.779   4.242   4.360
    1C        C  528   2.652   4.071   4.483
    1C        C  529   2.689   4.136   4.602
    1C        C  530   2.583   3.955   4.732
    1C        C  531   2.638   4.086   4.724
    1C        C  532   2.536   3.897   4.853
    1C        C  533   2.521   3.993   4.958
    1C        C  534   3.614   4.558   2.035
    1C        C  535   3.745   4.509   2.036
    1C        C  536   3.531   4.533   2.149
    1C        C  537   3.603   4.512   2.270
    1C        C  538   3.392   4.517   2.397
    1C        C  539   3.533   4.515   2.393
    1C        C  540   3.319   4.509   2.517
    1C        C  541   3.390   4.515   2.639
    1C        C  542   3.182   4.488   2.762
    1C        C  543   3.320   4.519   2.762
    1C        C  544   3.115   4.466   2.885
    1C        C  545   3.181   4.490   3.007
    1C        C  546   2.993   4.403   3.132
    1C        C  547   3.116   4.473   3.131
    1C        C  548   2.935   4.365   3.255
    1C        C  549   2.994   4.406   3.377
    1C        C  550   2.828   4.278   3.503
    1C        C  551   2.935   4.371   3.501
    1C        C  552   2.778   4.229   3.625
    1C        C  553   2.829   4.281   3.746
    1C        C  554   2.692   4.122   3.870
    1C        C  555   2.781   4.232   3.869
    1C        C  556   2.661   4.060   3.993
    1C        C  557   2.699   4.120   4.115
    1C        C  558   2.599   3.938   4.244
    1C        C  559   2.661   4.064   4.239
    1C        C  560   2.571   3.876   4.368
    1C        C  561   2.593   3.943   4.490
    1C        C  562   2.521   3.747   4.612
    1C        C  563   2.559   3.882   4.613
    1C        C  564   2.504   3.678   4.734
    1C        C  565   2.507   3.757   4.852
    1C        C  566   2.525   3.541   4.977
    1C        C  567   2.516   3.680   4.969
    1C        C  568   3.320   4.477   2.039
    1C        C  569   3.390   4.513   2.155
    1C        C  570   3.178   4.477   2.278
    1C        C  571   3.318   4.503   2.277
    1C        C  572   3.109   4.457   2.400
    1C        C  573   3.180   4.482   2.520
    1C        C  574   2.985   4.402   2.644
    1C        C  575   3.112   4.465   2.642
    1C        C  576   2.929   4.358   2.766
    1C        C  577   2.992   4.398   2.886
    1C        C  578   2.829   4.269   3.013
    1C        C  579   2.933   4.364   3.010
    1C        C  580   2.781   4.219   3.136
    1C        C  581   2.829   4.272   3.258
    1C        C  582   2.695   4.111   3.382
    1C        C  583   2.778   4.225   3.382
    1C        C  584   2.658   4.051   3.505
    1C        C  585   2.693   4.116   3.626
    1C        C  586   2.593   3.932   3.753
    1C        C  587   2.656   4.058   3.750
    1C        C  588   2.575   3.865   3.876
    1C        C  589   2.605   3.930   3.998
    1C        C  590   2.541   3.732   4.125
    1C        C  591   2.579   3.868   4.123
    1C        C  592   2.527   3.666   4.249
    1C        C  593   2.535   3.739   4.369
    1C        C  594   2.516   3.530   4.496
    1C        C  595   2.520   3.671   4.492
    1C        C  596   2.511   3.461   4.619
    1C        C  597   2.505   3.536   4.739
    1C        C  598   2.529   3.324   4.860
    1C        C  599   2.517   3.464   4.860
    1C        C  600   2.524   3.242   4.974
    1C        C  601   3.187   4.441   2.041
    1C        C  602   2.974   4.401   2.158
    1C        C  603   3.109   4.447   2.158
    1C        C  604   2.917   4.364   2.283
    1C        C  605   2.982   4.397   2.404
    1C        C  606   2.814   4.267   2.527
    1C        C  607   2.919   4.362   2.526
    1C        C  608   2.766   4.217   2.650
    1C        C  609   2.823   4.264   2.770
    1C        C  610   2.686   4.106   2.894
    1C        C  611   2.778   4.213   2.893
    1C        C  612   2.650   4.049   3.018
    1C        C  613   2.691   4.110   3.139
    1C        C  614   2.591   3.924   3.263
    1C        C  615   2.652   4.051   3.261
    1C        C  616   2.567   3.861   3.387
    1C        C  617   2.595   3.925   3.510
    1C        C  618   2.533   3.725   3.634
    1C        C  619   2.563   3.863   3.633
    1C        C  620   2.523   3.659   3.759
    1C        C  621   2.535   3.730   3.880
    1C        C  622   2.508   3.521   4.007
    1C        C  623   2.522   3.662   4.003
    1C        C  624   2.512   3.452   4.130
    1C        C  625   2.514   3.525   4.251
    1C        C  626   2.532   3.316   4.380
    1C        C  627   2.515   3.456   4.375
    1C        C  628   2.548   3.248   4.502
    1C        C  629   2.529   3.321   4.622
    1C        C  630   2.591   3.113   4.743
    1C        C  631   2.544   3.248   4.742
    1C        C  632   2.615   3.045   4.865
    1C        C  633   2.560   3.107   4.982
    1C        C  634   2.776   4.302   2.051
    1C        C  635   2.885   4.390   2.046
    1C        C  636   2.744   4.228   2.165
    1C        C  637   2.806   4.274   2.283
    1C        C  638   2.672   4.109   2.407
    1C        C  639   2.761   4.219   2.405
    1C        C  640   2.640   4.046   2.530
    1C        C  641   2.679   4.105   2.652
    1C        C  642   2.586   3.915   2.773
    1C        C  643   2.644   4.044   2.774
    1C        C  644   2.568   3.852   2.898
    1C        C  645   2.595   3.919   3.020
    1C        C  646   2.532   3.717   3.144
    1C        C  647   2.569   3.854   3.143
    1C        C  648   2.517   3.652   3.269
    1C        C  649   2.532   3.724   3.389
    1C        C  650   2.510   3.514   3.516
    1C        C  651   2.519   3.655   3.512
    1C        C  652   2.512   3.446   3.639
    1C        C  653   2.513   3.519   3.760
    1C        C  654   2.532   3.311   3.886
    1C        C  655   2.510   3.451   3.884
    1C        C  656   2.551   3.246   4.010
    1C        C  657   2.537   3.313   4.134
    1C        C  658   2.602   3.115   4.257
    1C        C  659   2.553   3.248   4.258
    1C        C  660   2.626   3.050   4.380
    1C        C  661   2.594   3.115   4.502
    1C        C  662   2.700   2.928   4.620
    1C        C  663   2.623   3.047   4.623
    1C        C  664   2.741   2.872   4.743
    1C        C  665   2.690   2.923   4.866
    1C        C  666   2.737   2.864   4.984
    1C        C  667   2.671   4.022   2.053
    1C        C  668   2.681   4.102   2.167
    1C        C  669   2.586   3.909   2.289
    1C        C  670   2.643   4.039   2.288
    1C        C  671   2.559   3.844   2.411
    1C        C  672   2.590   3.914   2.530
    1C        C  673   2.517   3.714   2.657
    1C        C  674   2.560   3.849   2.651
    1C        C  675   2.510   3.646   2.780
    1C        C  676   2.526   3.718   2.901
    1C        C  677   2.505   3.507   3.027
    1C        C  678   2.512   3.648   3.023
    1C        C  679   2.502   3.438   3.150
    1C        C  680   2.501   3.512   3.270
    1C        C  681   2.531   3.304   3.399
    1C        C  682   2.509   3.443   3.393
    1C        C  683   2.547   3.236   3.522
    1C        C  684   2.529   3.305   3.643
    1C        C  685   2.594   3.106   3.767
    1C        C  686   2.543   3.238   3.766
    1C        C  687   2.631   3.049   3.891
    1C        C  688   2.600   3.114   4.013
    1C        C  689   2.708   2.932   4.136
    1C        C  690   2.631   3.050   4.135
    1C        C  691   2.755   2.878   4.258
    1C        C  692   2.704   2.932   4.378
    1C        C  693   2.745   2.871   4.499
    1C        C  694   2.631   3.888   2.053
    1C        C  695   2.524   3.702   2.172
    1C        C  696   2.580   3.831   2.171
    1C        C  697   2.507   3.632   2.293
    1C        C  698   2.524   3.707   2.412
    1C        C  699   2.494   3.501   2.540
    1C        C  700   2.507   3.641   2.536
    1C        C  701   2.503   3.432   2.663
    1C        C  702   2.499   3.505   2.783
    1C        C  703   2.528   3.295   2.909
    1C        C  704   2.503   3.434   2.906
    1C        C  705   2.541   3.228   3.032
    1C        C  706   2.524   3.298   3.154
    1C        C  707   2.595   3.101   3.276
    1C        C  708   2.546   3.234   3.278
    1C        C  709   2.626   3.038   3.398
    1C        C  710   2.599   3.104   3.520
    1C        C  711   2.705   2.925   3.646
    1C        C  712   2.627   3.043   3.645
    1C        C  713   2.756   2.876   3.769
    1C        C  714   2.710   2.932   3.890
    1C        C  715   2.752   2.877   4.014
    1C        C  716   2.449   3.493   2.059
    1C        C  717   2.490   3.627   2.058
    1C        C  718   2.464   3.417   2.179
    1C        C  719   2.476   3.494   2.298
    1C        C  720   2.516   3.287   2.422
    1C        C  721   2.486   3.425   2.421
    1C        C  722   2.537   3.220   2.545
    1C        C  723   2.521   3.292   2.665
    1C        C  724   2.588   3.092   2.786
    1C        C  725   2.538   3.224   2.788
    1C        C  726   2.621   3.033   2.911
    1C        C  727   2.590   3.095   3.034
    1C        C  728   2.705   2.916   3.156
    1C        C  729   2.628   3.035   3.156
    1C        C  730   2.749   2.865   3.280
    1C        C  731   2.706   2.921   3.402
    1C        C  732   2.749   2.867   3.525
    1C        C  733   2.483   3.192   2.068
    1C        C  734   2.486   3.276   2.181
    1C        C  735   2.582   3.083   2.299
    1C        C  736   2.525   3.213   2.302
    1C        C  737   2.612   3.021   2.423
    1C        C  738   2.589   3.089   2.545
    1C        C  739   2.699   2.908   2.667
    1C        C  740   2.620   3.024   2.667
    1C        C  741   2.744   2.857   2.791
    1C        C  742   2.701   2.917   2.911
    1C        C  743   2.749   2.863   3.032
    1C        C  744   2.534   3.063   2.073
    1C        C  745   2.680   2.890   2.182
    1C        C  746   2.602   3.007   2.182
    1C        C  747   2.728   2.839   2.305
    1C        C  748   2.683   2.899   2.425
    1C        C  749   2.737   2.848   2.545
    1C        C  750   2.729   2.833   2.064
    1C        C  751   3.652   2.297   1.984
    1C        O  752   3.639   2.175   2.013
    1C        O  753   3.680   2.325   1.850
    1C        C  754   4.650   3.053   2.012
    1C        O  755   4.639   2.972   1.916
    1C        O  756   4.764   3.029   2.089
    1C        C  757   4.442   4.216   1.955
    1C        O  758   4.560   4.256   1.974
    1C        O  759   4.436   4.181   1.820
    1C        C  760   3.599   4.686   1.963
    1C        O  761   3.636   4.794   2.016
    1C        O  762   3.578   4.705   1.826
    1C        C  763   2.886   4.477   1.927
    1C        O  764   2.929   4.434   1.816
    1C        O  765   2.795   4.584   1.926
    1C        C  766   2.322   3.478   1.984
    1C        O  767   2.334   3.474   1.859
    1C        O  768   2.194   3.500   2.039
    1C        C  769   4.711   3.595   5.040
    1C        O  770   4.709   3.578   5.164
    1C        O  771   4.822   3.535   4.978
    1C        C  772   4.277   4.452   5.021
    1C        O  773   4.287   4.446   5.146
    1C        O  774   4.399   4.510   4.983
    1C        C  775   4.160   2.527   5.061
    1C        O  776   4.231   2.430   5.024
    1C        O  777   4.177   2.560   5.196
    1C        C  778   2.887   4.545   5.042
    1C        O  779   2.821   4.643   4.997
    1C        O  780   2.946   4.565   5.167
    1C        C  781   2.482   3.042   5.090
    1C        O  782   2.369   2.997   5.055
    1C        O  783   2.534   3.000   5.211
    1C        C  784   2.432   3.983   5.076
    1C        O  785   2.306   3.982   5.066
    1C        O  786   2.477   3.984   5.208
    1C        C  787   2.950   2.426   1.996
    1C        O  788   2.947   2.424   1.870
    1C        O  789   2.866   2.334   2.058
    1C        C  790   3.177   2.363   5.055
    1C        O  791   3.148   2.249   5.009
    1C        O  792   3.168   2.360   5.195
    1C        H  793   4.289   3.023   5.056
    1C        H  794   4.187   2.804   5.073
    1C        H  795   4.484   3.135   5.063
    1C        H  796   4.558   3.361   5.061
    1C        H  797   4.512   3.780   5.052
    1C        H  798   4.443   3.989   5.050
    1C        H  799   4.324   4.189   5.040
    1C        H  800   4.004   4.485   5.041
    1C        H  801   3.823   4.615   5.018
    1C        H  802   3.584   4.645   5.029
    1C        H  803   3.398   4.435   5.008
    1C        H  804   3.156   4.507   5.049
    1C        H  805   3.887   2.515   5.077
    1C        H  806   3.671   2.480   5.072
    1C        H  807   3.017   2.563   5.073
    1C        H  808   3.439   2.440   5.072
    1C        H  809   2.872   2.741   5.079
    1C        H  810   2.696   2.892   5.078
    1C        H  811   2.564   3.297   5.057
    1C        H  812   2.600   3.509   5.046
    1C        H  813   2.482   3.729   5.058
    1C        H  814   2.534   4.194   5.004
    1C        H  815   2.789   4.270   5.050
    1C        H  816   2.693   2.862   1.968
    1C        H  817   2.886   2.717   1.984
    1C        H  818   3.183   2.381   2.017
    1C        H  819   3.430   2.446   1.975
    1C        H  820   3.857   2.513   1.968
    1C        H  821   4.065   2.600   1.966
    1C        H  822   4.221   2.737   1.965
    1C        H  823   4.382   2.912   1.960
    1C        H  824   4.589   3.307   1.966
    1C        H  825   4.490   3.514   1.958
    1C        H  826   4.544   3.737   1.956
    1C        H  827   3.785   4.495   1.938
    1C        H  828   3.937   4.342   1.953
    1C        H  829   4.133   4.209   1.959
    1C        H  830   4.506   3.966   1.967
    1C        H  831   2.684   3.830   1.981
    1C        H  832   2.658   4.073   1.960
    1C        H  833   2.717   4.294   1.962
    1C        H  834   3.370   4.442   1.951
    1C        H  835   3.146   4.401   1.951
    1C        H  836   2.510   2.998   1.991
    1C        H  837   2.425   3.221   1.983
    1C        H  838   2.505   3.671   1.962
    2V3OU   H29  839   2.793   3.556   1.570
    2V3OU   C27  840   2.773   3.498   1.664
    2V3OU   H27  841   2.723   3.560   1.742
    2V3OU   H28  842   2.732   3.397   1.638
    2V3OU   O11  843   2.901   3.470   1.723
    2V3OU   C15  844   2.919   3.395   1.837
    2V3OU   C13  845   3.047   3.375   1.894
    2V3OU   C14  846   3.070   3.270   1.984
    2V3OU   C16  847   2.966   3.189   2.028
    2V3OU    H6  848   2.986   3.102   2.092
    2V3OU   C12  849   3.210   3.229   2.011
    2V3OU    O2  850   3.238   3.120   2.066
    2V3OU   C10  851   3.323   3.307   1.959
    2V3OU    C8  852   3.455   3.268   1.974
    2V3OU   O10  853   3.485   3.152   2.041
    2V3OU   H26  854   3.398   3.113   2.055
    2V3OU    C6  855   3.562   3.349   1.925
    2V3OU    C5  856   3.537   3.463   1.850
    2V3OU    C4  857   3.699   3.291   1.923
    2V3OU    H4  858   3.714   3.224   2.013
    2V3OU    H5  859   3.708   3.221   1.835
    2V3OU    C2  860   3.811   3.394   1.913
    2V3OU    O6  861   3.804   3.470   2.034
    2V3OU   H21  862   3.760   3.554   2.013
    2V3OU    C3  863   3.780   3.493   1.800
    2V3OU    H2  864   3.863   3.569   1.795
    2V3OU    H3  865   3.778   3.431   1.707
    2V3OU   C25  866   3.946   3.323   1.900
    2V3OU    O7  867   3.995   3.291   1.791
    2V3OU   C26  868   4.025   3.284   2.024
    2V3OU   H22  869   4.056   3.383   2.065
    2V3OU   H23  870   4.120   3.233   1.992
    2V3OU    O8  871   3.965   3.208   2.126
    2V3OU   H24  872   3.924   3.265   2.193
    2V3OU    C1  873   3.644   3.561   1.810
    2V3OU    H1  874   3.619   3.614   1.714
    2V3OU    O3  875   3.663   3.653   1.918
    2V3OU   C19  876   3.615   3.788   1.910
    2V3OU    H9  877   3.518   3.808   1.856
    2V3OU    O4  878   3.708   3.848   1.823
    2V3OU   C20  879   3.840   3.872   1.872
    2V3OU   H10  880   3.883   3.768   1.881
    2V3OU   C24  881   3.603   3.850   2.050
    2V3OU   H16  882   3.534   3.788   2.113
    2V3OU   H17  883   3.561   3.953   2.044
    2V3OU   C23  884   3.746   3.870   2.101
    2V3OU   H15  885   3.791   3.768   2.126
    2V3OU    N1  886   3.738   3.952   2.220
    2V3OU   H19  887   3.811   3.922   2.281
    2V3OU   H20  888   3.651   3.941   2.269
    2V3OU   C21  889   3.844   3.945   2.006
    2V3OU   H11  890   3.947   3.923   2.047
    2V3OU    O5  891   3.827   4.086   2.011
    2V3OU   H18  892   3.782   4.100   2.096
    2V3OU   C22  893   3.915   3.946   1.762
    2V3OU   H12  894   3.867   4.045   1.742
    2V3OU   H13  895   3.906   3.893   1.664
    2V3OU   H14  896   4.023   3.951   1.792
    2V3OU   C11  897   3.155   3.469   1.862
    2V3OU    O1  898   3.130   3.583   1.816
    2V3OU    C9  899   3.295   3.425   1.885
    2V3OU    C7  900   3.400   3.496   1.829
    2V3OU    O9  901   3.378   3.610   1.754
    2V3OU   H25  902   3.284   3.624   1.774
    2V3OU   C17  903   2.817   3.314   1.890
    2V3OU    H7  904   2.721   3.329   1.843
    2V3OU   C18  905   2.837   3.211   1.983
    2V3OU    H8  906   2.750   3.144   1.992
    3SOL     OW  907   1.731   3.714   1.424
    3SOL    HW1  908   1.771   3.765   1.501
    3SOL    HW2  909   1.698   3.779   1.355
    4SOL     OW  910   6.116   0.361   1.757
    4SOL    HW1  911   6.147   0.299   1.828
    4SOL    HW2  912   6.167   0.447   1.763
    5SOL     OW  913   4.073   1.184   1.081
    5SOL    HW1  914   4.140   1.257   1.069
    5SOL    HW2  915   4.035   1.189   1.173
    6SOL     OW  916   3.029   2.123   2.101
    6SOL    HW1  917   3.038   2.116   2.200
    6SOL    HW2  918   2.985   2.209   2.077
    7SOL     OW  919   5.936   2.532   2.312
    7SOL    HW1  920   5.846   2.493   2.333
    7SOL    HW2  921   5.937   2.628   2.338
    8SOL     OW  922   2.491   6.662   4.125
    8SOL    HW1  923   2.436   6.626   4.200
    8SOL    HW2  924   2.433   6.672   4.043
    9SOL     OW  925   1.733   5.277   5.800
    9SOL    HW1  926   1.745   5.356   5.860
    9SOL    HW2  927   1.665   5.215   5.841
   10SOL     OW  928   0.806   4.506   6.025
   10SOL    HW1  929   0.762   4.529   6.111
   10SOL    HW2  930   0.904   4.492   6.040
   11SOL     OW  931   3.485   6.556   0.457
   11SOL    HW1  932   3.576   6.551   0.417
   11SOL    HW2  933   3.445   6.646   0.439
   12SOL     OW  934   5.051   5.433   3.219
   12SOL    HW1  935   5.097   5.438   3.130
   12SOL    HW2  936   4.964   5.481   3.214
   13SOL     OW  937   2.958   6.393   4.305
   13SOL    HW1  938   2.859   6.409   4.309
   13SOL    HW2  939   2.992   6.419   4.215
   14SOL     OW  940   3.519   5.966   6.803
   14SOL    HW1  941   3.554   5.881   6.841
   14SOL    HW2  942   3.545   6.042   6.862
   15SOL     OW  943   1.114   6.041   6.782
   15SOL    HW1  944   1.072   6.046   6.872
   15SOL    HW2  945   1.189   6.107   6.777
   16SOL     OW  946   6.689   2.185   6.105
   16SOL    HW1  947   6.715   2.147   6.016
   16SOL    HW2  948   6.769   2.228   6.148
   17SOL     OW  949   5.159   6.325   4.246
   17SOL    HW1  950   5.138   6.272   4.165
   17SOL    HW2  951   5.077   6.373   4.277
   18SOL     OW  952   2.213   1.997   5.678
   18SOL    HW1  953   2.251   2.083   5.711
   18SOL    HW2  954   2.182   2.008   5.584
   19SOL     OW  955   0.073   0.220   2.709
   19SOL    HW1  956   0.081   0.234   2.610
   19SOL    HW2  957   7.015   0.158   2.728
   20SOL     OW  958   3.416   1.453   4.175
   20SOL    HW1  959   3.488   1.404   4.125
   20SOL    HW2  960   3.347   1.388   4.207
   21SOL     OW  961   2.926   1.521   2.056
   21SOL    HW1  962   2.953   1.424   2.053
   21SOL    HW2  963   2.894   1.543   2.148
   22SOL     OW  964   2.218   6.519   6.462
   22SOL    HW1  965   2.187   6.440   6.514
   22SOL    HW2  966   2.146   6.589   6.461
   23SOL     OW  967   4.231   6.360   3.673
   23SOL    HW1  968   4.237   6.296   3.750
   23SOL    HW2  969   4.323   6.394   3.652
   24SOL     OW  970   5.227   0.789   4.463
   24SOL    HW1  971   5.206   0.785   4.561
   24SOL    HW2  972   5.316   0.748   4.447
   25SOL     OW  973   3.061   5.406   0.430
   25SOL    HW1  974   3.148   5.410   0.479
   25SOL    HW2  975   3.078   5.416   0.332
   26SOL     OW  976   6.344   1.482   1.704
   26SOL    HW1  977   6.390   1.399   1.735
   26SOL    HW2  978   6.386   1.514   1.618
   27SOL     OW  979   6.411   0.158   2.244
   27SOL    HW1  980   6.455   0.240   2.207
   27SOL    HW2  981   6.420   0.083   2.178
   28SOL     OW  982   4.508   0.813   6.757
   28SOL    HW1  983   4.456   0.809   6.842
   28SOL    HW2  984   4.444   0.814   6.680
   29SOL     OW  985   4.965   2.365   2.136
   29SOL    HW1  986   4.968   2.374   2.236
   29SOL    HW2  987   4.941   2.271   2.112
   30SOL     OW  988   2.746   6.887   5.433
   30SOL    HW1  989   2.784   6.979   5.442
   30SOL    HW2  990   2.700   6.879   5.344
   31SOL     OW  991   0.994   0.932   5.080
   31SOL    HW1  992   0.950   0.939   5.170
   31SOL    HW2  993   1.073   0.993   5.078
   32SOL     OW  994   0.774   1.862   2.383
   32SOL    HW1  995   0.703   1.926   2.413
   32SOL    HW2  996   0.809   1.811   2.462
   33SOL     OW  997   1.659   2.819   5.648
   33SOL    HW1  998   1.668   2.779   5.557
   33SOL    HW2  999   1.734   2.883   5.665
   34SOL     OW 1000   2.014   0.147   4.928
   34SOL    HW1 1001   1.972   0.082   4.866
   34SOL    HW2 1002   1.994   0.121   5.023
   35SOL     OW 1003   4.537   1.426   0.084
   35SOL    HW1 1004   4.606   1.484   0.127
   35SOL    HW2 1005   4.510   1.464   7.013
   36SOL     OW 1006   1.352   0.675   6.135
   36SOL    HW1 1007   1.400   0.726   6.063
   36SOL    HW2 1008   1.402   0.591   6.156
   37SOL     OW 1009   2.532   6.522   1.336
   37SOL    HW1 1010   2.518   6.574   1.252
   37SOL    HW2 1011   2.627   6.532   1.366
   38SOL     OW 1012   6.982   6.136   3.029
   38SOL    HW1 1013   0.017   6.178   2.954
   38SOL    HW2 1014   6.981   6.037   3.017
   39SOL     OW 1015   6.365   3.495   5.842
   39SOL    HW1 1016   6.364   3.444   5.928
   39SOL    HW2 1017   6.295   3.458   5.780
   40SOL     OW 1018   6.172   1.265   2.630
   40SOL    HW1 1019   6.167   1.357   2.590
   40SOL    HW2 1020   6.251   1.217   2.592
   41SOL     OW 1021   1.543   6.847   4.385
   41SOL    HW1 1022   1.602   6.770   4.362
   41SOL    HW2 1023   1.536   6.908   4.306
   42SOL     OW 1024   3.616   6.910   6.179
   42SOL    HW1 1025   3.538   6.971   6.164
   42SOL    HW2 1026   3.583   6.819   6.202
   43SOL     OW 1027   5.528   6.417   5.937
   43SOL    HW1 1028   5.572   6.345   5.990
   43SOL    HW2 1029   5.493   6.380   5.851
   44SOL     OW 1030   0.147   2.797   6.296
   44SOL    HW1 1031   0.156   2.749   6.383
   44SOL    HW2 1032   0.184   2.890   6.305
   45SOL     OW 1033   3.166   0.981   2.110
   45SOL    HW1 1034   3.086   0.940   2.068
   45SOL    HW2 1035   3.141   1.019   2.199
   46SOL     OW 1036   1.426   3.633   3.973
   46SOL    HW1 1037   1.344   3.577   3.984
   46SOL    HW2 1038   1.493   3.583   3.918
   47SOL     OW 1039   6.091   4.153   3.729
   47SOL    HW1 1040   6.017   4.091   3.754
   47SOL    HW2 1041   6.066   4.247   3.754
   48SOL     OW 1042   0.048   2.852   4.708
   48SOL    HW1 1043   6.975   2.838   4.666
   48SOL    HW2 1044   0.045   2.822   4.803
   49SOL     OW 1045   4.464   4.209   0.752
   49SOL    HW1 1046   4.531   4.163   0.694
   49SOL    HW2 1047   4.449   4.302   0.719
   50SOL     OW 1048   6.854   3.300   4.765
   50SOL    HW1 1049   6.773   3.318   4.709
   50SOL    HW2 1050   6.920   3.374   4.753
   51SOL     OW 1051   3.455   5.014   2.851
   51SOL    HW1 1052   3.453   4.967   2.762
   51SOL    HW2 1053   3.411   4.957   2.920
   52SOL     OW 1054   2.825   1.591   2.555
   52SOL    HW1 1055   2.905   1.577   2.613
   52SOL    HW2 1056   2.837   1.542   2.469
   53SOL     OW 1057   5.107   6.503   3.937
   53SOL    HW1 1058   5.096   6.574   4.007
   53SOL    HW2 1059   5.018   6.464   3.915
   54SOL     OW 1060   2.902   5.168   5.980
   54SOL    HW1 1061   2.908   5.094   5.913
   54SOL    HW2 1062   2.954   5.145   6.061
   55SOL     OW 1063   3.665   1.505   5.889
   55SOL    HW1 1064   3.759   1.537   5.889
   55SOL    HW2 1065   3.638   1.479   5.796
   56SOL     OW 1066   1.520   0.919   2.518
   56SOL    HW1 1067   1.521   0.833   2.466
   56SOL    HW2 1068   1.526   0.900   2.615
   57SOL     OW 1069   4.934   1.012   0.791
   57SOL    HW1 1070   5.022   1.014   0.743
   57SOL    HW2 1071   4.949   0.989   0.887
   58SOL     OW 1072   0.399   6.560   6.998
   58SOL    HW1 1073   0.361   6.469   6.985
   58SOL    HW2 1074   0.490   6.565   6.958
   59SOL     OW 1075   1.602   0.439   5.937
   59SOL    HW1 1076   1.642   0.410   5.849
   59SOL    HW2 1077   1.666   0.500   5.984
   60SOL     OW 1078   4.482   0.076   5.568
   60SOL    HW1 1079   4.511   0.170   5.586
   60SOL    HW2 1080   4.382   0.073   5.562
   61SOL     OW 1081   5.113   0.157   4.065
   61SOL    HW1 1082   5.091   0.132   3.971
   61SOL    HW2 1083   5.035   0.138   4.124
   62SOL     OW 1084   1.129   0.470   3.818
   62SOL    HW1 1085   1.220   0.470   3.777
   62SOL    HW2 1086   1.108   0.562   3.853
   63SOL     OW 1087   6.618   2.425   3.371
   63SOL    HW1 1088   6.711   2.392   3.386
   63SOL    HW2 1089   6.605   2.510   3.423
   64SOL     OW 1090   6.672   3.721   6.192
   64SOL    HW1 1091   6.658   3.787   6.266
   64SOL    HW2 1092   6.768   3.692   6.192
   65SOL     OW 1093   6.600   4.811   5.021
   65SOL    HW1 1094   6.616   4.818   4.923
   65SOL    HW2 1095   6.502   4.816   5.039
   66SOL     OW 1096   3.454   0.668   6.529
   66SOL    HW1 1097   3.542   0.675   6.481
   66SOL    HW2 1098   3.446   0.577   6.569
   67SOL     OW 1099   6.033   6.304   5.275
   67SOL    HW1 1100   6.043   6.394   5.317
   67SOL    HW2 1101   6.024   6.314   5.176
   68SOL     OW 1102   5.998   1.416   6.670
   68SOL    HW1 1103   5.975   1.326   6.634
   68SOL    HW2 1104   5.916   1.473   6.671
   69SOL     OW 1105   2.068   4.272   6.049
   69SOL    HW1 1106   2.126   4.242   5.973
   69SOL    HW2 1107   2.074   4.372   6.058
   70SOL     OW 1108   6.675   5.525   2.734
   70SOL    HW1 1109   6.603   5.457   2.721
   70SOL    HW2 1110   6.653   5.608   2.683
   71SOL     OW 1111   2.574   2.518   3.382
   71SOL    HW1 1112   2.650   2.465   3.418
   71SOL    HW2 1113   2.511   2.540   3.456
   72SOL     OW 1114   3.049   5.719   4.070
   72SOL    HW1 1115   3.121   5.783   4.042
   72SOL    HW2 1116   3.086   5.656   4.139
   73SOL     OW 1117   3.308   1.835   6.838
   73SOL    HW1 1118   3.208   1.835   6.846
   73SOL    HW2 1119   3.337   1.912   6.781
   74SOL     OW 1120   5.298   6.748   6.983
   74SOL    HW1 1121   5.353   6.830   6.968
   74SOL    HW2 1122   5.355   6.667   6.969
   75SOL     OW 1123   3.417   5.684   5.296
   75SOL    HW1 1124   3.373   5.596   5.314
   75SOL    HW2 1125   3.492   5.697   5.361
   76SOL     OW 1126   2.252   2.154   1.183
   76SOL    HW1 1127   2.184   2.090   1.148
   76SOL    HW2 1128   2.210   2.215   1.251
   77SOL     OW 1129   5.377   5.424   5.107
   77SOL    HW1 1130   5.293   5.401   5.156
   77SOL    HW2 1131   5.447   5.453   5.173
   78SOL     OW 1132   6.268   6.266   6.112
   78SOL    HW1 1133   6.250   6.263   6.014
   78SOL    HW2 1134   6.274   6.173   6.148
   79SOL     OW 1135   3.138   6.963   0.912
   79SOL    HW1 1136   3.171   0.041   0.915
   79SOL    HW2 1137   3.158   6.925   0.821
   80SOL     OW 1138   6.256   0.670   5.284
   80SOL    HW1 1139   6.206   0.670   5.371
   80SOL    HW2 1140   6.286   0.763   5.263
   81SOL     OW 1141   2.066   0.805   2.787
   81SOL    HW1 1142   2.027   0.838   2.701
   81SOL    HW2 1143   2.073   0.880   2.852
   82SOL     OW 1144   6.680   5.074   6.729
   82SOL    HW1 1145   6.683   5.057   6.631
   82SOL    HW2 1146   6.767   5.112   6.759
   83SOL     OW 1147   6.758   6.708   0.643
   83SOL    HW1 1148   6.729   6.628   0.695
   83SOL    HW2 1149   6.760   6.685   0.545
   84SOL     OW 1150   5.479   3.788   2.088
   84SOL    HW1 1151   5.443   3.696   2.068
   84SOL    HW2 1152   5.507   3.832   2.002
   85SOL     OW 1153   0.610   1.507   5.067
   85SOL    HW1 1154   0.541   1.473   5.131
   85SOL    HW2 1155   0.696   1.522   5.116
   86SOL     OW 1156   0.487   0.395   5.750
   86SOL    HW1 1157   0.576   0.439   5.758
   86SOL    HW2 1158   0.421   0.443   5.808
   87SOL     OW 1159   4.949   2.886   0.246
   87SOL    HW1 1160   4.980   2.855   0.156
   87SOL    HW2 1161   4.858   2.848   0.264
   88SOL     OW 1162   5.108   1.463   0.116
   88SOL    HW1 1163   5.029   1.414   0.152
   88SOL    HW2 1164   5.183   1.398   0.099
   89SOL     OW 1165   1.625   2.523   6.414
   89SOL    HW1 1166   1.553   2.570   6.466
   89SOL    HW2 1167   1.618   2.549   6.317
   90SOL     OW 1168   5.652   6.527   3.583
   90SOL    HW1 1169   5.599   6.607   3.555
   90SOL    HW2 1170   5.734   6.557   3.631
   91SOL     OW 1171   4.610   4.426   4.044
   91SOL    HW1 1172   4.628   4.332   4.072
   91SOL    HW2 1173   4.530   4.461   4.093
   92SOL     OW 1174   3.353   5.372   0.545
   92SOL    HW1 1175   3.444   5.410   0.561
   92SOL    HW2 1176   3.358   5.272   0.548
   93SOL     OW 1177   3.259   4.796   5.781
   93SOL    HW1 1178   3.233   4.706   5.814
   93SOL    HW2 1179   3.201   4.821   5.703
   94SOL     OW 1180   3.172   5.450   6.908
   94SOL    HW1 1181   3.153   5.382   6.978
   94SOL    HW2 1182   3.108   5.526   6.917
   95SOL     OW 1183   0.366   1.057   3.372
   95SOL    HW1 1184   0.305   0.995   3.322
   95SOL    HW2 1185   0.453   1.012   3.389
   96SOL     OW 1186   2.184   0.083   5.522
   96SOL    HW1 1187   2.228   0.126   5.601
   96SOL    HW2 1188   2.159   0.154   5.455
   97SOL     OW 1189   6.234   4.150   4.460
   97SOL    HW1 1190   6.299   4.189   4.524
   97SOL    HW2 1191   6.257   4.054   4.444
   98SOL     OW 1192   5.713   2.623   6.433
   98SOL    HW1 1193   5.621   2.589   6.454
   98SOL    HW2 1194   5.755   2.659   6.517
   99SOL     OW 1195   4.259   3.017   1.031
   99SOL    HW1 1196   4.178   3.010   0.972
   99SOL    HW2 1197   4.256   3.103   1.081
  100SOL     OW 1198   0.519   6.875   6.787
  100SOL    HW1 1199   0.615   6.879   6.761
  100SOL    HW2 1200   0.511   6.856   6.885
  101SOL     OW 1201   0.680   5.694   3.450
  101SOL    HW1 1202   0.770   5.699   3.408
  101SOL    HW2 1203   0.656   5.783   3.489
  102SOL     OW 1204   4.154   0.212   3.158
  102SOL    HW1 1205   4.158   0.113   3.145
  102SOL    HW2 1206   4.189   0.236   3.248
  103SOL     OW 1207   4.038   1.470   1.711
  103SOL    HW1 1208   4.115   1.492   1.651
  103SOL    HW2 1209   4.004   1.554   1.753
  104SOL     OW 1210   6.238   5.360   2.667
  104SOL    HW1 1211   6.213   5.436   2.727
  104SOL    HW2 1212   6.208   5.274   2.709
  105SOL     OW 1213   6.619   1.134   6.848
  105SOL    HW1 1214   6.688   1.160   6.916
  105SOL    HW2 1215   6.613   1.034   6.844
  106SOL     OW 1216   2.231   6.291   6.606
  106SOL    HW1 1217   2.172   6.256   6.533
  106SOL    HW2 1218   2.248   6.219   6.673
  107SOL     OW 1219   1.695   2.298   1.247
  107SOL    HW1 1220   1.671   2.326   1.154
  107SOL    HW2 1221   1.766   2.227   1.243
  108SOL     OW 1222   4.767   4.767   0.114
  108SOL    HW1 1223   4.740   4.768   0.018
  108SOL    HW2 1224   4.765   4.673   0.148
  109SOL     OW 1225   0.633   0.374   1.284
  109SOL    HW1 1226   0.558   0.403   1.344
  109SOL    HW2 1227   0.676   0.455   1.243
  110SOL     OW 1228   3.729   5.831   5.697
  110SOL    HW1 1229   3.699   5.735   5.703
  110SOL    HW2 1230   3.822   5.839   5.733
  111SOL     OW 1231   3.801   0.633   4.046
  111SOL    HW1 1232   3.864   0.700   4.006
  111SOL    HW2 1233   3.842   0.542   4.043
  112SOL     OW 1234   5.759   5.965   5.750
  112SOL    HW1 1235   5.681   5.944   5.692
  112SOL    HW2 1236   5.730   6.023   5.826
  113SOL     OW 1237   6.707   4.544   3.640
  113SOL    HW1 1238   6.687   4.546   3.738
  113SOL    HW2 1239   6.682   4.454   3.604
  114SOL     OW 1240   0.377   6.947   0.671
  114SOL    HW1 1241   0.334   0.019   0.685
  114SOL    HW2 1242   0.366   6.919   0.575
  115SOL     OW 1243   5.172   0.972   4.200
  115SOL    HW1 1244   5.073   0.960   4.202
  115SOL    HW2 1245   5.199   1.037   4.271
  116SOL     OW 1246   6.246   4.575   2.203
  116SOL    HW1 1247   6.329   4.524   2.226
  116SOL    HW2 1248   6.258   4.671   2.227
  117SOL     OW 1249   0.645   1.077   6.367
  117SOL    HW1 1250   0.679   1.129   6.288
  117SOL    HW2 1251   0.636   1.139   6.445
  118SOL     OW 1252   0.501   1.206   1.593
  118SOL    HW1 1253   0.577   1.211   1.528
  118SOL    HW2 1254   0.428   1.268   1.564
  119SOL     OW 1255   6.993   2.192   6.417
  119SOL    HW1 1256   6.916   2.217   6.475
  119SOL    HW2 1257   6.982   2.235   6.327
  120SOL     OW 1258   6.095   0.452   0.662
  120SOL    HW1 1259   6.027   0.450   0.588
  120SOL    HW2 1260   6.055   0.411   0.744
  121SOL     OW 1261   2.332   3.408   6.733
  121SOL    HW1 1262   2.394   3.375   6.804
  121SOL    HW2 1263   2.337   3.347   6.653
  122SOL     OW 1264   1.481   3.913   4.896
  122SOL    HW1 1265   1.432   3.984   4.947
  122SOL    HW2 1266   1.426   3.830   4.893
  123SOL     OW 1267   0.079   1.993   1.222
  123SOL    HW1 1268   0.129   2.049   1.156
  123SOL    HW2 1269   7.000   1.987   1.195
  124SOL     OW 1270   4.848   3.798   0.385
  124SOL    HW1 1271   4.777   3.787   0.315
  124SOL    HW2 1272   4.938   3.798   0.342
  125SOL     OW 1273   1.989   1.673   2.508
  125SOL    HW1 1274   1.949   1.753   2.553
  125SOL    HW2 1275   2.075   1.700   2.465
  126SOL     OW 1276   3.005   4.151   0.867
  126SOL    HW1 1277   3.057   4.074   0.904
  126SOL    HW2 1278   2.909   4.144   0.897
  127SOL     OW 1279   6.690   4.816   6.233
  127SOL    HW1 1280   6.765   4.872   6.197
  127SOL    HW2 1281   6.690   4.726   6.189
  128SOL     OW 1282   4.518   2.487   1.774
  128SOL    HW1 1283   4.513   2.450   1.866
  128SOL    HW2 1284   4.585   2.436   1.720
  129SOL     OW 1285   3.620   3.330   6.403
  129SOL    HW1 1286   3.567   3.388   6.465
  129SOL    HW2 1287   3.657   3.386   6.329
  130SOL     OW 1288   1.486   0.797   4.363
  130SOL    HW1 1289   1.532   0.742   4.433
  130SOL    HW2 1290   1.476   0.891   4.395
  131SOL     OW 1291   4.839   1.226   3.411
  131SOL    HW1 1292   4.914   1.268   3.462
  131SOL    HW2 1293   4.859   1.229   3.313
  132SOL     OW 1294   1.623   2.996   1.099
  132SOL    HW1 1295   1.673   3.078   1.071
  132SOL    HW2 1296   1.575   2.957   1.021
  133SOL     OW 1297   5.418   6.597   2.788
  133SOL    HW1 1298   5.333   6.648   2.799
  133SOL    HW2 1299   5.442   6.595   2.691
  134SOL     OW 1300   5.993   2.445   3.190
  134SOL    HW1 1301   6.090   2.440   3.215
  134SOL    HW2 1302   5.976   2.388   3.109
  135SOL     OW 1303   5.098   1.795   3.440
  135SOL    HW1 1304   5.143   1.775   3.526
  135SOL    HW2 1305   5.163   1.783   3.365
  136SOL     OW 1306   5.154   4.301   5.709
  136SOL    HW1 1307   5.242   4.294   5.661
  136SOL    HW2 1308   5.128   4.397   5.717
  137SOL     OW 1309   4.885   6.900   5.319
  137SOL    HW1 1310   4.892   6.951   5.405
  137SOL    HW2 1311   4.947   6.938   5.251
  138SOL     OW 1312   0.616   5.016   4.457
  138SOL    HW1 1313   0.631   4.956   4.535
  138SOL    HW2 1314   0.543   4.978   4.400
  139SOL     OW 1315   2.412   5.381   5.171
  139SOL    HW1 1316   2.352   5.451   5.208
  139SOL    HW2 1317   2.506   5.397   5.202
  140SOL     OW 1318   6.171   5.200   4.309
  140SOL    HW1 1319   6.122   5.231   4.390
  140SOL    HW2 1320   6.235   5.127   4.334
  141SOL     OW 1321   0.879   1.553   5.197
  141SOL    HW1 1322   0.938   1.582   5.271
  141SOL    HW2 1323   0.918   1.580   5.109
  142SOL     OW 1324   1.561   6.272   1.827
  142SOL    HW1 1325   1.536   6.347   1.888
  142SOL    HW2 1326   1.628   6.304   1.760
  143SOL     OW 1327   5.536   4.456   2.171
  143SOL    HW1 1328   5.537   4.369   2.121
  143SOL    HW2 1329   5.474   4.520   2.125
  144SOL     OW 1330   1.370   6.535   6.322
  144SOL    HW1 1331   1.444   6.509   6.259
  144SOL    HW2 1332   1.284   6.538   6.273
  145SOL     OW 1333   0.804   5.632   0.579
  145SOL    HW1 1334   0.898   5.607   0.598
  145SOL    HW2 1335   0.789   5.728   0.602
  146SOL     OW 1336   4.883   6.882   0.181
  146SOL    HW1 1337   4.960   6.846   0.129
  146SOL    HW2 1338   4.886   6.847   0.274
  147SOL     OW 1339   6.660   2.731   0.478
  147SOL    HW1 1340   6.610   2.806   0.435
  147SOL    HW2 1341   6.693   2.668   0.407
  148SOL     OW 1342   0.442   5.251   5.122
  148SOL    HW1 1343   0.532   5.263   5.166
  148SOL    HW2 1344   0.418   5.154   5.123
  149SOL     OW 1345   2.986   1.287   4.021
  149SOL    HW1 1346   2.980   1.373   3.970
  149SOL    HW2 1347   3.024   1.305   4.111
  150SOL     OW 1348   6.975   4.973   6.390
  150SOL    HW1 1349   6.962   4.883   6.349
  150SOL    HW2 1350   6.888   5.007   6.426
  151SOL     OW 1351   3.468   1.701   1.123
  151SOL    HW1 1352   3.474   1.630   1.193
  151SOL    HW2 1353   3.557   1.744   1.110
  152SOL     OW 1354   2.405   0.472   4.589
  152SOL    HW1 1355   2.368   0.401   4.650
  152SOL    HW2 1356   2.406   0.559   4.637
  153SOL     OW 1357   2.261   0.208   2.264
  153SOL    HW1 1358   2.252   0.131   2.200
  153SOL    HW2 1359   2.188   0.203   2.332
  154SOL     OW 1360   0.067   2.974   1.936
  154SOL    HW1 1361   0.122   2.892   1.917
  154SOL    HW2 1362   0.080   3.040   1.862
  155SOL     OW 1363   0.316   1.316   3.512
  155SOL    HW1 1364   0.393   1.374   3.486
  155SOL    HW2 1365   0.328   1.225   3.472
  156SOL     OW 1366   6.232   1.778   1.424
  156SOL    HW1 1367   6.177   1.777   1.340
  156SOL    HW2 1368   6.284   1.863   1.429
  157SOL     OW 1369   6.204   3.206   2.177
  157SOL    HW1 1370   6.116   3.245   2.149
  157SOL    HW2 1371   6.238   3.253   2.258
  158SOL     OW 1372   3.364   0.654   2.566
  158SOL    HW1 1373   3.283   0.658   2.507
  158SOL    HW2 1374   3.339   0.679   2.659
  159SOL     OW 1375   4.863   4.526   1.616
  159SOL    HW1 1376   4.835   4.565   1.528
  159SOL    HW2 1377   4.798   4.455   1.644
  160SOL     OW 1378   6.895   4.723   6.663
  160SOL    HW1 1379   6.908   4.745   6.759
  160SOL    HW2 1380   6.831   4.787   6.621
  161SOL     OW 1381   2.113   4.918   4.835
  161SOL    HW1 1382   2.111   4.990   4.765
  161SOL    HW2 1383   2.098   4.829   4.791
  162SOL     OW 1384   4.360   6.027   0.379
  162SOL    HW1 1385   4.260   6.026   0.387
  162SOL    HW2 1386   4.387   6.089   0.305
  163SOL     OW 1387   3.865   6.098   1.619
  163SOL    HW1 1388   3.913   6.186   1.615
  163SOL    HW2 1389   3.778   6.106   1.571
  164SOL     OW 1390   6.643   4.070   1.204
  164SOL    HW1 1391   6.629   3.997   1.137
  164SOL    HW2 1392   6.679   4.030   1.289
  165SOL     OW 1393   4.683   3.355   6.891
  165SOL    HW1 1394   4.655   3.274   6.942
  165SOL    HW2 1395   4.701   3.430   6.954
  166SOL     OW 1396   0.379   6.007   3.386
  166SOL    HW1 1397   0.471   5.987   3.420
  166SOL    HW2 1398   0.358   6.104   3.400
  167SOL     OW 1399   6.149   2.586   0.183
  167SOL    HW1 1400   6.098   2.524   0.242
  167SOL    HW2 1401   6.137   2.559   0.087
  168SOL     OW 1402   2.746   4.136   0.960
  168SOL    HW1 1403   2.663   4.191   0.947
  168SOL    HW2 1404   2.742   4.090   1.048
  169SOL     OW 1405   3.125   0.237   2.021
  169SOL    HW1 1406   3.135   0.324   1.973
  169SOL    HW2 1407   3.070   0.251   2.103
  170SOL     OW 1408   0.129   1.926   3.733
  170SOL    HW1 1409   0.182   1.843   3.721
  170SOL    HW2 1410   0.081   1.922   3.821
  171SOL     OW 1411   3.306   3.704   0.409
  171SOL    HW1 1412   3.245   3.634   0.373
  171SOL    HW2 1413   3.321   3.689   0.507
  172SOL     OW 1414   6.337   1.742   4.673
  172SOL    HW1 1415   6.297   1.655   4.704
  172SOL    HW2 1416   6.380   1.788   4.751
  173SOL     OW 1417   6.911   6.791   4.439
  173SOL    HW1 1418   6.840   6.799   4.510
  173SOL    HW2 1419   6.888   6.715   4.378
  174SOL     OW 1420   2.641   5.371   3.349
  174SOL    HW1 1421   2.588   5.398   3.429
  174SOL    HW2 1422   2.737   5.358   3.375
  175SOL     OW 1423   1.812   6.487   2.057
  175SOL    HW1 1424   1.812   6.393   2.088
  175SOL    HW2 1425   1.882   6.499   1.986
  176SOL     OW 1426   2.050   4.113   1.391
  176SOL    HW1 1427   2.149   4.101   1.384
  176SOL    HW2 1428   2.020   4.180   1.323
  177SOL     OW 1429   5.399   2.496   3.491
  177SOL    HW1 1430   5.477   2.538   3.446
  177SOL    HW2 1431   5.374   2.412   3.442
  178SOL     OW 1432   4.953   4.278   6.484
  178SOL    HW1 1433   4.967   4.350   6.415
  178SOL    HW2 1434   4.972   4.315   6.575
  179SOL     OW 1435   2.541   0.639   0.566
  179SOL    HW1 1436   2.519   0.598   0.478
  179SOL    HW2 1437   2.621   0.594   0.605
  180SOL     OW 1438   0.884   1.386   6.839
  180SOL    HW1 1439   0.802   1.435   6.811
  180SOL    HW2 1440   0.875   1.290   6.812
  181SOL     OW 1441   3.547   1.950   6.586
  181SOL    HW1 1442   3.470   1.989   6.536
  181SOL    HW2 1443   3.549   1.851   6.573
  182SOL     OW 1444   4.199   1.895   4.307
  182SOL    HW1 1445   4.266   1.966   4.286
  182SOL    HW2 1446   4.245   1.815   4.344
  183SOL     OW 1447   4.276   0.824   1.813
  183SOL    HW1 1448   4.180   0.853   1.807
  183SOL    HW2 1449   4.295   0.756   1.742
  184SOL     OW 1450   1.354   5.676   3.500
  184SOL    HW1 1451   1.361   5.764   3.547
  184SOL    HW2 1452   1.444   5.650   3.464
  185SOL     OW 1453   1.220   3.544   6.917
  185SOL    HW1 1454   1.189   3.603   6.991
  185SOL    HW2 1455   1.236   3.599   6.835
  186SOL     OW 1456   6.117   0.085   3.273
  186SOL    HW1 1457   6.138   0.125   3.362
  186SOL    HW2 1458   6.169   0.132   3.202
  187SOL     OW 1459   6.003   0.923   4.176
  187SOL    HW1 1460   6.023   0.835   4.219
  187SOL    HW2 1461   5.989   0.992   4.246
  188SOL     OW 1462   5.687   2.307   3.572
  188SOL    HW1 1463   5.768   2.287   3.517
  188SOL    HW2 1464   5.684   2.405   3.591
  189SOL     OW 1465   2.260   5.788   2.740
  189SOL    HW1 1466   2.286   5.885   2.738
  189SOL    HW2 1467   2.206   5.769   2.821
  190SOL     OW 1468   3.738   1.205   4.979
  190SOL    HW1 1469   3.815   1.260   4.946
  190SOL    HW2 1470   3.694   1.251   5.055
  191SOL     OW 1471   6.083   5.751   6.205
  191SOL    HW1 1472   6.121   5.808   6.132
  191SOL    HW2 1473   6.153   5.733   6.274
  192SOL     OW 1474   6.924   6.774   2.230
  192SOL    HW1 1475   6.912   6.735   2.139
  192SOL    HW2 1476   6.835   6.802   2.266
  193SOL     OW 1477   5.093   2.854   6.255
  193SOL    HW1 1478   5.187   2.835   6.225
  193SOL    HW2 1479   5.095   2.891   6.348
  194SOL     OW 1480   3.657   0.624   3.029
  194SOL    HW1 1481   3.698   0.701   3.078
  194SOL    HW2 1482   3.627   0.655   2.938
  195SOL     OW 1483   2.105   5.365   3.485
  195SOL    HW1 1484   2.143   5.371   3.393
  195SOL    HW2 1485   2.030   5.299   3.485
  196SOL     OW 1486   2.037   2.198   6.533
  196SOL    HW1 1487   1.941   2.203   6.507
  196SOL    HW2 1488   2.045   2.192   6.632
  197SOL     OW 1489   2.089   1.361   0.997
  197SOL    HW1 1490   2.025   1.358   0.920
  197SOL    HW2 1491   2.108   1.457   1.020
  198SOL     OW 1492   4.400   1.123   3.446
  198SOL    HW1 1493   4.342   1.199   3.476
  198SOL    HW2 1494   4.415   1.130   3.347
  199SOL     OW 1495   1.417   2.608   4.308
  199SOL    HW1 1496   1.354   2.569   4.375
  199SOL    HW2 1497   1.396   2.571   4.218
  200SOL     OW 1498   0.343   2.565   0.479
  200SOL    HW1 1499   0.395   2.612   0.550
  200SOL    HW2 1500   0.330   2.469   0.504
  201SOL     OW 1501   0.692   0.573   5.715
  201SOL    HW1 1502   0.775   0.533   5.676
  201SOL    HW2 1503   0.714   0.619   5.801
  202SOL     OW 1504   4.537   0.176   5.980
  202SOL    HW1 1505   4.462   0.118   6.012
  202SOL    HW2 1506   4.602   0.190   6.054
  203SOL     OW 1507   5.645   3.091   5.405
  203SOL    HW1 1508   5.713   3.040   5.354
  203SOL    HW2 1509   5.569   3.117   5.345
  204SOL     OW 1510   0.470   0.150   5.649
  204SOL    HW1 1511   0.471   0.234   5.702
  204SOL    HW2 1512   0.563   0.127   5.619
  205SOL     OW 1513   0.959   2.653   2.245
  205SOL    HW1 1514   0.993   2.599   2.169
  205SOL    HW2 1515   0.860   2.663   2.237
  206SOL     OW 1516   0.404   3.142   1.195
  206SOL    HW1 1517   0.316   3.190   1.186
  206SOL    HW2 1518   0.395   3.049   1.160
  207SOL     OW 1519   5.104   2.280   3.074
  207SOL    HW1 1520   5.157   2.365   3.076
  207SOL    HW2 1521   5.007   2.301   3.066
  208SOL     OW 1522   0.704   4.065   5.037
  208SOL    HW1 1523   0.715   4.037   4.942
  208SOL    HW2 1524   0.744   4.155   5.050
  209SOL     OW 1525   6.500   4.219   2.684
  209SOL    HW1 1526   6.452   4.294   2.638
  209SOL    HW2 1527   6.497   4.234   2.783
  210SOL     OW 1528   4.733   2.515   0.422
  210SOL    HW1 1529   4.832   2.512   0.422
  210SOL    HW2 1530   4.699   2.493   0.514
  211SOL     OW 1531   1.834   0.499   3.176
  211SOL    HW1 1532   1.815   0.511   3.273
  211SOL    HW2 1533   1.808   0.407   3.147
  212SOL     OW 1534   1.225   3.526   2.889
  212SOL    HW1 1535   1.256   3.479   2.807
  212SOL    HW2 1536   1.297   3.587   2.922
  213SOL     OW 1537   1.689   5.459   1.357
  213SOL    HW1 1538   1.706   5.390   1.286
  213SOL    HW2 1539   1.774   5.481   1.404
  214SOL     OW 1540   4.431   5.644   2.257
  214SOL    HW1 1541   4.450   5.547   2.270
  214SOL    HW2 1542   4.483   5.698   2.323
  215SOL     OW 1543   1.944   5.093   1.846
  215SOL    HW1 1544   2.016   5.112   1.780
  215SOL    HW2 1545   1.984   5.077   1.936
  216SOL     OW 1546   1.471   0.257   2.753
  216SOL    HW1 1547   1.568   0.280   2.749
  216SOL    HW2 1548   1.421   0.330   2.798
  217SOL     OW 1549   1.164   3.451   5.777
  217SOL    HW1 1550   1.257   3.486   5.765
  217SOL    HW2 1551   1.127   3.485   5.864
  218SOL     OW 1552   0.862   2.340   5.346
  218SOL    HW1 1553   0.861   2.411   5.275
  218SOL    HW2 1554   0.899   2.256   5.308
  219SOL     OW 1555   3.585   0.529   0.307
  219SOL    HW1 1556   3.587   0.628   0.315
  219SOL    HW2 1557   3.678   0.493   0.301
  220SOL     OW 1558   3.162   0.223   1.164
  220SOL    HW1 1559   3.163   0.268   1.075
  220SOL    HW2 1560   3.069   0.193   1.185
  221SOL     OW 1561   5.649   5.587   1.256
  221SOL    HW1 1562   5.689   5.650   1.189
  221SOL    HW2 1563   5.665   5.622   1.348
  222SOL     OW 1564   1.892   4.513   6.541
  222SOL    HW1 1565   1.879   4.611   6.553
  222SOL    HW2 1566   1.961   4.497   6.470
  223SOL     OW 1567   6.893   2.575   5.112
  223SOL    HW1 1568   6.797   2.556   5.091
  223SOL    HW2 1569   6.920   2.524   5.193
  224SOL     OW 1570   2.407   1.839   5.927
  224SOL    HW1 1571   2.480   1.907   5.938
  224SOL    HW2 1572   2.401   1.814   5.830
  225SOL     OW 1573   4.684   3.570   6.009
  225SOL    HW1 1574   4.599   3.517   6.008
  225SOL    HW2 1575   4.663   3.665   6.034
  226SOL     OW 1576   1.154   1.798   6.486
  226SOL    HW1 1577   1.064   1.831   6.456
  226SOL    HW2 1578   1.218   1.800   6.409
  227SOL     OW 1579   2.074   4.008   2.409
  227SOL    HW1 1580   2.135   4.039   2.482
  227SOL    HW2 1581   2.054   3.911   2.421
  228SOL     OW 1582   1.640   0.692   2.809
  228SOL    HW1 1583   1.590   0.777   2.824
  228SOL    HW2 1584   1.718   0.687   2.872
  229SOL     OW 1585   5.369   4.743   6.802
  229SOL    HW1 1586   5.467   4.750   6.786
  229SOL    HW2 1587   5.340   4.813   6.868
  230SOL     OW 1588   4.334   6.128   4.733
  230SOL    HW1 1589   4.306   6.124   4.637
  230SOL    HW2 1590   4.372   6.039   4.760
  231SOL     OW 1591   5.299   1.246   6.978
  231SOL    HW1 1592   5.208   1.264   6.941
  231SOL    HW2 1593   5.367   1.259   6.906
  232SOL     OW 1594   0.413   2.720   5.968
  232SOL    HW1 1595   0.478   2.756   5.901
  232SOL    HW2 1596   0.442   2.747   6.060
  233SOL     OW 1597   3.226   1.619   3.606
  233SOL    HW1 1598   3.279   1.537   3.627
  233SOL    HW2 1599   3.278   1.678   3.544
  234SOL     OW 1600   5.475   1.164   6.220
  234SOL    HW1 1601   5.482   1.250   6.169
  234SOL    HW2 1602   5.419   1.178   6.301
  235SOL     OW 1603   4.933   3.292   2.462
  235SOL    HW1 1604   4.891   3.224   2.401
  235SOL    HW2 1605   5.032   3.278   2.465
  236SOL     OW 1606   4.494   3.534   6.488
  236SOL    HW1 1607   4.529   3.465   6.552
  236SOL    HW2 1608   4.561   3.608   6.480
  237SOL     OW 1609   6.560   3.956   2.637
  237SOL    HW1 1610   6.642   3.944   2.580
  237SOL    HW2 1611   6.545   4.054   2.652
  238SOL     OW 1612   6.562   1.422   0.481
  238SOL    HW1 1613   6.503   1.343   0.494
  238SOL    HW2 1614   6.519   1.503   0.521
  239SOL     OW 1615   1.282   4.187   0.474
  239SOL    HW1 1616   1.297   4.215   0.569
  239SOL    HW2 1617   1.302   4.264   0.414
  240SOL     OW 1618   6.713   3.744   3.067
  240SOL    HW1 1619   6.710   3.698   2.979
  240SOL    HW2 1620   6.627   3.792   3.083
  241SOL     OW 1621   2.577   2.087   3.980
  241SOL    HW1 1622   2.488   2.043   3.980
  241SOL    HW2 1623   2.648   2.019   3.962
  242SOL     OW 1624   3.288   3.767   3.422
  242SOL    HW1 1625   3.350   3.785   3.498
  242SOL    HW2 1626   3.337   3.775   3.335
  243SOL     OW 1627   4.977   2.483   0.001
  243SOL    HW1 1628   5.054   2.469   6.957
  243SOL    HW2 1629   4.960   2.581   0.011
  244SOL     OW 1630   6.184   3.301   6.629
  244SOL    HW1 1631   6.120   3.373   6.655
  244SOL    HW2 1632   6.216   3.253   6.710
  245SOL     OW 1633   3.438   1.833   3.661
  245SOL    HW1 1634   3.359   1.854   3.719
  245SOL    HW2 1635   3.409   1.830   3.565
  246SOL     OW 1636   5.718   1.908   3.535
  246SOL    HW1 1637   5.802   1.958   3.514
  246SOL    HW2 1638   5.711   1.893   3.633
  247SOL     OW 1639   2.381   1.991   0.363
  247SOL    HW1 1640   2.472   2.026   0.340
  247SOL    HW2 1641   2.386   1.892   0.373
  248SOL     OW 1642   2.369   1.309   2.509
  248SOL    HW1 1643   2.295   1.354   2.460
  248SOL    HW2 1644   2.381   1.216   2.473
  249SOL     OW 1645   5.051   0.025   5.168
  249SOL    HW1 1646   5.123   0.018   5.237
  249SOL    HW2 1647   5.093   0.018   5.077
  250SOL     OW 1648   3.456   2.553   0.941
  250SOL    HW1 1649   3.532   2.490   0.959
  250SOL    HW2 1650   3.488   2.647   0.951
  251SOL     OW 1651   4.576   3.408   5.612
  251SOL    HW1 1652   4.552   3.484   5.552
  251SOL    HW2 1653   4.659   3.430   5.663
  252SOL     OW 1654   6.092   6.571   5.569
  252SOL    HW1 1655   6.068   6.643   5.634
  252SOL    HW2 1656   6.012   6.545   5.516
  253SOL     OW 1657   4.231   4.978   5.704
  253SOL    HW1 1658   4.151   4.919   5.692
  253SOL    HW2 1659   4.289   4.940   5.776
  254SOL     OW 1660   6.830   2.889   4.278
  254SOL    HW1 1661   6.863   2.810   4.226
  254SOL    HW2 1662   6.885   2.969   4.255
  255SOL     OW 1663   1.438   4.484   6.032
  255SOL    HW1 1664   1.461   4.388   6.018
  255SOL    HW2 1665   1.516   4.531   6.074
  256SOL     OW 1666   4.940   2.886   5.991
  256SOL    HW1 1667   4.998   2.889   6.072
  256SOL    HW2 1668   4.989   2.841   5.916
  257SOL     OW 1669   5.065   6.445   2.795
  257SOL    HW1 1670   5.064   6.465   2.697
  257SOL    HW2 1671   5.063   6.347   2.810
  258SOL     OW 1672   2.717   4.071   5.634
  258SOL    HW1 1673   2.648   4.010   5.674
  258SOL    HW2 1674   2.693   4.090   5.539
  259SOL     OW 1675   4.749   0.762   2.427
  259SOL    HW1 1676   4.785   0.763   2.334
  259SOL    HW2 1677   4.656   0.725   2.426
  260SOL     OW 1678   4.162   4.979   3.473
  260SOL    HW1 1679   4.140   4.914   3.400
  260SOL    HW2 1680   4.136   5.071   3.445
  261SOL     OW 1681   5.218   5.188   0.913
  261SOL    HW1 1682   5.135   5.133   0.917
  261SOL    HW2 1683   5.205   5.273   0.964
  262SOL     OW 1684   2.141   3.574   1.161
  262SOL    HW1 1685   2.192   3.583   1.246
  262SOL    HW2 1686   2.140   3.662   1.113
  263SOL     OW 1687   1.208   0.170   4.008
  263SOL    HW1 1688   1.119   0.127   4.000
  263SOL    HW2 1689   1.246   0.185   3.916
  264SOL     OW 1690   0.013   2.715   0.087
  264SOL    HW1 1691   0.037   2.707   0.184
  264SOL    HW2 1692   6.937   2.751   0.079
  265SOL     OW 1693   6.352   6.641   3.553
  265SOL    HW1 1694   6.277   6.697   3.517
  265SOL    HW2 1695   6.439   6.676   3.520
  266SOL     OW 1696   5.106   2.477   5.942
  266SOL    HW1 1697   5.011   2.455   5.921
  266SOL    HW2 1698   5.116   2.489   6.041
  267SOL     OW 1699   1.217   1.051   5.035
  267SOL    HW1 1700   1.278   1.034   5.112
  267SOL    HW2 1701   1.265   1.032   4.950
  268SOL     OW 1702   4.092   1.067   6.500
  268SOL    HW1 1703   4.048   1.062   6.590
  268SOL    HW2 1704   4.021   1.072   6.429
  269SOL     OW 1705   3.185   2.002   0.053
  269SOL    HW1 1706   3.150   2.088   0.090
  269SOL    HW2 1707   3.252   2.021   6.999
  270SOL     OW 1708   0.646   6.531   6.915
  270SOL    HW1 1709   0.698   6.498   6.993
  270SOL    HW2 1710   0.689   6.501   6.830
  271SOL     OW 1711   0.479   1.381   6.258
  271SOL    HW1 1712   0.396   1.344   6.300
  271SOL    HW2 1713   0.465   1.477   6.235
  272SOL     OW 1714   3.316   5.856   4.239
  272SOL    HW1 1715   3.330   5.763   4.275
  272SOL    HW2 1716   3.385   5.917   4.278
  273SOL     OW 1717   1.742   4.919   5.819
  273SOL    HW1 1718   1.664   4.928   5.756
  273SOL    HW2 1719   1.827   4.932   5.768
  274SOL     OW 1720   4.002   0.784   3.958
  274SOL    HW1 1721   4.099   0.762   3.964
  274SOL    HW2 1722   3.985   0.840   3.876
  275SOL     OW 1723   6.942   6.559   2.657
  275SOL    HW1 1724   0.000   6.609   2.699
  275SOL    HW2 1725   6.977   6.500   2.585
  276SOL     OW 1726   0.399   0.027   4.347
  276SOL    HW1 1727   0.497   0.025   4.327
  276SOL    HW2 1728   0.386   0.039   4.445
  277SOL     OW 1729   1.931   2.851   0.695
  277SOL    HW1 1730   2.021   2.871   0.735
  277SOL    HW2 1731   1.861   2.860   0.765
  278SOL     OW 1732   0.349   3.203   3.186
  278SOL    HW1 1733   0.358   3.243   3.094
  278SOL    HW2 1734   0.347   3.276   3.254
  279SOL     OW 1735   5.679   2.616   4.611
  279SOL    HW1 1736   5.613   2.559   4.563
  279SOL    HW2 1737   5.764   2.566   4.624
  280SOL     OW 1738   1.916   5.650   1.703
  280SOL    HW1 1739   1.930   5.747   1.724
  280SOL    HW2 1740   1.985   5.595   1.749
  281SOL     OW 1741   2.258   3.972   1.808
  281SOL    HW1 1742   2.172   3.979   1.758
  281SOL    HW2 1743   2.248   4.013   1.898
  282SOL     OW 1744   3.269   1.397   5.868
  282SOL    HW1 1745   3.311   1.486   5.847
  282SOL    HW2 1746   3.198   1.377   5.800
  283SOL     OW 1747   5.554   2.442   6.669
  283SOL    HW1 1748   5.477   2.385   6.640
  283SOL    HW2 1749   5.518   2.525   6.713
  284SOL     OW 1750   0.598   3.714   3.580
  284SOL    HW1 1751   0.568   3.689   3.488
  284SOL    HW2 1752   0.520   3.750   3.632
  285SOL     OW 1753   5.698   4.401   4.129
  285SOL    HW1 1754   5.601   4.419   4.148
  285SOL    HW2 1755   5.746   4.385   4.215
  286SOL     OW 1756   3.263   3.733   0.020
  286SOL    HW1 1757   3.353   3.728   6.994
  286SOL    HW2 1758   3.210   3.652   7.014
  287SOL     OW 1759   1.820   3.826   0.620
  287SOL    HW1 1760   1.785   3.770   0.545
  287SOL    HW2 1761   1.892   3.777   0.668
  288SOL     OW 1762   4.430   1.553   6.895
  288SOL    HW1 1763   4.469   1.639   6.926
  288SOL    HW2 1764   4.330   1.559   6.897
  289SOL     OW 1765   2.042   4.871   5.840
  289SOL    HW1 1766   2.009   4.928   5.764
  289SOL    HW2 1767   2.134   4.899   5.866
  290SOL     OW 1768   0.278   1.943   5.565
  290SOL    HW1 1769   0.241   1.850   5.558
  290SOL    HW2 1770   0.377   1.940   5.547
  291SOL     OW 1771   0.540   1.413   3.377
  291SOL    HW1 1772   0.623   1.408   3.432
  291SOL    HW2 1773   0.513   1.508   3.363
  292SOL     OW 1774   2.418   0.522   3.471
  292SOL    HW1 1775   2.468   0.592   3.421
  292SOL    HW2 1776   2.320   0.538   3.461
  293SOL     OW 1777   4.801   5.287   4.009
  293SOL    HW1 1778   4.885   5.297   3.955
  293SOL    HW2 1779   4.824   5.248   4.098
  294SOL     OW 1780   5.518   6.434   6.612
  294SOL    HW1 1781   5.444   6.501   6.605
  294SOL    HW2 1782   5.565   6.428   6.524
  295SOL     OW 1783   5.128   0.570   3.778
  295SOL    HW1 1784   5.184   0.606   3.703
  295SOL    HW2 1785   5.136   0.630   3.857
  296SOL     OW 1786   3.052   1.566   2.719
  296SOL    HW1 1787   3.119   1.509   2.671
  296SOL    HW2 1788   3.088   1.592   2.808
  297SOL     OW 1789   1.632   3.590   3.285
  297SOL    HW1 1790   1.608   3.671   3.233
  297SOL    HW2 1791   1.700   3.613   3.355
  298SOL     OW 1792   6.440   5.545   0.759
  298SOL    HW1 1793   6.380   5.624   0.757
  298SOL    HW2 1794   6.425   5.493   0.843
  299SOL     OW 1795   6.139   2.633   5.026
  299SOL    HW1 1796   6.066   2.697   5.002
  299SOL    HW2 1797   6.222   2.685   5.048
  300SOL     OW 1798   6.108   0.919   3.362
  300SOL    HW1 1799   6.096   0.939   3.265
  300SOL    HW2 1800   6.202   0.941   3.389
  301SOL     OW 1801   5.557   3.508   6.714
  301SOL    HW1 1802   5.589   3.487   6.806
  301SOL    HW2 1803   5.608   3.585   6.677
  302SOL     OW 1804   0.660   0.302   3.890
  302SOL    HW1 1805   0.747   0.328   3.933
  302SOL    HW2 1806   0.631   0.213   3.925
  303SOL     OW 1807   4.897   0.689   3.370
  303SOL    HW1 1808   4.996   0.682   3.367
  303SOL    HW2 1809   4.856   0.622   3.309
  304SOL     OW 1810   2.366   7.009   3.462
  304SOL    HW1 1811   2.347   6.930   3.404
  304SOL    HW2 1812   2.403   6.977   3.550
  305SOL     OW 1813   1.251   3.984   0.263
  305SOL    HW1 1814   1.298   4.033   0.337
  305SOL    HW2 1815   1.279   3.888   0.264
  306SOL     OW 1816   2.329   0.795   3.925
  306SOL    HW1 1817   2.316   0.756   4.016
  306SOL    HW2 1818   2.427   0.797   3.903
  307SOL     OW 1819   4.253   0.051   1.064
  307SOL    HW1 1820   4.194   0.116   1.113
  307SOL    HW2 1821   4.221   6.975   1.082
  308SOL     OW 1822   0.994   5.986   3.133
  308SOL    HW1 1823   1.017   6.079   3.102
  308SOL    HW2 1824   1.032   5.972   3.224
  309SOL     OW 1825   3.509   4.866   5.422
  309SOL    HW1 1826   3.604   4.871   5.393
  309SOL    HW2 1827   3.453   4.829   5.348
  310SOL     OW 1828   0.148   6.567   5.596
  310SOL    HW1 1829   0.077   6.547   5.528
  310SOL    HW2 1830   0.205   6.486   5.609
  311SOL     OW 1831   0.558   5.951   1.813
  311SOL    HW1 1832   0.623   5.908   1.751
  311SOL    HW2 1833   0.580   6.049   1.821
  312SOL     OW 1834   5.020   1.934   5.383
  312SOL    HW1 1835   5.062   1.997   5.318
  312SOL    HW2 1836   4.996   1.984   5.467
  313SOL     OW 1837   1.720   3.994   2.126
  313SOL    HW1 1838   1.763   3.975   2.038
  313SOL    HW2 1839   1.711   3.909   2.178
  314SOL     OW 1840   3.682   5.750   0.317
  314SOL    HW1 1841   3.718   5.737   0.410
  314SOL    HW2 1842   3.598   5.804   0.322
  315SOL     OW 1843   0.739   2.407   3.549
  315SOL    HW1 1844   0.717   2.470   3.474
  315SOL    HW2 1845   0.838   2.403   3.563
  316SOL     OW 1846   2.328   2.686   4.016
  316SOL    HW1 1847   2.306   2.776   4.054
  316SOL    HW2 1848   2.410   2.692   3.960
  317SOL     OW 1849   6.848   1.870   0.034
  317SOL    HW1 1850   6.844   1.893   0.131
  317SOL    HW2 1851   6.943   1.867   0.003
  318SOL     OW 1852   2.230   3.811   1.048
  318SOL    HW1 1853   2.247   3.896   0.997
  318SOL    HW2 1854   2.259   3.823   1.143
  319SOL     OW 1855   1.792   6.434   0.938
  319SOL    HW1 1856   1.865   6.502   0.940
  319SOL    HW2 1857   1.783   6.391   1.028
  320SOL     OW 1858   6.386   3.061   0.836
  320SOL    HW1 1859   6.441   3.034   0.915
  320SOL    HW2 1860   6.346   2.980   0.794
  321SOL     OW 1861   2.290   2.866   1.559
  321SOL    HW1 1862   2.299   2.858   1.460
  321SOL    HW2 1863   2.236   2.947   1.581
  322SOL     OW 1864   3.695   3.011   5.450
  322SOL    HW1 1865   3.667   3.090   5.395
  322SOL    HW2 1866   3.730   2.939   5.390
  323SOL     OW 1867   6.846   4.260   0.977
  323SOL    HW1 1868   6.821   4.291   1.069
  323SOL    HW2 1869   6.913   4.323   0.938
  324SOL     OW 1870   1.244   2.935   4.625
  324SOL    HW1 1871   1.309   2.987   4.680
  324SOL    HW2 1872   1.274   2.933   4.530
  325SOL     OW 1873   2.059   2.937   2.031
  325SOL    HW1 1874   2.126   2.863   2.040
  325SOL    HW2 1875   1.967   2.898   2.033
  326SOL     OW 1876   1.791   5.534   6.246
  326SOL    HW1 1877   1.700   5.576   6.241
  326SOL    HW2 1878   1.782   5.435   6.242
  327SOL     OW 1879   6.559   4.631   5.958
  327SOL    HW1 1880   6.541   4.559   6.025
  327SOL    HW2 1881   6.604   4.591   5.878
  328SOL     OW 1882   4.076   5.193   2.293
  328SOL    HW1 1883   4.079   5.283   2.337
  328SOL    HW2 1884   4.009   5.135   2.340
  329SOL     OW 1885   3.673   3.697   3.282
  329SOL    HW1 1886   3.665   3.620   3.345
  329SOL    HW2 1887   3.754   3.751   3.305
  330SOL     OW 1888   3.440   6.867   1.737
  330SOL    HW1 1889   3.369   6.933   1.714
  330SOL    HW2 1890   3.482   6.891   1.824
  331SOL     OW 1891   5.157   5.166   5.901
  331SOL    HW1 1892   5.210   5.236   5.853
  331SOL    HW2 1893   5.179   5.076   5.862
  332SOL     OW 1894   3.194   2.146   3.568
  332SOL    HW1 1895   3.172   2.072   3.505
  332SOL    HW2 1896   3.293   2.146   3.587
  333SOL     OW 1897   4.084   5.646   6.315
  333SOL    HW1 1898   3.986   5.639   6.331
  333SOL    HW2 1899   4.101   5.699   6.232
  334SOL     OW 1900   3.856   0.342   2.302
  334SOL    HW1 1901   3.830   0.385   2.389
  334SOL    HW2 1902   3.774   0.327   2.246
  335SOL     OW 1903   3.010   6.628   3.541
  335SOL    HW1 1904   3.036   6.538   3.577
  335SOL    HW2 1905   2.983   6.619   3.445
  336SOL     OW 1906   3.319   0.971   3.967
  336SOL    HW1 1907   3.353   1.065   3.974
  336SOL    HW2 1908   3.331   0.925   4.055
  337SOL     OW 1909   6.833   4.176   1.451
  337SOL    HW1 1910   6.771   4.180   1.529
  337SOL    HW2 1911   6.910   4.115   1.472
  338SOL     OW 1912   3.167   2.650   1.421
  338SOL    HW1 1913   3.142   2.601   1.504
  338SOL    HW2 1914   3.228   2.594   1.366
  339SOL     OW 1915   4.291   6.360   2.669
  339SOL    HW1 1916   4.264   6.421   2.594
  339SOL    HW2 1917   4.361   6.297   2.636
  340SOL     OW 1918   5.046   3.573   4.574
  340SOL    HW1 1919   4.986   3.537   4.645
  340SOL    HW2 1920   5.136   3.529   4.581
  341SOL     OW 1921   5.375   5.704   4.372
  341SOL    HW1 1922   5.439   5.697   4.448
  341SOL    HW2 1923   5.384   5.794   4.329
  342SOL     OW 1924   5.984   5.135   0.895
  342SOL    HW1 1925   6.007   5.133   0.993
  342SOL    HW2 1926   6.063   5.167   0.843
  343SOL     OW 1927   3.686   0.226   1.890
  343SOL    HW1 1928   3.782   0.199   1.876
  343SOL    HW2 1929   3.677   0.274   1.977
  344SOL     OW 1930   2.427   4.676   0.793
  344SOL    HW1 1931   2.383   4.645   0.708
  344SOL    HW2 1932   2.496   4.609   0.820
  345SOL     OW 1933   0.832   0.346   5.142
  345SOL    HW1 1934   0.758   0.409   5.118
  345SOL    HW2 1935   0.875   0.311   5.059
  346SOL     OW 1936   1.250   0.252   3.074
  346SOL    HW1 1937   1.246   0.154   3.089
  346SOL    HW2 1938   1.172   0.296   3.118
  347SOL     OW 1939   5.043   0.177   6.411
  347SOL    HW1 1940   5.049   0.212   6.504
  347SOL    HW2 1941   4.985   0.237   6.356
  348SOL     OW 1942   3.467   5.201   1.236
  348SOL    HW1 1943   3.455   5.285   1.182
  348SOL    HW2 1944   3.457   5.121   1.176
  349SOL     OW 1945   0.874   5.064   2.517
  349SOL    HW1 1946   0.881   4.964   2.520
  349SOL    HW2 1947   0.777   5.090   2.513
  350SOL     OW 1948   4.210   3.145   1.485
  350SOL    HW1 1949   4.255   3.138   1.396
  350SOL    HW2 1950   4.268   3.195   1.549
  351SOL     OW 1951   3.045   1.603   0.274
  351SOL    HW1 1952   2.949   1.574   0.278
  351SOL    HW2 1953   3.104   1.523   0.287
  352SOL     OW 1954   3.352   0.800   6.174
  352SOL    HW1 1955   3.424   0.869   6.179
  352SOL    HW2 1956   3.389   0.717   6.131
  353SOL     OW 1957   1.806   5.959   0.537
  353SOL    HW1 1958   1.834   5.901   0.461
  353SOL    HW2 1959   1.824   5.913   0.624
  354SOL     OW 1960   4.240   1.606   0.631
  354SOL    HW1 1961   4.287   1.531   0.585
  354SOL    HW2 1962   4.303   1.682   0.644
  355SOL     OW 1963   6.999   3.541   2.827
  355SOL    HW1 1964   6.992   3.506   2.921
  355SOL    HW2 1965   6.911   3.579   2.799
  356SOL     OW 1966   4.145   5.205   3.321
  356SOL    HW1 1967   4.171   5.296   3.288
  356SOL    HW2 1968   4.085   5.162   3.254
  357SOL     OW 1969   7.005   5.878   5.168
  357SOL    HW1 1970   0.073   5.899   5.121
  357SOL    HW2 1971   6.996   5.935   5.249
  358SOL     OW 1972   5.290   0.346   1.678
  358SOL    HW1 1973   5.270   0.439   1.709
  358SOL    HW2 1974   5.371   0.348   1.620
  359SOL     OW 1975   1.469   1.660   2.110
  359SOL    HW1 1976   1.470   1.760   2.099
  359SOL    HW2 1977   1.382   1.633   2.151
  360SOL     OW 1978   3.962   6.896   0.142
  360SOL    HW1 1979   3.881   6.906   0.201
  360SOL    HW2 1980   3.967   6.973   0.079
  361SOL     OW 1981   4.707   6.557   2.272
  361SOL    HW1 1982   4.752   6.631   2.222
  361SOL    HW2 1983   4.623   6.531   2.224
  362SOL     OW 1984   3.158   3.244   1.081
  362SOL    HW1 1985   3.115   3.335   1.085
  362SOL    HW2 1986   3.157   3.211   0.987
  363SOL     OW 1987   4.293   4.691   4.432
  363SOL    HW1 1988   4.263   4.769   4.486
  363SOL    HW2 1989   4.318   4.615   4.493
  364SOL     OW 1990   1.137   5.154   6.034
  364SOL    HW1 1991   1.191   5.136   5.952
  364SOL    HW2 1992   1.074   5.230   6.017
  365SOL     OW 1993   4.995   6.577   1.799
  365SOL    HW1 1994   5.064   6.561   1.869
  365SOL    HW2 1995   5.038   6.619   1.719
  366SOL     OW 1996   5.714   0.933   6.857
  366SOL    HW1 1997   5.671   0.941   6.767
  366SOL    HW2 1998   5.722   1.024   6.898
  367SOL     OW 1999   5.374   2.665   1.700
  367SOL    HW1 2000   5.325   2.694   1.617
  367SOL    HW2 2001   5.353   2.569   1.719
  368SOL     OW 2002   1.033   4.968   5.081
  368SOL    HW1 2003   1.059   5.035   5.012
  368SOL    HW2 2004   0.936   4.978   5.103
  369SOL     OW 2005   0.915   3.988   1.740
  369SOL    HW1 2006   0.873   4.076   1.763
  369SOL    HW2 2007   0.970   3.998   1.658
  370SOL     OW 2008   3.091   1.353   5.670
  370SOL    HW1 2009   3.055   1.435   5.626
  370SOL    HW2 2010   3.020   1.283   5.674
  371SOL     OW 2011   3.369   2.761   0.349
  371SOL    HW1 2012   3.415   2.687   0.299
  371SOL    HW2 2013   3.375   2.846   0.296
  372SOL     OW 2014   0.133   6.237   6.493
  372SOL    HW1 2015   0.199   6.179   6.445
  372SOL    HW2 2016   0.042   6.195   6.488
  373SOL     OW 2017   6.907   6.961   0.369
  373SOL    HW1 2018   6.957   6.884   0.408
  373SOL    HW2 2019   6.871   6.935   0.279
  374SOL     OW 2020   3.428   0.652   1.629
  374SOL    HW1 2021   3.444   0.751   1.632
  374SOL    HW2 2022   3.504   0.604   1.674
  375SOL     OW 2023   6.404   4.694   3.388
  375SOL    HW1 2024   6.471   4.753   3.345
  375SOL    HW2 2025   6.425   4.686   3.486
  376SOL     OW 2026   1.703   2.695   4.030
  376SOL    HW1 2027   1.754   2.778   4.007
  376SOL    HW2 2028   1.741   2.617   3.980
  377SOL     OW 2029   4.925   2.010   3.429
  377SOL    HW1 2030   4.987   1.931   3.426
  377SOL    HW2 2031   4.891   2.022   3.523
  378SOL     OW 2032   5.112   2.799   5.155
  378SOL    HW1 2033   5.093   2.701   5.159
  378SOL    HW2 2034   5.028   2.851   5.169
  379SOL     OW 2035   6.051   3.458   0.914
  379SOL    HW1 2036   6.113   3.502   0.980
  379SOL    HW2 2037   6.104   3.404   0.850
  380SOL     OW 2038   1.261   1.860   1.247
  380SOL    HW1 2039   1.249   1.959   1.242
  380SOL    HW2 2040   1.349   1.835   1.208
  381SOL     OW 2041   3.669   3.406   1.407
  381SOL    HW1 2042   3.695   3.493   1.450
  381SOL    HW2 2043   3.639   3.342   1.479
  382SOL     OW 2044   2.842   5.788   0.270
  382SOL    HW1 2045   2.911   5.725   0.305
  382SOL    HW2 2046   2.874   5.882   0.281
  383SOL     OW 2047   6.416   2.574   0.334
  383SOL    HW1 2048   6.368   2.503   0.282
  383SOL    HW2 2049   6.371   2.662   0.321
  384SOL     OW 2050   1.349   5.604   4.956
  384SOL    HW1 2051   1.318   5.618   5.050
  384SOL    HW2 2052   1.326   5.684   4.901
  385SOL     OW 2053   4.843   6.135   0.591
  385SOL    HW1 2054   4.906   6.207   0.620
  385SOL    HW2 2055   4.816   6.150   0.496
  386SOL     OW 2056   3.286   6.145   5.832
  386SOL    HW1 2057   3.339   6.199   5.897
  386SOL    HW2 2058   3.340   6.130   5.749
  387SOL     OW 2059   0.473   0.729   5.480
  387SOL    HW1 2060   0.474   0.631   5.499
  387SOL    HW2 2061   0.386   0.752   5.435
  388SOL     OW 2062   5.879   2.475   5.001
  388SOL    HW1 2063   5.844   2.500   5.091
  388SOL    HW2 2064   5.839   2.388   4.972
  389SOL     OW 2065   4.333   4.766   1.774
  389SOL    HW1 2066   4.270   4.721   1.711
  389SOL    HW2 2067   4.369   4.699   1.839
  390SOL     OW 2068   3.504   1.733   0.693
  390SOL    HW1 2069   3.447   1.701   0.618
  390SOL    HW2 2070   3.597   1.750   0.660
  391SOL     OW 2071   3.536   4.677   5.617
  391SOL    HW1 2072   3.473   4.601   5.632
  391SOL    HW2 2073   3.486   4.754   5.578
  392SOL     OW 2074   1.156   3.571   1.926
  392SOL    HW1 2075   1.135   3.667   1.905
  392SOL    HW2 2076   1.240   3.566   1.980
  393SOL     OW 2077   0.942   4.284   1.731
  393SOL    HW1 2078   0.979   4.289   1.823
  393SOL    HW2 2079   1.013   4.250   1.669
  394SOL     OW 2080   6.948   1.015   6.464
  394SOL    HW1 2081   6.869   1.058   6.506
  394SOL    HW2 2082   6.996   0.960   6.532
  395SOL     OW 2083   5.546   4.857   1.230
  395SOL    HW1 2084   5.625   4.809   1.191
  395SOL    HW2 2085   5.490   4.894   1.157
  396SOL     OW 2086   2.453   0.929   1.975
  396SOL    HW1 2087   2.435   0.951   1.879
  396SOL    HW2 2088   2.400   0.990   2.034
  397SOL     OW 2089   4.494   1.888   5.029
  397SOL    HW1 2090   4.484   1.986   5.047
  397SOL    HW2 2091   4.516   1.873   4.933
  398SOL     OW 2092   1.928   1.311   4.322
  398SOL    HW1 2093   1.894   1.221   4.293
  398SOL    HW2 2094   1.878   1.382   4.273
  399SOL     OW 2095   6.077   6.006   3.961
  399SOL    HW1 2096   6.048   6.045   4.048
  399SOL    HW2 2097   6.012   6.033   3.889
  400SOL     OW 2098   6.617   0.570   4.659
  400SOL    HW1 2099   6.523   0.557   4.691
  400SOL    HW2 2100   6.656   0.482   4.631
  401SOL     OW 2101   6.905   5.473   6.049
  401SOL    HW1 2102   6.864   5.397   5.997
  401SOL    HW2 2103   6.836   5.543   6.066
  402SOL     OW 2104   6.170   0.299   2.475
  402SOL    HW1 2105   6.184   0.200   2.468
  402SOL    HW2 2106   6.074   0.320   2.455
  403SOL     OW 2107   2.398   1.222   5.361
  403SOL    HW1 2108   2.453   1.244   5.441
  403SOL    HW2 2109   2.307   1.192   5.390
  404SOL     OW 2110   3.915   5.300   3.728
  404SOL    HW1 2111   3.838   5.331   3.784
  404SOL    HW2 2112   3.995   5.285   3.787
  405SOL     OW 2113   2.697   4.642   4.042
  405SOL    HW1 2114   2.711   4.719   4.104
  405SOL    HW2 2115   2.746   4.660   3.956
  406SOL     OW 2116   0.608   5.598   5.990
  406SOL    HW1 2117   0.648   5.544   5.917
  406SOL    HW2 2118   0.621   5.696   5.971
  407SOL     OW 2119   2.033   3.321   4.493
  407SOL    HW1 2120   2.085   3.289   4.573
  407SOL    HW2 2121   1.949   3.268   4.484
  408SOL     OW 2122   2.681   1.569   3.642
  408SOL    HW1 2123   2.670   1.593   3.739
  408SOL    HW2 2124   2.703   1.651   3.590
  409SOL     OW 2125   0.717   3.764   2.834
  409SOL    HW1 2126   0.786   3.793   2.769
  409SOL    HW2 2127   0.742   3.676   2.874
  410SOL     OW 2128   1.940   1.232   1.519
  410SOL    HW1 2129   1.892   1.162   1.467
  410SOL    HW2 2130   2.029   1.196   1.547
  411SOL     OW 2131   0.817   3.029   1.502
  411SOL    HW1 2132   0.854   3.066   1.417
  411SOL    HW2 2133   0.884   2.967   1.544
  412SOL     OW 2134   1.761   5.849   1.963
  412SOL    HW1 2135   1.694   5.915   1.995
  412SOL    HW2 2136   1.720   5.791   1.892
  413SOL     OW 2137   5.701   5.720   2.359
  413SOL    HW1 2138   5.613   5.688   2.323
  413SOL    HW2 2139   5.710   5.692   2.455
  414SOL     OW 2140   2.149   6.492   3.528
  414SOL    HW1 2141   2.195   6.446   3.604
  414SOL    HW2 2142   2.197   6.472   3.442
  415SOL     OW 2143   6.369   1.205   0.488
  415SOL    HW1 2144   6.310   1.140   0.440
  415SOL    HW2 2145   6.343   1.210   0.584
  416SOL     OW 2146   5.045   3.054   4.861
  416SOL    HW1 2147   4.960   3.051   4.915
  416SOL    HW2 2148   5.074   2.960   4.840
  417SOL     OW 2149   2.238   2.051   6.176
  417SOL    HW1 2150   2.297   2.011   6.245
  417SOL    HW2 2151   2.288   2.122   6.126
  418SOL     OW 2152   3.846   6.385   4.888
  418SOL    HW1 2153   3.883   6.292   4.885
  418SOL    HW2 2154   3.747   6.380   4.898
  419SOL     OW 2155   0.224   0.359   0.801
  419SOL    HW1 2156   0.310   0.315   0.774
  419SOL    HW2 2157   0.184   0.309   0.878
  420SOL     OW 2158   4.827   1.242   6.362
  420SOL    HW1 2159   4.762   1.180   6.405
  420SOL    HW2 2160   4.878   1.193   6.291
  421SOL     OW 2161   5.459   3.532   2.710
  421SOL    HW1 2162   5.486   3.628   2.704
  421SOL    HW2 2163   5.425   3.513   2.802
  422SOL     OW 2164   4.978   3.190   2.008
  422SOL    HW1 2165   5.070   3.152   2.017
  422SOL    HW2 2166   4.914   3.135   2.063
  423SOL     OW 2167   3.443   1.301   6.685
  423SOL    HW1 2168   3.407   1.212   6.712
  423SOL    HW2 2169   3.403   1.373   6.742
  424SOL     OW 2170   0.967   3.662   3.433
  424SOL    HW1 2171   0.927   3.754   3.434
  424SOL    HW2 2172   0.937   3.612   3.514
  425SOL     OW 2173   2.770   0.981   5.733
  425SOL    HW1 2174   2.714   0.948   5.656
  425SOL    HW2 2175   2.774   0.911   5.804
  426SOL     OW 2176   2.643   2.178   4.273
  426SOL    HW1 2177   2.623   2.083   4.253
  426SOL    HW2 2178   2.705   2.183   4.351
  427SOL     OW 2179   3.859   2.132   3.309
  427SOL    HW1 2180   3.909   2.210   3.347
  427SOL    HW2 2181   3.860   2.136   3.210
  428SOL     OW 2182   2.893   1.935   5.830
  428SOL    HW1 2183   2.901   1.900   5.737
  428SOL    HW2 2184   2.852   1.864   5.888
  429SOL     OW 2185   0.767   5.878   3.870
  429SOL    HW1 2186   0.852   5.888   3.920
  429SOL    HW2 2187   0.706   5.954   3.891
  430SOL     OW 2188   1.363   0.149   3.767
  430SOL    HW1 2189   1.401   0.238   3.741
  430SOL    HW2 2190   1.435   0.093   3.809
  431SOL     OW 2191   2.697   1.900   1.344
  431SOL    HW1 2192   2.632   1.846   1.399
  431SOL    HW2 2193   2.647   1.969   1.293
  432SOL     OW 2194   4.588   2.460   2.354
  432SOL    HW1 2195   4.675   2.445   2.401
  432SOL    HW2 2196   4.605   2.510   2.268
  433SOL     OW 2197   2.134   5.443   0.469
  433SOL    HW1 2198   2.151   5.531   0.424
  433SOL    HW2 2199   2.200   5.431   0.543
  434SOL     OW 2200   4.182   5.765   3.829
  434SOL    HW1 2201   4.175   5.672   3.865
  434SOL    HW2 2202   4.201   5.761   3.731
  435SOL     OW 2203   3.536   1.478   6.135
  435SOL    HW1 2204   3.446   1.520   6.142
  435SOL    HW2 2205   3.574   1.495   6.045
  436SOL     OW 2206   4.572   0.255   2.603
  436SOL    HW1 2207   4.640   0.202   2.654
  436SOL    HW2 2208   4.482   0.243   2.644
  437SOL     OW 2209   6.611   0.952   5.081
  437SOL    HW1 2210   6.678   1.025   5.088
  437SOL    HW2 2211   6.619   0.907   4.992
  438SOL     OW 2212   0.233   4.134   2.823
  438SOL    HW1 2213   0.181   4.125   2.908
  438SOL    HW2 2214   0.176   4.178   2.754
  439SOL     OW 2215   0.081   0.216   4.347
  439SOL    HW1 2216   0.165   0.213   4.294
  439SOL    HW2 2217   0.054   0.311   4.363
  440SOL     OW 2218   4.092   1.135   0.806
  440SOL    HW1 2219   4.048   1.115   0.893
  440SOL    HW2 2220   4.165   1.068   0.790
  441SOL     OW 2221   0.277   4.002   2.374
  441SOL    HW1 2222   0.350   4.000   2.306
  441SOL    HW2 2223   0.255   3.908   2.402
  442SOL     OW 2224   5.223   3.154   5.628
  442SOL    HW1 2225   5.236   3.068   5.677
  442SOL    HW2 2226   5.306   3.209   5.634
  443SOL     OW 2227   4.933   3.437   2.162
  443SOL    HW1 2228   4.923   3.363   2.097
  443SOL    HW2 2229   4.878   3.419   2.243
  444SOL     OW 2230   4.051   0.761   1.625
  444SOL    HW1 2231   4.002   0.676   1.646
  444SOL    HW2 2232   3.987   0.830   1.591
  445SOL     OW 2233   1.568   5.734   2.346
  445SOL    HW1 2234   1.580   5.700   2.440
  445SOL    HW2 2235   1.541   5.659   2.286
  446SOL     OW 2236   5.404   6.940   1.499
  446SOL    HW1 2237   5.310   6.940   1.533
  446SOL    HW2 2238   5.413   7.008   1.425
  447SOL     OW 2239   5.975   4.576   1.198
  447SOL    HW1 2240   6.061   4.626   1.207
  447SOL    HW2 2241   5.986   4.500   1.134
  448SOL     OW 2242   2.681   0.351   3.114
  448SOL    HW1 2243   2.662   0.273   3.173
  448SOL    HW2 2244   2.779   0.355   3.095
  449SOL     OW 2245   1.456   4.171   4.739
  449SOL    HW1 2246   1.543   4.161   4.691
  449SOL    HW2 2247   1.388   4.109   4.699
  450SOL     OW 2248   0.630   4.764   3.714
  450SOL    HW1 2249   0.595   4.736   3.803
  450SOL    HW2 2250   0.655   4.683   3.661
  451SOL     OW 2251   0.864   1.790   2.141
  451SOL    HW1 2252   0.871   1.694   2.112
  451SOL    HW2 2253   0.835   1.794   2.236
  452SOL     OW 2254   4.796   5.258   1.892
  452SOL    HW1 2255   4.703   5.275   1.926
  452SOL    HW2 2256   4.825   5.336   1.836
  453SOL     OW 2257   3.655   0.635   6.128
  453SOL    HW1 2258   3.733   0.573   6.115
  453SOL    HW2 2259   3.574   0.595   6.083
  454SOL     OW 2260   6.753   3.328   6.127
  454SOL    HW1 2261   6.788   3.414   6.090
  454SOL    HW2 2262   6.716   3.273   6.052
  455SOL     OW 2263   6.118   4.703   6.020
  455SOL    HW1 2264   6.189   4.743   5.962
  455SOL    HW2 2265   6.114   4.753   6.107
  456SOL     OW 2266   2.607   0.859   2.600
  456SOL    HW1 2267   2.641   0.930   2.661
  456SOL    HW2 2268   2.507   0.851   2.610
  457SOL     OW 2269   2.719   0.185   0.342
  457SOL    HW1 2270   2.724   0.272   0.293
  457SOL    HW2 2271   2.721   0.110   0.276
  458SOL     OW 2272   3.306   1.819   3.424
  458SOL    HW1 2273   3.364   1.849   3.348
  458SOL    HW2 2274   3.215   1.861   3.415
  459SOL     OW 2275   3.287   6.937   3.829
  459SOL    HW1 2276   3.356   6.906   3.763
  459SOL    HW2 2277   3.328   7.005   3.890
  460SOL     OW 2278   0.928   1.275   5.951
  460SOL    HW1 2279   0.902   1.214   5.876
  460SOL    HW2 2280   0.932   1.224   6.037
  461SOL     OW 2281   0.926   4.964   5.531
  461SOL    HW1 2282   0.924   4.916   5.619
  461SOL    HW2 2283   1.020   4.988   5.509
  462SOL     OW 2284   3.222   4.098   4.703
  462SOL    HW1 2285   3.130   4.097   4.663
  462SOL    HW2 2286   3.281   4.157   4.648
  463SOL     OW 2287   5.338   6.838   3.273
  463SOL    HW1 2288   5.353   6.809   3.179
  463SOL    HW2 2289   5.332   6.758   3.332
  464SOL     OW 2290   3.849   5.026   6.204
  464SOL    HW1 2291   3.858   4.948   6.265
  464SOL    HW2 2292   3.925   5.090   6.220
  465SOL     OW 2293   0.833   3.720   1.335
  465SOL    HW1 2294   0.775   3.713   1.416
  465SOL    HW2 2295   0.787   3.675   1.258
  466SOL     OW 2296   3.802   5.615   4.828
  466SOL    HW1 2297   3.811   5.712   4.805
  466SOL    HW2 2298   3.815   5.603   4.926
  467SOL     OW 2299   6.030   6.822   1.700
  467SOL    HW1 2300   6.094   6.813   1.777
  467SOL    HW2 2301   5.938   6.802   1.732
  468SOL     OW 2302   3.115   6.817   6.685
  468SOL    HW1 2303   3.096   6.720   6.669
  468SOL    HW2 2304   3.206   6.827   6.725
  469SOL     OW 2305   3.473   5.141   5.203
  469SOL    HW1 2306   3.460   5.069   5.135
  469SOL    HW2 2307   3.385   5.169   5.240
  470SOL     OW 2308   2.326   4.804   2.864
  470SOL    HW1 2309   2.250   4.770   2.808
  470SOL    HW2 2310   2.412   4.788   2.816
  471SOL     OW 2311   1.627   2.351   3.978
  471SOL    HW1 2312   1.714   2.315   3.944
  471SOL    HW2 2313   1.620   2.334   4.077
  472SOL     OW 2314   5.670   3.588   6.419
  472SOL    HW1 2315   5.714   3.669   6.379
  472SOL    HW2 2316   5.739   3.531   6.463
  473SOL     OW 2317   6.307   2.940   2.108
  473SOL    HW1 2318   6.282   3.037   2.106
  473SOL    HW2 2319   6.395   2.927   2.062
  474SOL     OW 2320   4.454   6.326   4.045
  474SOL    HW1 2321   4.463   6.371   4.135
  474SOL    HW2 2322   4.413   6.390   3.980
  475SOL     OW 2323   5.934   1.911   0.533
  475SOL    HW1 2324   5.882   1.931   0.615
  475SOL    HW2 2325   5.871   1.893   0.457
  476SOL     OW 2326   1.249   4.467   1.511
  476SOL    HW1 2327   1.212   4.529   1.580
  476SOL    HW2 2328   1.178   4.446   1.444
  477SOL     OW 2329   1.550   4.538   3.709
  477SOL    HW1 2330   1.536   4.597   3.789
  477SOL    HW2 2331   1.464   4.497   3.683
  478SOL     OW 2332   5.077   5.439   2.039
  478SOL    HW1 2333   5.143   5.365   2.028
  478SOL    HW2 2334   5.015   5.418   2.115
  479SOL     OW 2335   3.039   3.861   3.682
  479SOL    HW1 2336   3.095   3.936   3.648
  479SOL    HW2 2337   3.009   3.804   3.606
  480SOL     OW 2338   1.334   0.889   2.936
  480SOL    HW1 2339   1.329   0.852   3.029
  480SOL    HW2 2340   1.416   0.945   2.927
  481SOL     OW 2341   6.865   0.100   0.619
  481SOL    HW1 2342   6.853   0.058   0.529
  481SOL    HW2 2343   6.785   0.156   0.640
  482SOL     OW 2344   3.999   4.896   1.764
  482SOL    HW1 2345   3.900   4.884   1.768
  482SOL    HW2 2346   4.043   4.806   1.757
  483SOL     OW 2347   5.517   2.072   4.180
  483SOL    HW1 2348   5.586   2.142   4.160
  483SOL    HW2 2349   5.437   2.088   4.122
  484SOL     OW 2350   2.370   4.369   4.222
  484SOL    HW1 2351   2.294   4.408   4.170
  484SOL    HW2 2352   2.452   4.365   4.164
  485SOL     OW 2353   5.754   3.392   1.591
  485SOL    HW1 2354   5.719   3.307   1.630
  485SOL    HW2 2355   5.739   3.392   1.492
  486SOL     OW 2356   5.918   6.116   6.192
  486SOL    HW1 2357   5.832   6.080   6.228
  486SOL    HW2 2358   5.994   6.063   6.231
  487SOL     OW 2359   6.652   6.831   6.118
  487SOL    HW1 2360   6.723   6.888   6.076
  487SOL    HW2 2361   6.639   6.859   6.213
  488SOL     OW 2362   2.134   5.723   2.996
  488SOL    HW1 2363   2.122   5.822   2.996
  488SOL    HW2 2364   2.133   5.688   3.090
  489SOL     OW 2365   1.333   5.805   6.322
  489SOL    HW1 2366   1.342   5.889   6.376
  489SOL    HW2 2367   1.408   5.798   6.257
  490SOL     OW 2368   1.166   4.292   4.281
  490SOL    HW1 2369   1.087   4.338   4.241
  490SOL    HW2 2370   1.190   4.336   4.368
  491SOL     OW 2371   0.525   2.722   0.689
  491SOL    HW1 2372   0.562   2.692   0.777
  491SOL    HW2 2373   0.569   2.670   0.616
  492SOL     OW 2374   0.990   2.269   5.605
  492SOL    HW1 2375   0.897   2.236   5.589
  492SOL    HW2 2376   1.006   2.349   5.547
  493SOL     OW 2377   2.285   5.654   4.349
  493SOL    HW1 2378   2.356   5.720   4.325
  493SOL    HW2 2379   2.226   5.639   4.270
  494SOL     OW 2380   2.280   6.568   4.694
  494SOL    HW1 2381   2.349   6.612   4.636
  494SOL    HW2 2382   2.291   6.601   4.788
  495SOL     OW 2383   3.661   3.888   6.013
  495SOL    HW1 2384   3.632   3.824   5.942
  495SOL    HW2 2385   3.698   3.971   5.971
  496SOL     OW 2386   4.938   1.156   3.147
  496SOL    HW1 2387   4.893   1.070   3.173
  496SOL    HW2 2388   5.033   1.154   3.177
  497SOL     OW 2389   4.818   1.860   0.113
  497SOL    HW1 2390   4.763   1.940   0.132
  497SOL    HW2 2391   4.880   1.843   0.190
  498SOL     OW 2392   0.613   6.804   1.668
  498SOL    HW1 2393   0.613   6.715   1.623
  498SOL    HW2 2394   0.519   6.831   1.687
  499SOL     OW 2395   2.803   5.803   0.007
  499SOL    HW1 2396   2.791   5.760   0.097
  499SOL    HW2 2397   2.752   5.889   0.004
  500SOL     OW 2398   5.688   2.123   0.185
  500SOL    HW1 2399   5.737   2.106   0.100
  500SOL    HW2 2400   5.646   2.214   0.181
  501SOL     OW 2401   1.170   1.407   4.488
  501SOL    HW1 2402   1.097   1.348   4.454
  501SOL    HW2 2403   1.173   1.404   4.588
  502SOL     OW 2404   2.055   4.868   6.760
  502SOL    HW1 2405   2.057   4.951   6.815
  502SOL    HW2 2406   2.119   4.801   6.797
  503SOL     OW 2407   4.122   5.042   0.484
  503SOL    HW1 2408   4.033   4.996   0.490
  503SOL    HW2 2409   4.110   5.140   0.501
  504SOL     OW 2410   6.219   6.216   2.009
  504SOL    HW1 2411   6.129   6.176   1.991
  504SOL    HW2 2412   6.266   6.232   1.922
  505SOL     OW 2413   4.682   6.069   4.951
  505SOL    HW1 2414   4.729   6.157   4.953
  505SOL    HW2 2415   4.647   6.052   4.859
  506SOL     OW 2416   4.277   5.235   2.093
  506SOL    HW1 2417   4.188   5.228   2.138
  506SOL    HW2 2418   4.281   5.319   2.040
  507SOL     OW 2419   2.699   0.853   0.890
  507SOL    HW1 2420   2.739   0.850   0.982
  507SOL    HW2 2421   2.704   0.946   0.855
  508SOL     OW 2422   6.837   4.153   3.628
  508SOL    HW1 2423   6.871   4.214   3.556
  508SOL    HW2 2424   6.891   4.164   3.710
  509SOL     OW 2425   4.764   0.112   6.145
  509SOL    HW1 2426   4.813   0.199   6.141
  509SOL    HW2 2427   4.719   0.103   6.234
  510SOL     OW 2428   6.440   3.897   6.888
  510SOL    HW1 2429   6.436   3.986   6.842
  510SOL    HW2 2430   6.370   3.893   6.959
  511SOL     OW 2431   0.647   2.354   0.668
  511SOL    HW1 2432   0.601   2.270   0.696
  511SOL    HW2 2433   0.655   2.414   0.747
  512SOL     OW 2434   6.918   2.204   4.852
  512SOL    HW1 2435   6.960   2.187   4.941
  512SOL    HW2 2436   6.968   2.153   4.782
  513SOL     OW 2437   5.278   0.931   3.096
  513SOL    HW1 2438   5.242   0.839   3.082
  513SOL    HW2 2439   5.336   0.956   3.019
  514SOL     OW 2440   6.162   0.133   4.829
  514SOL    HW1 2441   6.205   0.053   4.787
  514SOL    HW2 2442   6.127   0.108   4.919
  515SOL     OW 2443   3.734   0.353   5.528
  515SOL    HW1 2444   3.759   0.366   5.432
  515SOL    HW2 2445   3.655   0.292   5.533
  516SOL     OW 2446   2.433   5.565   2.428
  516SOL    HW1 2447   2.467   5.613   2.509
  516SOL    HW2 2448   2.334   5.572   2.424
  517SOL     OW 2449   3.549   5.851   1.414
  517SOL    HW1 2450   3.572   5.779   1.479
  517SOL    HW2 2451   3.567   5.820   1.321
  518SOL     OW 2452   1.820   3.607   3.776
  518SOL    HW1 2453   1.752   3.541   3.745
  518SOL    HW2 2454   1.782   3.699   3.769
  519SOL     OW 2455   0.101   0.217   2.049
  519SOL    HW1 2456   0.072   0.163   2.128
  519SOL    HW2 2457   0.201   0.220   2.047
  520SOL     OW 2458   1.764   4.074   0.755
  520SOL    HW1 2459   1.837   4.136   0.725
  520SOL    HW2 2460   1.775   3.986   0.709
  521SOL     OW 2461   6.384   6.411   4.868
  521SOL    HW1 2462   6.413   6.340   4.933
  521SOL    HW2 2463   6.286   6.402   4.850
  522SOL     OW 2464   3.807   4.278   1.694
  522SOL    HW1 2465   3.904   4.257   1.679
  522SOL    HW2 2466   3.788   4.371   1.664
  523SOL     OW 2467   0.955   6.968   1.103
  523SOL    HW1 2468   1.050   6.999   1.108
  523SOL    HW2 2469   0.918   6.988   1.012
  524SOL     OW 2470   0.113   2.562   1.547
  524SOL    HW1 2471   0.146   2.505   1.471
  524SOL    HW2 2472   0.014   2.550   1.558
  525SOL     OW 2473   1.105   3.461   5.476
  525SOL    HW1 2474   1.070   3.369   5.464
  525SOL    HW2 2475   1.092   3.489   5.572
  526SOL     OW 2476   3.177   0.411   3.743
  526SOL    HW1 2477   3.204   0.388   3.649
  526SOL    HW2 2478   3.178   0.510   3.755
  527SOL     OW 2479   0.116   0.893   0.591
  527SOL    HW1 2480   0.183   0.943   0.536
  527SOL    HW2 2481   0.160   0.816   0.635
  528SOL     OW 2482   0.074   3.476   3.752
  528SOL    HW1 2483   0.053   3.566   3.789
  528SOL    HW2 2484   0.102   3.485   3.657
  529SOL     OW 2485   1.748   0.744   0.282
  529SOL    HW1 2486   1.794   0.805   0.346
  529SOL    HW2 2487   1.775   0.649   0.301
  530SOL     OW 2488   3.852   3.875   1.137
  530SOL    HW1 2489   3.867   3.776   1.141
  530SOL    HW2 2490   3.935   3.923   1.165
  531SOL     OW 2491   1.005   0.249   0.751
  531SOL    HW1 2492   1.007   0.319   0.823
  531SOL    HW2 2493   1.096   0.211   0.740
  532SOL     OW 2494   1.547   2.235   6.592
  532SOL    HW1 2495   1.490   2.317   6.584
  532SOL    HW2 2496   1.623   2.241   6.528
  533SOL     OW 2497   3.509   0.173   4.529
  533SOL    HW1 2498   3.567   0.142   4.604
  533SOL    HW2 2499   3.528   0.269   4.509
  534SOL     OW 2500   1.747   5.121   1.623
  534SOL    HW1 2501   1.759   5.025   1.648
  534SOL    HW2 2502   1.775   5.179   1.699
  535SOL     OW 2503   5.200   3.058   3.949
  535SOL    HW1 2504   5.158   2.990   4.009
  535SOL    HW2 2505   5.232   3.014   3.865
  536SOL     OW 2506   6.738   7.009   1.995
  536SOL    HW1 2507   6.664   6.967   2.049
  536SOL    HW2 2508   6.719   0.090   1.983
  537SOL     OW 2509   3.968   2.180   4.370
  537SOL    HW1 2510   3.966   2.277   4.391
  537SOL    HW2 2511   4.049   2.159   4.316
  538SOL     OW 2512   3.353   4.745   5.237
  538SOL    HW1 2513   3.363   4.806   5.159
  538SOL    HW2 2514   3.257   4.722   5.250
  539SOL     OW 2515   0.891   6.768   6.993
  539SOL    HW1 2516   0.944   6.737   0.055
  539SOL    HW2 2517   0.923   6.858   6.965
  540SOL     OW 2518   0.659   0.073   4.343
  540SOL    HW1 2519   0.652   0.112   4.251
  540SOL    HW2 2520   0.755   0.057   4.365
  541SOL     OW 2521   4.260   5.925   4.048
  541SOL    HW1 2522   4.254   5.847   3.986
  541SOL    HW2 2523   4.190   5.917   4.119
  542SOL     OW 2524   3.459   0.598   5.818
  542SOL    HW1 2525   3.423   0.552   5.898
  542SOL    HW2 2526   3.423   0.555   5.735
  543SOL     OW 2527   6.422   2.097   4.199
  543SOL    HW1 2528   6.501   2.093   4.260
  543SOL    HW2 2529   6.362   2.172   4.227
  544SOL     OW 2530   1.917   3.722   1.215
  544SOL    HW1 2531   1.990   3.654   1.211
  544SOL    HW2 2532   1.906   3.754   1.309
  545SOL     OW 2533   5.604   0.630   1.334
  545SOL    HW1 2534   5.686   0.619   1.278
  545SOL    HW2 2535   5.625   0.685   1.415
  546SOL     OW 2536   0.082   4.105   3.078
  546SOL    HW1 2537   0.125   4.015   3.081
  546SOL    HW2 2538   7.001   4.096   3.095
  547SOL     OW 2539   5.328   0.932   6.074
  547SOL    HW1 2540   5.320   1.031   6.060
  547SOL    HW2 2541   5.422   0.910   6.102
  548SOL     OW 2542   3.420   2.219   6.922
  548SOL    HW1 2543   3.402   2.316   6.936
  548SOL    HW2 2544   3.470   2.182   7.001
  549SOL     OW 2545   5.829   1.400   1.932
  549SOL    HW1 2546   5.789   1.480   1.887
  549SOL    HW2 2547   5.928   1.406   1.928
  550SOL     OW 2548   6.887   5.201   3.165
  550SOL    HW1 2549   6.867   5.106   3.186
  550SOL    HW2 2550   6.930   5.245   3.244
  551SOL     OW 2551   6.253   0.920   0.927
  551SOL    HW1 2552   6.248   0.820   0.929
  551SOL    HW2 2553   6.160   0.957   0.919
  552SOL     OW 2554   6.447   4.996   5.719
  552SOL    HW1 2555   6.514   5.070   5.725
  552SOL    HW2 2556   6.363   5.031   5.678
  553SOL     OW 2557   2.596   1.474   0.062
  553SOL    HW1 2558   2.518   1.461   0.124
  553SOL    HW2 2559   2.681   1.475   0.115
  554SOL     OW 2560   5.480   6.247   1.433
  554SOL    HW1 2561   5.496   6.200   1.519
  554SOL    HW2 2562   5.387   6.226   1.400
  555SOL     OW 2563   1.298   4.210   5.593
  555SOL    HW1 2564   1.303   4.299   5.638
  555SOL    HW2 2565   1.390   4.174   5.581
  556SOL     OW 2566   5.329   0.128   4.257
  556SOL    HW1 2567   5.253   0.119   4.192
  556SOL    HW2 2568   5.321   0.058   4.328
  557SOL     OW 2569   6.842   4.459   6.608
  557SOL    HW1 2570   6.854   4.558   6.605
  557SOL    HW2 2571   6.784   4.430   6.532
  558SOL     OW 2572   3.143   4.058   2.324
  558SOL    HW1 2573   3.107   4.150   2.343
  558SOL    HW2 2574   3.217   4.064   2.257
  559SOL     OW 2575   6.116   0.011   5.515
  559SOL    HW1 2576   6.121   0.110   5.501
  559SOL    HW2 2577   6.208   6.991   5.527
  560SOL     OW 2578   6.137   3.028   3.560
  560SOL    HW1 2579   6.077   3.044   3.638
  560SOL    HW2 2580   6.186   2.942   3.573
  561SOL     OW 2581   0.833   2.955   0.494
  561SOL    HW1 2582   0.902   2.891   0.461
  561SOL    HW2 2583   0.749   2.944   0.440
  562SOL     OW 2584   4.189   6.853   5.309
  562SOL    HW1 2585   4.281   6.876   5.341
  562SOL    HW2 2586   4.121   6.905   5.360
  563SOL     OW 2587   1.784   1.325   4.583
  563SOL    HW1 2588   1.861   1.377   4.620
  563SOL    HW2 2589   1.808   1.289   4.493
  564SOL     OW 2590   6.915   1.871   5.775
  564SOL    HW1 2591   6.856   1.940   5.815
  564SOL    HW2 2592   6.880   1.843   5.686
  565SOL     OW 2593   4.015   3.448   3.458
  565SOL    HW1 2594   4.066   3.363   3.443
  565SOL    HW2 2595   3.985   3.452   3.553
  566SOL     OW 2596   3.314   0.129   3.209
  566SOL    HW1 2597   3.232   0.141   3.265
  566SOL    HW2 2598   3.357   0.042   3.233
  567SOL     OW 2599   2.190   2.875   5.840
  567SOL    HW1 2600   2.204   2.928   5.924
  567SOL    HW2 2601   2.271   2.819   5.822
  568SOL     OW 2602   6.782   6.616   0.373
  568SOL    HW1 2603   6.780   6.685   0.301
  568SOL    HW2 2604   6.870   6.568   0.370
  569SOL     OW 2605   6.376   2.236   0.602
  569SOL    HW1 2606   6.467   2.195   0.608
  569SOL    HW2 2607   6.317   2.195   0.671
  570SOL     OW 2608   2.398   0.272   6.016
  570SOL    HW1 2609   2.495   0.284   5.995
  570SOL    HW2 2610   2.357   0.210   5.948
  571SOL     OW 2611   2.264   5.213   2.341
  571SOL    HW1 2612   2.328   5.251   2.407
  571SOL    HW2 2613   2.241   5.282   2.272
  572SOL     OW 2614   2.679   0.010   4.115
  572SOL    HW1 2615   2.609   0.010   4.186
  572SOL    HW2 2616   2.750   0.077   4.138
  573SOL     OW 2617   6.839   1.055   5.324
  573SOL    HW1 2618   6.892   1.025   5.404
  573SOL    HW2 2619   6.855   1.152   5.307
  574SOL     OW 2620   2.268   2.506   5.667
  574SOL    HW1 2621   2.298   2.477   5.576
  574SOL    HW2 2622   2.182   2.557   5.659
  575SOL     OW 2623   3.793   2.966   0.488
  575SOL    HW1 2624   3.826   3.052   0.527
  575SOL    HW2 2625   3.805   2.967   0.389
  576SOL     OW 2626   2.146   3.064   3.317
  576SOL    HW1 2627   2.056   3.046   3.276
  576SOL    HW2 2628   2.206   2.986   3.301
  577SOL     OW 2629   0.949   1.444   1.887
  577SOL    HW1 2630   1.003   1.367   1.922
  577SOL    HW2 2631   0.861   1.410   1.853
  578SOL     OW 2632   2.206   6.409   6.983
  578SOL    HW1 2633   2.180   6.402   0.063
  578SOL    HW2 2634   2.295   6.452   6.976
  579SOL     OW 2635   2.330   4.180   2.056
  579SOL    HW1 2636   2.371   4.212   2.141
  579SOL    HW2 2637   2.378   4.221   1.978
  580SOL     OW 2638   4.196   5.555   4.634
  580SOL    HW1 2639   4.236   5.629   4.579
  580SOL    HW2 2640   4.153   5.489   4.573
  581SOL     OW 2641   1.804   2.678   4.731
  581SOL    HW1 2642   1.705   2.668   4.718
  581SOL    HW2 2643   1.826   2.666   4.828
  582SOL     OW 2644   5.352   5.715   3.729
  582SOL    HW1 2645   5.271   5.763   3.762
  582SOL    HW2 2646   5.330   5.669   3.643
  583SOL     OW 2647   4.463   5.746   5.786
  583SOL    HW1 2648   4.378   5.717   5.829
  583SOL    HW2 2649   4.540   5.694   5.823
  584SOL     OW 2650   4.590   0.750   5.446
  584SOL    HW1 2651   4.563   0.759   5.351
  584SOL    HW2 2652   4.609   0.841   5.484
  585SOL     OW 2653   3.256   0.730   1.966
  585SOL    HW1 2654   3.238   0.816   2.015
  585SOL    HW2 2655   3.353   0.707   1.974
  586SOL     OW 2656   4.783   6.856   0.674
  586SOL    HW1 2657   4.763   6.862   0.772
  586SOL    HW2 2658   4.750   6.939   0.628
  587SOL     OW 2659   4.609   1.798   1.672
  587SOL    HW1 2660   4.595   1.704   1.641
  587SOL    HW2 2661   4.707   1.813   1.688
  588SOL     OW 2662   1.516   5.252   2.658
  588SOL    HW1 2663   1.473   5.251   2.748
  588SOL    HW2 2664   1.615   5.268   2.668
  589SOL     OW 2665   3.083   5.974   0.822
  589SOL    HW1 2666   3.173   5.986   0.862
  589SOL    HW2 2667   3.060   6.053   0.765
  590SOL     OW 2668   4.659   1.926   0.667
  590SOL    HW1 2669   4.653   1.936   0.766
  590SOL    HW2 2670   4.681   2.014   0.625
  591SOL     OW 2671   3.774   5.970   4.525
  591SOL    HW1 2672   3.832   6.046   4.498
  591SOL    HW2 2673   3.778   5.959   4.624
  592SOL     OW 2674   3.932   1.952   4.213
  592SOL    HW1 2675   4.026   1.921   4.231
  592SOL    HW2 2676   3.904   2.016   4.284
  593SOL     OW 2677   2.962   1.133   6.340
  593SOL    HW1 2678   2.901   1.084   6.402
  593SOL    HW2 2679   2.909   1.180   6.269
  594SOL     OW 2680   5.194   1.173   1.998
  594SOL    HW1 2681   5.211   1.222   1.912
  594SOL    HW2 2682   5.109   1.122   1.991
  595SOL     OW 2683   5.390   5.831   2.540
  595SOL    HW1 2684   5.463   5.855   2.604
  595SOL    HW2 2685   5.304   5.873   2.571
  596SOL     OW 2686   6.578   4.891   4.415
  596SOL    HW1 2687   6.500   4.875   4.475
  596SOL    HW2 2688   6.576   4.824   4.340
  597SOL     OW 2689   2.683   0.503   6.265
  597SOL    HW1 2690   2.769   0.498   6.315
  597SOL    HW2 2691   2.625   0.425   6.290
  598SOL     OW 2692   2.933   3.483   4.577
  598SOL    HW1 2693   3.013   3.506   4.632
  598SOL    HW2 2694   2.946   3.393   4.535
  599SOL     OW 2695   1.358   5.217   1.822
  599SOL    HW1 2696   1.396   5.126   1.837
  599SOL    HW2 2697   1.261   5.210   1.799
  600SOL     OW 2698   0.149   3.879   4.938
  600SOL    HW1 2699   0.211   3.800   4.946
  600SOL    HW2 2700   0.066   3.851   4.891
  601SOL     OW 2701   1.952   6.526   5.024
  601SOL    HW1 2702   2.028   6.587   5.047
  601SOL    HW2 2703   1.874   6.580   4.992
  602SOL     OW 2704   2.419   6.447   3.800
  602SOL    HW1 2705   2.390   6.356   3.771
  602SOL    HW2 2706   2.438   6.503   3.720
  603SOL     OW 2707   1.699   1.315   5.494
  603SOL    HW1 2708   1.732   1.287   5.404
  603SOL    HW2 2709   1.772   1.362   5.543
  604SOL     OW 2710   6.439   2.405   1.658
  604SOL    HW1 2711   6.533   2.384   1.687
  604SOL    HW2 2712   6.428   2.378   1.563
  605SOL     OW 2713   6.855   5.802   2.309
  605SOL    HW1 2714   6.900   5.861   2.376
  605SOL    HW2 2715   6.894   5.709   2.316
  606SOL     OW 2716   3.525   6.627   4.598
  606SOL    HW1 2717   3.568   6.664   4.681
  606SOL    HW2 2718   3.426   6.627   4.610
  607SOL     OW 2719   0.789   4.244   6.026
  607SOL    HW1 2720   0.761   4.195   5.943
  607SOL    HW2 2721   0.769   4.341   6.016
  608SOL     OW 2722   2.627   1.479   5.507
  608SOL    HW1 2723   2.618   1.381   5.522
  608SOL    HW2 2724   2.675   1.496   5.420
  609SOL     OW 2725   3.228   2.882   2.216
  609SOL    HW1 2726   3.259   2.825   2.140
  609SOL    HW2 2727   3.196   2.970   2.180
  610SOL     OW 2728   4.652   3.720   0.875
  610SOL    HW1 2729   4.586   3.698   0.947
  610SOL    HW2 2730   4.687   3.636   0.835
  611SOL     OW 2731   3.783   0.395   2.546
  611SOL    HW1 2732   3.685   0.390   2.527
  611SOL    HW2 2733   3.799   0.460   2.621
  612SOL     OW 2734   3.959   4.809   5.642
  612SOL    HW1 2735   3.978   4.904   5.617
  612SOL    HW2 2736   3.896   4.769   5.575
  613SOL     OW 2737   4.588   5.104   5.660
  613SOL    HW1 2738   4.574   5.064   5.751
  613SOL    HW2 2739   4.685   5.118   5.644
  614SOL     OW 2740   4.065   5.153   5.983
  614SOL    HW1 2741   3.985   5.133   6.039
  614SOL    HW2 2742   4.043   5.141   5.887
  615SOL     OW 2743   0.629   5.061   1.870
  615SOL    HW1 2744   0.618   4.975   1.821
  615SOL    HW2 2745   0.545   5.081   1.920
  616SOL     OW 2746   5.841   3.534   3.144
  616SOL    HW1 2747   5.937   3.560   3.157
  616SOL    HW2 2748   5.797   3.525   3.234
  617SOL     OW 2749   3.265   5.567   6.345
  617SOL    HW1 2750   3.248   5.601   6.252
  617SOL    HW2 2751   3.203   5.492   6.365
  618SOL     OW 2752   1.638   1.122   2.394
  618SOL    HW1 2753   1.605   1.040   2.442
  618SOL    HW2 2754   1.668   1.189   2.461
  619SOL     OW 2755   0.892   1.117   6.806
  619SOL    HW1 2756   0.849   1.062   6.735
  619SOL    HW2 2757   0.990   1.098   6.808
  620SOL     OW 2758   4.290   3.728   0.920
  620SOL    HW1 2759   4.228   3.685   0.854
  620SOL    HW2 2760   4.355   3.660   0.954
  621SOL     OW 2761   0.368   4.749   1.862
  621SOL    HW1 2762   0.310   4.799   1.798
  621SOL    HW2 2763   0.310   4.710   1.934
  622SOL     OW 2764   1.514   0.802   6.903
  622SOL    HW1 2765   1.527   0.847   6.815
  622SOL    HW2 2766   1.435   0.741   6.899
  623SOL     OW 2767   0.828   4.487   6.557
  623SOL    HW1 2768   0.808   4.479   6.460
  623SOL    HW2 2769   0.791   4.574   6.592
  624SOL     OW 2770   0.709   2.694   2.356
  624SOL    HW1 2771   0.654   2.612   2.339
  624SOL    HW2 2772   0.666   2.773   2.313
  625SOL     OW 2773   2.349   1.340   2.018
  625SOL    HW1 2774   2.261   1.387   2.025
  625SOL    HW2 2775   2.371   1.326   1.921
  626SOL     OW 2776   2.670   6.303   4.794
  626SOL    HW1 2777   2.574   6.289   4.770
  626SOL    HW2 2778   2.691   6.253   4.878
  627SOL     OW 2779   5.182   0.941   0.244
  627SOL    HW1 2780   5.136   0.962   0.157
  627SOL    HW2 2781   5.115   0.908   0.310
  628SOL     OW 2782   4.871   3.889   3.688
  628SOL    HW1 2783   4.893   3.909   3.592
  628SOL    HW2 2784   4.822   3.967   3.727
  629SOL     OW 2785   1.036   6.871   0.825
  629SOL    HW1 2786   1.023   6.793   0.763
  629SOL    HW2 2787   1.089   6.840   0.905
  630SOL     OW 2788   3.936   2.012   1.031
  630SOL    HW1 2789   3.934   1.985   0.935
  630SOL    HW2 2790   3.993   1.949   1.083
  631SOL     OW 2791   2.370   6.997   5.337
  631SOL    HW1 2792   2.297   0.048   5.327
  631SOL    HW2 2793   2.337   6.921   5.393
  632SOL     OW 2794   2.249   1.005   0.961
  632SOL    HW1 2795   2.323   0.943   0.935
  632SOL    HW2 2796   2.286   1.096   0.977
  633SOL     OW 2797   2.424   6.757   6.334
  633SOL    HW1 2798   2.373   6.673   6.313
  633SOL    HW2 2799   2.521   6.736   6.343
  634SOL     OW 2800   3.431   5.847   0.411
  634SOL    HW1 2801   3.378   5.836   0.495
  634SOL    HW2 2802   3.371   5.879   0.338
  635SOL     OW 2803   2.688   0.622   2.662
  635SOL    HW1 2804   2.641   0.707   2.639
  635SOL    HW2 2805   2.783   0.628   2.633
  636SOL     OW 2806   5.216   5.402   0.175
  636SOL    HW1 2807   5.290   5.374   0.114
  636SOL    HW2 2808   5.138   5.434   0.120
  637SOL     OW 2809   4.306   4.664   0.859
  637SOL    HW1 2810   4.274   4.750   0.819
  637SOL    HW2 2811   4.345   4.607   0.787
  638SOL     OW 2812   5.050   1.126   2.705
  638SOL    HW1 2813   5.140   1.099   2.671
  638SOL    HW2 2814   5.021   1.209   2.658
  639SOL     OW 2815   4.390   4.599   1.995
  639SOL    HW1 2816   4.434   4.514   2.024
  639SOL    HW2 2817   4.313   4.619   2.057
  640SOL     OW 2818   2.516   4.494   5.591
  640SOL    HW1 2819   2.473   4.441   5.518
  640SOL    HW2 2820   2.611   4.512   5.567
  641SOL     OW 2821   0.061   6.240   4.586
  641SOL    HW1 2822   0.057   6.153   4.537
  641SOL    HW2 2823   0.034   6.225   4.682
  642SOL     OW 2824   1.046   5.484   4.833
  642SOL    HW1 2825   1.068   5.517   4.925
  642SOL    HW2 2826   0.994   5.554   4.784
  643SOL     OW 2827   5.869   5.723   5.189
  643SOL    HW1 2828   5.802   5.763   5.127
  643SOL    HW2 2829   5.955   5.705   5.140
  644SOL     OW 2830   1.507   6.305   2.183
  644SOL    HW1 2831   1.540   6.358   2.261
  644SOL    HW2 2832   1.487   6.366   2.107
  645SOL     OW 2833   5.728   2.664   3.761
  645SOL    HW1 2834   5.805   2.719   3.726
  645SOL    HW2 2835   5.650   2.674   3.699
  646SOL     OW 2836   1.731   1.905   4.501
  646SOL    HW1 2837   1.747   1.976   4.432
  646SOL    HW2 2838   1.818   1.865   4.529
  647SOL     OW 2839   5.875   3.385   0.412
  647SOL    HW1 2840   5.825   3.307   0.448
  647SOL    HW2 2841   5.972   3.377   0.435
  648SOL     OW 2842   6.027   3.365   1.578
  648SOL    HW1 2843   5.929   3.368   1.597
  648SOL    HW2 2844   6.071   3.303   1.642
  649SOL     OW 2845   4.239   4.771   1.157
  649SOL    HW1 2846   4.168   4.804   1.096
  649SOL    HW2 2847   4.328   4.777   1.112
  650SOL     OW 2848   4.968   4.769   0.631
  650SOL    HW1 2849   5.003   4.826   0.706
  650SOL    HW2 2850   5.042   4.746   0.569
  651SOL     OW 2851   1.087   5.796   6.665
  651SOL    HW1 2852   1.124   5.883   6.697
  651SOL    HW2 2853   1.047   5.807   6.574
  652SOL     OW 2854   4.334   1.439   2.501
  652SOL    HW1 2855   4.313   1.346   2.470
  652SOL    HW2 2856   4.401   1.480   2.439
  653SOL     OW 2857   3.846   4.820   3.663
  653SOL    HW1 2858   3.801   4.870   3.737
  653SOL    HW2 2859   3.943   4.809   3.683
  654SOL     OW 2860   6.549   4.514   0.597
  654SOL    HW1 2861   6.550   4.442   0.666
  654SOL    HW2 2862   6.567   4.602   0.641
  655SOL     OW 2863   0.524   0.820   0.702
  655SOL    HW1 2864   0.484   0.744   0.753
  655SOL    HW2 2865   0.602   0.787   0.649
  656SOL     OW 2866   2.600   6.707   2.106
  656SOL    HW1 2867   2.583   6.746   2.197
  656SOL    HW2 2868   2.693   6.730   2.077
  657SOL     OW 2869   2.916   1.594   6.792
  657SOL    HW1 2870   2.940   1.690   6.776
  657SOL    HW2 2871   2.824   1.577   6.759
  658SOL     OW 2872   3.513   4.873   5.910
  658SOL    HW1 2873   3.425   4.840   5.874
  658SOL    HW2 2874   3.575   4.889   5.833
  659SOL     OW 2875   2.543   0.213   6.565
  659SOL    HW1 2876   2.486   0.273   6.623
  659SOL    HW2 2877   2.521   0.229   6.469
  660SOL     OW 2878   3.723   5.381   2.939
  660SOL    HW1 2879   3.716   5.456   2.874
  660SOL    HW2 2880   3.792   5.402   3.008
  661SOL     OW 2881   5.207   5.457   2.966
  661SOL    HW1 2882   5.303   5.431   2.960
  661SOL    HW2 2883   5.162   5.440   2.879
  662SOL     OW 2884   3.314   1.236   6.980
  662SOL    HW1 2885   3.250   1.306   6.950
  662SOL    HW2 2886   3.368   1.271   0.040
  663SOL     OW 2887   2.360   4.464   5.064
  663SOL    HW1 2888   2.406   4.479   4.976
  663SOL    HW2 2889   2.317   4.373   5.064
  664SOL     OW 2890   6.520   0.684   6.880
  664SOL    HW1 2891   6.474   0.643   6.801
  664SOL    HW2 2892   6.525   0.617   6.954
  665SOL     OW 2893   2.558   5.284   2.966
  665SOL    HW1 2894   2.567   5.216   2.894
  665SOL    HW2 2895   2.565   5.375   2.927
  666SOL     OW 2896   4.165   1.043   2.323
  666SOL    HW1 2897   4.214   1.000   2.246
  666SOL    HW2 2898   4.138   1.136   2.296
  667SOL     OW 2899   0.947   6.590   2.636
  667SOL    HW1 2900   0.874   6.588   2.705
  667SOL    HW2 2901   0.910   6.561   2.548
  668SOL     OW 2902   5.195   3.743   0.428
  668SOL    HW1 2903   5.149   3.760   0.341
  668SOL    HW2 2904   5.256   3.664   0.418
  669SOL     OW 2905   5.251   1.857   3.193
  669SOL    HW1 2906   5.256   1.957   3.202
  669SOL    HW2 2907   5.176   1.833   3.131
  670SOL     OW 2908   2.232   2.050   3.197
  670SOL    HW1 2909   2.178   1.967   3.213
  670SOL    HW2 2910   2.292   2.065   3.275
  671SOL     OW 2911   3.154   6.221   1.789
  671SOL    HW1 2912   3.187   6.315   1.797
  671SOL    HW2 2913   3.232   6.160   1.769
  672SOL     OW 2914   1.340   6.606   2.356
  672SOL    HW1 2915   1.277   6.565   2.422
  672SOL    HW2 2916   1.414   6.542   2.337
  673SOL     OW 2917   5.764   6.885   0.235
  673SOL    HW1 2918   5.863   6.892   0.225
  673SOL    HW2 2919   5.725   6.836   0.156
  674SOL     OW 2920   0.382   1.082   4.334
  674SOL    HW1 2921   0.286   1.053   4.339
  674SOL    HW2 2922   0.441   1.002   4.332
  675SOL     OW 2923   6.124   2.961   2.491
  675SOL    HW1 2924   6.187   3.006   2.428
  675SOL    HW2 2925   6.175   2.920   2.567
  676SOL     OW 2926   1.985   5.951   6.110
  676SOL    HW1 2927   1.928   5.924   6.188
  676SOL    HW2 2928   1.981   6.050   6.099
  677SOL     OW 2929   4.708   1.499   0.765
  677SOL    HW1 2930   4.746   1.547   0.844
  677SOL    HW2 2931   4.711   1.559   0.685
  678SOL     OW 2932   1.970   4.964   4.531
  678SOL    HW1 2933   1.912   4.938   4.454
  678SOL    HW2 2934   2.027   4.886   4.558
  679SOL     OW 2935   5.237   1.507   5.520
  679SOL    HW1 2936   5.273   1.522   5.612
  679SOL    HW2 2937   5.245   1.592   5.467
  680SOL     OW 2938   4.585   0.093   4.365
  680SOL    HW1 2939   4.495   0.112   4.326
  680SOL    HW2 2940   4.650   0.071   4.292
  681SOL     OW 2941   4.656   4.677   2.245
  681SOL    HW1 2942   4.589   4.689   2.318
  681SOL    HW2 2943   4.623   4.722   2.162
  682SOL     OW 2944   0.957   1.001   3.685
  682SOL    HW1 2945   0.967   1.068   3.759
  682SOL    HW2 2946   0.884   0.937   3.707
  683SOL     OW 2947   4.499   3.573   1.071
  683SOL    HW1 2948   4.592   3.540   1.086
  683SOL    HW2 2949   4.454   3.586   1.159
  684SOL     OW 2950   6.500   1.148   6.011
  684SOL    HW1 2951   6.532   1.233   6.052
  684SOL    HW2 2952   6.456   1.091   6.080
  685SOL     OW 2953   3.724   0.363   3.057
  685SOL    HW1 2954   3.649   0.297   3.053
  685SOL    HW2 2955   3.688   0.456   3.048
  686SOL     OW 2956   4.461   0.300   5.067
  686SOL    HW1 2957   4.370   0.273   5.034
  686SOL    HW2 2958   4.456   0.389   5.111
  687SOL     OW 2959   1.298   2.137   4.498
  687SOL    HW1 2960   1.347   2.222   4.513
  687SOL    HW2 2961   1.356   2.074   4.446
  688SOL     OW 2962   6.380   1.212   6.716
  688SOL    HW1 2963   6.444   1.176   6.785
  688SOL    HW2 2964   6.309   1.266   6.761
  689SOL     OW 2965   1.208   4.822   6.071
  689SOL    HW1 2966   1.233   4.732   6.035
  689SOL    HW2 2967   1.116   4.845   6.040
  690SOL     OW 2968   5.718   3.434   2.720
  690SOL    HW1 2969   5.734   3.406   2.815
  690SOL    HW2 2970   5.619   3.446   2.705
  691SOL     OW 2971   4.978   1.803   0.327
  691SOL    HW1 2972   4.984   1.814   0.426
  691SOL    HW2 2973   5.011   1.712   0.301
  692SOL     OW 2974   2.613   0.712   4.874
  692SOL    HW1 2975   2.603   0.692   4.776
  692SOL    HW2 2976   2.523   0.711   4.917
  693SOL     OW 2977   5.174   5.906   3.855
  693SOL    HW1 2978   5.175   5.884   3.953
  693SOL    HW2 2979   5.091   5.868   3.814
  694SOL     OW 2980   4.655   5.712   5.117
  694SOL    HW1 2981   4.714   5.632   5.125
  694SOL    HW2 2982   4.709   5.792   5.091
  695SOL     OW 2983   3.066   7.013   4.006
  695SOL    HW1 2984   3.100   6.960   4.085
  695SOL    HW2 2985   3.039   6.950   3.933
  696SOL     OW 2986   4.581   4.303   3.085
  696SOL    HW1 2987   4.597   4.343   2.995
  696SOL    HW2 2988   4.508   4.354   3.131
  697SOL     OW 2989   0.122   5.145   2.351
  697SOL    HW1 2990   0.203   5.154   2.409
  697SOL    HW2 2991   0.144   5.092   2.270
  698SOL     OW 2992   5.889   6.828   0.889
  698SOL    HW1 2993   5.872   6.926   0.893
  698SOL    HW2 2994   5.843   6.789   0.810
  699SOL     OW 2995   2.377   2.325   0.988
  699SOL    HW1 2996   2.347   2.231   0.977
  699SOL    HW2 2997   2.382   2.348   1.085
  700SOL     OW 2998   3.838   6.730   2.883
  700SOL    HW1 2999   3.909   6.717   2.952
  700SOL    HW2 3000   3.752   6.690   2.916
  701SOL     OW 3001   5.979   5.330   1.556
  701SOL    HW1 3002   5.921   5.251   1.573
  701SOL    HW2 3003   5.961   5.366   1.464
  702SOL     OW 3004   3.274   1.209   4.202
  702SOL    HW1 3005   3.192   1.223   4.258
  702SOL    HW2 3006   3.339   1.153   4.252
  703SOL     OW 3007   2.809   2.264   6.165
  703SOL    HW1 3008   2.729   2.206   6.148
  703SOL    HW2 3009   2.792   2.321   6.245
  704SOL     OW 3010   1.227   2.738   5.750
  704SOL    HW1 3011   1.179   2.706   5.669
  704SOL    HW2 3012   1.212   2.674   5.825
  705SOL     OW 3013   7.009   6.196   4.870
  705SOL    HW1 3014   6.914   6.204   4.841
  705SOL    HW2 3015   7.015   6.139   4.952
  706SOL     OW 3016   4.442   0.819   5.167
  706SOL    HW1 3017   4.526   0.861   5.132
  706SOL    HW2 3018   4.373   0.890   5.183
  707SOL     OW 3019   3.545   5.215   3.626
  707SOL    HW1 3020   3.557   5.120   3.655
  707SOL    HW2 3021   3.584   5.227   3.535
  708SOL     OW 3022   3.533   0.553   3.641
  708SOL    HW1 3023   3.550   0.537   3.738
  708SOL    HW2 3024   3.503   0.469   3.597
  709SOL     OW 3025   2.399   0.142   1.659
  709SOL    HW1 3026   2.495   0.131   1.682
  709SOL    HW2 3027   2.351   0.055   1.672
  710SOL     OW 3028   4.517   2.760   1.733
  710SOL    HW1 3029   4.513   2.664   1.761
  710SOL    HW2 3030   4.580   2.809   1.793
  711SOL     OW 3031   0.293   2.233   5.821
  711SOL    HW1 3032   0.363   2.270   5.882
  711SOL    HW2 3033   0.298   2.280   5.733
  712SOL     OW 3034   4.799   4.135   0.377
  712SOL    HW1 3035   4.879   4.122   0.435
  712SOL    HW2 3036   4.817   4.100   0.286
  713SOL     OW 3037   4.022   2.773   5.302
  713SOL    HW1 3038   3.939   2.802   5.255
  713SOL    HW2 3039   4.061   2.694   5.256
  714SOL     OW 3040   5.118   5.129   3.838
  714SOL    HW1 3041   5.107   5.081   3.751
  714SOL    HW2 3042   5.215   5.128   3.864
  715SOL     OW 3043   6.491   5.219   5.435
  715SOL    HW1 3044   6.395   5.190   5.438
  715SOL    HW2 3045   6.527   5.226   5.528
  716SOL     OW 3046   2.162   1.512   2.673
  716SOL    HW1 3047   2.261   1.509   2.664
  716SOL    HW2 3048   2.123   1.561   2.594
  717SOL     OW 3049   5.178   5.181   4.184
  717SOL    HW1 3050   5.269   5.208   4.152
  717SOL    HW2 3051   5.143   5.108   4.125
  718SOL     OW 3052   5.668   1.891   4.389
  718SOL    HW1 3053   5.595   1.930   4.333
  718SOL    HW2 3054   5.629   1.833   4.460
  719SOL     OW 3055   5.415   6.973   3.644
  719SOL    HW1 3056   5.476   6.909   3.597
  719SOL    HW2 3057   5.409   6.949   3.741
  720SOL     OW 3058   1.885   1.260   6.950
  720SOL    HW1 3059   1.905   1.182   6.891
  720SOL    HW2 3060   1.892   1.231   0.029
  721SOL     OW 3061   0.311   2.052   3.309
  721SOL    HW1 3062   0.308   2.122   3.238
  721SOL    HW2 3063   0.333   1.964   3.268
  722SOL     OW 3064   4.002   6.708   0.341
  722SOL    HW1 3065   3.991   6.772   0.265
  722SOL    HW2 3066   3.914   6.665   0.360
  723SOL     OW 3067   2.466   5.816   3.640
  723SOL    HW1 3068   2.493   5.768   3.556
  723SOL    HW2 3069   2.534   5.887   3.660
  724SOL     OW 3070   1.233   0.975   3.562
  724SOL    HW1 3071   1.186   1.063   3.557
  724SOL    HW2 3072   1.201   0.925   3.642
  725SOL     OW 3073   1.602   4.077   2.590
  725SOL    HW1 3074   1.543   4.158   2.595
  725SOL    HW2 3075   1.552   3.998   2.623
  726SOL     OW 3076   1.987   4.179   0.604
  726SOL    HW1 3077   2.032   4.106   0.655
  726SOL    HW2 3078   1.955   4.143   0.516
  727SOL     OW 3079   4.237   5.538   5.276
  727SOL    HW1 3080   4.251   5.500   5.368
  727SOL    HW2 3081   4.145   5.517   5.244
  728SOL     OW 3082   6.464   3.308   4.086
  728SOL    HW1 3083   6.539   3.242   4.074
  728SOL    HW2 3084   6.500   3.401   4.079
  729SOL     OW 3085   0.121   4.207   1.731
  729SOL    HW1 3086   0.068   4.152   1.667
  729SOL    HW2 3087   0.193   4.151   1.771
  730SOL     OW 3088   5.133   0.307   3.295
  730SOL    HW1 3089   5.207   0.240   3.308
  730SOL    HW2 3090   5.106   0.309   3.199
  731SOL     OW 3091   4.263   4.584   6.330
  731SOL    HW1 3092   4.342   4.554   6.277
  731SOL    HW2 3093   4.198   4.632   6.270
  732SOL     OW 3094   4.908   1.435   4.211
  732SOL    HW1 3095   4.867   1.350   4.244
  732SOL    HW2 3096   5.007   1.424   4.204
  733SOL     OW 3097   5.907   6.538   3.057
  733SOL    HW1 3098   5.829   6.593   3.025
  733SOL    HW2 3099   5.903   6.530   3.156
  734SOL     OW 3100   5.522   6.197   2.613
  734SOL    HW1 3101   5.592   6.135   2.649
  734SOL    HW2 3102   5.502   6.267   2.682
  735SOL     OW 3103   5.098   0.773   2.047
  735SOL    HW1 3104   5.197   0.776   2.033
  735SOL    HW2 3105   5.075   0.815   2.134
  736SOL     OW 3106   1.086   1.701   4.617
  736SOL    HW1 3107   1.076   1.799   4.629
  736SOL    HW2 3108   1.121   1.682   4.525
  737SOL     OW 3109   5.284   0.935   6.409
  737SOL    HW1 3110   5.324   0.910   6.321
  737SOL    HW2 3111   5.295   1.034   6.424
  738SOL     OW 3112   2.357   4.232   1.397
  738SOL    HW1 3113   2.386   4.320   1.434
  738SOL    HW2 3114   2.404   4.158   1.446
  739SOL     OW 3115   2.813   6.566   4.802
  739SOL    HW1 3116   2.867   6.537   4.881
  739SOL    HW2 3117   2.764   6.487   4.765
  740SOL     OW 3118   5.400   3.394   2.957
  740SOL    HW1 3119   5.435   3.327   2.892
  740SOL    HW2 3120   5.425   3.366   3.050
  741SOL     OW 3121   2.644   0.858   2.973
  741SOL    HW1 3122   2.560   0.807   2.958
  741SOL    HW2 3123   2.664   0.914   2.893
  742SOL     OW 3124   1.838   6.727   1.545
  742SOL    HW1 3125   1.794   6.638   1.531
  742SOL    HW2 3126   1.857   6.740   1.642
  743SOL     OW 3127   0.695   6.575   3.236
  743SOL    HW1 3128   0.763   6.645   3.215
  743SOL    HW2 3129   0.668   6.581   3.332
  744SOL     OW 3130   4.969   2.100   0.256
  744SOL    HW1 3131   4.940   2.133   0.166
  744SOL    HW2 3132   4.949   2.002   0.263
  745SOL     OW 3133   2.908   6.360   5.223
  745SOL    HW1 3134   2.975   6.383   5.152
  745SOL    HW2 3135   2.868   6.270   5.204
  746SOL     OW 3136   6.714   4.499   5.354
  746SOL    HW1 3137   6.788   4.564   5.370
  746SOL    HW2 3138   6.690   4.499   5.257
  747SOL     OW 3139   5.033   5.849   3.032
  747SOL    HW1 3140   4.978   5.780   2.986
  747SOL    HW2 3141   4.975   5.927   3.055
  748SOL     OW 3142   5.602   5.439   2.233
  748SOL    HW1 3143   5.608   5.343   2.207
  748SOL    HW2 3144   5.512   5.458   2.271
  749SOL     OW 3145   4.895   3.438   3.641
  749SOL    HW1 3146   4.920   3.449   3.545
  749SOL    HW2 3147   4.903   3.342   3.668
  750SOL     OW 3148   2.172   2.099   1.735
  750SOL    HW1 3149   2.099   2.073   1.798
  750SOL    HW2 3150   2.258   2.057   1.764
  751SOL     OW 3151   4.472   0.394   0.106
  751SOL    HW1 3152   4.548   0.452   0.075
  751SOL    HW2 3153   4.396   0.451   0.136
  752SOL     OW 3154   3.522   2.445   5.505
  752SOL    HW1 3155   3.572   2.496   5.434
  752SOL    HW2 3156   3.472   2.370   5.462
  753SOL     OW 3157   4.109   3.818   4.791
  753SOL    HW1 3158   4.021   3.860   4.811
  753SOL    HW2 3159   4.099   3.755   4.714
  754SOL     OW 3160   5.667   0.276   0.015
  754SOL    HW1 3161   5.702   0.191   0.055
  754SOL    HW2 3162   5.632   0.259   6.940
  755SOL     OW 3163   4.124   4.640   5.235
  755SOL    HW1 3164   4.187   4.571   5.198
  755SOL    HW2 3165   4.066   4.599   5.305
  756SOL     OW 3166   2.283   4.953   5.879
  756SOL    HW1 3167   2.319   5.041   5.849
  756SOL    HW2 3168   2.332   4.879   5.832
  757SOL     OW 3169   2.825   6.781   2.569
  757SOL    HW1 3170   2.835   6.856   2.504
  757SOL    HW2 3171   2.730   6.750   2.568
  758SOL     OW 3172   3.419   1.531   3.891
  758SOL    HW1 3173   3.498   1.558   3.837
  758SOL    HW2 3174   3.393   1.607   3.952
  759SOL     OW 3175   0.576   2.873   4.512
  759SOL    HW1 3176   0.593   2.956   4.459
  759SOL    HW2 3177   0.477   2.855   4.515
  760SOL     OW 3178   6.885   5.714   3.598
  760SOL    HW1 3179   6.822   5.766   3.541
  760SOL    HW2 3180   6.939   5.776   3.654
  761SOL     OW 3181   4.423   3.137   6.179
  761SOL    HW1 3182   4.442   3.057   6.122
  761SOL    HW2 3183   4.495   3.206   6.164
  762SOL     OW 3184   3.347   5.624   4.394
  762SOL    HW1 3185   3.324   5.606   4.489
  762SOL    HW2 3186   3.447   5.627   4.384
  763SOL     OW 3187   5.709   0.682   0.209
  763SOL    HW1 3188   5.649   0.690   0.288
  763SOL    HW2 3189   5.802   0.660   0.239
  764SOL     OW 3190   5.467   0.156   5.142
  764SOL    HW1 3191   5.503   0.172   5.051
  764SOL    HW2 3192   5.482   0.061   5.169
  765SOL     OW 3193   0.014   6.497   1.312
  765SOL    HW1 3194   0.046   6.511   1.218
  765SOL    HW2 3195   0.086   6.523   1.376
  766SOL     OW 3196   2.114   2.049   5.433
  766SOL    HW1 3197   2.153   2.126   5.382
  766SOL    HW2 3198   2.038   2.082   5.490
  767SOL     OW 3199   0.409   6.181   4.583
  767SOL    HW1 3200   0.394   6.186   4.681
  767SOL    HW2 3201   0.501   6.145   4.565
  768SOL     OW 3202   2.120   5.504   1.885
  768SOL    HW1 3203   2.072   5.443   1.949
  768SOL    HW2 3204   2.113   5.598   1.918
  769SOL     OW 3205   2.909   2.040   4.988
  769SOL    HW1 3206   2.873   2.023   5.079
  769SOL    HW2 3207   2.976   2.114   4.992
  770SOL     OW 3208   1.819   4.593   4.835
  770SOL    HW1 3209   1.817   4.671   4.898
  770SOL    HW2 3210   1.900   4.538   4.853
  771SOL     OW 3211   1.157   5.888   2.902
  771SOL    HW1 3212   1.078   5.917   2.955
  771SOL    HW2 3213   1.225   5.847   2.963
  772SOL     OW 3214   5.886   4.451   0.567
  772SOL    HW1 3215   5.799   4.468   0.521
  772SOL    HW2 3216   5.884   4.490   0.659
  773SOL     OW 3217   0.268   3.776   3.419
  773SOL    HW1 3218   0.182   3.819   3.391
  773SOL    HW2 3219   0.262   3.677   3.402
  774SOL     OW 3220   2.052   0.556   2.890
  774SOL    HW1 3221   2.142   0.514   2.904
  774SOL    HW2 3222   2.064   0.646   2.847
  775SOL     OW 3223   1.947   4.797   3.073
  775SOL    HW1 3224   2.008   4.718   3.071
  775SOL    HW2 3225   1.893   4.800   2.989
  776SOL     OW 3226   2.383   5.162   6.842
  776SOL    HW1 3227   2.399   5.241   6.782
  776SOL    HW2 3228   2.330   5.093   6.793
  777SOL     OW 3229   2.091   3.863   0.468
  777SOL    HW1 3230   1.995   3.876   0.491
  777SOL    HW2 3231   2.120   3.932   0.402
  778SOL     OW 3232   2.670   7.015   1.397
  778SOL    HW1 3233   2.665   0.078   1.457
  778SOL    HW2 3234   2.593   7.016   1.333
  779SOL     OW 3235   0.136   2.412   3.658
  779SOL    HW1 3236   0.164   2.338   3.598
  779SOL    HW2 3237   0.051   2.453   3.624
  780SOL     OW 3238   0.987   1.882   4.351
  780SOL    HW1 3239   0.898   1.857   4.390
  780SOL    HW2 3240   0.975   1.909   4.256
  781SOL     OW 3241   0.790   4.520   0.593
  781SOL    HW1 3242   0.819   4.604   0.639
  781SOL    HW2 3243   0.719   4.474   0.647
  782SOL     OW 3244   2.070   3.630   5.388
  782SOL    HW1 3245   2.086   3.540   5.348
  782SOL    HW2 3246   1.988   3.670   5.347
  783SOL     OW 3247   6.444   4.891   6.300
  783SOL    HW1 3248   6.532   4.885   6.254
  783SOL    HW2 3249   6.453   4.948   6.382
  784SOL     OW 3250   3.159   6.189   0.201
  784SOL    HW1 3251   3.187   6.215   0.108
  784SOL    HW2 3252   3.118   6.268   0.246
  785SOL     OW 3253   1.400   6.478   4.630
  785SOL    HW1 3254   1.448   6.566   4.630
  785SOL    HW2 3255   1.301   6.494   4.632
  786SOL     OW 3256   6.775   1.254   3.168
  786SOL    HW1 3257   6.720   1.297   3.240
  786SOL    HW2 3258   6.869   1.288   3.174
  787SOL     OW 3259   2.755   0.389   0.694
  787SOL    HW1 3260   2.715   0.408   0.784
  787SOL    HW2 3261   2.825   0.457   0.673
  788SOL     OW 3262   3.177   2.739   0.981
  788SOL    HW1 3263   3.202   2.707   0.890
  788SOL    HW2 3264   3.123   2.668   1.028
  789SOL     OW 3265   4.256   5.110   1.662
  789SOL    HW1 3266   4.249   5.040   1.592
  789SOL    HW2 3267   4.352   5.138   1.672
  790SOL     OW 3268   0.737   2.482   2.748
  790SOL    HW1 3269   0.760   2.544   2.673
  790SOL    HW2 3270   0.804   2.493   2.822
  791SOL     OW 3271   3.230   5.270   4.975
  791SOL    HW1 3272   3.309   5.305   4.925
  791SOL    HW2 3273   3.148   5.321   4.950
  792SOL     OW 3274   1.421   0.709   0.773
  792SOL    HW1 3275   1.457   0.802   0.779
  792SOL    HW2 3276   1.329   0.712   0.733
  793SOL     OW 3277   2.778   5.788   4.228
  793SOL    HW1 3278   2.815   5.875   4.260
  793SOL    HW2 3279   2.849   5.739   4.176
  794SOL     OW 3280   3.663   3.243   3.367
  794SOL    HW1 3281   3.716   3.182   3.308
  794SOL    HW2 3282   3.617   3.190   3.438
  795SOL     OW 3283   3.594   0.167   6.464
  795SOL    HW1 3284   3.658   0.136   6.394
  795SOL    HW2 3285   3.507   0.191   6.421
  796SOL     OW 3286   0.994   3.102   6.793
  796SOL    HW1 3287   0.941   3.148   6.864
  796SOL    HW2 3288   0.947   3.018   6.766
  797SOL     OW 3289   5.183   6.641   0.713
  797SOL    HW1 3290   5.277   6.674   0.706
  797SOL    HW2 3291   5.150   6.616   0.622
  798SOL     OW 3292   3.723   6.364   1.118
  798SOL    HW1 3293   3.783   6.437   1.151
  798SOL    HW2 3294   3.645   6.405   1.069
  799SOL     OW 3295   1.344   2.504   5.510
  799SOL    HW1 3296   1.258   2.554   5.497
  799SOL    HW2 3297   1.421   2.568   5.509
  800SOL     OW 3298   5.872   2.868   1.971
  800SOL    HW1 3299   5.952   2.841   2.025
  800SOL    HW2 3300   5.789   2.839   2.017
  801SOL     OW 3301   2.175   5.289   5.717
  801SOL    HW1 3302   2.078   5.282   5.694
  801SOL    HW2 3303   2.224   5.209   5.681
  802SOL     OW 3304   5.728   3.205   6.411
  802SOL    HW1 3305   5.746   3.120   6.361
  802SOL    HW2 3306   5.677   3.268   6.352
  803SOL     OW 3307   2.732   1.548   5.247
  803SOL    HW1 3308   2.679   1.632   5.252
  803SOL    HW2 3309   2.699   1.492   5.172
  804SOL     OW 3310   6.062   1.081   2.424
  804SOL    HW1 3311   6.126   1.046   2.492
  804SOL    HW2 3312   5.968   1.072   2.458
  805SOL     OW 3313   3.741   0.323   3.653
  805SOL    HW1 3314   3.811   0.367   3.708
  805SOL    HW2 3315   3.655   0.322   3.704
  806SOL     OW 3316   2.127   6.089   5.736
  806SOL    HW1 3317   2.059   6.162   5.739
  806SOL    HW2 3318   2.118   6.038   5.651
  807SOL     OW 3319   0.330   6.088   6.350
  807SOL    HW1 3320   0.303   6.030   6.273
  807SOL    HW2 3321   0.413   6.138   6.327
  808SOL     OW 3322   5.478   2.803   6.959
  808SOL    HW1 3323   5.393   2.759   6.989
  808SOL    HW2 3324   5.486   2.794   6.860
  809SOL     OW 3325   2.270   4.500   0.491
  809SOL    HW1 3326   2.263   4.401   0.505
  809SOL    HW2 3327   2.320   4.518   0.406
  810SOL     OW 3328   4.058   3.102   0.123
  810SOL    HW1 3329   3.998   3.058   0.189
  810SOL    HW2 3330   4.066   3.199   0.144
  811SOL     OW 3331   5.420   5.279   4.118
  811SOL    HW1 3332   5.403   5.376   4.104
  811SOL    HW2 3333   5.519   5.261   4.114
  812SOL     OW 3334   0.310   3.206   2.102
  812SOL    HW1 3335   0.357   3.194   2.015
  812SOL    HW2 3336   0.260   3.293   2.101
  813SOL     OW 3337   0.735   1.834   4.396
  813SOL    HW1 3338   0.664   1.799   4.334
  813SOL    HW2 3339   0.714   1.929   4.419
  814SOL     OW 3340   0.989   5.081   3.071
  814SOL    HW1 3341   0.936   5.116   2.994
  814SOL    HW2 3342   0.994   5.151   3.142
  815SOL     OW 3343   4.684   1.609   4.193
  815SOL    HW1 3344   4.769   1.556   4.182
  815SOL    HW2 3345   4.606   1.548   4.183
  816SOL     OW 3346   5.640   4.728   6.628
  816SOL    HW1 3347   5.696   4.748   6.548
  816SOL    HW2 3348   5.582   4.649   6.609
  817SOL     OW 3349   0.930   4.445   6.872
  817SOL    HW1 3350   0.866   4.508   6.828
  817SOL    HW2 3351   1.021   4.458   6.832
  818SOL     OW 3352   6.144   2.772   4.639
  818SOL    HW1 3353   6.075   2.817   4.695
  818SOL    HW2 3354   6.099   2.710   4.574
  819SOL     OW 3355   5.236   2.649   2.252
  819SOL    HW1 3356   5.226   2.645   2.153
  819SOL    HW2 3357   5.237   2.557   2.290
  820SOL     OW 3358   2.226   2.180   4.852
  820SOL    HW1 3359   2.260   2.146   4.940
  820SOL    HW2 3360   2.159   2.253   4.868
  821SOL     OW 3361   5.875   3.390   5.447
  821SOL    HW1 3362   5.830   3.430   5.367
  821SOL    HW2 3363   5.815   3.398   5.527
  822SOL     OW 3364   0.685   4.163   3.289
  822SOL    HW1 3365   0.612   4.154   3.357
  822SOL    HW2 3366   0.765   4.205   3.332
  823SOL     OW 3367   1.119   4.238   5.391
  823SOL    HW1 3368   1.089   4.143   5.395
  823SOL    HW2 3369   1.192   4.253   5.459
  824SOL     OW 3370   5.730   1.603   5.664
  824SOL    HW1 3371   5.800   1.576   5.597
  824SOL    HW2 3372   5.746   1.698   5.692
  825SOL     OW 3373   6.259   6.007   0.853
  825SOL    HW1 3374   6.167   6.032   0.883
  825SOL    HW2 3375   6.314   6.090   0.841
  826SOL     OW 3376   3.608   1.256   6.404
  826SOL    HW1 3377   3.531   1.317   6.388
  826SOL    HW2 3378   3.580   1.182   6.465
  827SOL     OW 3379   3.794   4.065   4.669
  827SOL    HW1 3380   3.811   4.035   4.575
  827SOL    HW2 3381   3.707   4.115   4.672
  828SOL     OW 3382   6.556   5.765   5.311
  828SOL    HW1 3383   6.491   5.689   5.303
  828SOL    HW2 3384   6.647   5.733   5.284
  829SOL     OW 3385   3.206   2.971   2.874
  829SOL    HW1 3386   3.160   3.057   2.850
  829SOL    HW2 3387   3.206   2.960   2.974
  830SOL     OW 3388   6.596   4.136   0.177
  830SOL    HW1 3389   6.557   4.125   0.268
  830SOL    HW2 3390   6.651   4.056   0.153
  831SOL     OW 3391   4.731   6.608   1.460
  831SOL    HW1 3392   4.676   6.577   1.382
  831SOL    HW2 3393   4.776   6.529   1.502
  832SOL     OW 3394   2.943   2.025   4.509
  832SOL    HW1 3395   2.934   1.969   4.592
  832SOL    HW2 3396   2.921   1.969   4.429
  833SOL     OW 3397   2.513   2.736   6.650
  833SOL    HW1 3398   2.489   2.827   6.683
  833SOL    HW2 3399   2.487   2.727   6.554
  834SOL     OW 3400   5.290   3.364   0.042
  834SOL    HW1 3401   5.349   3.444   0.028
  834SOL    HW2 3402   5.317   3.318   0.127
  835SOL     OW 3403   0.428   6.442   4.414
  835SOL    HW1 3404   0.356   6.512   4.416
  835SOL    HW2 3405   0.390   6.355   4.443
  836SOL     OW 3406   3.631   1.195   4.424
  836SOL    HW1 3407   3.655   1.292   4.418
  836SOL    HW2 3408   3.567   1.182   4.500
  837SOL     OW 3409   1.860   0.898   0.508
  837SOL    HW1 3410   1.919   0.968   0.547
  837SOL    HW2 3411   1.800   0.861   0.580
  838SOL     OW 3412   2.079   5.395   3.218
  838SOL    HW1 3413   1.985   5.406   3.184
  838SOL    HW2 3414   2.111   5.303   3.196
  839SOL     OW 3415   0.983   2.103   0.409
  839SOL    HW1 3416   1.067   2.134   0.454
  839SOL    HW2 3417   0.954   2.171   0.342
  840SOL     OW 3418   5.323   5.439   6.666
  840SOL    HW1 3419   5.290   5.488   6.586
  840SOL    HW2 3420   5.304   5.341   6.657
  841SOL     OW 3421   3.602   4.561   6.593
  841SOL    HW1 3422   3.603   4.634   6.524
  841SOL    HW2 3423   3.609   4.473   6.547
  842SOL     OW 3424   3.270   6.516   6.359
  842SOL    HW1 3425   3.340   6.526   6.430
  842SOL    HW2 3426   3.181   6.500   6.401
  843SOL     OW 3427   1.385   1.258   2.660
  843SOL    HW1 3428   1.407   1.298   2.571
  843SOL    HW2 3429   1.293   1.285   2.687
  844SOL     OW 3430   6.082   0.357   1.434
  844SOL    HW1 3431   6.158   0.372   1.496
  844SOL    HW2 3432   5.995   0.377   1.480
  845SOL     OW 3433   3.789   1.371   2.434
  845SOL    HW1 3434   3.885   1.350   2.452
  845SOL    HW2 3435   3.782   1.459   2.386
  846SOL     OW 3436   2.623   2.150   0.339
  846SOL    HW1 3437   2.673   2.187   0.418
  846SOL    HW2 3438   2.687   2.125   0.267
  847SOL     OW 3439   2.325   4.468   1.672
  847SOL    HW1 3440   2.262   4.528   1.721
  847SOL    HW2 3441   2.273   4.407   1.611
  848SOL     OW 3442   0.146   5.627   0.093
  848SOL    HW1 3443   0.143   5.690   0.170
  848SOL    HW2 3444   0.183   5.539   0.123
  849SOL     OW 3445   6.150   3.590   6.680
  849SOL    HW1 3446   6.248   3.608   6.670
  849SOL    HW2 3447   6.105   3.671   6.719
  850SOL     OW 3448   0.633   0.494   5.046
  850SOL    HW1 3449   0.697   0.556   5.001
  850SOL    HW2 3450   0.552   0.545   5.075
  851SOL     OW 3451   6.584   3.481   5.682
  851SOL    HW1 3452   6.495   3.482   5.728
  851SOL    HW2 3453   6.574   3.441   5.591
  852SOL     OW 3454   0.707   4.030   2.398
  852SOL    HW1 3455   0.765   4.050   2.318
  852SOL    HW2 3456   0.744   3.951   2.446
  853SOL     OW 3457   2.755   3.516   0.304
  853SOL    HW1 3458   2.689   3.586   0.331
  853SOL    HW2 3459   2.718   3.426   0.325
  854SOL     OW 3460   5.565   6.731   6.493
  854SOL    HW1 3461   5.514   6.661   6.444
  854SOL    HW2 3462   5.502   6.804   6.522
  855SOL     OW 3463   6.137   0.858   0.119
  855SOL    HW1 3464   6.237   0.860   0.113
  855SOL    HW2 3465   6.101   0.945   0.084
  856SOL     OW 3466   2.229   5.974   0.703
  856SOL    HW1 3467   2.154   5.923   0.744
  856SOL    HW2 3468   2.304   5.982   0.769
  857SOL     OW 3469   6.103   5.311   5.604
  857SOL    HW1 3470   6.012   5.299   5.566
  857SOL    HW2 3471   6.154   5.225   5.595
  858SOL     OW 3472   4.092   3.370   0.181
  858SOL    HW1 3473   4.082   3.404   0.274
  858SOL    HW2 3474   4.171   3.415   0.138
  859SOL     OW 3475   4.377   6.362   5.605
  859SOL    HW1 3476   4.359   6.289   5.539
  859SOL    HW2 3477   4.293   6.414   5.621
  860SOL     OW 3478   5.016   3.314   5.699
  860SOL    HW1 3479   4.937   3.253   5.695
  860SOL    HW2 3480   5.095   3.271   5.656
  861SOL     OW 3481   2.596   6.354   2.428
  861SOL    HW1 3482   2.549   6.431   2.385
  861SOL    HW2 3483   2.694   6.360   2.408
  862SOL     OW 3484   0.951   4.400   3.417
  862SOL    HW1 3485   0.930   4.342   3.495
  862SOL    HW2 3486   1.035   4.451   3.435
  863SOL     OW 3487   0.080   0.788   0.249
  863SOL    HW1 3488   0.177   0.810   0.257
  863SOL    HW2 3489   0.026   0.871   0.260
  864SOL     OW 3490   5.878   0.110   4.798
  864SOL    HW1 3491   5.940   0.032   4.788
  864SOL    HW2 3492   5.795   0.082   4.845
  865SOL     OW 3493   2.093   6.471   4.393
  865SOL    HW1 3494   2.105   6.383   4.439
  865SOL    HW2 3495   2.048   6.535   4.455
  866SOL     OW 3496   3.363   6.352   2.117
  866SOL    HW1 3497   3.327   6.261   2.095
  866SOL    HW2 3498   3.462   6.346   2.128
  867SOL     OW 3499   6.190   2.145   0.082
  867SOL    HW1 3500   6.092   2.129   0.078
  867SOL    HW2 3501   6.218   2.156   0.178
  868SOL     OW 3502   0.038   2.016   2.542
  868SOL    HW1 3503   0.004   2.092   2.486
  868SOL    HW2 3504   0.087   2.053   2.621
  869SOL     OW 3505   6.605   4.021   3.141
  869SOL    HW1 3506   6.676   4.055   3.202
  869SOL    HW2 3507   6.515   4.048   3.176
  870SOL     OW 3508   3.354   5.172   1.748
  870SOL    HW1 3509   3.306   5.190   1.663
  870SOL    HW2 3510   3.291   5.181   1.825
  871SOL     OW 3511   4.466   1.611   3.547
  871SOL    HW1 3512   4.491   1.571   3.635
  871SOL    HW2 3513   4.409   1.547   3.496
  872SOL     OW 3514   6.760   3.292   5.033
  872SOL    HW1 3515   6.774   3.304   4.935
  872SOL    HW2 3516   6.844   3.313   5.082
  873SOL     OW 3517   4.977   6.922   6.373
  873SOL    HW1 3518   5.000   6.900   6.468
  873SOL    HW2 3519   4.983   0.004   6.360
  874SOL     OW 3520   5.146   4.623   0.494
  874SOL    HW1 3521   5.133   4.527   0.518
  874SOL    HW2 3522   5.131   4.635   0.396
  875SOL     OW 3523   4.936   5.325   0.487
  875SOL    HW1 3524   5.027   5.309   0.449
  875SOL    HW2 3525   4.875   5.251   0.459
  876SOL     OW 3526   6.854   6.329   1.402
  876SOL    HW1 3527   6.843   6.335   1.501
  876SOL    HW2 3528   6.913   6.404   1.371
  877SOL     OW 3529   2.728   3.520   6.995
  877SOL    HW1 3530   2.769   3.587   6.933
  877SOL    HW2 3531   2.779   3.518   0.064
  878SOL     OW 3532   3.878   6.762   4.290
  878SOL    HW1 3533   3.933   6.769   4.373
  878SOL    HW2 3534   3.781   6.769   4.313
  879SOL     OW 3535   5.750   0.930   0.922
  879SOL    HW1 3536   5.751   0.852   0.859
  879SOL    HW2 3537   5.843   0.964   0.934
  880SOL     OW 3538   2.884   3.650   2.525
  880SOL    HW1 3539   2.954   3.719   2.506
  880SOL    HW2 3540   2.894   3.619   2.620
  881SOL     OW 3541   4.227   1.989   6.724
  881SOL    HW1 3542   4.247   2.042   6.642
  881SOL    HW2 3543   4.173   1.909   6.700
  882SOL     OW 3544   0.912   3.312   3.956
  882SOL    HW1 3545   0.975   3.244   3.919
  882SOL    HW2 3546   0.961   3.398   3.972
  883SOL     OW 3547   2.896   0.374   2.586
  883SOL    HW1 3548   2.861   0.305   2.649
  883SOL    HW2 3549   2.834   0.384   2.508
  884SOL     OW 3550   4.803   3.061   5.040
  884SOL    HW1 3551   4.828   3.031   5.132
  884SOL    HW2 3552   4.811   3.160   5.033
  885SOL     OW 3553   3.835   1.820   6.383
  885SOL    HW1 3554   3.793   1.730   6.394
  885SOL    HW2 3555   3.825   1.850   6.289
  886SOL     OW 3556   3.215   0.378   0.001
  886SOL    HW1 3557   3.157   0.389   0.082
  886SOL    HW2 3558   3.304   0.421   0.018
  887SOL     OW 3559   4.234   0.825   4.264
  887SOL    HW1 3560   4.253   0.732   4.231
  887SOL    HW2 3561   4.135   0.837   4.273
  888SOL     OW 3562   0.106   0.250   3.399
  888SOL    HW1 3563   0.135   0.200   3.318
  888SOL    HW2 3564   0.171   0.234   3.473
  889SOL     OW 3565   0.661   3.575   6.983
  889SOL    HW1 3566   0.675   3.489   0.015
  889SOL    HW2 3567   0.727   3.581   6.908
  890SOL     OW 3568   2.296   5.815   3.944
  890SOL    HW1 3569   2.244   5.851   3.867
  890SOL    HW2 3570   2.364   5.750   3.911
  891SOL     OW 3571   5.780   5.897   0.767
  891SOL    HW1 3572   5.785   5.932   0.861
  891SOL    HW2 3573   5.861   5.925   0.716
  892SOL     OW 3574   2.489   4.098   5.884
  892SOL    HW1 3575   2.488   4.190   5.845
  892SOL    HW2 3576   2.549   4.095   5.963
  893SOL     OW 3577   2.890   6.860   3.007
  893SOL    HW1 3578   2.927   6.795   2.940
  893SOL    HW2 3579   2.927   6.951   2.988
  894SOL     OW 3580   1.543   3.998   1.555
  894SOL    HW1 3581   1.452   3.973   1.522
  894SOL    HW2 3582   1.610   3.989   1.481
  895SOL     OW 3583   0.321   6.280   3.327
  895SOL    HW1 3584   0.230   6.239   3.321
  895SOL    HW2 3585   0.319   6.356   3.392
  896SOL     OW 3586   6.544   6.260   5.752
  896SOL    HW1 3587   6.454   6.291   5.723
  896SOL    HW2 3588   6.558   6.166   5.722
  897SOL     OW 3589   5.210   0.683   6.485
  897SOL    HW1 3590   5.285   0.656   6.545
  897SOL    HW2 3591   5.213   0.782   6.470
  898SOL     OW 3592   3.453   6.332   3.032
  898SOL    HW1 3593   3.472   6.336   3.130
  898SOL    HW2 3594   3.539   6.315   2.983
  899SOL     OW 3595   0.233   4.940   6.377
  899SOL    HW1 3596   0.156   5.003   6.383
  899SOL    HW2 3597   0.318   4.993   6.372
  900SOL     OW 3598   5.759   6.386   0.690
  900SOL    HW1 3599   5.850   6.407   0.654
  900SOL    HW2 3600   5.699   6.357   0.615
  901SOL     OW 3601   1.354   1.302   2.111
  901SOL    HW1 3602   1.349   1.328   2.207
  901SOL    HW2 3603   1.262   1.287   2.076
  902SOL     OW 3604   6.485   4.298   1.161
  902SOL    HW1 3605   6.387   4.296   1.140
  902SOL    HW2 3606   6.522   4.206   1.156
  903SOL     OW 3607   6.742   2.096   0.335
  903SOL    HW1 3608   6.840   2.086   0.352
  903SOL    HW2 3609   6.691   2.044   0.403
  904SOL     OW 3610   3.364   2.117   3.297
  904SOL    HW1 3611   3.274   2.156   3.276
  904SOL    HW2 3612   3.381   2.125   3.396
  905SOL     OW 3613   6.251   2.796   0.294
  905SOL    HW1 3614   6.277   2.843   0.210
  905SOL    HW2 3615   6.201   2.713   0.272
  906SOL     OW 3616   6.863   3.096   5.669
  906SOL    HW1 3617   6.942   3.158   5.666
  906SOL    HW2 3618   6.821   3.100   5.759
  907SOL     OW 3619   4.869   3.541   6.734
  907SOL    HW1 3620   4.948   3.531   6.794
  907SOL    HW2 3621   4.787   3.557   6.790
  908SOL     OW 3622   2.657   4.769   2.314
  908SOL    HW1 3623   2.650   4.846   2.377
  908SOL    HW2 3624   2.651   4.802   2.220
  909SOL     OW 3625   5.280   5.033   6.104
  909SOL    HW1 3626   5.306   5.107   6.166
  909SOL    HW2 3627   5.213   5.067   6.038
  910SOL     OW 3628   2.910   2.992   1.641
  910SOL    HW1 3629   2.821   2.946   1.647
  910SOL    HW2 3630   2.981   2.932   1.678
  911SOL     OW 3631   1.447   5.337   6.371
  911SOL    HW1 3632   1.509   5.304   6.300
  911SOL    HW2 3633   1.359   5.363   6.330
  912SOL     OW 3634   4.602   2.405   3.402
  912SOL    HW1 3635   4.549   2.323   3.421
  912SOL    HW2 3636   4.687   2.404   3.455
  913SOL     OW 3637   5.332   0.097   3.192
  913SOL    HW1 3638   5.318   7.017   3.176
  913SOL    HW2 3639   5.334   0.146   3.104
  914SOL     OW 3640   2.717   0.086   6.989
  914SOL    HW1 3641   2.707   0.076   6.890
  914SOL    HW2 3642   2.647   0.032   0.019
  915SOL     OW 3643   5.994   5.993   0.641
  915SOL    HW1 3644   6.002   6.080   0.688
  915SOL    HW2 3645   6.073   5.981   0.580
  916SOL     OW 3646   0.857   2.271   2.156
  916SOL    HW1 3647   0.846   2.293   2.253
  916SOL    HW2 3648   0.839   2.174   2.142
  917SOL     OW 3649   0.068   7.017   0.736
  917SOL    HW1 3650   0.067   6.922   0.704
  917SOL    HW2 3651   7.017   0.053   0.686
  918SOL     OW 3652   1.517   5.771   0.760
  918SOL    HW1 3653   1.573   5.696   0.724
  918SOL    HW2 3654   1.573   5.854   0.768
  919SOL     OW 3655   5.710   1.675   3.929
  919SOL    HW1 3656   5.778   1.703   3.997
  919SOL    HW2 3657   5.673   1.755   3.883
  920SOL     OW 3658   2.687   4.827   2.021
  920SOL    HW1 3659   2.742   4.874   1.952
  920SOL    HW2 3660   2.691   4.728   2.005
  921SOL     OW 3661   4.950   5.650   4.630
  921SOL    HW1 3662   4.874   5.585   4.624
  921SOL    HW2 3663   5.022   5.621   4.567
  922SOL     OW 3664   4.070   3.502   3.805
  922SOL    HW1 3665   4.066   3.580   3.743
  922SOL    HW2 3666   4.110   3.531   3.892
  923SOL     OW 3667   2.327   3.241   5.536
  923SOL    HW1 3668   2.235   3.233   5.572
  923SOL    HW2 3669   2.393   3.235   5.610
  924SOL     OW 3670   7.016   3.742   2.378
  924SOL    HW1 3671   6.962   3.660   2.401
  924SOL    HW2 3672   0.089   3.734   2.420
  925SOL     OW 3673   5.947   1.854   0.259
  925SOL    HW1 3674   5.906   1.879   0.171
  925SOL    HW2 3675   6.012   1.780   0.246
  926SOL     OW 3676   0.808   0.940   2.045
  926SOL    HW1 3677   0.726   0.887   2.066
  926SOL    HW2 3678   0.809   0.961   1.947
  927SOL     OW 3679   5.526   3.929   3.813
  927SOL    HW1 3680   5.569   3.918   3.902
  927SOL    HW2 3681   5.531   4.024   3.785
  928SOL     OW 3682   2.959   5.621   6.895
  928SOL    HW1 3683   2.919   5.685   6.960
  928SOL    HW2 3684   2.898   5.543   6.882
  929SOL     OW 3685   6.631   1.390   5.411
  929SOL    HW1 3686   6.602   1.485   5.409
  929SOL    HW2 3687   6.557   1.332   5.375
  930SOL     OW 3688   5.416   5.176   6.303
  930SOL    HW1 3689   5.514   5.164   6.322
  930SOL    HW2 3690   5.392   5.273   6.309
  931SOL     OW 3691   6.804   2.918   3.095
  931SOL    HW1 3692   6.735   2.925   3.167
  931SOL    HW2 3693   6.792   2.831   3.046
  932SOL     OW 3694   3.569   0.576   3.915
  932SOL    HW1 3695   3.628   0.608   3.989
  932SOL    HW2 3696   3.483   0.541   3.954
  933SOL     OW 3697   1.106   5.176   2.470
  933SOL    HW1 3698   1.016   5.136   2.487
  933SOL    HW2 3699   1.112   5.265   2.516
  934SOL     OW 3700   1.709   4.501   6.348
  934SOL    HW1 3701   1.782   4.495   6.417
  934SOL    HW2 3702   1.723   4.582   6.292
  935SOL     OW 3703   5.181   3.232   3.599
  935SOL    HW1 3704   5.150   3.256   3.507
  935SOL    HW2 3705   5.246   3.302   3.631
  936SOL     OW 3706   1.679   0.320   6.619
  936SOL    HW1 3707   1.601   0.309   6.680
  936SOL    HW2 3708   1.750   0.254   6.644
  937SOL     OW 3709   5.046   1.392   5.380
  937SOL    HW1 3710   5.092   1.311   5.344
  937SOL    HW2 3711   5.106   1.437   5.446
  938SOL     OW 3712   5.881   5.594   4.115
  938SOL    HW1 3713   5.811   5.629   4.177
  938SOL    HW2 3714   5.846   5.514   4.066
  939SOL     OW 3715   0.416   0.032   5.196
  939SOL    HW1 3716   0.375   0.079   5.275
  939SOL    HW2 3717   0.348   6.987   5.156
  940SOL     OW 3718   2.095   4.665   0.718
  940SOL    HW1 3719   2.104   4.742   0.781
  940SOL    HW2 3720   2.033   4.596   0.758
  941SOL     OW 3721   3.361   0.257   6.321
  941SOL    HW1 3722   3.268   0.220   6.330
  941SOL    HW2 3723   3.362   0.353   6.348
  942SOL     OW 3724   0.465   5.182   0.847
  942SOL    HW1 3725   0.395   5.111   0.848
  942SOL    HW2 3726   0.426   5.267   0.813
  943SOL     OW 3727   2.828   5.168   3.128
  943SOL    HW1 3728   2.779   5.090   3.167
  943SOL    HW2 3729   2.767   5.219   3.067
  944SOL     OW 3730   0.710   6.754   4.572
  944SOL    HW1 3731   0.761   6.783   4.491
  944SOL    HW2 3732   0.645   6.825   4.598
  945SOL     OW 3733   0.724   5.512   6.227
  945SOL    HW1 3734   0.671   5.552   6.152
  945SOL    HW2 3735   0.706   5.414   6.232
  946SOL     OW 3736   4.784   3.088   3.644
  946SOL    HW1 3737   4.830   3.132   3.721
  946SOL    HW2 3738   4.762   3.156   3.575
  947SOL     OW 3739   3.894   4.035   4.191
  947SOL    HW1 3740   3.847   4.024   4.103
  947SOL    HW2 3741   3.990   4.055   4.175
  948SOL     OW 3742   4.218   1.021   2.741
  948SOL    HW1 3743   4.255   1.079   2.813
  948SOL    HW2 3744   4.147   1.071   2.691
  949SOL     OW 3745   2.825   6.685   6.619
  949SOL    HW1 3746   2.892   6.649   6.685
  949SOL    HW2 3747   2.771   6.757   6.662
  950SOL     OW 3748   0.144   6.415   2.115
  950SOL    HW1 3749   0.060   6.413   2.168
  950SOL    HW2 3750   0.222   6.398   2.175
  951SOL     OW 3751   2.280   6.774   3.065
  951SOL    HW1 3752   2.184   6.781   3.092
  951SOL    HW2 3753   2.285   6.748   2.969
  952SOL     OW 3754   3.417   1.465   1.984
  952SOL    HW1 3755   3.472   1.536   1.940
  952SOL    HW2 3756   3.331   1.506   2.017
  953SOL     OW 3757   6.111   4.606   5.218
  953SOL    HW1 3758   6.037   4.622   5.283
  953SOL    HW2 3759   6.085   4.640   5.128
  954SOL     OW 3760   4.762   5.984   2.315
  954SOL    HW1 3761   4.682   5.982   2.375
  954SOL    HW2 3762   4.759   6.067   2.259
  955SOL     OW 3763   1.495   3.990   0.051
  955SOL    HW1 3764   1.500   4.029   0.143
  955SOL    HW2 3765   1.402   3.957   0.034
  956SOL     OW 3766   6.183   0.641   1.683
  956SOL    HW1 3767   6.251   0.713   1.699
  956SOL    HW2 3768   6.217   0.580   1.611
  957SOL     OW 3769   6.086   2.162   3.500
  957SOL    HW1 3770   6.153   2.138   3.570
  957SOL    HW2 3771   6.044   2.079   3.464
  958SOL     OW 3772   5.244   0.101   1.784
  958SOL    HW1 3773   5.181   0.134   1.854
  958SOL    HW2 3774   5.264   0.174   1.719
  959SOL     OW 3775   3.943   6.390   4.018
  959SOL    HW1 3776   4.023   6.354   4.066
  959SOL    HW2 3777   3.972   6.428   3.930
  960SOL     OW 3778   0.624   0.581   6.994
  960SOL    HW1 3779   0.526   0.594   6.981
  960SOL    HW2 3780   0.640   0.512   0.047
  961SOL     OW 3781   3.568   6.923   2.908
  961SOL    HW1 3782   3.658   6.919   2.865
  961SOL    HW2 3783   3.498   6.898   2.842
  962SOL     OW 3784   6.484   0.052   4.700
  962SOL    HW1 3785   6.580   0.045   4.729
  962SOL    HW2 3786   6.469   0.143   4.661
  963SOL     OW 3787   5.428   3.042   0.922
  963SOL    HW1 3788   5.422   3.085   0.832
  963SOL    HW2 3789   5.341   3.050   0.969
  964SOL     OW 3790   4.640   4.307   5.127
  964SOL    HW1 3791   4.635   4.224   5.183
  964SOL    HW2 3792   4.686   4.286   5.041
  965SOL     OW 3793   5.925   2.505   3.921
  965SOL    HW1 3794   5.829   2.507   3.951
  965SOL    HW2 3795   5.957   2.598   3.906
  966SOL     OW 3796   5.150   1.838   4.680
  966SOL    HW1 3797   5.170   1.741   4.663
  966SOL    HW2 3798   5.209   1.895   4.623
  967SOL     OW 3799   5.242   3.945   5.845
  967SOL    HW1 3800   5.328   3.974   5.803
  967SOL    HW2 3801   5.260   3.870   5.909
  968SOL     OW 3802   4.018   0.513   1.756
  968SOL    HW1 3803   3.962   0.451   1.701
  968SOL    HW2 3804   3.991   0.505   1.852
  969SOL     OW 3805   3.269   4.160   5.781
  969SOL    HW1 3806   3.252   4.106   5.864
  969SOL    HW2 3807   3.236   4.253   5.795
  970SOL     OW 3808   5.961   0.768   5.948
  970SOL    HW1 3809   5.968   0.708   5.868
  970SOL    HW2 3810   5.884   0.830   5.935
  971SOL     OW 3811   5.691   4.086   2.941
  971SOL    HW1 3812   5.704   4.100   3.039
  971SOL    HW2 3813   5.606   4.035   2.926
  972SOL     OW 3814   0.361   2.918   0.807
  972SOL    HW1 3815   0.365   3.007   0.762
  972SOL    HW2 3816   0.418   2.853   0.757
  973SOL     OW 3817   0.167   3.599   6.040
  973SOL    HW1 3818   0.110   3.576   5.961
  973SOL    HW2 3819   0.148   3.534   6.114
  974SOL     OW 3820   0.264   5.448   3.771
  974SOL    HW1 3821   0.361   5.434   3.793
  974SOL    HW2 3822   0.222   5.361   3.746
  975SOL     OW 3823   2.701   6.993   2.219
  975SOL    HW1 3824   2.615   7.013   2.265
  975SOL    HW2 3825   2.683   6.977   2.122
  976SOL     OW 3826   6.564   3.596   2.512
  976SOL    HW1 3827   6.518   3.519   2.468
  976SOL    HW2 3828   6.499   3.670   2.527
  977SOL     OW 3829   0.180   0.756   2.544
  977SOL    HW1 3830   0.263   0.722   2.587
  977SOL    HW2 3831   0.160   0.848   2.578
  978SOL     OW 3832   5.482   3.054   1.877
  978SOL    HW1 3833   5.512   2.958   1.874
  978SOL    HW2 3834   5.472   3.083   1.972
  979SOL     OW 3835   6.919   4.200   6.820
  979SOL    HW1 3836   6.871   4.282   6.852
  979SOL    HW2 3837   6.864   4.119   6.840
  980SOL     OW 3838   3.537   1.457   4.658
  980SOL    HW1 3839   3.458   1.503   4.618
  980SOL    HW2 3840   3.585   1.520   4.719
  981SOL     OW 3841   6.433   6.000   5.362
  981SOL    HW1 3842   6.511   6.062   5.375
  981SOL    HW2 3843   6.468   5.908   5.343
  982SOL     OW 3844   6.707   1.260   5.140
  982SOL    HW1 3845   6.641   1.255   5.065
  982SOL    HW2 3846   6.738   1.355   5.151
  983SOL     OW 3847   6.967   4.397   4.467
  983SOL    HW1 3848   6.939   4.493   4.473
  983SOL    HW2 3849   0.043   4.392   4.430
  984SOL     OW 3850   1.405   2.245   3.105
  984SOL    HW1 3851   1.312   2.257   3.071
  984SOL    HW2 3852   1.469   2.238   3.029
  985SOL     OW 3853   6.729   4.082   4.512
  985SOL    HW1 3854   6.736   4.149   4.437
  985SOL    HW2 3855   6.672   4.119   4.585
  986SOL     OW 3856   5.140   4.860   1.114
  986SOL    HW1 3857   5.090   4.946   1.124
  986SOL    HW2 3858   5.223   4.876   1.060
  987SOL     OW 3859   5.378   5.081   3.922
  987SOL    HW1 3860   5.416   5.118   4.007
  987SOL    HW2 3861   5.351   4.985   3.937
  988SOL     OW 3862   3.098   4.470   1.392
  988SOL    HW1 3863   3.071   4.509   1.480
  988SOL    HW2 3864   3.017   4.433   1.346
  989SOL     OW 3865   0.420   1.345   1.236
  989SOL    HW1 3866   0.385   1.380   1.150
  989SOL    HW2 3867   0.352   1.359   1.308
  990SOL     OW 3868   3.845   0.084   3.678
  990SOL    HW1 3869   3.944   0.095   3.689
  990SOL    HW2 3870   3.804   0.172   3.655
  991SOL     OW 3871   0.042   4.571   3.706
  991SOL    HW1 3872   0.038   4.650   3.645
  991SOL    HW2 3873   0.055   4.601   3.800
  992SOL     OW 3874   0.433   2.652   1.191
  992SOL    HW1 3875   0.395   2.587   1.126
  992SOL    HW2 3876   0.423   2.616   1.284
  993SOL     OW 3877   1.494   4.745   0.646
  993SOL    HW1 3878   1.577   4.797   0.667
  993SOL    HW2 3879   1.467   4.762   0.551
  994SOL     OW 3880   2.865   6.132   6.855
  994SOL    HW1 3881   2.815   6.052   6.820
  994SOL    HW2 3882   2.887   6.193   6.779
  995SOL     OW 3883   5.961   3.424   6.151
  995SOL    HW1 3884   6.007   3.460   6.070
  995SOL    HW2 3885   5.864   3.447   6.146
  996SOL     OW 3886   4.048   6.006   5.892
  996SOL    HW1 3887   4.091   6.068   5.827
  996SOL    HW2 3888   3.971   6.052   5.936
  997SOL     OW 3889   1.256   5.425   3.713
  997SOL    HW1 3890   1.249   5.340   3.660
  997SOL    HW2 3891   1.286   5.499   3.653
  998SOL     OW 3892   6.578   0.385   6.615
  998SOL    HW1 3893   6.524   0.466   6.593
  998SOL    HW2 3894   6.519   0.316   6.657
  999SOL     OW 3895   4.904   3.851   2.123
  999SOL    HW1 3896   4.848   3.782   2.077
  999SOL    HW2 3897   4.873   3.942   2.098
 1000SOL     OW 3898   4.287   1.839   1.319
 1000SOL    HW1 3899   4.296   1.740   1.322
 1000SOL    HW2 3900   4.212   1.864   1.258
 1001SOL     OW 3901   3.146   6.336   2.294
 1001SOL    HW1 3902   3.227   6.335   2.235
 1001SOL    HW2 3903   3.118   6.242   2.315
 1002SOL     OW 3904   5.364   2.267   1.250
 1002SOL    HW1 3905   5.403   2.304   1.166
 1002SOL    HW2 3906   5.267   2.245   1.236
 1003SOL     OW 3907   0.470   0.232   3.188
 1003SOL    HW1 3908   0.566   0.202   3.188
 1003SOL    HW2 3909   0.416   0.167   3.135
 1004SOL     OW 3910   5.454   1.400   3.696
 1004SOL    HW1 3911   5.382   1.332   3.684
 1004SOL    HW2 3912   5.500   1.386   3.783
 1005SOL     OW 3913   1.182   4.244   3.222
 1005SOL    HW1 3914   1.111   4.211   3.285
 1005SOL    HW2 3915   1.237   4.166   3.192
 1006SOL     OW 3916   2.829   3.381   1.349
 1006SOL    HW1 3917   2.896   3.333   1.406
 1006SOL    HW2 3918   2.858   3.476   1.337
 1007SOL     OW 3919   5.074   1.298   6.838
 1007SOL    HW1 3920   5.036   1.250   6.759
 1007SOL    HW2 3921   5.036   1.390   6.842
 1008SOL     OW 3922   0.147   5.138   4.884
 1008SOL    HW1 3923   0.105   5.224   4.912
 1008SOL    HW2 3924   0.164   5.081   4.964
 1009SOL     OW 3925   6.488   5.516   6.597
 1009SOL    HW1 3926   6.403   5.506   6.546
 1009SOL    HW2 3927   6.565   5.489   6.538
 1010SOL     OW 3928   2.728   3.081   1.377
 1010SOL    HW1 3929   2.649   3.065   1.436
 1010SOL    HW2 3930   2.775   3.165   1.405
 1011SOL     OW 3931   6.700   4.969   2.548
 1011SOL    HW1 3932   6.764   4.957   2.472
 1011SOL    HW2 3933   6.737   4.927   2.631
 1012SOL     OW 3934   4.888   0.537   2.526
 1012SOL    HW1 3935   4.853   0.530   2.619
 1012SOL    HW2 3936   4.845   0.615   2.480
 1013SOL     OW 3937   6.777   0.322   6.408
 1013SOL    HW1 3938   6.867   0.327   6.452
 1013SOL    HW2 3939   6.706   0.344   6.475
 1014SOL     OW 3940   1.085   5.067   4.527
 1014SOL    HW1 3941   1.180   5.096   4.516
 1014SOL    HW2 3942   1.033   5.139   4.573
 1015SOL     OW 3943   3.381   6.176   6.706
 1015SOL    HW1 3944   3.431   6.090   6.709
 1015SOL    HW2 3945   3.313   6.177   6.779
 1016SOL     OW 3946   6.149   4.242   1.639
 1016SOL    HW1 3947   6.091   4.302   1.583
 1016SOL    HW2 3948   6.105   4.153   1.647
 1017SOL     OW 3949   2.266   1.711   2.388
 1017SOL    HW1 3950   2.365   1.710   2.397
 1017SOL    HW2 3951   2.233   1.617   2.375
 1018SOL     OW 3952   0.336   5.332   3.398
 1018SOL    HW1 3953   0.274   5.254   3.391
 1018SOL    HW2 3954   0.404   5.314   3.469
 1019SOL     OW 3955   6.567   4.734   0.751
 1019SOL    HW1 3956   6.617   4.819   0.769
 1019SOL    HW2 3957   6.475   4.756   0.718
 1020SOL     OW 3958   6.638   0.446   0.969
 1020SOL    HW1 3959   6.685   0.410   0.888
 1020SOL    HW2 3960   6.549   0.402   0.979
 1021SOL     OW 3961   6.607   6.230   1.357
 1021SOL    HW1 3962   6.604   6.131   1.367
 1021SOL    HW2 3963   6.702   6.261   1.351
 1022SOL     OW 3964   1.788   6.329   6.350
 1022SOL    HW1 3965   1.802   6.408   6.409
 1022SOL    HW2 3966   1.762   6.250   6.406
 1023SOL     OW 3967   0.757   1.527   3.582
 1023SOL    HW1 3968   0.821   1.485   3.518
 1023SOL    HW2 3969   0.786   1.621   3.602
 1024SOL     OW 3970   1.391   1.803   4.896
 1024SOL    HW1 3971   1.410   1.730   4.962
 1024SOL    HW2 3972   1.421   1.774   4.805
 1025SOL     OW 3973   4.620   3.657   0.501
 1025SOL    HW1 3974   4.629   3.588   0.428
 1025SOL    HW2 3975   4.655   3.620   0.586
 1026SOL     OW 3976   3.329   2.526   1.207
 1026SOL    HW1 3977   3.287   2.444   1.168
 1026SOL    HW2 3978   3.397   2.562   1.142
 1027SOL     OW 3979   0.402   6.420   0.853
 1027SOL    HW1 3980   0.477   6.481   0.879
 1027SOL    HW2 3981   0.383   6.356   0.928
 1028SOL     OW 3982   1.234   6.209   2.496
 1028SOL    HW1 3983   1.275   6.194   2.407
 1028SOL    HW2 3984   1.243   6.127   2.552
 1029SOL     OW 3985   0.944   1.580   6.394
 1029SOL    HW1 3986   1.014   1.636   6.438
 1029SOL    HW2 3987   0.946   1.595   6.295
 1030SOL     OW 3988   3.549   3.249   1.572
 1030SOL    HW1 3989   3.562   3.170   1.631
 1030SOL    HW2 3990   3.453   3.256   1.546
 1031SOL     OW 3991   3.299   3.555   1.486
 1031SOL    HW1 3992   3.372   3.567   1.554
 1031SOL    HW2 3993   3.230   3.626   1.499
 1032SOL     OW 3994   2.067   2.026   5.932
 1032SOL    HW1 3995   2.088   1.976   5.848
 1032SOL    HW2 3996   2.131   1.999   6.004
 1033SOL     OW 3997   0.931   6.477   2.034
 1033SOL    HW1 3998   0.972   6.429   1.956
 1033SOL    HW2 3999   0.988   6.464   2.115
 1034SOL     OW 4000   3.013   6.672   4.369
 1034SOL    HW1 4001   2.959   6.590   4.351
 1034SOL    HW2 4002   2.992   6.707   4.460
 1035SOL     OW 4003   1.165   2.059   5.928
 1035SOL    HW1 4004   1.228   2.133   5.948
 1035SOL    HW2 4005   1.076   2.096   5.900
 1036SOL     OW 4006   4.799   1.657   0.970
 1036SOL    HW1 4007   4.806   1.605   1.055
 1036SOL    HW2 4008   4.735   1.732   0.983
 1037SOL     OW 4009   1.600   2.756   2.688
 1037SOL    HW1 4010   1.684   2.714   2.654
 1037SOL    HW2 4011   1.539   2.775   2.611
 1038SOL     OW 4012   3.276   6.494   6.844
 1038SOL    HW1 4013   3.307   6.488   6.749
 1038SOL    HW2 4014   3.355   6.491   6.905
 1039SOL     OW 4015   3.509   2.873   3.836
 1039SOL    HW1 4016   3.482   2.854   3.931
 1039SOL    HW2 4017   3.427   2.886   3.780
 1040SOL     OW 4018   4.187   0.570   3.266
 1040SOL    HW1 4019   4.178   0.657   3.216
 1040SOL    HW2 4020   4.128   0.501   3.222
 1041SOL     OW 4021   6.580   6.292   6.182
 1041SOL    HW1 4022   6.626   6.379   6.198
 1041SOL    HW2 4023   6.630   6.239   6.113
 1042SOL     OW 4024   5.284   4.651   2.766
 1042SOL    HW1 4025   5.185   4.659   2.778
 1042SOL    HW2 4026   5.305   4.574   2.706
 1043SOL     OW 4027   3.301   2.190   3.979
 1043SOL    HW1 4028   3.394   2.205   3.945
 1043SOL    HW2 4029   3.305   2.168   4.076
 1044SOL     OW 4030   5.477   4.792   1.499
 1044SOL    HW1 4031   5.507   4.812   1.406
 1044SOL    HW2 4032   5.552   4.747   1.549
 1045SOL     OW 4033   2.552   0.308   3.567
 1045SOL    HW1 4034   2.499   0.387   3.535
 1045SOL    HW2 4035   2.558   0.240   3.494
 1046SOL     OW 4036   3.103   1.245   0.967
 1046SOL    HW1 4037   3.062   1.327   1.008
 1046SOL    HW2 4038   3.094   1.168   1.030
 1047SOL     OW 4039   3.397   6.598   3.108
 1047SOL    HW1 4040   3.471   6.597   3.174
 1047SOL    HW2 4041   3.329   6.528   3.133
 1048SOL     OW 4042   1.520   6.493   1.976
 1048SOL    HW1 4043   1.499   6.558   1.903
 1048SOL    HW2 4044   1.616   6.501   2.001
 1049SOL     OW 4045   4.268   5.821   5.467
 1049SOL    HW1 4046   4.231   5.733   5.497
 1049SOL    HW2 4047   4.335   5.806   5.394
 1050SOL     OW 4048   3.277   5.175   3.249
 1050SOL    HW1 4049   3.199   5.203   3.192
 1050SOL    HW2 4050   3.361   5.181   3.195
 1051SOL     OW 4051   0.521   0.132   6.998
 1051SOL    HW1 4052   0.436   0.163   6.957
 1051SOL    HW2 4053   0.597   0.185   6.960
 1052SOL     OW 4054   3.678   0.793   6.849
 1052SOL    HW1 4055   3.747   0.775   6.919
 1052SOL    HW2 4056   3.721   0.794   6.759
 1053SOL     OW 4057   6.218   2.924   2.895
 1053SOL    HW1 4058   6.126   2.940   2.859
 1053SOL    HW2 4059   6.281   2.907   2.820
 1054SOL     OW 4060   3.109   4.569   6.556
 1054SOL    HW1 4061   3.153   4.659   6.548
 1054SOL    HW2 4062   3.053   4.566   6.638
 1055SOL     OW 4063   4.644   6.419   6.881
 1055SOL    HW1 4064   4.696   6.334   6.894
 1055SOL    HW2 4065   4.690   6.494   6.929
 1056SOL     OW 4066   2.762   3.691   6.756
 1056SOL    HW1 4067   2.792   3.781   6.787
 1056SOL    HW2 4068   2.814   3.664   6.675
 1057SOL     OW 4069   2.892   1.763   1.188
 1057SOL    HW1 4070   2.839   1.813   1.256
 1057SOL    HW2 4071   2.988   1.758   1.217
 1058SOL     OW 4072   2.427   2.623   2.625
 1058SOL    HW1 4073   2.473   2.534   2.615
 1058SOL    HW2 4074   2.413   2.663   2.534
 1059SOL     OW 4075   2.948   6.216   1.467
 1059SOL    HW1 4076   2.962   6.206   1.566
 1059SOL    HW2 4077   2.920   6.309   1.446
 1060SOL     OW 4078   5.965   6.064   5.100
 1060SOL    HW1 4079   6.041   6.001   5.116
 1060SOL    HW2 4080   5.885   6.012   5.068
 1061SOL     OW 4081   6.648   4.071   6.734
 1061SOL    HW1 4082   6.561   4.102   6.694
 1061SOL    HW2 4083   6.677   4.136   6.804
 1062SOL     OW 4084   3.576   6.442   5.426
 1062SOL    HW1 4085   3.483   6.432   5.460
 1062SOL    HW2 4086   3.596   6.369   5.360
 1063SOL     OW 4087   2.179   6.155   6.203
 1063SOL    HW1 4088   2.111   6.202   6.260
 1063SOL    HW2 4089   2.236   6.096   6.260
 1064SOL     OW 4090   1.504   4.113   0.302
 1064SOL    HW1 4091   1.448   4.196   0.292
 1064SOL    HW2 4092   1.564   4.123   0.381
 1065SOL     OW 4093   4.451   0.393   4.178
 1065SOL    HW1 4094   4.515   0.364   4.107
 1065SOL    HW2 4095   4.502   0.426   4.257
 1066SOL     OW 4096   4.814   0.213   1.928
 1066SOL    HW1 4097   4.769   0.277   1.990
 1066SOL    HW2 4098   4.857   0.263   1.853
 1067SOL     OW 4099   2.516   0.974   0.381
 1067SOL    HW1 4100   2.505   1.006   0.475
 1067SOL    HW2 4101   2.481   1.043   0.317
 1068SOL     OW 4102   5.821   3.340   1.013
 1068SOL    HW1 4103   5.852   3.342   1.108
 1068SOL    HW2 4104   5.888   3.387   0.956
 1069SOL     OW 4105   6.689   4.178   1.682
 1069SOL    HW1 4106   6.589   4.175   1.670
 1069SOL    HW2 4107   6.715   4.265   1.724
 1070SOL     OW 4108   1.215   0.155   1.793
 1070SOL    HW1 4109   1.272   0.157   1.711
 1070SOL    HW2 4110   1.254   0.092   1.860
 1071SOL     OW 4111   6.695   3.190   5.464
 1071SOL    HW1 4112   6.735   3.270   5.418
 1071SOL    HW2 4113   6.763   3.146   5.521
 1072SOL     OW 4114   2.624   1.423   2.053
 1072SOL    HW1 4115   2.527   1.399   2.063
 1072SOL    HW2 4116   2.655   1.400   1.961
 1073SOL     OW 4117   4.905   1.608   3.422
 1073SOL    HW1 4118   4.983   1.665   3.447
 1073SOL    HW2 4119   4.934   1.542   3.352
 1074SOL     OW 4120   2.637   4.692   1.723
 1074SOL    HW1 4121   2.694   4.655   1.796
 1074SOL    HW2 4122   2.695   4.726   1.649
 1075SOL     OW 4123   5.824   3.367   5.119
 1075SOL    HW1 4124   5.799   3.346   5.024
 1075SOL    HW2 4125   5.782   3.299   5.180
 1076SOL     OW 4126   2.087   3.851   5.120
 1076SOL    HW1 4127   2.173   3.890   5.087
 1076SOL    HW2 4128   2.040   3.919   5.176
 1077SOL     OW 4129   0.229   6.836   6.948
 1077SOL    HW1 4130   0.316   6.832   6.997
 1077SOL    HW2 4131   0.245   6.820   6.851
 1078SOL     OW 4132   0.020   6.278   3.668
 1078SOL    HW1 4133   7.012   6.204   3.607
 1078SOL    HW2 4134   6.956   6.332   3.691
 1079SOL     OW 4135   0.956   6.156   2.594
 1079SOL    HW1 4136   0.972   6.058   2.581
 1079SOL    HW2 4137   1.038   6.207   2.567
 1080SOL     OW 4138   1.962   5.057   6.299
 1080SOL    HW1 4139   1.990   4.968   6.334
 1080SOL    HW2 4140   2.028   5.126   6.327
 1081SOL     OW 4141   6.600   5.634   4.216
 1081SOL    HW1 4142   6.697   5.641   4.193
 1081SOL    HW2 4143   6.579   5.699   4.290
 1082SOL     OW 4144   5.309   0.393   6.059
 1082SOL    HW1 4145   5.278   0.478   6.102
 1082SOL    HW2 4146   5.231   0.350   6.013
 1083SOL     OW 4147   5.020   4.226   0.851
 1083SOL    HW1 4148   4.941   4.283   0.874
 1083SOL    HW2 4149   5.059   4.188   0.935
 1084SOL     OW 4150   0.558   0.409   6.434
 1084SOL    HW1 4151   0.628   0.452   6.492
 1084SOL    HW2 4152   0.576   0.310   6.429
 1085SOL     OW 4153   1.777   3.932   4.245
 1085SOL    HW1 4154   1.800   4.012   4.190
 1085SOL    HW2 4155   1.857   3.872   4.251
 1086SOL     OW 4156   6.260   5.298   0.291
 1086SOL    HW1 4157   6.335   5.268   0.232
 1086SOL    HW2 4158   6.263   5.247   0.377
 1087SOL     OW 4159   2.509   0.264   5.347
 1087SOL    HW1 4160   2.475   0.179   5.387
 1087SOL    HW2 4161   2.586   0.244   5.286
 1088SOL     OW 4162   6.843   4.666   3.198
 1088SOL    HW1 4163   6.819   4.687   3.293
 1088SOL    HW2 4164   6.913   4.595   3.196
 1089SOL     OW 4165   6.469   4.551   4.426
 1089SOL    HW1 4166   6.394   4.597   4.474
 1089SOL    HW2 4167   6.528   4.505   4.492
 1090SOL     OW 4168   5.345   1.228   5.004
 1090SOL    HW1 4169   5.363   1.194   4.911
 1090SOL    HW2 4170   5.408   1.303   5.024
 1091SOL     OW 4171   2.308   2.790   3.593
 1091SOL    HW1 4172   2.341   2.698   3.573
 1091SOL    HW2 4173   2.384   2.846   3.626
 1092SOL     OW 4174   0.689   5.047   0.669
 1092SOL    HW1 4175   0.623   5.109   0.710
 1092SOL    HW2 4176   0.641   4.966   0.633
 1093SOL     OW 4177   2.224   6.926   1.629
 1093SOL    HW1 4178   2.281   6.856   1.584
 1093SOL    HW2 4179   2.170   6.884   1.701
 1094SOL     OW 4180   0.966   0.100   3.054
 1094SOL    HW1 4181   0.956   0.192   3.014
 1094SOL    HW2 4182   1.030   0.047   3.000
 1095SOL     OW 4183   6.511   3.317   0.190
 1095SOL    HW1 4184   6.498   3.266   0.275
 1095SOL    HW2 4185   6.491   3.258   0.112
 1096SOL     OW 4186   2.888   5.665   1.793
 1096SOL    HW1 4187   2.834   5.586   1.824
 1096SOL    HW2 4188   2.826   5.733   1.754
 1097SOL     OW 4189   3.523   5.259   4.187
 1097SOL    HW1 4190   3.536   5.168   4.226
 1097SOL    HW2 4191   3.425   5.279   4.181
 1098SOL     OW 4192   6.248   5.172   0.677
 1098SOL    HW1 4193   6.342   5.162   0.643
 1098SOL    HW2 4194   6.223   5.268   0.679
 1099SOL     OW 4195   4.608   0.541   6.057
 1099SOL    HW1 4196   4.592   0.562   5.960
 1099SOL    HW2 4197   4.699   0.571   6.083
 1100SOL     OW 4198   3.401   1.768   4.052
 1100SOL    HW1 4199   3.345   1.734   4.128
 1100SOL    HW2 4200   3.480   1.818   4.088
 1101SOL     OW 4201   6.669   3.164   5.901
 1101SOL    HW1 4202   6.633   3.085   5.950
 1101SOL    HW2 4203   6.600   3.197   5.836
 1102SOL     OW 4204   2.964   1.007   4.423
 1102SOL    HW1 4205   2.892   1.037   4.486
 1102SOL    HW2 4206   3.004   1.086   4.378
 1103SOL     OW 4207   2.942   7.000   6.602
 1103SOL    HW1 4208   2.991   6.919   6.635
 1103SOL    HW2 4209   3.000   0.063   6.613
 1104SOL     OW 4210   0.216   3.417   3.513
 1104SOL    HW1 4211   0.167   3.466   3.441
 1104SOL    HW2 4212   0.179   3.325   3.523
 1105SOL     OW 4213   5.298   0.943   5.331
 1105SOL    HW1 4214   5.397   0.951   5.339
 1105SOL    HW2 4215   5.268   0.859   5.376
 1106SOL     OW 4216   0.508   1.816   0.740
 1106SOL    HW1 4217   0.599   1.834   0.703
 1106SOL    HW2 4218   0.517   1.773   0.830
 1107SOL     OW 4219   1.014   0.864   0.513
 1107SOL    HW1 4220   0.925   0.905   0.531
 1107SOL    HW2 4221   1.045   0.889   0.421
 1108SOL     OW 4222   2.541   6.400   4.487
 1108SOL    HW1 4223   2.504   6.377   4.577
 1108SOL    HW2 4224   2.606   6.330   4.459
 1109SOL     OW 4225   5.388   1.240   4.623
 1109SOL    HW1 4226   5.430   1.315   4.673
 1109SOL    HW2 4227   5.458   1.186   4.577
 1110SOL     OW 4228   3.499   1.122   2.629
 1110SOL    HW1 4229   3.538   1.039   2.590
 1110SOL    HW2 4230   3.549   1.201   2.594
 1111SOL     OW 4231   5.205   3.829   6.845
 1111SOL    HW1 4232   5.138   3.820   6.771
 1111SOL    HW2 4233   5.275   3.758   6.835
 1112SOL     OW 4234   5.223   0.074   2.369
 1112SOL    HW1 4235   5.125   0.089   2.375
 1112SOL    HW2 4236   5.245   0.033   2.280
 1113SOL     OW 4237   5.343   4.424   2.622
 1113SOL    HW1 4238   5.329   4.381   2.711
 1113SOL    HW2 4239   5.440   4.424   2.600
 1114SOL     OW 4240   4.231   3.418   5.633
 1114SOL    HW1 4241   4.280   3.504   5.621
 1114SOL    HW2 4242   4.237   3.364   5.549
 1115SOL     OW 4243   3.395   4.466   5.653
 1115SOL    HW1 4244   3.312   4.445   5.705
 1115SOL    HW2 4245   3.441   4.381   5.628
 1116SOL     OW 4246   4.705   0.178   6.449
 1116SOL    HW1 4247   4.719   0.172   6.547
 1116SOL    HW2 4248   4.617   0.135   6.425
 1117SOL     OW 4249   1.282   2.993   1.992
 1117SOL    HW1 4250   1.217   3.068   1.993
 1117SOL    HW2 4251   1.371   3.026   1.963
 1118SOL     OW 4252   3.036   4.566   6.817
 1118SOL    HW1 4253   3.111   4.546   6.880
 1118SOL    HW2 4254   2.949   4.557   6.866
 1119SOL     OW 4255   3.780   5.193   4.145
 1119SOL    HW1 4256   3.771   5.112   4.087
 1119SOL    HW2 4257   3.693   5.243   4.146
 1120SOL     OW 4258   6.377   5.188   1.153
 1120SOL    HW1 4259   6.419   5.217   1.239
 1120SOL    HW2 4260   6.421   5.104   1.121
 1121SOL     OW 4261   6.683   5.141   4.850
 1121SOL    HW1 4262   6.709   5.058   4.800
 1121SOL    HW2 4263   6.650   5.116   4.941
 1122SOL     OW 4264   5.210   2.620   1.933
 1122SOL    HW1 4265   5.233   2.717   1.926
 1122SOL    HW2 4266   5.269   2.567   1.872
 1123SOL     OW 4267   4.480   1.959   3.214
 1123SOL    HW1 4268   4.457   1.875   3.163
 1123SOL    HW2 4269   4.567   1.946   3.262
 1124SOL     OW 4270   2.230   3.008   4.822
 1124SOL    HW1 4271   2.258   3.040   4.912
 1124SOL    HW2 4272   2.266   2.916   4.805
 1125SOL     OW 4273   1.034   3.845   3.768
 1125SOL    HW1 4274   1.045   3.797   3.855
 1125SOL    HW2 4275   1.124   3.875   3.736
 1126SOL     OW 4276   3.709   5.151   5.344
 1126SOL    HW1 4277   3.623   5.130   5.297
 1126SOL    HW2 4278   3.776   5.184   5.277
 1127SOL     OW 4279   5.720   6.709   2.942
 1127SOL    HW1 4280   5.630   6.671   2.962
 1127SOL    HW2 4281   5.761   6.660   2.866
 1128SOL     OW 4282   6.017   1.643   3.383
 1128SOL    HW1 4283   6.078   1.612   3.455
 1128SOL    HW2 4284   5.972   1.564   3.340
 1129SOL     OW 4285   1.775   0.211   0.787
 1129SOL    HW1 4286   1.684   0.187   0.753
 1129SOL    HW2 4287   1.767   0.283   0.855
 1130SOL     OW 4288   2.075   4.972   2.363
 1130SOL    HW1 4289   2.115   5.064   2.368
 1130SOL    HW2 4290   2.148   4.904   2.356
 1131SOL     OW 4291   1.631   6.249   3.911
 1131SOL    HW1 4292   1.673   6.177   3.856
 1131SOL    HW2 4293   1.670   6.248   4.003
 1132SOL     OW 4294   3.524   1.467   2.561
 1132SOL    HW1 4295   3.529   1.565   2.544
 1132SOL    HW2 4296   3.594   1.420   2.508
 1133SOL     OW 4297   1.514   6.621   5.032
 1133SOL    HW1 4298   1.432   6.577   5.066
 1133SOL    HW2 4299   1.490   6.705   4.983
 1134SOL     OW 4300   4.119   6.807   1.379
 1134SOL    HW1 4301   4.063   6.883   1.346
 1134SOL    HW2 4302   4.071   6.760   1.453
 1135SOL     OW 4303   2.128   6.104   3.819
 1135SOL    HW1 4304   2.143   6.020   3.767
 1135SOL    HW2 4305   2.213   6.157   3.823
 1136SOL     OW 4306   2.897   6.223   1.781
 1136SOL    HW1 4307   2.862   6.198   1.871
 1136SOL    HW2 4308   2.997   6.217   1.781
 1137SOL     OW 4309   0.312   5.728   5.785
 1137SOL    HW1 4310   0.220   5.729   5.824
 1137SOL    HW2 4311   0.354   5.639   5.800
 1138SOL     OW 4312   2.256   2.995   4.474
 1138SOL    HW1 4313   2.287   3.062   4.541
 1138SOL    HW2 4314   2.280   2.903   4.505
 1139SOL     OW 4315   2.807   5.400   3.948
 1139SOL    HW1 4316   2.722   5.443   3.980
 1139SOL    HW2 4317   2.843   5.340   4.019
 1140SOL     OW 4318   1.125   1.864   1.641
 1140SOL    HW1 4319   1.117   1.798   1.715
 1140SOL    HW2 4320   1.220   1.896   1.634
 1141SOL     OW 4321   6.118   4.390   6.571
 1141SOL    HW1 4322   6.060   4.471   6.570
 1141SOL    HW2 4323   6.159   4.378   6.480
 1142SOL     OW 4324   2.512   0.215   2.666
 1142SOL    HW1 4325   2.461   0.156   2.729
 1142SOL    HW2 4326   2.600   0.239   2.707
 1143SOL     OW 4327   1.116   3.833   1.866
 1143SOL    HW1 4328   1.047   3.905   1.867
 1143SOL    HW2 4329   1.201   3.869   1.828
 1144SOL     OW 4330   5.273   4.046   2.014
 1144SOL    HW1 4331   5.303   3.951   2.017
 1144SOL    HW2 4332   5.200   4.057   1.947
 1145SOL     OW 4333   0.098   1.667   0.668
 1145SOL    HW1 4334   0.038   1.677   0.589
 1145SOL    HW2 4335   0.046   1.627   0.744
 1146SOL     OW 4336   0.885   1.359   1.406
 1146SOL    HW1 4337   0.867   1.408   1.321
 1146SOL    HW2 4338   0.984   1.351   1.421
 1147SOL     OW 4339   3.237   6.743   1.092
 1147SOL    HW1 4340   3.233   6.825   1.036
 1147SOL    HW2 4341   3.329   6.731   1.128
 1148SOL     OW 4342   4.414   5.605   2.622
 1148SOL    HW1 4343   4.433   5.512   2.654
 1148SOL    HW2 4344   4.489   5.637   2.564
 1149SOL     OW 4345   4.736   2.322   1.681
 1149SOL    HW1 4346   4.790   2.347   1.761
 1149SOL    HW2 4347   4.789   2.340   1.598
 1150SOL     OW 4348   1.927   4.242   6.913
 1150SOL    HW1 4349   1.906   4.261   6.817
 1150SOL    HW2 4350   1.958   4.148   6.923
 1151SOL     OW 4351   6.638   5.397   3.944
 1151SOL    HW1 4352   6.705   5.465   3.912
 1151SOL    HW2 4353   6.564   5.391   3.877
 1152SOL     OW 4354   4.120   6.911   6.244
 1152SOL    HW1 4355   4.055   6.847   6.201
 1152SOL    HW2 4356   4.074   6.997   6.264
 1153SOL     OW 4357   6.236   0.581   1.301
 1153SOL    HW1 4358   6.212   0.497   1.350
 1153SOL    HW2 4359   6.332   0.603   1.319
 1154SOL     OW 4360   2.037   2.605   1.751
 1154SOL    HW1 4361   2.036   2.512   1.787
 1154SOL    HW2 4362   2.129   2.643   1.760
 1155SOL     OW 4363   2.787   6.118   5.265
 1155SOL    HW1 4364   2.756   6.099   5.358
 1155SOL    HW2 4365   2.845   6.043   5.234
 1156SOL     OW 4366   3.535   2.052   4.361
 1156SOL    HW1 4367   3.613   2.083   4.415
 1156SOL    HW2 4368   3.452   2.058   4.415
 1157SOL     OW 4369   3.306   1.242   5.539
 1157SOL    HW1 4370   3.239   1.279   5.604
 1157SOL    HW2 4371   3.295   1.143   5.534
 1158SOL     OW 4372   5.666   6.231   2.990
 1158SOL    HW1 4373   5.667   6.267   3.083
 1158SOL    HW2 4374   5.583   6.262   2.943
 1159SOL     OW 4375   6.403   6.491   2.289
 1159SOL    HW1 4376   6.478   6.458   2.232
 1159SOL    HW2 4377   6.316   6.473   2.244
 1160SOL     OW 4378   4.659   1.306   0.569
 1160SOL    HW1 4379   4.685   1.351   0.654
 1160SOL    HW2 4380   4.738   1.297   0.510
 1161SOL     OW 4381   0.562   5.485   6.802
 1161SOL    HW1 4382   0.537   5.575   6.838
 1161SOL    HW2 4383   0.520   5.414   6.858
 1162SOL     OW 4384   2.273   2.507   5.086
 1162SOL    HW1 4385   2.201   2.453   5.043
 1162SOL    HW2 4386   2.234   2.589   5.128
 1163SOL     OW 4387   6.422   4.171   1.693
 1163SOL    HW1 4388   6.434   4.165   1.792
 1163SOL    HW2 4389   6.352   4.240   1.672
 1164SOL     OW 4390   4.870   1.862   4.647
 1164SOL    HW1 4391   4.834   1.813   4.568
 1164SOL    HW2 4392   4.970   1.854   4.648
 1165SOL     OW 4393   3.888   6.275   3.266
 1165SOL    HW1 4394   3.875   6.195   3.324
 1165SOL    HW2 4395   3.850   6.356   3.311
 1166SOL     OW 4396   2.005   5.884   6.868
 1166SOL    HW1 4397   2.020   5.786   6.881
 1166SOL    HW2 4398   1.910   5.907   6.888
 1167SOL     OW 4399   5.658   4.618   2.490
 1167SOL    HW1 4400   5.613   4.529   2.486
 1167SOL    HW2 4401   5.700   4.640   2.402
 1168SOL     OW 4402   6.423   2.148   3.193
 1168SOL    HW1 4403   6.514   2.155   3.154
 1168SOL    HW2 4404   6.397   2.052   3.203
 1169SOL     OW 4405   5.694   0.528   5.069
 1169SOL    HW1 4406   5.622   0.570   5.014
 1169SOL    HW2 4407   5.700   0.573   5.158
 1170SOL     OW 4408   4.764   6.813   3.634
 1170SOL    HW1 4409   4.722   6.729   3.666
 1170SOL    HW2 4410   4.863   6.800   3.629
 1171SOL     OW 4411   1.268   0.438   0.970
 1171SOL    HW1 4412   1.222   0.496   1.038
 1171SOL    HW2 4413   1.201   0.395   0.911
 1172SOL     OW 4414   0.265   3.545   6.697
 1172SOL    HW1 4415   0.311   3.630   6.669
 1172SOL    HW2 4416   0.271   3.478   6.623
 1173SOL     OW 4417   3.033   1.467   1.102
 1173SOL    HW1 4418   3.125   1.506   1.090
 1173SOL    HW2 4419   2.980   1.526   1.162
 1174SOL     OW 4420   3.640   3.456   1.113
 1174SOL    HW1 4421   3.612   3.541   1.068
 1174SOL    HW2 4422   3.647   3.472   1.211
 1175SOL     OW 4423   3.583   3.149   4.810
 1175SOL    HW1 4424   3.595   3.202   4.894
 1175SOL    HW2 4425   3.620   3.200   4.733
 1176SOL     OW 4426   5.206   4.040   6.482
 1176SOL    HW1 4427   5.245   4.117   6.533
 1176SOL    HW2 4428   5.110   4.057   6.463
 1177SOL     OW 4429   6.291   2.596   4.789
 1177SOL    HW1 4430   6.243   2.588   4.877
 1177SOL    HW2 4431   6.235   2.649   4.725
 1178SOL     OW 4432   2.847   4.905   0.131
 1178SOL    HW1 4433   2.832   4.831   0.066
 1178SOL    HW2 4434   2.797   4.986   0.102
 1179SOL     OW 4435   2.247   5.272   1.030
 1179SOL    HW1 4436   2.172   5.335   1.050
 1179SOL    HW2 4437   2.335   5.320   1.040
 1180SOL     OW 4438   3.286   5.852   0.647
 1180SOL    HW1 4439   3.192   5.888   0.643
 1180SOL    HW2 4440   3.312   5.837   0.742
 1181SOL     OW 4441   0.486   5.706   6.969
 1181SOL    HW1 4442   0.412   5.755   7.014
 1181SOL    HW2 4443   0.556   5.770   6.940
 1182SOL     OW 4444   4.309   5.330   2.883
 1182SOL    HW1 4445   4.385   5.334   2.819
 1182SOL    HW2 4446   4.267   5.239   2.880
 1183SOL     OW 4447   2.371   3.635   6.106
 1183SOL    HW1 4448   2.279   3.606   6.132
 1183SOL    HW2 4449   2.372   3.734   6.091
 1184SOL     OW 4450   1.644   6.997   4.960
 1184SOL    HW1 4451   1.654   7.002   5.059
 1184SOL    HW2 4452   1.732   6.971   4.919
 1185SOL     OW 4453   7.010   1.440   6.916
 1185SOL    HW1 4454   0.086   1.468   6.895
 1185SOL    HW2 4455   6.949   1.469   6.842
 1186SOL     OW 4456   4.965   6.069   4.604
 1186SOL    HW1 4457   4.890   6.134   4.586
 1186SOL    HW2 4458   4.951   5.987   4.548
 1187SOL     OW 4459   6.389   0.039   5.670
 1187SOL    HW1 4460   6.439   0.002   5.749
 1187SOL    HW2 4461   6.452   0.050   5.593
 1188SOL     OW 4462   2.670   6.387   5.368
 1188SOL    HW1 4463   2.594   6.380   5.303
 1188SOL    HW2 4464   2.752   6.347   5.326
 1189SOL     OW 4465   6.044   3.450   3.330
 1189SOL    HW1 4466   6.102   3.522   3.293
 1189SOL    HW2 4467   6.088   3.361   3.316
 1190SOL     OW 4468   1.920   6.432   2.653
 1190SOL    HW1 4469   1.954   6.524   2.670
 1190SOL    HW2 4470   1.919   6.414   2.555
 1191SOL     OW 4471   4.515   5.071   2.928
 1191SOL    HW1 4472   4.522   5.014   3.009
 1191SOL    HW2 4473   4.419   5.078   2.900
 1192SOL     OW 4474   4.335   5.919   2.958
 1192SOL    HW1 4475   4.336   6.018   2.945
 1192SOL    HW2 4476   4.275   5.896   3.034
 1193SOL     OW 4477   6.059   4.962   3.715
 1193SOL    HW1 4478   6.003   4.979   3.795
 1193SOL    HW2 4479   6.006   4.982   3.632
 1194SOL     OW 4480   4.457   0.494   1.331
 1194SOL    HW1 4481   4.524   0.556   1.372
 1194SOL    HW2 4482   4.492   0.400   1.336
 1195SOL     OW 4483   5.982   3.372   2.115
 1195SOL    HW1 4484   5.900   3.408   2.070
 1195SOL    HW2 4485   6.060   3.429   2.091
 1196SOL     OW 4486   6.515   6.550   3.783
 1196SOL    HW1 4487   6.570   6.627   3.815
 1196SOL    HW2 4488   6.454   6.581   3.710
 1197SOL     OW 4489   3.673   6.914   0.625
 1197SOL    HW1 4490   3.648   6.915   0.722
 1197SOL    HW2 4491   3.751   6.852   0.612
 1198SOL     OW 4492   1.359   2.464   0.769
 1198SOL    HW1 4493   1.432   2.448   0.703
 1198SOL    HW2 4494   1.299   2.384   0.773
 1199SOL     OW 4495   4.901   5.013   1.566
 1199SOL    HW1 4496   4.933   4.964   1.485
 1199SOL    HW2 4497   4.977   5.024   1.631
 1200SOL     OW 4498   3.172   3.604   2.236
 1200SOL    HW1 4499   3.214   3.513   2.234
 1200SOL    HW2 4500   3.078   3.598   2.203
 1201SOL     OW 4501   1.358   2.084   4.877
 1201SOL    HW1 4502   1.434   2.096   4.813
 1201SOL    HW2 4503   1.350   1.987   4.902
 1202SOL     OW 4504   0.174   5.592   6.385
 1202SOL    HW1 4505   0.262   5.546   6.401
 1202SOL    HW2 4506   0.177   5.684   6.423
 1203SOL     OW 4507   4.943   6.026   5.858
 1203SOL    HW1 4508   4.886   6.098   5.821
 1203SOL    HW2 4509   5.039   6.047   5.841
 1204SOL     OW 4510   2.043   0.643   2.072
 1204SOL    HW1 4511   1.944   0.644   2.076
 1204SOL    HW2 4512   2.080   0.682   2.157
 1205SOL     OW 4513   5.109   4.048   1.433
 1205SOL    HW1 4514   5.029   4.107   1.447
 1205SOL    HW2 4515   5.151   4.029   1.522
 1206SOL     OW 4516   3.415   3.523   4.776
 1206SOL    HW1 4517   3.358   3.574   4.712
 1206SOL    HW2 4518   3.481   3.584   4.818
 1207SOL     OW 4519   2.414   6.152   1.905
 1207SOL    HW1 4520   2.345   6.122   1.972
 1207SOL    HW2 4521   2.367   6.190   1.826
 1208SOL     OW 4522   3.592   3.476   6.908
 1208SOL    HW1 4523   3.572   3.493   7.004
 1208SOL    HW2 4524   3.691   3.464   6.897
 1209SOL     OW 4525   3.570   0.139   5.540
 1209SOL    HW1 4526   3.509   0.085   5.598
 1209SOL    HW2 4527   3.597   0.085   5.460
 1210SOL     OW 4528   3.307   0.490   2.973
 1210SOL    HW1 4529   3.272   0.399   2.952
 1210SOL    HW2 4530   3.347   0.491   3.064
 1211SOL     OW 4531   0.515   4.079   1.036
 1211SOL    HW1 4532   0.589   4.058   1.100
 1211SOL    HW2 4533   0.543   4.056   0.943
 1212SOL     OW 4534   0.736   0.029   6.691
 1212SOL    HW1 4535   0.743   0.093   6.768
 1212SOL    HW2 4536   0.784   0.067   6.612
 1213SOL     OW 4537   5.753   2.717   0.812
 1213SOL    HW1 4538   5.655   2.737   0.805
 1213SOL    HW2 4539   5.766   2.619   0.829
 1214SOL     OW 4540   6.742   2.295   1.085
 1214SOL    HW1 4541   6.765   2.206   1.124
 1214SOL    HW2 4542   6.711   2.283   0.991
 1215SOL     OW 4543   1.019   4.874   4.313
 1215SOL    HW1 4544   1.049   4.933   4.387
 1215SOL    HW2 4545   1.096   4.818   4.282
 1216SOL     OW 4546   4.494   0.547   6.293
 1216SOL    HW1 4547   4.569   0.524   6.356
 1216SOL    HW2 4548   4.520   0.524   6.200
 1217SOL     OW 4549   2.672   4.559   0.807
 1217SOL    HW1 4550   2.672   4.526   0.712
 1217SOL    HW2 4551   2.758   4.606   0.825
 1218SOL     OW 4552   1.231   3.993   3.678
 1218SOL    HW1 4553   1.165   4.063   3.650
 1218SOL    HW2 4554   1.267   4.015   3.768
 1219SOL     OW 4555   3.795   6.039   2.316
 1219SOL    HW1 4556   3.848   5.957   2.294
 1219SOL    HW2 4557   3.854   6.105   2.362
 1220SOL     OW 4558   1.291   4.601   2.849
 1220SOL    HW1 4559   1.310   4.514   2.896
 1220SOL    HW2 4560   1.213   4.645   2.893
 1221SOL     OW 4561   5.577   3.337   6.146
 1221SOL    HW1 4562   5.635   3.419   6.138
 1221SOL    HW2 4563   5.483   3.360   6.120
 1222SOL     OW 4564   6.866   6.543   7.014
 1222SOL    HW1 4565   6.877   6.537   6.915
 1222SOL    HW2 4566   6.945   6.592   0.036
 1223SOL     OW 4567   3.156   6.268   6.942
 1223SOL    HW1 4568   3.193   6.354   6.906
 1223SOL    HW2 4569   3.057   6.277   6.954
 1224SOL     OW 4570   2.398   0.316   1.181
 1224SOL    HW1 4571   2.300   0.304   1.195
 1224SOL    HW2 4572   2.422   0.293   1.087
 1225SOL     OW 4573   3.225   4.090   6.219
 1225SOL    HW1 4574   3.230   4.025   6.144
 1225SOL    HW2 4575   3.139   4.076   6.269
 1226SOL     OW 4576   1.733   5.106   1.352
 1226SOL    HW1 4577   1.651   5.050   1.336
 1226SOL    HW2 4578   1.735   5.135   1.448
 1227SOL     OW 4579   0.090   3.938   6.618
 1227SOL    HW1 4580   0.104   3.918   6.715
 1227SOL    HW2 4581   7.010   3.940   6.598
 1228SOL     OW 4582   3.945   2.527   6.022
 1228SOL    HW1 4583   3.917   2.440   5.982
 1228SOL    HW2 4584   4.007   2.511   6.099
 1229SOL     OW 4585   3.704   4.915   6.658
 1229SOL    HW1 4586   3.656   4.948   6.577
 1229SOL    HW2 4587   3.795   4.957   6.663
 1230SOL     OW 4588   4.145   6.580   3.359
 1230SOL    HW1 4589   4.120   6.619   3.271
 1230SOL    HW2 4590   4.133   6.480   3.356
 1231SOL     OW 4591   1.951   3.183   5.014
 1231SOL    HW1 4592   1.854   3.163   5.022
 1231SOL    HW2 4593   1.964   3.277   4.982
 1232SOL     OW 4594   1.078   2.564   5.177
 1232SOL    HW1 4595   0.987   2.537   5.145
 1232SOL    HW2 4596   1.148   2.517   5.125
 1233SOL     OW 4597   0.724   3.002   5.479
 1233SOL    HW1 4598   0.657   2.929   5.497
 1233SOL    HW2 4599   0.727   3.022   5.381
 1234SOL     OW 4600   5.659   4.196   4.754
 1234SOL    HW1 4601   5.685   4.259   4.827
 1234SOL    HW2 4602   5.684   4.235   4.666
 1235SOL     OW 4603   6.526   5.374   3.510
 1235SOL    HW1 4604   6.611   5.380   3.561
 1235SOL    HW2 4605   6.541   5.402   3.415
 1236SOL     OW 4606   5.712   0.561   6.699
 1236SOL    HW1 4607   5.749   0.472   6.670
 1236SOL    HW2 4608   5.751   0.585   6.788
 1237SOL     OW 4609   2.652   4.595   6.697
 1237SOL    HW1 4610   2.677   4.528   6.628
 1237SOL    HW2 4611   2.699   4.681   6.679
 1238SOL     OW 4612   1.905   1.388   0.774
 1238SOL    HW1 4613   1.826   1.369   0.716
 1238SOL    HW2 4614   1.929   1.485   0.767
 1239SOL     OW 4615   6.629   6.095   6.592
 1239SOL    HW1 4616   6.632   6.114   6.691
 1239SOL    HW2 4617   6.685   6.014   6.573
 1240SOL     OW 4618   4.843   6.114   1.933
 1240SOL    HW1 4619   4.759   6.125   1.881
 1240SOL    HW2 4620   4.886   6.027   1.908
 1241SOL     OW 4621   6.656   3.872   4.360
 1241SOL    HW1 4622   6.722   3.831   4.298
 1241SOL    HW2 4623   6.701   3.941   4.417
 1242SOL     OW 4624   2.267   3.775   0.664
 1242SOL    HW1 4625   2.352   3.769   0.611
 1242SOL    HW2 4626   2.197   3.823   0.610
 1243SOL     OW 4627   1.926   5.283   5.621
 1243SOL    HW1 4628   1.890   5.325   5.538
 1243SOL    HW2 4629   1.853   5.272   5.688
 1244SOL     OW 4630   0.312   0.898   3.679
 1244SOL    HW1 4631   0.367   0.889   3.596
 1244SOL    HW2 4632   0.367   0.873   3.759
 1245SOL     OW 4633   3.602   3.533   0.168
 1245SOL    HW1 4634   3.701   3.542   0.176
 1245SOL    HW2 4635   3.557   3.607   0.219
 1246SOL     OW 4636   2.366   6.334   2.195
 1246SOL    HW1 4637   2.293   6.278   2.154
 1246SOL    HW2 4638   2.439   6.348   2.127
 1247SOL     OW 4639   1.953   6.605   6.146
 1247SOL    HW1 4640   1.857   6.616   6.173
 1247SOL    HW2 4641   1.963   6.521   6.093
 1248SOL     OW 4642   2.100   5.642   3.708
 1248SOL    HW1 4643   2.171   5.586   3.752
 1248SOL    HW2 4644   2.062   5.591   3.630
 1249SOL     OW 4645   5.910   3.073   3.274
 1249SOL    HW1 4646   5.838   3.042   3.337
 1249SOL    HW2 4647   5.964   2.995   3.244
 1250SOL     OW 4648   1.111   4.216   3.851
 1250SOL    HW1 4649   1.107   4.301   3.903
 1250SOL    HW2 4650   1.193   4.165   3.878
 1251SOL     OW 4651   3.782   0.158   4.677
 1251SOL    HW1 4652   3.870   0.110   4.675
 1251SOL    HW2 4653   3.757   0.179   4.772
 1252SOL     OW 4654   3.487   4.217   5.630
 1252SOL    HW1 4655   3.431   4.166   5.696
 1252SOL    HW2 4656   3.567   4.162   5.605
 1253SOL     OW 4657   4.043   5.218   2.674
 1253SOL    HW1 4658   3.947   5.202   2.649
 1253SOL    HW2 4659   4.049   5.296   2.737
 1254SOL     OW 4660   6.637   1.842   2.965
 1254SOL    HW1 4661   6.640   1.914   3.034
 1254SOL    HW2 4662   6.584   1.872   2.887
 1255SOL     OW 4663   7.011   0.137   6.543
 1255SOL    HW1 4664   6.993   0.114   6.448
 1255SOL    HW2 4665   0.007   0.236   6.552
 1256SOL     OW 4666   5.408   0.201   3.511
 1256SOL    HW1 4667   5.422   0.121   3.570
 1256SOL    HW2 4668   5.477   0.201   3.439
 1257SOL     OW 4669   6.625   1.040   3.583
 1257SOL    HW1 4670   6.587   1.115   3.638
 1257SOL    HW2 4671   6.632   0.958   3.640
 1258SOL     OW 4672   0.569   6.987   3.440
 1258SOL    HW1 4673   0.639   0.039   3.455
 1258SOL    HW2 4674   0.479   0.008   3.461
 1259SOL     OW 4675   3.663   2.033   5.089
 1259SOL    HW1 4676   3.574   2.011   5.049
 1259SOL    HW2 4677   3.721   1.952   5.089
 1260SOL     OW 4678   0.899   1.020   0.135
 1260SOL    HW1 4679   0.874   1.077   0.213
 1260SOL    HW2 4680   0.816   0.994   0.086
 1261SOL     OW 4681   6.847   5.181   0.446
 1261SOL    HW1 4682   6.855   5.213   0.540
 1261SOL    HW2 4683   6.882   5.251   0.383
 1262SOL     OW 4684   5.454   5.854   1.131
 1262SOL    HW1 4685   5.392   5.801   1.074
 1262SOL    HW2 4686   5.547   5.818   1.121
 1263SOL     OW 4687   1.533   2.459   3.713
 1263SOL    HW1 4688   1.565   2.417   3.798
 1263SOL    HW2 4689   1.591   2.536   3.690
 1264SOL     OW 4690   0.874   2.672   4.890
 1264SOL    HW1 4691   0.974   2.682   4.887
 1264SOL    HW2 4692   0.834   2.717   4.810
 1265SOL     OW 4693   6.084   6.487   4.436
 1265SOL    HW1 4694   5.989   6.501   4.463
 1265SOL    HW2 4695   6.107   6.390   4.447
 1266SOL     OW 4696   2.116   0.554   4.724
 1266SOL    HW1 4697   2.115   0.576   4.626
 1266SOL    HW2 4698   2.147   0.459   4.737
 1267SOL     OW 4699   4.120   0.355   2.360
 1267SOL    HW1 4700   4.187   0.370   2.288
 1267SOL    HW2 4701   4.028   0.367   2.323
 1268SOL     OW 4702   4.400   2.704   5.266
 1268SOL    HW1 4703   4.359   2.776   5.322
 1268SOL    HW2 4704   4.327   2.657   5.215
 1269SOL     OW 4705   6.028   2.680   4.411
 1269SOL    HW1 4706   6.113   2.643   4.374
 1269SOL    HW2 4707   5.950   2.637   4.365
 1270SOL     OW 4708   0.032   4.822   3.512
 1270SOL    HW1 4709   0.041   4.919   3.486
 1270SOL    HW2 4710   6.966   4.785   3.469
 1271SOL     OW 4711   1.592   1.519   1.588
 1271SOL    HW1 4712   1.671   1.469   1.551
 1271SOL    HW2 4713   1.579   1.492   1.684
 1272SOL     OW 4714   6.768   4.307   0.064
 1272SOL    HW1 4715   6.733   4.233   0.121
 1272SOL    HW2 4716   6.709   4.318   7.001
 1273SOL     OW 4717   1.487   4.935   5.273
 1273SOL    HW1 4718   1.401   4.909   5.229
 1273SOL    HW2 4719   1.504   5.032   5.257
 1274SOL     OW 4720   0.836   5.471   2.714
 1274SOL    HW1 4721   0.789   5.509   2.793
 1274SOL    HW2 4722   0.825   5.534   2.636
 1275SOL     OW 4723   3.098   1.027   2.384
 1275SOL    HW1 4724   3.021   0.966   2.397
 1275SOL    HW2 4725   3.118   1.075   2.469
 1276SOL     OW 4726   5.416   4.507   3.909
 1276SOL    HW1 4727   5.399   4.410   3.923
 1276SOL    HW2 4728   5.347   4.544   3.846
 1277SOL     OW 4729   0.561   6.152   0.822
 1277SOL    HW1 4730   0.514   6.186   0.741
 1277SOL    HW2 4731   0.512   6.183   0.904
 1278SOL     OW 4732   1.320   5.753   2.641
 1278SOL    HW1 4733   1.276   5.719   2.724
 1278SOL    HW2 4734   1.263   5.731   2.562
 1279SOL     OW 4735   2.360   1.806   0.121
 1279SOL    HW1 4736   2.280   1.762   0.079
 1279SOL    HW2 4737   2.352   1.905   0.113
 1280SOL     OW 4738   2.647   1.784   3.442
 1280SOL    HW1 4739   2.683   1.857   3.500
 1280SOL    HW2 4740   2.550   1.800   3.425
 1281SOL     OW 4741   4.257   5.614   4.193
 1281SOL    HW1 4742   4.200   5.537   4.162
 1281SOL    HW2 4743   4.205   5.699   4.185
 1282SOL     OW 4744   0.231   2.398   1.378
 1282SOL    HW1 4745   0.316   2.345   1.379
 1282SOL    HW2 4746   0.236   2.468   1.307
 1283SOL     OW 4747   6.651   3.486   5.377
 1283SOL    HW1 4748   6.611   3.454   5.292
 1283SOL    HW2 4749   6.615   3.577   5.399
 1284SOL     OW 4750   3.987   1.834   1.283
 1284SOL    HW1 4751   3.900   1.821   1.330
 1284SOL    HW2 4752   4.038   1.748   1.283
 1285SOL     OW 4753   3.632   1.145   5.260
 1285SOL    HW1 4754   3.726   1.111   5.258
 1285SOL    HW2 4755   3.633   1.245   5.258
 1286SOL     OW 4756   4.331   1.946   2.146
 1286SOL    HW1 4757   4.358   2.023   2.204
 1286SOL    HW2 4758   4.405   1.925   2.082
 1287SOL     OW 4759   6.421   4.565   4.908
 1287SOL    HW1 4760   6.515   4.531   4.906
 1287SOL    HW2 4761   6.401   4.603   4.998
 1288SOL     OW 4762   4.632   4.504   6.671
 1288SOL    HW1 4763   4.648   4.571   6.598
 1288SOL    HW2 4764   4.563   4.540   6.734
 1289SOL     OW 4765   0.111   0.247   1.771
 1289SOL    HW1 4766   0.089   0.226   1.866
 1289SOL    HW2 4767   0.197   0.297   1.766
 1290SOL     OW 4768   1.572   0.029   6.642
 1290SOL    HW1 4769   1.651   0.085   6.617
 1290SOL    HW2 4770   1.545   0.050   6.736
 1291SOL     OW 4771   6.634   5.244   3.117
 1291SOL    HW1 4772   6.576   5.163   3.118
 1291SOL    HW2 4773   6.729   5.218   3.134
 1292SOL     OW 4774   0.961   6.078   2.251
 1292SOL    HW1 4775   1.053   6.115   2.265
 1292SOL    HW2 4776   0.896   6.154   2.241
 1293SOL     OW 4777   3.038   0.894   6.916
 1293SOL    HW1 4778   3.033   0.806   6.962
 1293SOL    HW2 4779   2.994   0.888   6.826
 1294SOL     OW 4780   2.467   3.648   5.424
 1294SOL    HW1 4781   2.391   3.706   5.395
 1294SOL    HW2 4782   2.452   3.554   5.394
 1295SOL     OW 4783   6.468   4.316   0.798
 1295SOL    HW1 4784   6.440   4.222   0.816
 1295SOL    HW2 4785   6.451   4.372   0.880
 1296SOL     OW 4786   5.404   6.719   5.904
 1296SOL    HW1 4787   5.461   6.790   5.863
 1296SOL    HW2 4788   5.374   6.655   5.833
 1297SOL     OW 4789   0.490   6.989   2.086
 1297SOL    HW1 4790   0.529   7.005   2.177
 1297SOL    HW2 4791   0.564   6.978   2.020
 1298SOL     OW 4792   5.408   5.791   2.260
 1298SOL    HW1 4793   5.420   5.805   2.359
 1298SOL    HW2 4794   5.318   5.750   2.243
 1299SOL     OW 4795   1.536   3.410   4.724
 1299SOL    HW1 4796   1.630   3.437   4.704
 1299SOL    HW2 4797   1.473   3.483   4.696
 1300SOL     OW 4798   1.263   4.509   1.817
 1300SOL    HW1 4799   1.180   4.465   1.852
 1300SOL    HW2 4800   1.315   4.443   1.763
 1301SOL     OW 4801   0.835   0.551   1.582
 1301SOL    HW1 4802   0.843   0.554   1.483
 1301SOL    HW2 4803   0.851   0.457   1.613
 1302SOL     OW 4804   5.612   6.656   5.568
 1302SOL    HW1 4805   5.635   6.618   5.658
 1302SOL    HW2 4806   5.678   6.728   5.545
 1303SOL     OW 4807   4.306   6.255   1.552
 1303SOL    HW1 4808   4.212   6.277   1.580
 1303SOL    HW2 4809   4.370   6.284   1.623
 1304SOL     OW 4810   0.369   1.451   0.967
 1304SOL    HW1 4811   0.442   1.518   0.950
 1304SOL    HW2 4812   0.323   1.429   0.881
 1305SOL     OW 4813   5.738   3.975   6.532
 1305SOL    HW1 4814   5.696   3.889   6.563
 1305SOL    HW2 4815   5.672   4.049   6.544
 1306SOL     OW 4816   2.145   5.621   4.106
 1306SOL    HW1 4817   2.194   5.683   4.045
 1306SOL    HW2 4818   2.126   5.536   4.058
 1307SOL     OW 4819   2.348   2.363   3.892
 1307SOL    HW1 4820   2.437   2.337   3.930
 1307SOL    HW2 4821   2.281   2.291   3.913
 1308SOL     OW 4822   6.974   5.438   6.339
 1308SOL    HW1 4823   6.961   5.438   6.240
 1308SOL    HW2 4824   0.040   5.487   6.362
 1309SOL     OW 4825   5.202   4.263   6.642
 1309SOL    HW1 4826   5.179   4.353   6.679
 1309SOL    HW2 4827   5.262   4.215   6.706
 1310SOL     OW 4828   1.318   4.415   3.626
 1310SOL    HW1 4829   1.245   4.422   3.694
 1310SOL    HW2 4830   1.286   4.452   3.539
 1311SOL     OW 4831   0.088   6.069   0.458
 1311SOL    HW1 4832   0.047   6.160   0.461
 1311SOL    HW2 4833   0.022   6.003   0.422
 1312SOL     OW 4834   2.355   0.604   6.318
 1312SOL    HW1 4835   2.411   0.583   6.238
 1312SOL    HW2 4836   2.271   0.551   6.314
 1313SOL     OW 4837   6.469   5.837   3.095
 1313SOL    HW1 4838   6.433   5.747   3.071
 1313SOL    HW2 4839   6.568   5.833   3.100
 1314SOL     OW 4840   2.766   1.750   4.925
 1314SOL    HW1 4841   2.690   1.685   4.926
 1314SOL    HW2 4842   2.736   1.837   4.886
 1315SOL     OW 4843   6.389   1.335   3.995
 1315SOL    HW1 4844   6.438   1.315   4.080
 1315SOL    HW2 4845   6.296   1.298   4.000
 1316SOL     OW 4846   4.201   0.642   4.823
 1316SOL    HW1 4847   4.169   0.628   4.730
 1316SOL    HW2 4848   4.164   0.727   4.860
 1317SOL     OW 4849   2.676   3.445   5.839
 1317SOL    HW1 4850   2.738   3.518   5.868
 1317SOL    HW2 4851   2.710   3.403   5.755
 1318SOL     OW 4852   1.510   2.805   6.538
 1318SOL    HW1 4853   1.449   2.881   6.560
 1318SOL    HW2 4854   1.458   2.719   6.542
 1319SOL     OW 4855   0.053   6.687   0.890
 1319SOL    HW1 4856   0.002   6.764   0.930
 1319SOL    HW2 4857   0.027   6.602   0.936
 1320SOL     OW 4858   3.122   2.554   5.681
 1320SOL    HW1 4859   3.104   2.571   5.584
 1320SOL    HW2 4860   3.129   2.455   5.697
 1321SOL     OW 4861   5.807   2.459   6.745
 1321SOL    HW1 4862   5.711   2.474   6.721
 1321SOL    HW2 4863   5.865   2.509   6.682
 1322SOL     OW 4864   3.399   1.420   0.589
 1322SOL    HW1 4865   3.343   1.503   0.587
 1322SOL    HW2 4866   3.492   1.442   0.559
 1323SOL     OW 4867   3.797   0.484   6.989
 1323SOL    HW1 4868   3.720   0.484   6.924
 1323SOL    HW2 4869   3.764   0.459   0.063
 1324SOL     OW 4870   0.916   3.726   6.846
 1324SOL    HW1 4871   0.865   3.811   6.849
 1324SOL    HW2 4872   1.004   3.741   6.799
 1325SOL     OW 4873   2.828   4.888   6.287
 1325SOL    HW1 4874   2.927   4.897   6.302
 1325SOL    HW2 4875   2.801   4.943   6.208
 1326SOL     OW 4876   4.954   3.218   3.795
 1326SOL    HW1 4877   4.962   3.294   3.860
 1326SOL    HW2 4878   5.043   3.202   3.752
 1327SOL     OW 4879   6.386   6.193   1.203
 1327SOL    HW1 4880   6.460   6.236   1.255
 1327SOL    HW2 4881   6.394   6.217   1.107
 1328SOL     OW 4882   1.413   3.496   5.711
 1328SOL    HW1 4883   1.474   3.545   5.648
 1328SOL    HW2 4884   1.439   3.400   5.713
 1329SOL     OW 4885   0.593   3.525   3.031
 1329SOL    HW1 4886   0.638   3.572   3.107
 1329SOL    HW2 4887   0.494   3.529   3.044
 1330SOL     OW 4888   6.274   3.002   1.166
 1330SOL    HW1 4889   6.367   3.036   1.182
 1330SOL    HW2 4890   6.226   3.067   1.107
 1331SOL     OW 4891   5.014   1.799   3.080
 1331SOL    HW1 4892   4.996   1.701   3.087
 1331SOL    HW2 4893   4.928   1.850   3.092
 1332SOL     OW 4894   1.499   6.724   0.465
 1332SOL    HW1 4895   1.478   6.765   0.554
 1332SOL    HW2 4896   1.447   6.639   0.456
 1333SOL     OW 4897   3.245   4.113   3.254
 1333SOL    HW1 4898   3.344   4.112   3.244
 1333SOL    HW2 4899   3.203   4.087   3.167
 1334SOL     OW 4900   6.980   3.110   2.354
 1334SOL    HW1 4901   6.936   3.188   2.310
 1334SOL    HW2 4902   0.045   3.141   2.402
 1335SOL     OW 4903   1.463   3.808   2.283
 1335SOL    HW1 4904   1.424   3.731   2.232
 1335SOL    HW2 4905   1.528   3.773   2.351
 1336SOL     OW 4906   3.254   0.357   5.110
 1336SOL    HW1 4907   3.196   0.438   5.109
 1336SOL    HW2 4908   3.197   0.275   5.103
 1337SOL     OW 4909   6.871   1.439   3.644
 1337SOL    HW1 4910   6.857   1.410   3.739
 1337SOL    HW2 4911   6.887   1.358   3.586
 1338SOL     OW 4912   6.318   4.299   5.308
 1338SOL    HW1 4913   6.343   4.270   5.216
 1338SOL    HW2 4914   6.384   4.262   5.374
 1339SOL     OW 4915   0.049   0.597   0.016
 1339SOL    HW1 4916   0.136   0.605   0.066
 1339SOL    HW2 4917   7.005   0.670   0.044
 1340SOL     OW 4918   4.522   1.899   1.920
 1340SOL    HW1 4919   4.543   1.872   1.826
 1340SOL    HW2 4920   4.511   1.998   1.924
 1341SOL     OW 4921   4.791   0.078   6.790
 1341SOL    HW1 4922   4.808   0.123   6.877
 1341SOL    HW2 4923   4.696   0.047   6.786
 1342SOL     OW 4924   2.823   5.892   0.862
 1342SOL    HW1 4925   2.920   5.891   0.839
 1342SOL    HW2 4926   2.781   5.977   0.830
 1343SOL     OW 4927   5.594   5.996   2.828
 1343SOL    HW1 4928   5.499   5.991   2.861
 1343SOL    HW2 4929   5.655   6.011   2.906
 1344SOL     OW 4930   0.140   0.047   4.880
 1344SOL    HW1 4931   0.186   6.979   4.858
 1344SOL    HW2 4932   0.207   0.121   4.884
 1345SOL     OW 4933   0.552   5.513   1.525
 1345SOL    HW1 4934   0.597   5.433   1.564
 1345SOL    HW2 4935   0.593   5.596   1.562
 1346SOL     OW 4936   2.642   5.352   6.282
 1346SOL    HW1 4937   2.602   5.343   6.191
 1346SOL    HW2 4938   2.597   5.427   6.330
 1347SOL     OW 4939   1.455   0.284   6.796
 1347SOL    HW1 4940   1.462   0.320   6.889
 1347SOL    HW2 4941   1.419   0.191   6.800
 1348SOL     OW 4942   0.197   6.309   5.271
 1348SOL    HW1 4943   0.126   6.341   5.209
 1348SOL    HW2 4944   0.283   6.299   5.221
 1349SOL     OW 4945   4.948   3.423   3.956
 1349SOL    HW1 4946   5.038   3.438   3.997
 1349SOL    HW2 4947   4.916   3.508   3.914
 1350SOL     OW 4948   3.123   3.580   0.803
 1350SOL    HW1 4949   3.087   3.567   0.896
 1350SOL    HW2 4950   3.088   3.508   0.743
 1351SOL     OW 4951   6.852   2.474   5.403
 1351SOL    HW1 4952   6.936   2.528   5.397
 1351SOL    HW2 4953   6.838   2.445   5.498
 1352SOL     OW 4954   0.296   0.514   2.344
 1352SOL    HW1 4955   0.201   0.527   2.371
 1352SOL    HW2 4956   0.304   0.520   2.244
 1353SOL     OW 4957   0.526   1.115   1.049
 1353SOL    HW1 4958   0.622   1.126   1.079
 1353SOL    HW2 4959   0.468   1.175   1.104
 1354SOL     OW 4960   5.653   4.628   1.927
 1354SOL    HW1 4961   5.560   4.622   1.964
 1354SOL    HW2 4962   5.695   4.713   1.957
 1355SOL     OW 4963   6.436   3.606   5.056
 1355SOL    HW1 4964   6.508   3.663   5.096
 1355SOL    HW2 4965   6.352   3.615   5.110
 1356SOL     OW 4966   3.600   2.926   1.228
 1356SOL    HW1 4967   3.643   2.885   1.309
 1356SOL    HW2 4968   3.583   3.023   1.245
 1357SOL     OW 4969   6.982   3.759   5.334
 1357SOL    HW1 4970   6.958   3.855   5.317
 1357SOL    HW2 4971   6.935   3.726   5.416
 1358SOL     OW 4972   1.719   6.616   6.814
 1358SOL    HW1 4973   1.622   6.636   6.808
 1358SOL    HW2 4974   1.771   6.701   6.810
 1359SOL     OW 4975   6.478   4.507   1.924
 1359SOL    HW1 4976   6.474   4.595   1.971
 1359SOL    HW2 4977   6.386   4.481   1.893
 1360SOL     OW 4978   2.414   1.953   6.692
 1360SOL    HW1 4979   2.471   2.012   6.634
 1360SOL    HW2 4980   2.463   1.934   6.778
 1361SOL     OW 4981   6.652   4.878   4.738
 1361SOL    HW1 4982   6.721   4.839   4.677
 1361SOL    HW2 4983   6.565   4.886   4.690
 1362SOL     OW 4984   2.995   3.221   3.152
 1362SOL    HW1 4985   3.066   3.151   3.144
 1362SOL    HW2 4986   2.964   3.248   3.061
 1363SOL     OW 4987   0.760   6.509   5.243
 1363SOL    HW1 4988   0.688   6.440   5.234
 1363SOL    HW2 4989   0.788   6.540   5.152
 1364SOL     OW 4990   4.121   3.967   0.918
 1364SOL    HW1 4991   4.028   3.930   0.919
 1364SOL    HW2 4992   4.184   3.899   0.955
 1365SOL     OW 4993   0.411   3.720   0.175
 1365SOL    HW1 4994   0.319   3.704   0.211
 1365SOL    HW2 4995   0.424   3.665   0.093
 1366SOL     OW 4996   2.411   6.623   4.912
 1366SOL    HW1 4997   2.506   6.653   4.909
 1366SOL    HW2 4998   2.366   6.664   4.992
 1367SOL     OW 4999   2.035   1.009   2.975
 1367SOL    HW1 5000   2.093   1.089   2.987
 1367SOL    HW2 5001   2.048   0.947   3.052
 1368SOL     OW 5002   5.989   6.798   3.907
 1368SOL    HW1 5003   6.005   6.891   3.873
 1368SOL    HW2 5004   6.075   6.758   3.936
 1369SOL     OW 5005   0.869   0.527   3.294
 1369SOL    HW1 5006   0.921   0.442   3.286
 1369SOL    HW2 5007   0.771   0.506   3.296
 1370SOL     OW 5008   2.787   1.097   1.521
 1370SOL    HW1 5009   2.703   1.044   1.525
 1370SOL    HW2 5010   2.846   1.073   1.599
 1371SOL     OW 5011   4.042   0.873   6.213
 1371SOL    HW1 5012   4.011   0.838   6.125
 1371SOL    HW2 5013   4.109   0.810   6.253
 1372SOL     OW 5014   3.443   1.712   2.231
 1372SOL    HW1 5015   3.458   1.801   2.188
 1372SOL    HW2 5016   3.353   1.677   2.206
 1373SOL     OW 5017   0.986   6.010   0.982
 1373SOL    HW1 5018   1.069   6.039   1.029
 1373SOL    HW2 5019   0.997   5.917   0.949
 1374SOL     OW 5020   5.006   2.515   0.411
 1374SOL    HW1 5021   5.056   2.454   0.349
 1374SOL    HW2 5022   5.066   2.543   0.485
 1375SOL     OW 5023   0.313   4.200   5.750
 1375SOL    HW1 5024   0.357   4.113   5.772
 1375SOL    HW2 5025   0.317   4.214   5.651
 1376SOL     OW 5026   4.909   2.377   2.399
 1376SOL    HW1 5027   4.864   2.290   2.382
 1376SOL    HW2 5028   4.993   2.361   2.451
 1377SOL     OW 5029   0.433   5.524   4.767
 1377SOL    HW1 5030   0.404   5.429   4.770
 1377SOL    HW2 5031   0.410   5.569   4.854
 1378SOL     OW 5032   1.453   1.863   0.859
 1378SOL    HW1 5033   1.539   1.848   0.811
 1378SOL    HW2 5034   1.467   1.852   0.957
 1379SOL     OW 5035   3.831   6.135   1.892
 1379SOL    HW1 5036   3.734   6.145   1.913
 1379SOL    HW2 5037   3.846   6.151   1.795
 1380SOL     OW 5038   6.247   6.761   2.227
 1380SOL    HW1 5039   6.315   6.713   2.172
 1380SOL    HW2 5040   6.219   6.703   2.304
 1381SOL     OW 5041   6.134   1.402   1.539
 1381SOL    HW1 5042   6.164   1.331   1.475
 1381SOL    HW2 5043   6.203   1.413   1.610
 1382SOL     OW 5044   6.034   4.952   6.442
 1382SOL    HW1 5045   6.093   4.882   6.482
 1382SOL    HW2 5046   5.984   5.000   6.514
 1383SOL     OW 5047   2.652   0.159   0.594
 1383SOL    HW1 5048   2.668   0.162   0.495
 1383SOL    HW2 5049   2.685   0.244   0.636
 1384SOL     OW 5050   3.502   2.096   3.039
 1384SOL    HW1 5051   3.466   2.117   3.129
 1384SOL    HW2 5052   3.592   2.138   3.027
 1385SOL     OW 5053   6.010   3.071   2.713
 1385SOL    HW1 5054   6.050   3.061   2.622
 1385SOL    HW2 5055   5.911   3.084   2.705
 1386SOL     OW 5056   2.014   2.629   4.416
 1386SOL    HW1 5057   1.987   2.717   4.377
 1386SOL    HW2 5058   2.060   2.574   4.347
 1387SOL     OW 5059   2.226   0.321   5.073
 1387SOL    HW1 5060   2.277   0.346   5.155
 1387SOL    HW2 5061   2.128   0.326   5.091
 1388SOL     OW 5062   6.868   0.992   4.674
 1388SOL    HW1 5063   6.784   0.999   4.620
 1388SOL    HW2 5064   6.886   1.080   4.719
 1389SOL     OW 5065   0.058   0.426   4.895
 1389SOL    HW1 5066   0.127   0.371   4.849
 1389SOL    HW2 5067   6.997   0.368   4.918
 1390SOL     OW 5068   4.774   2.937   2.960
 1390SOL    HW1 5069   4.701   2.869   2.963
 1390SOL    HW2 5070   4.783   2.972   2.866
 1391SOL     OW 5071   5.951   1.106   4.380
 1391SOL    HW1 5072   5.892   1.181   4.348
 1391SOL    HW2 5073   5.912   1.067   4.464
 1392SOL     OW 5074   4.642   4.942   6.180
 1392SOL    HW1 5075   4.562   4.977   6.131
 1392SOL    HW2 5076   4.670   5.008   6.250
 1393SOL     OW 5077   5.901   0.674   6.570
 1393SOL    HW1 5078   5.897   0.622   6.485
 1393SOL    HW2 5079   5.821   0.652   6.626
 1394SOL     OW 5080   4.506   6.718   4.081
 1394SOL    HW1 5081   4.496   6.745   4.177
 1394SOL    HW2 5082   4.438   6.766   4.025
 1395SOL     OW 5083   1.173   5.472   2.311
 1395SOL    HW1 5084   1.081   5.440   2.335
 1395SOL    HW2 5085   1.236   5.395   2.313
 1396SOL     OW 5086   1.591   1.847   3.882
 1396SOL    HW1 5087   1.514   1.785   3.865
 1396SOL    HW2 5088   1.570   1.937   3.844
 1397SOL     OW 5089   0.655   5.646   4.637
 1397SOL    HW1 5090   0.648   5.736   4.679
 1397SOL    HW2 5091   0.577   5.590   4.665
 1398SOL     OW 5092   0.829   6.687   0.652
 1398SOL    HW1 5093   0.765   6.743   0.703
 1398SOL    HW2 5094   0.820   6.706   0.554
 1399SOL     OW 5095   3.860   0.171   0.241
 1399SOL    HW1 5096   3.857   0.152   0.143
 1399SOL    HW2 5097   3.817   0.096   0.290
 1400SOL     OW 5098   0.210   0.748   5.327
 1400SOL    HW1 5099   0.130   0.711   5.280
 1400SOL    HW2 5100   0.238   0.832   5.283
 1401SOL     OW 5101   5.610   0.371   2.790
 1401SOL    HW1 5102   5.570   0.462   2.803
 1401SOL    HW2 5103   5.701   0.381   2.749
 1402SOL     OW 5104   6.537   4.837   2.884
 1402SOL    HW1 5105   6.551   4.783   2.967
 1402SOL    HW2 5106   6.611   4.903   2.874
 1403SOL     OW 5107   3.333   3.269   6.620
 1403SOL    HW1 5108   3.392   3.227   6.550
 1403SOL    HW2 5109   3.280   3.197   6.665
 1404SOL     OW 5110   3.757   6.907   0.304
 1404SOL    HW1 5111   3.732   6.887   0.398
 1404SOL    HW2 5112   3.692   6.862   0.242
 1405SOL     OW 5113   1.029   3.938   1.410
 1405SOL    HW1 5114   1.072   3.948   1.321
 1405SOL    HW2 5115   0.960   3.865   1.406
 1406SOL     OW 5116   2.357   3.398   0.811
 1406SOL    HW1 5117   2.258   3.404   0.796
 1406SOL    HW2 5118   2.395   3.490   0.816
 1407SOL     OW 5119   7.010   3.134   1.289
 1407SOL    HW1 5120   7.005   3.122   1.388
 1407SOL    HW2 5121   0.079   3.178   1.265
 1408SOL     OW 5122   5.653   6.640   1.017
 1408SOL    HW1 5123   5.692   6.631   0.925
 1408SOL    HW2 5124   5.703   6.582   1.081
 1409SOL     OW 5125   6.701   1.330   5.695
 1409SOL    HW1 5126   6.710   1.280   5.608
 1409SOL    HW2 5127   6.773   1.399   5.701
 1410SOL     OW 5128   3.918   0.808   5.947
 1410SOL    HW1 5129   3.821   0.830   5.957
 1410SOL    HW2 5130   3.969   0.891   5.925
 1411SOL     OW 5131   3.357   5.252   6.777
 1411SOL    HW1 5132   3.449   5.241   6.817
 1411SOL    HW2 5133   3.326   5.346   6.794
 1412SOL     OW 5134   2.478   3.239   0.188
 1412SOL    HW1 5135   2.440   3.263   0.278
 1412SOL    HW2 5136   2.539   3.160   0.198
 1413SOL     OW 5137   1.450   1.421   4.715
 1413SOL    HW1 5138   1.503   1.433   4.799
 1413SOL    HW2 5139   1.361   1.467   4.726
 1414SOL     OW 5140   0.918   4.297   2.529
 1414SOL    HW1 5141   0.971   4.255   2.602
 1414SOL    HW2 5142   0.929   4.396   2.531
 1415SOL     OW 5143   2.529   1.550   5.008
 1415SOL    HW1 5144   2.547   1.496   4.925
 1415SOL    HW2 5145   2.443   1.521   5.049
 1416SOL     OW 5146   4.495   0.390   4.639
 1416SOL    HW1 5147   4.514   0.457   4.710
 1416SOL    HW2 5148   4.539   0.418   4.554
 1417SOL     OW 5149   3.901   3.464   5.810
 1417SOL    HW1 5150   3.980   3.449   5.750
 1417SOL    HW2 5151   3.917   3.544   5.867
 1418SOL     OW 5152   4.010   4.252   5.767
 1418SOL    HW1 5153   3.960   4.338   5.764
 1418SOL    HW2 5154   4.093   4.263   5.821
 1419SOL     OW 5155   1.601   5.425   2.369
 1419SOL    HW1 5156   1.558   5.338   2.346
 1419SOL    HW2 5157   1.616   5.429   2.468
 1420SOL     OW 5158   2.733   0.227   2.814
 1420SOL    HW1 5159   2.797   0.287   2.863
 1420SOL    HW2 5160   2.703   0.154   2.875
 1421SOL     OW 5161   1.227   4.610   5.879
 1421SOL    HW1 5162   1.296   4.550   5.919
 1421SOL    HW2 5163   1.192   4.569   5.794
 1422SOL     OW 5164   2.096   3.076   6.285
 1422SOL    HW1 5165   2.027   3.067   6.214
 1422SOL    HW2 5166   2.071   3.152   6.346
 1423SOL     OW 5167   4.246   0.345   4.558
 1423SOL    HW1 5168   4.192   0.364   4.640
 1423SOL    HW2 5169   4.342   0.369   4.575
 1424SOL     OW 5170   6.058   2.970   0.435
 1424SOL    HW1 5171   6.134   2.910   0.409
 1424SOL    HW2 5172   6.015   2.936   0.519
 1425SOL     OW 5173   5.678   6.724   3.802
 1425SOL    HW1 5174   5.684   6.822   3.781
 1425SOL    HW2 5175   5.747   6.675   3.750
 1426SOL     OW 5176   3.376   1.652   0.219
 1426SOL    HW1 5177   3.448   1.694   0.274
 1426SOL    HW2 5178   3.289   1.696   0.241
 1427SOL     OW 5179   2.099   0.293   3.418
 1427SOL    HW1 5180   2.032   0.246   3.360
 1427SOL    HW2 5181   2.164   0.226   3.454
 1428SOL     OW 5182   0.495   2.449   3.702
 1428SOL    HW1 5183   0.404   2.410   3.685
 1428SOL    HW2 5184   0.561   2.409   3.639
 1429SOL     OW 5185   6.556   1.250   1.721
 1429SOL    HW1 5186   6.514   1.253   1.630
 1429SOL    HW2 5187   6.615   1.170   1.727
 1430SOL     OW 5188   1.893   3.334   4.106
 1430SOL    HW1 5189   1.843   3.414   4.141
 1430SOL    HW2 5190   1.990   3.344   4.126
 1431SOL     OW 5191   2.911   1.162   6.906
 1431SOL    HW1 5192   2.937   1.072   6.871
 1431SOL    HW2 5193   2.812   1.165   6.922
 1432SOL     OW 5194   3.657   0.960   2.185
 1432SOL    HW1 5195   3.621   1.041   2.231
 1432SOL    HW2 5196   3.754   0.948   2.209
 1433SOL     OW 5197   2.396   0.123   3.987
 1433SOL    HW1 5198   2.471   0.155   3.929
 1433SOL    HW2 5199   2.345   0.202   4.022
 1434SOL     OW 5200   6.727   3.517   0.258
 1434SOL    HW1 5201   6.644   3.464   0.239
 1434SOL    HW2 5202   6.744   3.517   0.357
 1435SOL     OW 5203   1.856   0.383   3.830
 1435SOL    HW1 5204   1.911   0.467   3.824
 1435SOL    HW2 5205   1.825   0.370   3.925
 1436SOL     OW 5206   5.308   1.186   0.212
 1436SOL    HW1 5207   5.318   1.218   0.118
 1436SOL    HW2 5208   5.277   1.091   0.212
 1437SOL     OW 5209   3.975   0.433   6.404
 1437SOL    HW1 5210   3.964   0.528   6.432
 1437SOL    HW2 5211   4.072   0.414   6.388
 1438SOL     OW 5212   1.866   0.532   2.267
 1438SOL    HW1 5213   1.831   0.438   2.260
 1438SOL    HW2 5214   1.959   0.531   2.303
 1439SOL     OW 5215   0.470   4.773   6.855
 1439SOL    HW1 5216   0.488   4.787   6.757
 1439SOL    HW2 5217   0.396   4.707   6.866
 1440SOL     OW 5218   3.221   3.058   3.156
 1440SOL    HW1 5219   3.266   3.138   3.118
 1440SOL    HW2 5220   3.290   2.991   3.183
 1441SOL     OW 5221   6.342   3.265   3.780
 1441SOL    HW1 5222   6.243   3.271   3.795
 1441SOL    HW2 5223   6.389   3.333   3.837
 1442SOL     OW 5224   5.459   6.537   6.953
 1442SOL    HW1 5225   5.457   6.441   6.927
 1442SOL    HW2 5226   5.543   6.579   6.919
 1443SOL     OW 5227   1.060   2.263   3.141
 1443SOL    HW1 5228   1.079   2.350   3.094
 1443SOL    HW2 5229   1.104   2.264   3.231
 1444SOL     OW 5230   5.751   0.894   4.866
 1444SOL    HW1 5231   5.665   0.842   4.861
 1444SOL    HW2 5232   5.822   0.837   4.906
 1445SOL     OW 5233   6.272   2.444   0.931
 1445SOL    HW1 5234   6.224   2.492   0.857
 1445SOL    HW2 5235   6.208   2.430   1.007
 1446SOL     OW 5236   4.330   0.442   0.886
 1446SOL    HW1 5237   4.308   0.345   0.873
 1446SOL    HW2 5238   4.305   0.469   0.979
 1447SOL     OW 5239   5.409   1.332   5.395
 1447SOL    HW1 5240   5.352   1.399   5.442
 1447SOL    HW2 5241   5.463   1.280   5.461
 1448SOL     OW 5242   5.377   0.426   6.823
 1448SOL    HW1 5243   5.386   0.471   6.912
 1448SOL    HW2 5244   5.397   0.491   6.750
 1449SOL     OW 5245   4.590   5.609   0.554
 1449SOL    HW1 5246   4.496   5.621   0.587
 1449SOL    HW2 5247   4.653   5.612   0.631
 1450SOL     OW 5248   5.630   1.919   3.847
 1450SOL    HW1 5249   5.537   1.933   3.814
 1450SOL    HW2 5250   5.679   2.006   3.848
 1451SOL     OW 5251   1.418   6.879   2.532
 1451SOL    HW1 5252   1.366   6.891   2.447
 1451SOL    HW2 5253   1.510   6.845   2.511
 1452SOL     OW 5254   4.489   0.557   5.155
 1452SOL    HW1 5255   4.502   0.529   5.251
 1452SOL    HW2 5256   4.458   0.652   5.152
 1453SOL     OW 5257   4.689   4.272   4.535
 1453SOL    HW1 5258   4.642   4.253   4.621
 1453SOL    HW2 5259   4.707   4.187   4.486
 1454SOL     OW 5260   4.450   3.920   1.096
 1454SOL    HW1 5261   4.391   3.856   1.046
 1454SOL    HW2 5262   4.394   3.994   1.133
 1455SOL     OW 5263   2.060   2.253   1.373
 1455SOL    HW1 5264   1.998   2.197   1.427
 1455SOL    HW2 5265   2.102   2.322   1.431
 1456SOL     OW 5266   6.845   4.979   4.368
 1456SOL    HW1 5267   6.876   4.962   4.274
 1456SOL    HW2 5268   6.746   4.968   4.373
 1457SOL     OW 5269   2.114   0.573   3.472
 1457SOL    HW1 5270   2.032   0.621   3.440
 1457SOL    HW2 5271   2.108   0.476   3.448
 1458SOL     OW 5272   6.656   5.428   0.145
 1458SOL    HW1 5273   6.672   5.485   0.226
 1458SOL    HW2 5274   6.567   5.383   0.154
 1459SOL     OW 5275   2.635   6.953   0.766
 1459SOL    HW1 5276   2.719   6.930   0.814
 1459SOL    HW2 5277   2.653   0.009   0.700
 1460SOL     OW 5278   0.466   6.419   0.301
 1460SOL    HW1 5279   0.373   6.432   0.266
 1460SOL    HW2 5280   0.476   6.468   0.388
 1461SOL     OW 5281   4.529   4.684   1.254
 1461SOL    HW1 5282   4.521   4.777   1.290
 1461SOL    HW2 5283   4.516   4.618   1.328
 1462SOL     OW 5284   5.409   0.036   5.614
 1462SOL    HW1 5285   5.343   0.106   5.586
 1462SOL    HW2 5286   5.375   6.963   5.588
 1463SOL     OW 5287   0.456   0.699   5.032
 1463SOL    HW1 5288   0.372   0.671   5.077
 1463SOL    HW2 5289   0.438   0.777   4.972
 1464SOL     OW 5290   6.877   0.073   1.471
 1464SOL    HW1 5291   6.938   0.008   1.517
 1464SOL    HW2 5292   6.833   0.131   1.539
 1465SOL     OW 5293   0.827   6.793   4.829
 1465SOL    HW1 5294   0.782   6.761   4.746
 1465SOL    HW2 5295   0.912   6.839   4.805
 1466SOL     OW 5296   5.411   5.559   4.119
 1466SOL    HW1 5297   5.459   5.618   4.055
 1466SOL    HW2 5298   5.410   5.602   4.209
 1467SOL     OW 5299   6.342   3.844   2.738
 1467SOL    HW1 5300   6.432   3.873   2.705
 1467SOL    HW2 5301   6.275   3.915   2.716
 1468SOL     OW 5302   5.051   6.168   2.824
 1468SOL    HW1 5303   5.035   6.077   2.784
 1468SOL    HW2 5304   5.101   6.158   2.910
 1469SOL     OW 5305   0.432   0.795   2.681
 1469SOL    HW1 5306   0.454   0.871   2.619
 1469SOL    HW2 5307   0.441   0.825   2.776
 1470SOL     OW 5308   0.124   1.048   3.213
 1470SOL    HW1 5309   0.071   1.131   3.231
 1470SOL    HW2 5310   0.107   0.981   3.286
 1471SOL     OW 5311   6.347   0.893   0.503
 1471SOL    HW1 5312   6.269   0.943   0.466
 1471SOL    HW2 5313   6.431   0.925   0.460
 1472SOL     OW 5314   4.424   6.067   5.087
 1472SOL    HW1 5315   4.495   6.059   5.017
 1472SOL    HW2 5316   4.462   6.111   5.168
 1473SOL     OW 5317   6.037   4.475   4.109
 1473SOL    HW1 5318   6.086   4.555   4.074
 1473SOL    HW2 5319   6.085   4.392   4.082
 1474SOL     OW 5320   4.917   4.794   3.558
 1474SOL    HW1 5321   4.992   4.858   3.562
 1474SOL    HW2 5322   4.865   4.797   3.644
 1475SOL     OW 5323   6.843   0.506   3.022
 1475SOL    HW1 5324   6.805   0.413   3.017
 1475SOL    HW2 5325   6.921   0.513   2.961
 1476SOL     OW 5326   6.473   1.981   1.354
 1476SOL    HW1 5327   6.523   2.019   1.432
 1476SOL    HW2 5328   6.389   2.034   1.340
 1477SOL     OW 5329   3.183   6.445   3.209
 1477SOL    HW1 5330   3.215   6.466   3.301
 1477SOL    HW2 5331   3.087   6.416   3.213
 1478SOL     OW 5332   6.665   4.814   2.029
 1478SOL    HW1 5333   6.733   4.872   2.074
 1478SOL    HW2 5334   6.675   4.720   2.060
 1479SOL     OW 5335   1.059   5.639   0.727
 1479SOL    HW1 5336   0.981   5.647   0.788
 1479SOL    HW2 5337   1.129   5.706   0.751
 1480SOL     OW 5338   2.646   1.149   6.972
 1480SOL    HW1 5339   2.643   1.053   6.943
 1480SOL    HW2 5340   2.568   1.168   0.015
 1481SOL     OW 5341   7.013   2.502   5.856
 1481SOL    HW1 5342   0.093   2.508   5.880
 1481SOL    HW2 5343   6.975   2.593   5.848
 1482SOL     OW 5344   5.926   0.739   6.211
 1482SOL    HW1 5345   5.872   0.823   6.216
 1482SOL    HW2 5346   5.963   0.729   6.118
 1483SOL     OW 5347   6.211   2.880   6.371
 1483SOL    HW1 5348   6.251   2.821   6.302
 1483SOL    HW2 5349   6.283   2.929   6.419
 1484SOL     OW 5350   6.335   6.840   2.691
 1484SOL    HW1 5351   6.236   6.839   2.701
 1484SOL    HW2 5352   6.365   6.931   2.663
 1485SOL     OW 5353   5.749   2.916   4.551
 1485SOL    HW1 5354   5.736   2.819   4.567
 1485SOL    HW2 5355   5.661   2.959   4.531
 1486SOL     OW 5356   4.586   1.966   2.323
 1486SOL    HW1 5357   4.545   2.055   2.343
 1486SOL    HW2 5358   4.597   1.915   2.408
 1487SOL     OW 5359   6.357   1.294   5.378
 1487SOL    HW1 5360   6.371   1.195   5.380
 1487SOL    HW2 5361   6.260   1.314   5.368
 1488SOL     OW 5362   4.136   1.884   2.883
 1488SOL    HW1 5363   4.164   1.799   2.837
 1488SOL    HW2 5364   4.205   1.954   2.867
 1489SOL     OW 5365   3.699   4.895   4.639
 1489SOL    HW1 5366   3.765   4.883   4.714
 1489SOL    HW2 5367   3.737   4.960   4.573
 1490SOL     OW 5368   2.128   2.447   0.722
 1490SOL    HW1 5369   2.090   2.510   0.654
 1490SOL    HW2 5370   2.228   2.447   0.716
 1491SOL     OW 5371   0.152   2.388   5.591
 1491SOL    HW1 5372   0.187   2.444   5.666
 1491SOL    HW2 5373   0.120   2.447   5.517
 1492SOL     OW 5374   5.284   2.902   2.286
 1492SOL    HW1 5375   5.232   2.942   2.361
 1492SOL    HW2 5376   5.266   2.804   2.281
 1493SOL     OW 5377   5.526   0.721   4.783
 1493SOL    HW1 5378   5.472   0.670   4.716
 1493SOL    HW2 5379   5.495   0.698   4.875
 1494SOL     OW 5380   5.277   2.317   4.439
 1494SOL    HW1 5381   5.289   2.402   4.489
 1494SOL    HW2 5382   5.290   2.239   4.500
 1495SOL     OW 5383   2.128   2.654   2.651
 1495SOL    HW1 5384   2.175   2.683   2.734
 1495SOL    HW2 5385   2.162   2.707   2.573
 1496SOL     OW 5386   0.746   0.969   3.237
 1496SOL    HW1 5387   0.679   1.040   3.217
 1496SOL    HW2 5388   0.839   1.005   3.227
 1497SOL     OW 5389   5.093   4.565   5.722
 1497SOL    HW1 5390   5.164   4.619   5.676
 1497SOL    HW2 5391   5.007   4.616   5.723
 1498SOL     OW 5392   1.909   5.555   0.128
 1498SOL    HW1 5393   1.966   5.586   0.053
 1498SOL    HW2 5394   1.950   5.473   0.169
 1499SOL     OW 5395   0.625   4.938   4.881
 1499SOL    HW1 5396   0.555   4.997   4.922
 1499SOL    HW2 5397   0.712   4.951   4.930
 1500SOL     OW 5398   4.186   6.574   5.330
 1500SOL    HW1 5399   4.174   6.672   5.318
 1500SOL    HW2 5400   4.283   6.552   5.331
 1501SOL     OW 5401   4.266   0.386   6.388
 1501SOL    HW1 5402   4.348   0.443   6.392
 1501SOL    HW2 5403   4.244   0.351   6.479
 1502SOL     OW 5404   6.585   6.578   0.006
 1502SOL    HW1 5405   6.685   6.572   7.015
 1502SOL    HW2 5406   6.560   6.581   0.102
 1503SOL     OW 5407   3.346   3.878   5.696
 1503SOL    HW1 5408   3.302   3.968   5.702
 1503SOL    HW2 5409   3.372   3.860   5.601
 1504SOL     OW 5410   2.693   6.219   4.370
 1504SOL    HW1 5411   2.600   6.189   4.351
 1504SOL    HW2 5412   2.758   6.156   4.328
 1505SOL     OW 5413   5.045   4.841   1.397
 1505SOL    HW1 5414   4.982   4.764   1.384
 1505SOL    HW2 5415   5.094   4.859   1.312
 1506SOL     OW 5416   0.722   6.498   2.783
 1506SOL    HW1 5417   0.659   6.442   2.837
 1506SOL    HW2 5418   0.673   6.576   2.744
 1507SOL     OW 5419   2.026   0.788   6.331
 1507SOL    HW1 5420   2.115   0.818   6.298
 1507SOL    HW2 5421   1.954   0.840   6.284
 1508SOL     OW 5422   4.556   0.088   0.409
 1508SOL    HW1 5423   4.457   0.102   0.403
 1508SOL    HW2 5424   4.603   0.155   0.352
 1509SOL     OW 5425   5.032   1.850   0.621
 1509SOL    HW1 5426   5.013   1.947   0.609
 1509SOL    HW2 5427   5.032   1.828   0.718
 1510SOL     OW 5428   0.235   1.648   3.769
 1510SOL    HW1 5429   0.207   1.587   3.843
 1510SOL    HW2 5430   0.335   1.650   3.762
 1511SOL     OW 5431   1.637   2.240   0.652
 1511SOL    HW1 5432   1.652   2.232   0.750
 1511SOL    HW2 5433   1.720   2.274   0.608
 1512SOL     OW 5434   5.774   0.517   2.516
 1512SOL    HW1 5435   5.789   0.424   2.481
 1512SOL    HW2 5436   5.855   0.547   2.565
 1513SOL     OW 5437   4.087   1.349   2.497
 1513SOL    HW1 5438   4.090   1.355   2.397
 1513SOL    HW2 5439   4.158   1.409   2.535
 1514SOL     OW 5440   5.049   1.789   5.699
 1514SOL    HW1 5441   5.026   1.837   5.615
 1514SOL    HW2 5442   4.978   1.806   5.768
 1515SOL     OW 5443   6.265   4.834   4.966
 1515SOL    HW1 5444   6.213   4.785   5.036
 1515SOL    HW2 5445   6.237   4.930   4.965
 1516SOL     OW 5446   0.776   1.141   1.137
 1516SOL    HW1 5447   0.847   1.086   1.181
 1516SOL    HW2 5448   0.813   1.230   1.112
 1517SOL     OW 5449   3.761   4.954   3.434
 1517SOL    HW1 5450   3.817   5.036   3.447
 1517SOL    HW2 5451   3.791   4.882   3.497
 1518SOL     OW 5452   0.786   4.652   1.393
 1518SOL    HW1 5453   0.690   4.625   1.403
 1518SOL    HW2 5454   0.809   4.718   1.465
 1519SOL     OW 5455   6.645   5.010   1.057
 1519SOL    HW1 5456   6.707   4.947   1.010
 1519SOL    HW2 5457   6.691   5.097   1.072
 1520SOL     OW 5458   1.427   2.715   3.291
 1520SOL    HW1 5459   1.491   2.640   3.273
 1520SOL    HW2 5460   1.403   2.761   3.205
 1521SOL     OW 5461   2.525   4.356   5.840
 1521SOL    HW1 5462   2.508   4.392   5.749
 1521SOL    HW2 5463   2.500   4.424   5.909
 1522SOL     OW 5464   0.198   2.199   6.599
 1522SOL    HW1 5465   0.112   2.180   6.551
 1522SOL    HW2 5466   0.187   2.178   6.696
 1523SOL     OW 5467   6.756   1.417   1.044
 1523SOL    HW1 5468   6.726   1.502   1.001
 1523SOL    HW2 5469   6.732   1.419   1.141
 1524SOL     OW 5470   6.239   0.812   2.924
 1524SOL    HW1 5471   6.240   0.728   2.978
 1524SOL    HW2 5472   6.311   0.809   2.855
 1525SOL     OW 5473   4.212   1.527   5.956
 1525SOL    HW1 5474   4.236   1.476   5.873
 1525SOL    HW2 5475   4.118   1.505   5.983
 1526SOL     OW 5476   6.819   2.068   1.201
 1526SOL    HW1 5477   6.797   1.985   1.151
 1526SOL    HW2 5478   6.824   2.048   1.299
 1527SOL     OW 5479   3.264   2.229   5.561
 1527SOL    HW1 5480   3.308   2.140   5.576
 1527SOL    HW2 5481   3.219   2.259   5.645
 1528SOL     OW 5482   5.187   6.149   3.425
 1528SOL    HW1 5483   5.182   6.142   3.525
 1528SOL    HW2 5484   5.168   6.059   3.385
 1529SOL     OW 5485   3.098   0.573   5.653
 1529SOL    HW1 5486   3.191   0.538   5.641
 1529SOL    HW2 5487   3.054   0.526   5.730
 1530SOL     OW 5488   3.676   0.072   2.280
 1530SOL    HW1 5489   3.736   0.105   2.353
 1530SOL    HW2 5490   3.597   0.025   2.321
 1531SOL     OW 5491   6.676   0.338   5.414
 1531SOL    HW1 5492   6.753   0.385   5.458
 1531SOL    HW2 5493   6.662   0.375   5.322
 1532SOL     OW 5494   3.243   2.028   5.146
 1532SOL    HW1 5495   3.206   2.116   5.116
 1532SOL    HW2 5496   3.317   1.999   5.085
 1533SOL     OW 5497   5.695   2.796   6.751
 1533SOL    HW1 5498   5.657   2.873   6.699
 1533SOL    HW2 5499   5.757   2.830   6.821
 1534SOL     OW 5500   0.303   6.563   1.748
 1534SOL    HW1 5501   0.306   6.662   1.734
 1534SOL    HW2 5502   0.212   6.536   1.778
 1535SOL     OW 5503   5.063   5.415   4.246
 1535SOL    HW1 5504   5.105   5.451   4.163
 1535SOL    HW2 5505   5.066   5.316   4.245
 1536SOL     OW 5506   2.722   5.676   3.717
 1536SOL    HW1 5507   2.796   5.721   3.768
 1536SOL    HW2 5508   2.746   5.672   3.620
 1537SOL     OW 5509   2.721   5.250   4.484
 1537SOL    HW1 5510   2.735   5.172   4.546
 1537SOL    HW2 5511   2.644   5.229   4.423
 1538SOL     OW 5512   2.287   5.024   6.629
 1538SOL    HW1 5513   2.291   4.924   6.632
 1538SOL    HW2 5514   2.288   5.055   6.534
 1539SOL     OW 5515   3.104   4.842   1.706
 1539SOL    HW1 5516   3.185   4.797   1.743
 1539SOL    HW2 5517   3.131   4.898   1.628
 1540SOL     OW 5518   0.225   6.889   5.130
 1540SOL    HW1 5519   0.236   6.829   5.051
 1540SOL    HW2 5520   0.131   6.882   5.164
 1541SOL     OW 5521   5.090   2.233   1.219
 1541SOL    HW1 5522   5.017   2.296   1.247
 1541SOL    HW2 5523   5.098   2.235   1.119
 1542SOL     OW 5524   0.819   6.488   0.977
 1542SOL    HW1 5525   0.813   6.388   0.979
 1542SOL    HW2 5526   0.731   6.526   0.947
 1543SOL     OW 5527   3.185   4.041   4.308
 1543SOL    HW1 5528   3.095   4.001   4.326
 1543SOL    HW2 5529   3.195   4.055   4.209
 1544SOL     OW 5530   3.840   3.529   2.960
 1544SOL    HW1 5531   3.835   3.629   2.959
 1544SOL    HW2 5532   3.864   3.497   3.052
 1545SOL     OW 5533   6.474   0.845   4.592
 1545SOL    HW1 5534   6.510   0.757   4.621
 1545SOL    HW2 5535   6.403   0.830   4.522
 1546SOL     OW 5536   6.882   6.374   6.099
 1546SOL    HW1 5537   6.810   6.432   6.060
 1546SOL    HW2 5538   6.862   6.278   6.078
 1547SOL     OW 5539   3.821   6.013   0.006
 1547SOL    HW1 5540   3.808   6.051   6.932
 1547SOL    HW2 5541   3.840   5.915   7.016
 1548SOL     OW 5542   6.320   4.627   3.951
 1548SOL    HW1 5543   6.272   4.565   3.889
 1548SOL    HW2 5544   6.331   4.584   4.041
 1549SOL     OW 5545   6.450   1.574   1.463
 1549SOL    HW1 5546   6.373   1.623   1.424
 1549SOL    HW2 5547   6.532   1.630   1.456
 1550SOL     OW 5548   2.626   6.015   3.717
 1550SOL    HW1 5549   2.660   5.987   3.806
 1550SOL    HW2 5550   2.703   6.038   3.657
 1551SOL     OW 5551   1.338   3.029   1.294
 1551SOL    HW1 5552   1.420   3.057   1.244
 1551SOL    HW2 5553   1.269   3.101   1.288
 1552SOL     OW 5554   0.874   6.794   0.390
 1552SOL    HW1 5555   0.968   6.764   0.372
 1552SOL    HW2 5556   0.876   6.890   0.419
 1553SOL     OW 5557   5.781   1.578   6.691
 1553SOL    HW1 5558   5.782   1.670   6.651
 1553SOL    HW2 5559   5.695   1.564   6.740
 1554SOL     OW 5560   3.083   1.712   0.829
 1554SOL    HW1 5561   3.016   1.638   0.821
 1554SOL    HW2 5562   3.036   1.797   0.851
 1555SOL     OW 5563   4.672   1.211   6.042
 1555SOL    HW1 5564   4.746   1.278   6.048
 1555SOL    HW2 5565   4.593   1.253   5.998
 1556SOL     OW 5566   3.430   1.874   0.421
 1556SOL    HW1 5567   3.341   1.917   0.407
 1556SOL    HW2 5568   3.503   1.941   0.410
 1557SOL     OW 5569   1.708   2.836   0.510
 1557SOL    HW1 5570   1.652   2.918   0.517
 1557SOL    HW2 5571   1.789   2.845   0.567
 1558SOL     OW 5572   5.432   2.803   6.490
 1558SOL    HW1 5573   5.387   2.748   6.560
 1558SOL    HW2 5574   5.398   2.778   6.400
 1559SOL     OW 5575   2.262   5.444   3.864
 1559SOL    HW1 5576   2.251   5.360   3.810
 1559SOL    HW2 5577   2.333   5.501   3.822
 1560SOL     OW 5578   4.093   1.645   0.995
 1560SOL    HW1 5579   4.079   1.560   0.945
 1560SOL    HW2 5580   4.056   1.721   0.941
 1561SOL     OW 5581   6.343   6.283   0.937
 1561SOL    HW1 5582   6.404   6.337   0.878
 1561SOL    HW2 5583   6.250   6.319   0.930
 1562SOL     OW 5584   3.867   6.920   2.188
 1562SOL    HW1 5585   3.786   6.979   2.179
 1562SOL    HW2 5586   3.839   6.825   2.187
 1563SOL     OW 5587   3.008   2.248   3.977
 1563SOL    HW1 5588   2.989   2.237   4.074
 1563SOL    HW2 5589   3.107   2.258   3.963
 1564SOL     OW 5590   0.791   1.510   3.254
 1564SOL    HW1 5591   0.824   1.499   3.160
 1564SOL    HW2 5592   0.866   1.539   3.313
 1565SOL     OW 5593   4.203   1.116   4.885
 1565SOL    HW1 5594   4.270   1.189   4.877
 1565SOL    HW2 5595   4.112   1.151   4.860
 1566SOL     OW 5596   5.121   4.500   3.534
 1566SOL    HW1 5597   5.028   4.514   3.501
 1566SOL    HW2 5598   5.169   4.437   3.472
 1567SOL     OW 5599   5.756   0.712   4.605
 1567SOL    HW1 5600   5.683   0.707   4.674
 1567SOL    HW2 5601   5.773   0.620   4.568
 1568SOL     OW 5602   2.900   5.056   1.558
 1568SOL    HW1 5603   2.960   5.026   1.484
 1568SOL    HW2 5604   2.890   5.156   1.554
 1569SOL     OW 5605   3.319   0.724   2.828
 1569SOL    HW1 5606   3.282   0.794   2.889
 1569SOL    HW2 5607   3.326   0.637   2.877
 1570SOL     OW 5608   3.032   5.899   6.186
 1570SOL    HW1 5609   3.030   5.808   6.228
 1570SOL    HW2 5610   2.939   5.926   6.160
 1571SOL     OW 5611   0.465   2.649   4.225
 1571SOL    HW1 5612   0.425   2.601   4.304
 1571SOL    HW2 5613   0.565   2.651   4.235
 1572SOL     OW 5614   2.497   5.272   2.491
 1572SOL    HW1 5615   2.584   5.223   2.497
 1572SOL    HW2 5616   2.502   5.356   2.546
 1573SOL     OW 5617   5.942   6.393   0.248
 1573SOL    HW1 5618   5.976   6.389   0.154
 1573SOL    HW2 5619   5.999   6.335   0.307
 1574SOL     OW 5620   6.630   3.986   3.612
 1574SOL    HW1 5621   6.702   4.042   3.655
 1574SOL    HW2 5622   6.668   3.898   3.584
 1575SOL     OW 5623   6.578   2.032   0.111
 1575SOL    HW1 5624   6.610   1.946   0.071
 1575SOL    HW2 5625   6.622   2.047   0.199
 1576SOL     OW 5626   1.047   0.118   1.509
 1576SOL    HW1 5627   1.049   0.018   1.518
 1576SOL    HW2 5628   1.128   0.157   1.553
 1577SOL     OW 5629   3.953   5.752   5.342
 1577SOL    HW1 5630   3.994   5.730   5.430
 1577SOL    HW2 5631   3.889   5.828   5.353
 1578SOL     OW 5632   4.707   1.192   1.050
 1578SOL    HW1 5633   4.729   1.129   1.125
 1578SOL    HW2 5634   4.790   1.238   1.019
 1579SOL     OW 5635   1.949   2.211   1.115
 1579SOL    HW1 5636   1.984   2.287   1.060
 1579SOL    HW2 5637   1.973   2.225   1.211
 1580SOL     OW 5638   3.420   3.515   2.812
 1580SOL    HW1 5639   3.339   3.470   2.850
 1580SOL    HW2 5640   3.419   3.611   2.838
 1581SOL     OW 5641   6.202   4.529   5.503
 1581SOL    HW1 5642   6.191   4.515   5.405
 1581SOL    HW2 5643   6.278   4.474   5.537
 1582SOL     OW 5644   4.532   6.211   5.301
 1582SOL    HW1 5645   4.623   6.210   5.344
 1582SOL    HW2 5646   4.462   6.200   5.372
 1583SOL     OW 5647   1.106   4.902   4.746
 1583SOL    HW1 5648   1.112   4.971   4.818
 1583SOL    HW2 5649   1.114   4.947   4.657
 1584SOL     OW 5650   0.165   4.762   0.286
 1584SOL    HW1 5651   0.104   4.684   0.281
 1584SOL    HW2 5652   0.112   4.847   0.287
 1585SOL     OW 5653   3.743   6.406   3.550
 1585SOL    HW1 5654   3.771   6.447   3.463
 1585SOL    HW2 5655   3.680   6.468   3.598
 1586SOL     OW 5656   3.323   5.662   3.609
 1586SOL    HW1 5657   3.355   5.609   3.530
 1586SOL    HW2 5658   3.230   5.695   3.591
 1587SOL     OW 5659   2.717   5.888   6.750
 1587SOL    HW1 5660   2.659   5.860   6.673
 1587SOL    HW2 5661   2.735   5.809   6.808
 1588SOL     OW 5662   6.524   1.659   3.134
 1588SOL    HW1 5663   6.556   1.723   3.064
 1588SOL    HW2 5664   6.427   1.640   3.120
 1589SOL     OW 5665   6.141   4.621   4.364
 1589SOL    HW1 5666   6.184   4.552   4.307
 1589SOL    HW2 5667   6.181   4.711   4.344
 1590SOL     OW 5668   6.519   2.808   3.762
 1590SOL    HW1 5669   6.502   2.737   3.831
 1590SOL    HW2 5670   6.479   2.894   3.793
 1591SOL     OW 5671   1.550   6.319   1.331
 1591SOL    HW1 5672   1.515   6.389   1.269
 1591SOL    HW2 5673   1.473   6.273   1.376
 1592SOL     OW 5674   6.924   4.487   5.980
 1592SOL    HW1 5675   7.010   4.538   5.979
 1592SOL    HW2 5676   6.940   4.393   5.948
 1593SOL     OW 5677   3.435   0.188   6.700
 1593SOL    HW1 5678   3.462   0.284   6.705
 1593SOL    HW2 5679   3.482   0.143   6.624
 1594SOL     OW 5680   5.852   0.226   2.694
 1594SOL    HW1 5681   5.924   0.177   2.645
 1594SOL    HW2 5682   5.833   0.181   2.781
 1595SOL     OW 5683   0.489   3.933   0.466
 1595SOL    HW1 5684   0.440   4.009   0.422
 1595SOL    HW2 5685   0.587   3.944   0.451
 1596SOL     OW 5686   4.403   4.770   3.029
 1596SOL    HW1 5687   4.316   4.790   2.983
 1596SOL    HW2 5688   4.384   4.733   3.121
 1597SOL     OW 5689   4.001   6.082   6.698
 1597SOL    HW1 5690   3.942   6.013   6.656
 1597SOL    HW2 5691   4.095   6.049   6.699
 1598SOL     OW 5692   1.508   4.751   0.358
 1598SOL    HW1 5693   1.475   4.809   0.284
 1598SOL    HW2 5694   1.591   4.704   0.329
 1599SOL     OW 5695   4.573   5.773   3.299
 1599SOL    HW1 5696   4.623   5.740   3.379
 1599SOL    HW2 5697   4.520   5.855   3.324
 1600SOL     OW 5698   4.321   0.147   2.072
 1600SOL    HW1 5699   4.232   0.189   2.057
 1600SOL    HW2 5700   4.326   0.111   2.166
 1601SOL     OW 5701   6.717   0.149   4.793
 1601SOL    HW1 5702   6.735   0.179   4.887
 1601SOL    HW2 5703   6.801   0.111   4.754
 1602SOL     OW 5704   3.555   5.637   3.821
 1602SOL    HW1 5705   3.591   5.710   3.879
 1602SOL    HW2 5706   3.498   5.676   3.748
 1603SOL     OW 5707   3.545   5.302   3.135
 1603SOL    HW1 5708   3.601   5.339   3.060
 1603SOL    HW2 5709   3.590   5.321   3.222
 1604SOL     OW 5710   4.325   5.482   1.985
 1604SOL    HW1 5711   4.416   5.522   1.995
 1604SOL    HW2 5712   4.258   5.554   1.965
 1605SOL     OW 5713   4.547   5.614   0.895
 1605SOL    HW1 5714   4.616   5.663   0.842
 1605SOL    HW2 5715   4.475   5.678   0.923
 1606SOL     OW 5716   3.543   6.052   4.945
 1606SOL    HW1 5717   3.494   5.988   5.005
 1606SOL    HW2 5718   3.477   6.116   4.905
 1607SOL     OW 5719   4.846   5.672   2.912
 1607SOL    HW1 5720   4.858   5.593   2.851
 1607SOL    HW2 5721   4.761   5.719   2.888
 1608SOL     OW 5722   5.081   1.409   3.310
 1608SOL    HW1 5723   5.129   1.328   3.276
 1608SOL    HW2 5724   5.148   1.475   3.343
 1609SOL     OW 5725   2.342   6.567   1.050
 1609SOL    HW1 5726   2.310   6.633   0.982
 1609SOL    HW2 5727   2.357   6.478   1.008
 1610SOL     OW 5728   5.431   0.434   0.677
 1610SOL    HW1 5729   5.459   0.345   0.641
 1610SOL    HW2 5730   5.415   0.497   0.601
 1611SOL     OW 5731   1.525   4.579   1.052
 1611SOL    HW1 5732   1.490   4.532   1.133
 1611SOL    HW2 5733   1.471   4.662   1.036
 1612SOL     OW 5734   3.632   0.319   2.143
 1612SOL    HW1 5735   3.548   0.373   2.134
 1612SOL    HW2 5736   3.609   0.227   2.175
 1613SOL     OW 5737   6.582   5.515   2.404
 1613SOL    HW1 5738   6.568   5.590   2.469
 1613SOL    HW2 5739   6.577   5.428   2.453
 1614SOL     OW 5740   6.130   1.760   6.405
 1614SOL    HW1 5741   6.221   1.797   6.424
 1614SOL    HW2 5742   6.063   1.834   6.404
 1615SOL     OW 5743   1.126   4.275   6.252
 1615SOL    HW1 5744   1.049   4.211   6.255
 1615SOL    HW2 5745   1.143   4.310   6.344
 1616SOL     OW 5746   1.967   1.519   4.624
 1616SOL    HW1 5747   1.933   1.611   4.642
 1616SOL    HW2 5748   2.065   1.514   4.647
 1617SOL     OW 5749   6.084   6.306   2.958
 1617SOL    HW1 5750   6.019   6.375   2.991
 1617SOL    HW2 5751   6.176   6.330   2.989
 1618SOL     OW 5752   3.023   5.572   3.192
 1618SOL    HW1 5753   3.008   5.588   3.290
 1618SOL    HW2 5754   3.032   5.473   3.176
 1619SOL     OW 5755   1.300   4.248   6.860
 1619SOL    HW1 5756   1.283   4.227   6.956
 1619SOL    HW2 5757   1.380   4.196   6.828
 1620SOL     OW 5758   3.635   5.174   5.772
 1620SOL    HW1 5759   3.630   5.201   5.868
 1620SOL    HW2 5760   3.621   5.076   5.764
 1621SOL     OW 5761   5.045   5.893   1.101
 1621SOL    HW1 5762   5.048   5.984   1.059
 1621SOL    HW2 5763   5.124   5.840   1.070
 1622SOL     OW 5764   6.946   4.863   4.587
 1622SOL    HW1 5765   0.002   4.923   4.618
 1622SOL    HW2 5766   6.906   4.900   4.503
 1623SOL     OW 5767   0.357   2.343   3.975
 1623SOL    HW1 5768   0.337   2.432   3.934
 1623SOL    HW2 5769   0.271   2.294   3.993
 1624SOL     OW 5770   4.191   2.065   0.722
 1624SOL    HW1 5771   4.182   2.155   0.763
 1624SOL    HW2 5772   4.153   2.067   0.629
 1625SOL     OW 5773   0.609   5.880   1.230
 1625SOL    HW1 5774   0.592   5.859   1.134
 1625SOL    HW2 5775   0.661   5.806   1.272
 1626SOL     OW 5776   2.822   2.388   1.259
 1626SOL    HW1 5777   2.782   2.480   1.263
 1626SOL    HW2 5778   2.793   2.336   1.340
 1627SOL     OW 5779   4.283   1.664   5.264
 1627SOL    HW1 5780   4.270   1.763   5.264
 1627SOL    HW2 5781   4.379   1.642   5.248
 1628SOL     OW 5782   5.729   6.671   0.723
 1628SOL    HW1 5783   5.748   6.579   0.689
 1628SOL    HW2 5784   5.643   6.704   0.684
 1629SOL     OW 5785   2.047   0.572   3.773
 1629SOL    HW1 5786   2.059   0.570   3.674
 1629SOL    HW2 5787   2.133   0.549   3.818
 1630SOL     OW 5788   0.418   3.773   6.660
 1630SOL    HW1 5789   0.386   3.860   6.697
 1630SOL    HW2 5790   0.488   3.789   6.591
 1631SOL     OW 5791   6.982   3.846   6.917
 1631SOL    HW1 5792   6.984   3.748   6.897
 1631SOL    HW2 5793   0.046   3.871   6.970
 1632SOL     OW 5794   6.511   5.303   2.596
 1632SOL    HW1 5795   6.526   5.248   2.514
 1632SOL    HW2 5796   6.415   5.296   2.624
 1633SOL     OW 5797   5.400   3.735   4.342
 1633SOL    HW1 5798   5.357   3.651   4.310
 1633SOL    HW2 5799   5.431   3.723   4.437
 1634SOL     OW 5800   6.505   1.691   4.349
 1634SOL    HW1 5801   6.539   1.697   4.443
 1634SOL    HW2 5802   6.440   1.615   4.342
 1635SOL     OW 5803   3.856   6.408   3.023
 1635SOL    HW1 5804   3.796   6.480   3.057
 1635SOL    HW2 5805   3.869   6.338   3.094
 1636SOL     OW 5806   6.277   5.982   1.622
 1636SOL    HW1 5807   6.296   6.079   1.635
 1636SOL    HW2 5808   6.323   5.929   1.694
 1637SOL     OW 5809   0.709   0.026   1.749
 1637SOL    HW1 5810   0.736   0.017   1.845
 1637SOL    HW2 5811   0.680   6.955   1.714
 1638SOL     OW 5812   6.226   2.864   1.786
 1638SOL    HW1 5813   6.235   2.820   1.875
 1638SOL    HW2 5814   6.131   2.863   1.757
 1639SOL     OW 5815   5.910   2.582   2.619
 1639SOL    HW1 5816   5.845   2.552   2.550
 1639SOL    HW2 5817   5.861   2.631   2.692
 1640SOL     OW 5818   6.876   0.172   0.054
 1640SOL    HW1 5819   6.958   0.117   0.039
 1640SOL    HW2 5820   6.795   0.113   0.043
 1641SOL     OW 5821   6.675   2.411   3.102
 1641SOL    HW1 5822   6.624   2.386   3.184
 1641SOL    HW2 5823   6.674   2.335   3.037
 1642SOL     OW 5824   6.891   2.541   6.176
 1642SOL    HW1 5825   6.809   2.552   6.120
 1642SOL    HW2 5826   6.963   2.601   6.142
 1643SOL     OW 5827   2.386   6.174   3.734
 1643SOL    HW1 5828   2.479   6.138   3.744
 1643SOL    HW2 5829   2.341   6.131   3.656
 1644SOL     OW 5830   6.085   2.468   1.432
 1644SOL    HW1 5831   6.111   2.489   1.526
 1644SOL    HW2 5832   5.990   2.435   1.430
 1645SOL     OW 5833   2.125   0.864   5.754
 1645SOL    HW1 5834   2.057   0.937   5.762
 1645SOL    HW2 5835   2.142   0.823   5.844
 1646SOL     OW 5836   1.300   4.742   0.849
 1646SOL    HW1 5837   1.342   4.792   0.925
 1646SOL    HW2 5838   1.361   4.744   0.770
 1647SOL     OW 5839   5.649   2.491   3.975
 1647SOL    HW1 5840   5.556   2.494   4.010
 1647SOL    HW2 5841   5.668   2.573   3.921
 1648SOL     OW 5842   5.447   6.121   1.002
 1648SOL    HW1 5843   5.410   6.038   1.045
 1648SOL    HW2 5844   5.540   6.138   1.037
 1649SOL     OW 5845   3.578   0.709   3.425
 1649SOL    HW1 5846   3.676   0.713   3.407
 1649SOL    HW2 5847   3.561   0.646   3.501
 1650SOL     OW 5848   2.911   3.917   0.026
 1650SOL    HW1 5849   3.011   3.920   0.023
 1650SOL    HW2 5850   2.874   3.935   6.952
 1651SOL     OW 5851   1.155   2.623   3.255
 1651SOL    HW1 5852   1.239   2.676   3.251
 1651SOL    HW2 5853   1.149   2.563   3.175
 1652SOL     OW 5854   0.290   3.269   1.557
 1652SOL    HW1 5855   0.298   3.171   1.537
 1652SOL    HW2 5856   0.328   3.322   1.481
 1653SOL     OW 5857   0.225   4.761   2.830
 1653SOL    HW1 5858   0.263   4.783   2.921
 1653SOL    HW2 5859   0.153   4.692   2.840
 1654SOL     OW 5860   6.827   3.304   2.221
 1654SOL    HW1 5861   6.773   3.359   2.284
 1654SOL    HW2 5862   6.773   3.283   2.139
 1655SOL     OW 5863   0.278   6.831   4.856
 1655SOL    HW1 5864   0.219   6.806   4.780
 1655SOL    HW2 5865   0.350   6.762   4.867
 1656SOL     OW 5866   2.108   4.574   3.073
 1656SOL    HW1 5867   2.137   4.531   2.988
 1656SOL    HW2 5868   2.161   4.538   3.149
 1657SOL     OW 5869   1.151   6.406   5.758
 1657SOL    HW1 5870   1.063   6.452   5.757
 1657SOL    HW2 5871   1.183   6.398   5.853
 1658SOL     OW 5872   6.400   0.032   6.526
 1658SOL    HW1 5873   6.401   0.093   6.604
 1658SOL    HW2 5874   6.465   0.064   6.457
 1659SOL     OW 5875   4.286   6.712   6.345
 1659SOL    HW1 5876   4.244   6.797   6.312
 1659SOL    HW2 5877   4.329   6.728   6.434
 1660SOL     OW 5878   2.760   0.529   2.192
 1660SOL    HW1 5879   2.727   0.460   2.257
 1660SOL    HW2 5880   2.684   0.559   2.135
 1661SOL     OW 5881   4.240   4.702   2.627
 1661SOL    HW1 5882   4.227   4.653   2.540
 1661SOL    HW2 5883   4.155   4.748   2.652
 1662SOL     OW 5884   0.177   1.387   5.029
 1662SOL    HW1 5885   0.221   1.299   5.012
 1662SOL    HW2 5886   0.174   1.440   4.944
 1663SOL     OW 5887   4.770   4.832   0.428
 1663SOL    HW1 5888   4.830   4.830   0.508
 1663SOL    HW2 5889   4.739   4.739   0.407
 1664SOL     OW 5890   1.472   6.978   5.867
 1664SOL    HW1 5891   1.405   0.035   5.862
 1664SOL    HW2 5892   1.460   6.918   5.787
 1665SOL     OW 5893   2.494   4.323   0.279
 1665SOL    HW1 5894   2.485   4.250   0.211
 1665SOL    HW2 5895   2.511   4.283   0.369
 1666SOL     OW 5896   5.626   6.612   6.178
 1666SOL    HW1 5897   5.657   6.707   6.176
 1666SOL    HW2 5898   5.556   6.598   6.108
 1667SOL     OW 5899   0.330   6.283   1.331
 1667SOL    HW1 5900   0.387   6.279   1.414
 1667SOL    HW2 5901   0.236   6.306   1.357
 1668SOL     OW 5902   5.344   4.456   3.102
 1668SOL    HW1 5903   5.339   4.555   3.095
 1668SOL    HW2 5904   5.284   4.425   3.177
 1669SOL     OW 5905   6.194   3.646   5.210
 1669SOL    HW1 5906   6.159   3.603   5.293
 1669SOL    HW2 5907   6.156   3.600   5.129
 1670SOL     OW 5908   1.860   4.773   6.571
 1670SOL    HW1 5909   1.804   4.850   6.539
 1670SOL    HW2 5910   1.911   4.800   6.652
 1671SOL     OW 5911   5.734   2.300   1.085
 1671SOL    HW1 5912   5.778   2.322   0.998
 1671SOL    HW2 5913   5.637   2.323   1.080
 1672SOL     OW 5914   0.784   3.802   0.117
 1672SOL    HW1 5915   0.764   3.894   0.085
 1672SOL    HW2 5916   0.744   3.735   0.055
 1673SOL     OW 5917   1.909   0.855   4.627
 1673SOL    HW1 5918   1.947   0.805   4.549
 1673SOL    HW2 5919   1.817   0.888   4.604
 1674SOL     OW 5920   4.763   2.350   2.690
 1674SOL    HW1 5921   4.765   2.250   2.689
 1674SOL    HW2 5922   4.672   2.381   2.716
 1675SOL     OW 5923   5.214   0.818   1.295
 1675SOL    HW1 5924   5.219   0.720   1.273
 1675SOL    HW2 5925   5.121   0.840   1.327
 1676SOL     OW 5926   1.179   2.291   2.625
 1676SOL    HW1 5927   1.181   2.388   2.601
 1676SOL    HW2 5928   1.256   2.271   2.686
 1677SOL     OW 5929   4.024   3.176   3.173
 1677SOL    HW1 5930   4.114   3.210   3.144
 1677SOL    HW2 5931   3.970   3.151   3.093
 1678SOL     OW 5932   0.845   6.997   1.378
 1678SOL    HW1 5933   0.918   0.042   1.408
 1678SOL    HW2 5934   0.846   6.990   1.278
 1679SOL     OW 5935   0.818   2.684   6.111
 1679SOL    HW1 5936   0.727   2.659   6.142
 1679SOL    HW2 5937   0.885   2.658   6.181
 1680SOL     OW 5938   5.023   2.392   4.079
 1680SOL    HW1 5939   5.027   2.314   4.017
 1680SOL    HW2 5940   4.968   2.369   4.159
 1681SOL     OW 5941   2.139   6.153   4.324
 1681SOL    HW1 5942   2.140   6.194   4.415
 1681SOL    HW2 5943   2.087   6.067   4.328
 1682SOL     OW 5944   3.168   6.800   4.163
 1682SOL    HW1 5945   3.086   6.789   4.219
 1682SOL    HW2 5946   3.249   6.775   4.217
 1683SOL     OW 5947   5.977   4.639   2.814
 1683SOL    HW1 5948   6.022   4.698   2.881
 1683SOL    HW2 5949   5.879   4.637   2.832
 1684SOL     OW 5950   2.510   4.519   2.035
 1684SOL    HW1 5951   2.502   4.436   1.979
 1684SOL    HW2 5952   2.593   4.568   2.010
 1685SOL     OW 5953   6.928   1.444   5.110
 1685SOL    HW1 5954   0.009   1.462   5.099
 1685SOL    HW2 5955   6.880   1.470   5.026
 1686SOL     OW 5956   4.947   5.921   2.723
 1686SOL    HW1 5957   4.982   5.851   2.785
 1686SOL    HW2 5958   4.847   5.920   2.727
 1687SOL     OW 5959   5.532   4.179   2.018
 1687SOL    HW1 5960   5.436   4.153   2.003
 1687SOL    HW2 5961   5.566   4.229   1.939
 1688SOL     OW 5962   1.177   1.011   2.624
 1688SOL    HW1 5963   1.161   1.106   2.653
 1688SOL    HW2 5964   1.276   0.995   2.619
 1689SOL     OW 5965   4.407   1.000   1.285
 1689SOL    HW1 5966   4.495   0.954   1.297
 1689SOL    HW2 5967   4.407   1.049   1.198
 1690SOL     OW 5968   0.443   4.040   3.822
 1690SOL    HW1 5969   0.434   4.000   3.914
 1690SOL    HW2 5970   0.429   3.968   3.754
 1691SOL     OW 5971   4.677   2.750   5.274
 1691SOL    HW1 5972   4.577   2.754   5.270
 1691SOL    HW2 5973   4.706   2.670   5.326
 1692SOL     OW 5974   5.385   4.944   0.999
 1692SOL    HW1 5975   5.477   4.919   0.968
 1692SOL    HW2 5976   5.363   5.036   0.967
 1693SOL     OW 5977   5.421   6.905   5.214
 1693SOL    HW1 5978   5.371   6.887   5.129
 1693SOL    HW2 5979   5.417   6.824   5.272
 1694SOL     OW 5980   4.802   1.477   5.387
 1694SOL    HW1 5981   4.801   1.576   5.376
 1694SOL    HW2 5982   4.896   1.444   5.384
 1695SOL     OW 5983   4.352   1.058   6.454
 1695SOL    HW1 5984   4.253   1.057   6.468
 1695SOL    HW2 5985   4.373   1.034   6.359
 1696SOL     OW 5986   5.137   6.244   0.400
 1696SOL    HW1 5987   5.140   6.155   0.444
 1696SOL    HW2 5988   5.097   6.234   0.308
 1697SOL     OW 5989   5.273   2.390   2.324
 1697SOL    HW1 5990   5.349   2.424   2.380
 1697SOL    HW2 5991   5.214   2.332   2.380
 1698SOL     OW 5992   4.282   0.802   1.482
 1698SOL    HW1 5993   4.274   0.881   1.422
 1698SOL    HW2 5994   4.203   0.798   1.543
 1699SOL     OW 5995   2.421   6.866   0.420
 1699SOL    HW1 5996   2.354   6.792   0.419
 1699SOL    HW2 5997   2.401   6.928   0.496
 1700SOL     OW 5998   6.471   2.500   2.664
 1700SOL    HW1 5999   6.419   2.549   2.734
 1700SOL    HW2 6000   6.412   2.482   2.585
 1701SOL     OW 6001   0.208   5.955   5.038
 1701SOL    HW1 6002   0.303   5.933   5.063
 1701SOL    HW2 6003   0.203   5.969   4.939
 1702SOL     OW 6004   1.848   2.414   6.111
 1702SOL    HW1 6005   1.857   2.512   6.130
 1702SOL    HW2 6006   1.882   2.395   6.019
 1703SOL     OW 6007   2.790   2.144   1.075
 1703SOL    HW1 6008   2.881   2.125   1.112
 1703SOL    HW2 6009   2.749   2.220   1.126
 1704SOL     OW 6010   2.989   2.486   0.770
 1704SOL    HW1 6011   3.084   2.504   0.745
 1704SOL    HW2 6012   2.974   2.514   0.864
 1705SOL     OW 6013   3.957   2.148   0.251
 1705SOL    HW1 6014   3.861   2.130   0.274
 1705SOL    HW2 6015   3.985   2.234   0.292
 1706SOL     OW 6016   5.164   2.037   6.916
 1706SOL    HW1 6017   5.212   2.117   6.880
 1706SOL    HW2 6018   5.203   2.013   7.005
 1707SOL     OW 6019   4.282   2.268   2.823
 1707SOL    HW1 6020   4.228   2.268   2.907
 1707SOL    HW2 6021   4.225   2.236   2.747
 1708SOL     OW 6022   3.268   4.919   2.061
 1708SOL    HW1 6023   3.273   4.844   1.995
 1708SOL    HW2 6024   3.357   4.966   2.064
 1709SOL     OW 6025   4.805   4.852   1.005
 1709SOL    HW1 6026   4.868   4.777   1.026
 1709SOL    HW2 6027   4.720   4.814   0.969
 1710SOL     OW 6028   4.664   5.172   3.176
 1710SOL    HW1 6029   4.640   5.251   3.231
 1710SOL    HW2 6030   4.644   5.191   3.079
 1711SOL     OW 6031   4.147   4.365   6.487
 1711SOL    HW1 6032   4.210   4.416   6.428
 1711SOL    HW2 6033   4.110   4.427   6.557
 1712SOL     OW 6034   0.527   1.462   2.877
 1712SOL    HW1 6035   0.449   1.399   2.877
 1712SOL    HW2 6036   0.510   1.536   2.811
 1713SOL     OW 6037   3.979   0.410   3.193
 1713SOL    HW1 6038   4.023   0.321   3.180
 1713SOL    HW2 6039   3.901   0.417   3.131
 1714SOL     OW 6040   3.823   3.696   0.207
 1714SOL    HW1 6041   3.830   3.705   0.306
 1714SOL    HW2 6042   3.912   3.713   0.165
 1715SOL     OW 6043   2.143   6.935   2.262
 1715SOL    HW1 6044   2.050   6.903   2.245
 1715SOL    HW2 6045   2.149   6.970   2.356
 1716SOL     OW 6046   5.251   1.156   3.969
 1716SOL    HW1 6047   5.199   1.080   4.008
 1716SOL    HW2 6048   5.248   1.151   3.869
 1717SOL     OW 6049   3.449   6.398   5.131
 1717SOL    HW1 6050   3.425   6.418   5.036
 1717SOL    HW2 6051   3.543   6.428   5.149
 1718SOL     OW 6052   1.737   2.894   1.734
 1718SOL    HW1 6053   1.775   2.826   1.672
 1718SOL    HW2 6054   1.795   2.976   1.732
 1719SOL     OW 6055   1.554   5.601   2.662
 1719SOL    HW1 6056   1.456   5.620   2.657
 1719SOL    HW2 6057   1.569   5.524   2.725
 1720SOL     OW 6058   0.555   3.126   5.987
 1720SOL    HW1 6059   0.581   3.112   6.083
 1720SOL    HW2 6060   0.487   3.199   5.981
 1721SOL     OW 6061   1.280   2.019   0.721
 1721SOL    HW1 6062   1.350   1.964   0.767
 1721SOL    HW2 6063   1.189   1.986   0.746
 1722SOL     OW 6064   2.393   2.530   3.593
 1722SOL    HW1 6065   2.312   2.472   3.593
 1722SOL    HW2 6066   2.426   2.541   3.687
 1723SOL     OW 6067   5.414   3.452   0.587
 1723SOL    HW1 6068   5.351   3.417   0.657
 1723SOL    HW2 6069   5.444   3.544   0.612
 1724SOL     OW 6070   6.028   2.090   1.472
 1724SOL    HW1 6071   5.963   2.145   1.524
 1724SOL    HW2 6072   6.090   2.043   1.535
 1725SOL     OW 6073   1.448   5.789   6.688
 1725SOL    HW1 6074   1.423   5.874   6.641
 1725SOL    HW2 6075   1.407   5.712   6.640
 1726SOL     OW 6076   5.527   4.217   3.241
 1726SOL    HW1 6077   5.485   4.184   3.156
 1726SOL    HW2 6078   5.525   4.145   3.310
 1727SOL     OW 6079   2.913   3.602   3.870
 1727SOL    HW1 6080   2.891   3.518   3.820
 1727SOL    HW2 6081   2.894   3.681   3.812
 1728SOL     OW 6082   4.924   2.020   4.248
 1728SOL    HW1 6083   4.976   2.023   4.333
 1728SOL    HW2 6084   4.988   2.020   4.170
 1729SOL     OW 6085   1.751   2.990   2.784
 1729SOL    HW1 6086   1.699   2.921   2.734
 1729SOL    HW2 6087   1.689   3.041   2.845
 1730SOL     OW 6088   2.452   5.069   4.680
 1730SOL    HW1 6089   2.487   5.162   4.669
 1730SOL    HW2 6090   2.405   5.062   4.768
 1731SOL     OW 6091   6.096   4.704   3.734
 1731SOL    HW1 6092   6.108   4.804   3.734
 1731SOL    HW2 6093   6.049   4.676   3.817
 1732SOL     OW 6094   2.582   3.823   5.641
 1732SOL    HW1 6095   2.671   3.779   5.657
 1732SOL    HW2 6096   2.547   3.795   5.552
 1733SOL     OW 6097   2.531   3.462   6.186
 1733SOL    HW1 6098   2.471   3.529   6.141
 1733SOL    HW2 6099   2.506   3.456   6.283
 1734SOL     OW 6100   6.957   3.023   1.568
 1734SOL    HW1 6101   7.008   3.070   1.639
 1734SOL    HW2 6102   7.010   2.944   1.536
 1735SOL     OW 6103   4.064   4.723   6.192
 1735SOL    HW1 6104   4.097   4.795   6.131
 1735SOL    HW2 6105   4.032   4.646   6.138
 1736SOL     OW 6106   5.187   3.385   0.748
 1736SOL    HW1 6107   5.216   3.298   0.706
 1736SOL    HW2 6108   5.089   3.399   0.731
 1737SOL     OW 6109   4.416   1.954   5.338
 1737SOL    HW1 6110   4.390   2.024   5.405
 1737SOL    HW2 6111   4.400   1.987   5.246
 1738SOL     OW 6112   1.539   3.440   3.811
 1738SOL    HW1 6113   1.509   3.387   3.732
 1738SOL    HW2 6114   1.571   3.379   3.883
 1739SOL     OW 6115   5.622   0.596   3.799
 1739SOL    HW1 6116   5.605   0.693   3.779
 1739SOL    HW2 6117   5.582   0.539   3.728
 1740SOL     OW 6118   6.382   3.091   4.538
 1740SOL    HW1 6119   6.456   3.134   4.485
 1740SOL    HW2 6120   6.391   2.991   4.534
 1741SOL     OW 6121   0.281   1.823   4.555
 1741SOL    HW1 6122   0.372   1.797   4.587
 1741SOL    HW2 6123   0.279   1.922   4.539
 1742SOL     OW 6124   6.221   5.899   5.996
 1742SOL    HW1 6125   6.144   5.960   5.975
 1742SOL    HW2 6126   6.292   5.909   5.926
 1743SOL     OW 6127   1.442   1.355   2.408
 1743SOL    HW1 6128   1.508   1.292   2.369
 1743SOL    HW2 6129   1.464   1.449   2.381
 1744SOL     OW 6130   3.756   2.053   4.811
 1744SOL    HW1 6131   3.822   1.981   4.834
 1744SOL    HW2 6132   3.712   2.085   4.895
 1745SOL     OW 6133   6.065   6.637   1.175
 1745SOL    HW1 6134   6.027   6.716   1.127
 1745SOL    HW2 6135   6.165   6.637   1.167
 1746SOL     OW 6136   2.256   4.000   3.973
 1746SOL    HW1 6137   2.300   3.954   4.050
 1746SOL    HW2 6138   2.207   3.933   3.918
 1747SOL     OW 6139   4.372   0.203   2.360
 1747SOL    HW1 6140   4.385   0.301   2.378
 1747SOL    HW2 6141   4.276   0.180   2.375
 1748SOL     OW 6142   6.757   2.991   4.989
 1748SOL    HW1 6143   6.723   3.084   4.999
 1748SOL    HW2 6144   6.771   2.951   5.079
 1749SOL     OW 6145   1.170   4.551   1.202
 1749SOL    HW1 6146   1.127   4.502   1.278
 1749SOL    HW2 6147   1.230   4.623   1.239
 1750SOL     OW 6148   3.635   6.976   5.788
 1750SOL    HW1 6149   3.647   0.058   5.784
 1750SOL    HW2 6150   3.545   6.951   5.754
 1751SOL     OW 6151   5.722   2.914   5.052
 1751SOL    HW1 6152   5.660   2.838   5.069
 1751SOL    HW2 6153   5.682   2.976   4.984
 1752SOL     OW 6154   6.883   0.456   2.199
 1752SOL    HW1 6155   6.947   0.498   2.263
 1752SOL    HW2 6156   6.790   0.463   2.236
 1753SOL     OW 6157   6.059   1.759   2.157
 1753SOL    HW1 6158   6.079   1.786   2.063
 1753SOL    HW2 6159   5.991   1.685   2.157
 1754SOL     OW 6160   3.005   5.499   3.770
 1754SOL    HW1 6161   3.089   5.481   3.821
 1754SOL    HW2 6162   2.926   5.475   3.827
 1755SOL     OW 6163   6.265   6.642   4.659
 1755SOL    HW1 6164   6.200   6.613   4.589
 1755SOL    HW2 6165   6.358   6.637   4.622
 1756SOL     OW 6166   5.036   6.903   6.628
 1756SOL    HW1 6167   4.981   6.840   6.683
 1756SOL    HW2 6168   5.007   6.997   6.646
 1757SOL     OW 6169   2.112   5.090   5.352
 1757SOL    HW1 6170   2.046   5.162   5.330
 1757SOL    HW2 6171   2.183   5.087   5.282
 1758SOL     OW 6172   2.104   6.260   4.584
 1758SOL    HW1 6173   2.091   6.327   4.657
 1758SOL    HW2 6174   2.180   6.199   4.609
 1759SOL     OW 6175   1.755   6.745   0.181
 1759SOL    HW1 6176   1.704   6.661   0.200
 1759SOL    HW2 6177   1.842   6.721   0.136
 1760SOL     OW 6178   6.974   0.970   5.108
 1760SOL    HW1 6179   6.980   0.876   5.076
 1760SOL    HW2 6180   6.938   0.971   5.202
 1761SOL     OW 6181   5.680   1.805   2.692
 1761SOL    HW1 6182   5.730   1.784   2.608
 1761SOL    HW2 6183   5.655   1.720   2.738
 1762SOL     OW 6184   0.646   1.760   5.915
 1762SOL    HW1 6185   0.655   1.663   5.937
 1762SOL    HW2 6186   0.561   1.775   5.866
 1763SOL     OW 6187   0.347   3.633   3.897
 1763SOL    HW1 6188   0.302   3.626   3.808
 1763SOL    HW2 6189   0.303   3.705   3.951
 1764SOL     OW 6190   1.507   5.664   3.083
 1764SOL    HW1 6191   1.447   5.726   3.134
 1764SOL    HW2 6192   1.589   5.713   3.054
 1765SOL     OW 6193   5.691   3.522   2.345
 1765SOL    HW1 6194   5.685   3.492   2.250
 1765SOL    HW2 6195   5.763   3.470   2.392
 1766SOL     OW 6196   4.325   4.664   3.922
 1766SOL    HW1 6197   4.293   4.669   4.017
 1766SOL    HW2 6198   4.411   4.714   3.914
 1767SOL     OW 6199   0.414   4.588   2.482
 1767SOL    HW1 6200   0.449   4.574   2.390
 1767SOL    HW2 6201   0.367   4.504   2.513
 1768SOL     OW 6202   5.207   6.304   2.366
 1768SOL    HW1 6203   5.301   6.273   2.352
 1768SOL    HW2 6204   5.145   6.250   2.309
 1769SOL     OW 6205   6.218   0.603   0.465
 1769SOL    HW1 6206   6.172   0.555   0.540
 1769SOL    HW2 6207   6.255   0.690   0.499
 1770SOL     OW 6208   1.829   4.989   0.416
 1770SOL    HW1 6209   1.744   4.963   0.369
 1770SOL    HW2 6210   1.838   5.089   0.414
 1771SOL     OW 6211   1.376   3.198   6.093
 1771SOL    HW1 6212   1.415   3.168   6.006
 1771SOL    HW2 6213   1.305   3.134   6.121
 1772SOL     OW 6214   2.097   4.419   2.853
 1772SOL    HW1 6215   2.149   4.343   2.892
 1772SOL    HW2 6216   2.067   4.394   2.761
 1773SOL     OW 6217   1.592   6.356   6.174
 1773SOL    HW1 6218   1.516   6.292   6.176
 1773SOL    HW2 6219   1.666   6.322   6.231
 1774SOL     OW 6220   5.000   5.491   0.905
 1774SOL    HW1 6221   5.080   5.476   0.964
 1774SOL    HW2 6222   5.025   5.472   0.810
 1775SOL     OW 6223   1.950   5.476   6.704
 1775SOL    HW1 6224   1.860   5.519   6.696
 1775SOL    HW2 6225   1.964   5.414   6.626
 1776SOL     OW 6226   4.312   2.459   5.512
 1776SOL    HW1 6227   4.255   2.482   5.591
 1776SOL    HW2 6228   4.364   2.539   5.484
 1777SOL     OW 6229   4.901   6.650   6.713
 1777SOL    HW1 6230   4.949   6.579   6.661
 1777SOL    HW2 6231   4.877   6.615   6.803
 1778SOL     OW 6232   6.017   0.049   3.868
 1778SOL    HW1 6233   6.052   0.079   3.957
 1778SOL    HW2 6234   5.935   0.101   3.844
 1779SOL     OW 6235   5.576   6.567   4.547
 1779SOL    HW1 6236   5.636   6.638   4.509
 1779SOL    HW2 6237   5.483   6.603   4.555
 1780SOL     OW 6238   2.023   5.363   4.975
 1780SOL    HW1 6239   2.079   5.349   4.893
 1780SOL    HW2 6240   1.933   5.398   4.948
 1781SOL     OW 6241   4.159   0.608   4.537
 1781SOL    HW1 6242   4.100   0.594   4.457
 1781SOL    HW2 6243   4.229   0.675   4.515
 1782SOL     OW 6244   6.673   1.364   2.521
 1782SOL    HW1 6245   6.743   1.355   2.451
 1782SOL    HW2 6246   6.702   1.431   2.589
 1783SOL     OW 6247   2.249   3.733   6.423
 1783SOL    HW1 6248   2.217   3.820   6.460
 1783SOL    HW2 6249   2.349   3.734   6.418
 1784SOL     OW 6250   2.718   6.721   1.481
 1784SOL    HW1 6251   2.770   6.725   1.566
 1784SOL    HW2 6252   2.694   6.814   1.452
 1785SOL     OW 6253   1.640   6.390   4.493
 1785SOL    HW1 6254   1.546   6.361   4.513
 1785SOL    HW2 6255   1.686   6.319   4.439
 1786SOL     OW 6256   1.062   6.535   1.064
 1786SOL    HW1 6257   0.987   6.524   0.999
 1786SOL    HW2 6258   1.025   6.564   1.152
 1787SOL     OW 6259   2.917   3.325   6.791
 1787SOL    HW1 6260   2.920   3.407   6.734
 1787SOL    HW2 6261   2.839   3.269   6.763
 1788SOL     OW 6262   4.722   3.974   0.997
 1788SOL    HW1 6263   4.632   3.974   1.040
 1788SOL    HW2 6264   4.733   3.892   0.942
 1789SOL     OW 6265   5.951   4.060   1.658
 1789SOL    HW1 6266   5.925   4.103   1.744
 1789SOL    HW2 6267   5.940   3.961   1.666
 1790SOL     OW 6268   2.129   1.998   4.483
 1790SOL    HW1 6269   2.207   1.995   4.546
 1790SOL    HW2 6270   2.091   2.090   4.482
 1791SOL     OW 6271   4.837   0.049   3.603
 1791SOL    HW1 6272   4.857   0.075   3.509
 1791SOL    HW2 6273   4.801   6.973   3.605
 1792SOL     OW 6274   0.345   1.834   5.810
 1792SOL    HW1 6275   0.270   1.782   5.851
 1792SOL    HW2 6276   0.312   1.884   5.730
 1793SOL     OW 6277   0.301   0.743   5.773
 1793SOL    HW1 6278   0.223   0.741   5.711
 1793SOL    HW2 6279   0.288   0.675   5.846
 1794SOL     OW 6280   1.276   0.228   6.126
 1794SOL    HW1 6281   1.309   0.134   6.121
 1794SOL    HW2 6282   1.338   0.281   6.185
 1795SOL     OW 6283   5.792   4.749   1.135
 1795SOL    HW1 6284   5.883   4.726   1.171
 1795SOL    HW2 6285   5.753   4.670   1.089
 1796SOL     OW 6286   0.528   0.695   6.732
 1796SOL    HW1 6287   0.514   0.721   6.637
 1796SOL    HW2 6288   0.612   0.737   6.766
 1797SOL     OW 6289   1.853   5.096   6.057
 1797SOL    HW1 6290   1.888   5.036   5.985
 1797SOL    HW2 6291   1.898   5.074   6.143
 1798SOL     OW 6292   2.655   3.799   5.290
 1798SOL    HW1 6293   2.599   3.875   5.258
 1798SOL    HW2 6294   2.598   3.735   5.343
 1799SOL     OW 6295   3.400   1.367   0.911
 1799SOL    HW1 6296   3.387   1.390   0.814
 1799SOL    HW2 6297   3.356   1.437   0.967
 1800SOL     OW 6298   5.509   3.442   5.113
 1800SOL    HW1 6299   5.410   3.446   5.097
 1800SOL    HW2 6300   5.551   3.530   5.089
 1801SOL     OW 6301   1.066   0.712   3.211
 1801SOL    HW1 6302   1.007   0.650   3.263
 1801SOL    HW2 6303   1.077   0.677   3.117
 1802SOL     OW 6304   6.868   4.996   4.078
 1802SOL    HW1 6305   6.804   4.946   4.019
 1802SOL    HW2 6306   6.860   5.094   4.059
 1803SOL     OW 6307   0.459   0.339   3.472
 1803SOL    HW1 6308   0.542   0.394   3.488
 1803SOL    HW2 6309   0.471   0.285   3.388
 1804SOL     OW 6310   2.204   3.190   5.966
 1804SOL    HW1 6311   2.227   3.216   6.060
 1804SOL    HW2 6312   2.287   3.186   5.911
 1805SOL     OW 6313   6.910   5.274   0.675
 1805SOL    HW1 6314   6.997   5.274   0.724
 1805SOL    HW2 6315   6.835   5.280   0.740
 1806SOL     OW 6316   0.427   1.812   1.591
 1806SOL    HW1 6317   0.388   1.722   1.572
 1806SOL    HW2 6318   0.408   1.838   1.685
 1807SOL     OW 6319   0.295   2.534   2.946
 1807SOL    HW1 6320   0.237   2.614   2.931
 1807SOL    HW2 6321   0.381   2.563   2.988
 1808SOL     OW 6322   5.354   2.129   6.211
 1808SOL    HW1 6323   5.329   2.219   6.246
 1808SOL    HW2 6324   5.341   2.127   6.112
 1809SOL     OW 6325   4.703   0.250   4.920
 1809SOL    HW1 6326   4.719   0.159   4.957
 1809SOL    HW2 6327   4.617   0.286   4.956
 1810SOL     OW 6328   1.059   0.464   4.195
 1810SOL    HW1 6329   1.110   0.549   4.177
 1810SOL    HW2 6330   1.003   0.476   4.277
 1811SOL     OW 6331   4.066   5.493   1.352
 1811SOL    HW1 6332   4.114   5.528   1.432
 1811SOL    HW2 6333   4.133   5.464   1.283
 1812SOL     OW 6334   4.526   6.558   6.229
 1812SOL    HW1 6335   4.435   6.580   6.263
 1812SOL    HW2 6336   4.587   6.635   6.242
 1813SOL     OW 6337   4.798   4.460   2.264
 1813SOL    HW1 6338   4.878   4.433   2.211
 1813SOL    HW2 6339   4.763   4.547   2.229
 1814SOL     OW 6340   6.765   6.091   0.208
 1814SOL    HW1 6341   6.854   6.053   0.233
 1814SOL    HW2 6342   6.774   6.141   0.122
 1815SOL     OW 6343   5.292   6.601   1.025
 1815SOL    HW1 6344   5.328   6.643   0.941
 1815SOL    HW2 6345   5.203   6.560   1.006
 1816SOL     OW 6346   3.752   4.822   5.297
 1816SOL    HW1 6347   3.849   4.821   5.322
 1816SOL    HW2 6348   3.738   4.884   5.220
 1817SOL     OW 6349   0.110   2.222   3.977
 1817SOL    HW1 6350   0.057   2.154   4.029
 1817SOL    HW2 6351   0.048   2.276   3.920
 1818SOL     OW 6352   2.777   0.857   0.405
 1818SOL    HW1 6353   2.690   0.889   0.367
 1818SOL    HW2 6354   2.771   0.855   0.505
 1819SOL     OW 6355   1.649   4.907   2.467
 1819SOL    HW1 6356   1.741   4.913   2.506
 1819SOL    HW2 6357   1.657   4.892   2.368
 1820SOL     OW 6358   3.134   6.950   5.201
 1820SOL    HW1 6359   3.189   6.968   5.281
 1820SOL    HW2 6360   3.086   0.016   5.173
 1821SOL     OW 6361   3.720   2.093   2.531
 1821SOL    HW1 6362   3.625   2.122   2.531
 1821SOL    HW2 6363   3.758   2.102   2.439
 1822SOL     OW 6364   7.010   3.416   3.083
 1822SOL    HW1 6365   6.915   3.437   3.108
 1822SOL    HW2 6366   0.001   3.318   3.065
 1823SOL     OW 6367   4.435   6.343   1.844
 1823SOL    HW1 6368   4.360   6.292   1.887
 1823SOL    HW2 6369   4.402   6.434   1.819
 1824SOL     OW 6370   4.272   3.090   1.796
 1824SOL    HW1 6371   4.281   3.189   1.793
 1824SOL    HW2 6372   4.362   3.048   1.781
 1825SOL     OW 6373   1.134   2.211   4.935
 1825SOL    HW1 6374   1.223   2.167   4.923
 1825SOL    HW2 6375   1.081   2.201   4.850
 1826SOL     OW 6376   3.612   2.143   1.669
 1826SOL    HW1 6377   3.528   2.104   1.707
 1826SOL    HW2 6378   3.651   2.208   1.735
 1827SOL     OW 6379   5.584   6.105   0.718
 1827SOL    HW1 6380   5.645   6.062   0.784
 1827SOL    HW2 6381   5.523   6.169   0.765
 1828SOL     OW 6382   1.342   3.409   5.372
 1828SOL    HW1 6383   1.251   3.427   5.411
 1828SOL    HW2 6384   1.346   3.444   5.279
 1829SOL     OW 6385   3.626   0.895   2.508
 1829SOL    HW1 6386   3.587   0.877   2.417
 1829SOL    HW2 6387   3.725   0.908   2.500
 1830SOL     OW 6388   5.245   0.712   5.458
 1830SOL    HW1 6389   5.260   0.724   5.556
 1830SOL    HW2 6390   5.152   0.680   5.442
 1831SOL     OW 6391   3.685   4.722   0.526
 1831SOL    HW1 6392   3.652   4.666   0.602
 1831SOL    HW2 6393   3.630   4.701   0.444
 1832SOL     OW 6394   2.571   2.679   0.099
 1832SOL    HW1 6395   2.537   2.676   0.193
 1832SOL    HW2 6396   2.495   2.691   0.035
 1833SOL     OW 6397   5.879   1.191   6.863
 1833SOL    HW1 6398   5.860   1.268   6.925
 1833SOL    HW2 6399   5.961   1.143   6.895
 1834SOL     OW 6400   0.538   2.751   5.519
 1834SOL    HW1 6401   0.459   2.791   5.565
 1834SOL    HW2 6402   0.519   2.656   5.495
 1835SOL     OW 6403   6.814   6.703   1.701
 1835SOL    HW1 6404   6.829   6.742   1.791
 1835SOL    HW2 6405   6.777   6.611   1.710
 1836SOL     OW 6406   5.348   2.769   2.728
 1836SOL    HW1 6407   5.436   2.760   2.682
 1836SOL    HW2 6408   5.278   2.720   2.676
 1837SOL     OW 6409   2.611   2.084   6.137
 1837SOL    HW1 6410   2.563   2.052   6.219
 1837SOL    HW2 6411   2.545   2.118   6.071
 1838SOL     OW 6412   5.188   1.058   0.670
 1838SOL    HW1 6413   5.216   0.998   0.745
 1838SOL    HW2 6414   5.267   1.111   0.639
 1839SOL     OW 6415   0.341   0.713   0.545
 1839SOL    HW1 6416   0.341   0.618   0.514
 1839SOL    HW2 6417   0.429   0.735   0.588
 1840SOL     OW 6418   4.222   6.183   3.479
 1840SOL    HW1 6419   4.243   6.250   3.550
 1840SOL    HW2 6420   4.138   6.134   3.503
 1841SOL     OW 6421   1.741   0.928   2.178
 1841SOL    HW1 6422   1.693   0.948   2.093
 1841SOL    HW2 6423   1.709   0.989   2.251
 1842SOL     OW 6424   0.897   5.706   0.912
 1842SOL    HW1 6425   0.861   5.618   0.943
 1842SOL    HW2 6426   0.822   5.760   0.873
 1843SOL     OW 6427   2.119   1.097   5.412
 1843SOL    HW1 6428   2.060   1.162   5.363
 1843SOL    HW2 6429   2.087   1.089   5.506
 1844SOL     OW 6430   6.108   2.838   6.079
 1844SOL    HW1 6431   6.062   2.814   5.993
 1844SOL    HW2 6432   6.200   2.800   6.078
 1845SOL     OW 6433   1.337   2.497   2.822
 1845SOL    HW1 6434   1.296   2.521   2.734
 1845SOL    HW2 6435   1.359   2.399   2.823
 1846SOL     OW 6436   3.526   0.919   1.703
 1846SOL    HW1 6437   3.455   0.945   1.637
 1846SOL    HW2 6438   3.491   0.934   1.796
 1847SOL     OW 6439   1.593   5.613   5.458
 1847SOL    HW1 6440   1.555   5.541   5.516
 1847SOL    HW2 6441   1.666   5.660   5.507
 1848SOL     OW 6442   3.586   6.669   3.284
 1848SOL    HW1 6443   3.556   6.760   3.253
 1848SOL    HW2 6444   3.573   6.662   3.383
 1849SOL     OW 6445   4.821   3.014   2.712
 1849SOL    HW1 6446   4.916   2.995   2.735
 1849SOL    HW2 6447   4.807   3.112   2.704
 1850SOL     OW 6448   4.379   1.708   0.942
 1850SOL    HW1 6449   4.288   1.667   0.938
 1850SOL    HW2 6450   4.409   1.733   0.850
 1851SOL     OW 6451   0.102   4.513   4.792
 1851SOL    HW1 6452   0.171   4.551   4.732
 1851SOL    HW2 6453   0.020   4.570   4.789
 1852SOL     OW 6454   0.532   0.149   2.646
 1852SOL    HW1 6455   0.558   0.245   2.652
 1852SOL    HW2 6456   0.449   0.133   2.701
 1853SOL     OW 6457   0.276   2.558   5.775
 1853SOL    HW1 6458   0.337   2.554   5.855
 1853SOL    HW2 6459   0.286   2.646   5.729
 1854SOL     OW 6460   0.973   6.944   3.415
 1854SOL    HW1 6461   0.945   6.918   3.322
 1854SOL    HW2 6462   1.064   6.907   3.434
 1855SOL     OW 6463   5.260   3.130   4.334
 1855SOL    HW1 6464   5.321   3.176   4.399
 1855SOL    HW2 6465   5.166   3.134   4.368
 1856SOL     OW 6466   3.865   3.191   0.642
 1856SOL    HW1 6467   3.956   3.233   0.646
 1856SOL    HW2 6468   3.835   3.169   0.735
 1857SOL     OW 6469   3.998   1.413   6.812
 1857SOL    HW1 6470   3.946   1.371   6.737
 1857SOL    HW2 6471   3.961   1.383   6.899
 1858SOL     OW 6472   4.826   2.371   4.275
 1858SOL    HW1 6473   4.860   2.363   4.368
 1858SOL    HW2 6474   4.741   2.424   4.275
 1859SOL     OW 6475   6.805   1.678   4.306
 1859SOL    HW1 6476   6.850   1.745   4.366
 1859SOL    HW2 6477   6.706   1.689   4.314
 1860SOL     OW 6478   2.130   1.358   6.011
 1860SOL    HW1 6479   2.156   1.262   6.006
 1860SOL    HW2 6480   2.030   1.366   6.007
 1861SOL     OW 6481   6.938   6.549   3.816
 1861SOL    HW1 6482   6.965   6.616   3.747
 1861SOL    HW2 6483   7.001   6.554   3.894
 1862SOL     OW 6484   3.019   5.703   5.387
 1862SOL    HW1 6485   3.085   5.739   5.453
 1862SOL    HW2 6486   2.953   5.774   5.363
 1863SOL     OW 6487   0.089   2.693   0.352
 1863SOL    HW1 6488   0.030   2.692   0.433
 1863SOL    HW2 6489   0.172   2.641   0.372
 1864SOL     OW 6490   3.959   5.582   2.101
 1864SOL    HW1 6491   3.981   5.544   2.012
 1864SOL    HW2 6492   4.034   5.566   2.164
 1865SOL     OW 6493   6.162   2.239   5.442
 1865SOL    HW1 6494   6.211   2.168   5.492
 1865SOL    HW2 6495   6.184   2.329   5.480
 1866SOL     OW 6496   0.682   5.008   3.319
 1866SOL    HW1 6497   0.597   4.958   3.303
 1866SOL    HW2 6498   0.748   4.988   3.246
 1867SOL     OW 6499   0.966   2.567   1.398
 1867SOL    HW1 6500   1.039   2.624   1.435
 1867SOL    HW2 6501   0.879   2.617   1.405
 1868SOL     OW 6502   5.841   3.163   6.911
 1868SOL    HW1 6503   5.811   3.194   6.820
 1868SOL    HW2 6504   5.823   3.235   6.978
 1869SOL     OW 6505   4.741   0.894   4.337
 1869SOL    HW1 6506   4.814   0.927   4.277
 1869SOL    HW2 6507   4.754   0.797   4.355
 1870SOL     OW 6508   6.198   5.959   5.200
 1870SOL    HW1 6509   6.212   5.950   5.299
 1870SOL    HW2 6510   6.218   5.872   5.155
 1871SOL     OW 6511   0.272   6.336   0.013
 1871SOL    HW1 6512   0.202   6.340   0.083
 1871SOL    HW2 6513   0.282   6.241   6.999
 1872SOL     OW 6514   3.125   2.841   1.762
 1872SOL    HW1 6515   3.164   2.823   1.852
 1872SOL    HW2 6516   3.095   2.756   1.721
 1873SOL     OW 6517   6.605   1.338   0.723
 1873SOL    HW1 6518   6.537   1.375   0.786
 1873SOL    HW2 6519   6.594   1.380   0.633
 1874SOL     OW 6520   0.374   5.463   0.750
 1874SOL    HW1 6521   0.302   5.532   0.754
 1874SOL    HW2 6522   0.463   5.506   0.767
 1875SOL     OW 6523   6.661   5.284   0.821
 1875SOL    HW1 6524   6.664   5.239   0.911
 1875SOL    HW2 6525   6.578   5.339   0.814
 1876SOL     OW 6526   0.005   5.451   1.024
 1876SOL    HW1 6527   0.067   5.436   1.101
 1876SOL    HW2 6528   6.971   5.536   1.038
 1877SOL     OW 6529   1.184   1.553   2.268
 1877SOL    HW1 6530   1.101   1.502   2.247
 1877SOL    HW2 6531   1.183   1.581   2.364
 1878SOL     OW 6532   5.423   4.047   4.172
 1878SOL    HW1 6533   5.503   4.014   4.222
 1878SOL    HW2 6534   5.342   3.995   4.200
 1879SOL     OW 6535   4.604   5.978   4.552
 1879SOL    HW1 6536   4.681   5.947   4.496
 1879SOL    HW2 6537   4.567   6.062   4.514
 1880SOL     OW 6538   6.953   2.094   4.363
 1880SOL    HW1 6539   0.026   2.137   4.355
 1880SOL    HW2 6540   6.960   1.997   4.341
 1881SOL     OW 6541   1.638   1.812   4.155
 1881SOL    HW1 6542   1.618   1.715   4.167
 1881SOL    HW2 6543   1.618   1.839   4.061
 1882SOL     OW 6544   1.367   5.407   0.507
 1882SOL    HW1 6545   1.301   5.425   0.434
 1882SOL    HW2 6546   1.325   5.429   0.595
 1883SOL     OW 6547   1.507   2.696   2.941
 1883SOL    HW1 6548   1.550   2.727   2.856
 1883SOL    HW2 6549   1.431   2.634   2.920
 1884SOL     OW 6550   4.134   0.871   0.170
 1884SOL    HW1 6551   4.056   0.821   0.132
 1884SOL    HW2 6552   4.176   0.925   0.097
 1885SOL     OW 6553   0.063   1.792   0.979
 1885SOL    HW1 6554   0.144   1.814   0.924
 1885SOL    HW2 6555   0.068   1.696   1.008
 1886SOL     OW 6556   3.169   2.251   5.836
 1886SOL    HW1 6557   3.129   2.248   5.928
 1886SOL    HW2 6558   3.248   2.189   5.832
 1887SOL     OW 6559   0.928   6.627   5.017
 1887SOL    HW1 6560   0.890   6.671   4.936
 1887SOL    HW2 6561   0.932   6.693   5.092
 1888SOL     OW 6562   1.641   2.052   5.377
 1888SOL    HW1 6563   1.552   2.018   5.347
 1888SOL    HW2 6564   1.677   2.114   5.307
 1889SOL     OW 6565   3.454   3.064   6.844
 1889SOL    HW1 6566   3.400   2.982   6.859
 1889SOL    HW2 6567   3.507   3.054   6.760
 1890SOL     OW 6568   6.640   5.841   0.023
 1890SOL    HW1 6569   6.569   5.771   0.016
 1890SOL    HW2 6570   6.728   5.798   0.043
 1891SOL     OW 6571   5.241   3.541   6.344
 1891SOL    HW1 6572   5.313   3.607   6.322
 1891SOL    HW2 6573   5.221   3.486   6.263
 1892SOL     OW 6574   4.280   6.935   1.714
 1892SOL    HW1 6575   4.338   6.883   1.651
 1892SOL    HW2 6576   4.210   6.874   1.752
 1893SOL     OW 6577   3.153   1.611   5.035
 1893SOL    HW1 6578   3.070   1.644   5.079
 1893SOL    HW2 6579   3.134   1.524   4.988
 1894SOL     OW 6580   4.319   3.399   0.965
 1894SOL    HW1 6581   4.321   3.417   0.867
 1894SOL    HW2 6582   4.400   3.439   1.008
 1895SOL     OW 6583   4.356   0.282   3.376
 1895SOL    HW1 6584   4.448   0.317   3.389
 1895SOL    HW2 6585   4.293   0.328   3.439
 1896SOL     OW 6586   6.162   2.395   5.775
 1896SOL    HW1 6587   6.147   2.299   5.751
 1896SOL    HW2 6588   6.169   2.449   5.692
 1897SOL     OW 6589   5.675   5.145   3.555
 1897SOL    HW1 6590   5.673   5.067   3.492
 1897SOL    HW2 6591   5.587   5.191   3.554
 1898SOL     OW 6592   5.684   6.633   6.771
 1898SOL    HW1 6593   5.623   6.635   6.692
 1898SOL    HW2 6594   5.758   6.568   6.754
 1899SOL     OW 6595   1.337   1.972   3.217
 1899SOL    HW1 6596   1.394   2.054   3.217
 1899SOL    HW2 6597   1.260   1.984   3.279
 1900SOL     OW 6598   2.442   6.003   0.868
 1900SOL    HW1 6599   2.531   6.049   0.859
 1900SOL    HW2 6600   2.451   5.908   0.840
 1901SOL     OW 6601   1.359   1.576   6.255
 1901SOL    HW1 6602   1.268   1.571   6.214
 1901SOL    HW2 6603   1.423   1.614   6.188
 1902SOL     OW 6604   1.826   2.499   5.505
 1902SOL    HW1 6605   1.795   2.420   5.559
 1902SOL    HW2 6606   1.900   2.545   5.554
 1903SOL     OW 6607   6.592   4.515   3.909
 1903SOL    HW1 6608   6.545   4.427   3.913
 1903SOL    HW2 6609   6.535   4.585   3.952
 1904SOL     OW 6610   0.880   0.604   4.439
 1904SOL    HW1 6611   0.815   0.679   4.449
 1904SOL    HW2 6612   0.881   0.549   4.523
 1905SOL     OW 6613   6.275   3.387   4.278
 1905SOL    HW1 6614   6.210   3.311   4.283
 1905SOL    HW2 6615   6.343   3.368   4.208
 1906SOL     OW 6616   2.671   6.521   0.136
 1906SOL    HW1 6617   2.708   6.508   0.229
 1906SOL    HW2 6618   2.680   6.617   0.110
 1907SOL     OW 6619   3.412   6.105   3.310
 1907SOL    HW1 6620   3.455   6.025   3.267
 1907SOL    HW2 6621   3.328   6.076   3.357
 1908SOL     OW 6622   4.884   0.766   0.040
 1908SOL    HW1 6623   4.830   0.824   0.102
 1908SOL    HW2 6624   4.888   0.809   6.967
 1909SOL     OW 6625   4.097   5.032   4.688
 1909SOL    HW1 6626   4.156   4.962   4.646
 1909SOL    HW2 6627   4.149   5.081   4.758
 1910SOL     OW 6628   5.093   2.625   4.808
 1910SOL    HW1 6629   5.129   2.641   4.900
 1910SOL    HW2 6630   5.002   2.583   4.815
 1911SOL     OW 6631   7.008   3.906   6.235
 1911SOL    HW1 6632   6.975   3.879   6.145
 1911SOL    HW2 6633   6.931   3.914   6.298
 1912SOL     OW 6634   3.099   6.005   3.279
 1912SOL    HW1 6635   3.044   6.077   3.320
 1912SOL    HW2 6636   3.095   5.922   3.335
 1913SOL     OW 6637   1.594   4.416   5.137
 1913SOL    HW1 6638   1.553   4.490   5.191
 1913SOL    HW2 6639   1.566   4.425   5.042
 1914SOL     OW 6640   4.312   1.479   5.500
 1914SOL    HW1 6641   4.363   1.396   5.482
 1914SOL    HW2 6642   4.292   1.525   5.413
 1915SOL     OW 6643   3.811   0.523   5.263
 1915SOL    HW1 6644   3.827   0.560   5.172
 1915SOL    HW2 6645   3.739   0.576   5.308
 1916SOL     OW 6646   3.901   6.356   1.648
 1916SOL    HW1 6647   3.893   6.402   1.559
 1916SOL    HW2 6648   3.931   6.422   1.717
 1917SOL     OW 6649   3.681   3.027   4.397
 1917SOL    HW1 6650   3.692   2.967   4.318
 1917SOL    HW2 6651   3.649   2.974   4.475
 1918SOL     OW 6652   5.780   6.310   4.298
 1918SOL    HW1 6653   5.737   6.231   4.342
 1918SOL    HW2 6654   5.802   6.379   4.368
 1919SOL     OW 6655   6.548   6.725   2.026
 1919SOL    HW1 6656   6.504   6.637   2.006
 1919SOL    HW2 6657   6.647   6.715   2.016
 1920SOL     OW 6658   6.960   6.002   4.074
 1920SOL    HW1 6659   7.013   6.054   4.007
 1920SOL    HW2 6660   6.862   6.018   4.059
 1921SOL     OW 6661   1.023   0.083   6.195
 1921SOL    HW1 6662   0.941   0.130   6.228
 1921SOL    HW2 6663   1.104   0.123   6.238
 1922SOL     OW 6664   3.600   4.370   1.068
 1922SOL    HW1 6665   3.560   4.293   1.119
 1922SOL    HW2 6666   3.570   4.456   1.110
 1923SOL     OW 6667   1.854   2.349   0.540
 1923SOL    HW1 6668   1.897   2.437   0.557
 1923SOL    HW2 6669   1.910   2.297   0.476
 1924SOL     OW 6670   0.872   3.703   2.047
 1924SOL    HW1 6671   0.970   3.713   2.032
 1924SOL    HW2 6672   0.854   3.624   2.105
 1925SOL     OW 6673   3.266   4.160   0.445
 1925SOL    HW1 6674   3.335   4.147   0.374
 1925SOL    HW2 6675   3.176   4.169   0.403
 1926SOL     OW 6676   0.669   0.527   3.679
 1926SOL    HW1 6677   0.755   0.530   3.629
 1926SOL    HW2 6678   0.681   0.473   3.763
 1927SOL     OW 6679   4.085   3.718   0.094
 1927SOL    HW1 6680   4.177   3.683   0.109
 1927SOL    HW2 6681   4.090   3.815   0.072
 1928SOL     OW 6682   6.823   4.895   5.432
 1928SOL    HW1 6683   6.910   4.858   5.464
 1928SOL    HW2 6684   6.747   4.847   5.477
 1929SOL     OW 6685   1.536   6.911   3.101
 1929SOL    HW1 6686   1.571   6.957   3.020
 1929SOL    HW2 6687   1.512   6.816   3.078
 1930SOL     OW 6688   6.494   5.019   6.917
 1930SOL    HW1 6689   6.495   4.924   6.946
 1930SOL    HW2 6690   6.557   5.032   6.840
 1931SOL     OW 6691   0.794   2.529   5.144
 1931SOL    HW1 6692   0.710   2.477   5.155
 1931SOL    HW2 6693   0.802   2.560   5.050
 1932SOL     OW 6694   5.627   3.116   2.425
 1932SOL    HW1 6695   5.699   3.143   2.362
 1932SOL    HW2 6696   5.562   3.192   2.436
 1933SOL     OW 6697   2.701   4.433   1.394
 1933SOL    HW1 6698   2.609   4.471   1.383
 1933SOL    HW2 6699   2.726   4.433   1.491
 1934SOL     OW 6700   0.380   6.010   4.273
 1934SOL    HW1 6701   0.459   5.961   4.237
 1934SOL    HW2 6702   0.353   5.970   4.361
 1935SOL     OW 6703   2.565   0.683   4.084
 1935SOL    HW1 6704   2.612   0.722   4.164
 1935SOL    HW2 6705   2.592   0.733   4.002
 1936SOL     OW 6706   6.511   5.844   5.937
 1936SOL    HW1 6707   6.523   5.924   5.878
 1936SOL    HW2 6708   6.500   5.763   5.880
 1937SOL     OW 6709   4.134   6.835   2.115
 1937SOL    HW1 6710   4.058   6.897   2.135
 1937SOL    HW2 6711   4.099   6.743   2.097
 1938SOL     OW 6712   5.299   0.361   3.840
 1938SOL    HW1 6713   5.296   0.323   3.747
 1938SOL    HW2 6714   5.243   0.444   3.843
 1939SOL     OW 6715   2.403   0.394   3.180
 1939SOL    HW1 6716   2.413   0.352   3.271
 1939SOL    HW2 6717   2.493   0.399   3.137
 1940SOL     OW 6718   6.876   5.383   0.021
 1940SOL    HW1 6719   6.786   5.387   0.065
 1940SOL    HW2 6720   6.867   5.339   6.949
 1941SOL     OW 6721   4.946   5.116   3.231
 1941SOL    HW1 6722   5.037   5.143   3.199
 1941SOL    HW2 6723   4.877   5.149   3.167
 1942SOL     OW 6724   6.192   5.345   3.115
 1942SOL    HW1 6725   6.261   5.381   3.052
 1942SOL    HW2 6726   6.169   5.415   3.182
 1943SOL     OW 6727   3.348   5.432   2.800
 1943SOL    HW1 6728   3.434   5.403   2.757
 1943SOL    HW2 6729   3.291   5.352   2.816
 1944SOL     OW 6730   6.811   1.042   1.936
 1944SOL    HW1 6731   6.783   1.107   2.007
 1944SOL    HW2 6732   6.778   0.951   1.959
 1945SOL     OW 6733   2.931   5.178   4.119
 1945SOL    HW1 6734   2.862   5.130   4.065
 1945SOL    HW2 6735   2.962   5.120   4.194
 1946SOL     OW 6736   1.991   0.305   0.014
 1946SOL    HW1 6737   1.939   0.390   0.012
 1946SOL    HW2 6738   1.952   0.243   0.083
 1947SOL     OW 6739   5.423   6.510   4.199
 1947SOL    HW1 6740   5.349   6.443   4.189
 1947SOL    HW2 6741   5.384   6.602   4.200
 1948SOL     OW 6742   6.261   3.851   5.636
 1948SOL    HW1 6743   6.176   3.798   5.639
 1948SOL    HW2 6744   6.249   3.930   5.576
 1949SOL     OW 6745   5.533   4.128   6.616
 1949SOL    HW1 6746   5.496   4.082   6.535
 1949SOL    HW2 6747   5.469   4.118   6.692
 1950SOL     OW 6748   3.365   3.653   0.668
 1950SOL    HW1 6749   3.446   3.600   0.689
 1950SOL    HW2 6750   3.294   3.634   0.736
 1951SOL     OW 6751   6.732   2.203   6.938
 1951SOL    HW1 6752   6.645   2.225   6.895
 1951SOL    HW2 6753   6.724   2.117   6.988
 1952SOL     OW 6754   3.574   1.869   5.524
 1952SOL    HW1 6755   3.629   1.950   5.549
 1952SOL    HW2 6756   3.502   1.897   5.461
 1953SOL     OW 6757   0.268   3.566   5.615
 1953SOL    HW1 6758   0.331   3.565   5.693
 1953SOL    HW2 6759   0.288   3.488   5.556
 1954SOL     OW 6760   2.666   2.002   3.616
 1954SOL    HW1 6761   2.612   2.038   3.692
 1954SOL    HW2 6762   2.754   2.050   3.612
 1955SOL     OW 6763   6.640   5.753   2.602
 1955SOL    HW1 6764   6.710   5.815   2.638
 1955SOL    HW2 6765   6.557   5.805   2.580
 1956SOL     OW 6766   6.003   6.243   2.356
 1956SOL    HW1 6767   5.950   6.211   2.435
 1956SOL    HW2 6768   6.014   6.342   2.362
 1957SOL     OW 6769   0.846   6.815   5.188
 1957SOL    HW1 6770   0.793   6.875   5.128
 1957SOL    HW2 6771   0.826   6.837   5.284
 1958SOL     OW 6772   5.087   3.621   5.624
 1958SOL    HW1 6773   5.052   3.541   5.673
 1958SOL    HW2 6774   5.021   3.649   5.554
 1959SOL     OW 6775   1.395   2.211   6.383
 1959SOL    HW1 6776   1.447   2.199   6.468
 1959SOL    HW2 6777   1.389   2.122   6.336
 1960SOL     OW 6778   5.488   6.517   1.427
 1960SOL    HW1 6779   5.477   6.419   1.410
 1960SOL    HW2 6780   5.480   6.536   1.525
 1961SOL     OW 6781   5.917   5.049   3.943
 1961SOL    HW1 6782   5.834   5.056   3.887
 1961SOL    HW2 6783   5.923   5.127   4.005
 1962SOL     OW 6784   6.871   6.650   3.079
 1962SOL    HW1 6785   6.863   6.586   3.156
 1962SOL    HW2 6786   6.804   6.627   3.009
 1963SOL     OW 6787   1.727   0.311   2.702
 1963SOL    HW1 6788   1.815   0.285   2.741
 1963SOL    HW2 6789   1.726   0.410   2.685
 1964SOL     OW 6790   5.803   3.715   2.721
 1964SOL    HW1 6791   5.882   3.654   2.732
 1964SOL    HW2 6792   5.781   3.722   2.623
 1965SOL     OW 6793   2.284   5.246   3.679
 1965SOL    HW1 6794   2.297   5.148   3.660
 1965SOL    HW2 6795   2.230   5.287   3.606
 1966SOL     OW 6796   6.155   5.489   5.378
 1966SOL    HW1 6797   6.076   5.550   5.380
 1966SOL    HW2 6798   6.163   5.441   5.466
 1967SOL     OW 6799   4.713   2.217   4.889
 1967SOL    HW1 6800   4.761   2.170   4.963
 1967SOL    HW2 6801   4.626   2.253   4.924
 1968SOL     OW 6802   3.147   5.333   6.132
 1968SOL    HW1 6803   3.181   5.275   6.206
 1968SOL    HW2 6804   3.213   5.334   6.057
 1969SOL     OW 6805   6.554   2.634   1.352
 1969SOL    HW1 6806   6.644   2.674   1.372
 1969SOL    HW2 6807   6.484   2.685   1.401
 1970SOL     OW 6808   1.815   0.049   3.487
 1970SOL    HW1 6809   1.849   0.079   3.577
 1970SOL    HW2 6810   1.736   7.005   3.500
 1971SOL     OW 6811   0.449   6.363   6.646
 1971SOL    HW1 6812   0.431   6.445   6.700
 1971SOL    HW2 6813   0.363   6.320   6.621
 1972SOL     OW 6814   0.872   4.907   3.691
 1972SOL    HW1 6815   0.787   4.858   3.712
 1972SOL    HW2 6816   0.881   4.986   3.751
 1973SOL     OW 6817   2.813   2.975   0.424
 1973SOL    HW1 6818   2.854   2.889   0.454
 1973SOL    HW2 6819   2.713   2.969   0.430
 1974SOL     OW 6820   5.730   0.676   4.187
 1974SOL    HW1 6821   5.647   0.635   4.224
 1974SOL    HW2 6822   5.707   0.738   4.112
 1975SOL     OW 6823   3.491   0.503   3.234
 1975SOL    HW1 6824   3.485   0.580   3.298
 1975SOL    HW2 6825   3.556   0.524   3.161
 1976SOL     OW 6826   0.020   4.997   0.330
 1976SOL    HW1 6827   0.099   5.057   0.319
 1976SOL    HW2 6828   6.966   5.044   0.382
 1977SOL     OW 6829   1.983   2.817   5.125
 1977SOL    HW1 6830   1.921   2.894   5.113
 1977SOL    HW2 6831   2.024   2.821   5.216
 1978SOL     OW 6832   0.013   1.473   4.771
 1978SOL    HW1 6833   6.965   1.499   4.842
 1978SOL    HW2 6834   0.062   1.554   4.739
 1979SOL     OW 6835   5.696   5.062   3.795
 1979SOL    HW1 6836   5.621   5.087   3.856
 1979SOL    HW2 6837   5.668   5.077   3.700
 1980SOL     OW 6838   4.113   0.229   1.217
 1980SOL    HW1 6839   4.144   0.273   1.301
 1980SOL    HW2 6840   4.064   0.295   1.160
 1981SOL     OW 6841   4.635   3.124   1.676
 1981SOL    HW1 6842   4.645   3.072   1.760
 1981SOL    HW2 6843   4.579   3.073   1.611
 1982SOL     OW 6844   5.521   6.492   4.791
 1982SOL    HW1 6845   5.525   6.496   4.691
 1982SOL    HW2 6846   5.548   6.581   4.828
 1983SOL     OW 6847   0.546   3.627   3.280
 1983SOL    HW1 6848   0.646   3.624   3.280
 1983SOL    HW2 6849   0.515   3.719   3.258
 1984SOL     OW 6850   4.315   0.295   5.855
 1984SOL    HW1 6851   4.393   0.262   5.908
 1984SOL    HW2 6852   4.257   0.352   5.913
 1985SOL     OW 6853   1.266   0.604   1.601
 1985SOL    HW1 6854   1.177   0.616   1.645
 1985SOL    HW2 6855   1.272   0.663   1.521
 1986SOL     OW 6856   1.095   1.434   6.153
 1986SOL    HW1 6857   1.157   1.379   6.097
 1986SOL    HW2 6858   1.051   1.376   6.222
 1987SOL     OW 6859   3.120   2.909   6.661
 1987SOL    HW1 6860   3.154   2.890   6.569
 1987SOL    HW2 6861   3.106   3.007   6.672
 1988SOL     OW 6862   4.636   2.948   0.734
 1988SOL    HW1 6863   4.573   2.871   0.723
 1988SOL    HW2 6864   4.648   2.968   0.831
 1989SOL     OW 6865   2.488   0.044   4.294
 1989SOL    HW1 6866   2.435   0.053   4.209
 1989SOL    HW2 6867   2.488   0.131   4.343
 1990SOL     OW 6868   2.504   0.648   1.981
 1990SOL    HW1 6869   2.450   0.598   2.049
 1990SOL    HW2 6870   2.472   0.743   1.976
 1991SOL     OW 6871   3.610   5.390   4.664
 1991SOL    HW1 6872   3.643   5.365   4.573
 1991SOL    HW2 6873   3.671   5.458   4.704
 1992SOL     OW 6874   2.193   6.697   5.360
 1992SOL    HW1 6875   2.209   6.720   5.456
 1992SOL    HW2 6876   2.278   6.662   5.320
 1993SOL     OW 6877   3.642   3.260   5.326
 1993SOL    HW1 6878   3.653   3.258   5.227
 1993SOL    HW2 6879   3.617   3.352   5.356
 1994SOL     OW 6880   6.197   2.552   1.963
 1994SOL    HW1 6881   6.297   2.559   1.961
 1994SOL    HW2 6882   6.163   2.534   1.871
 1995SOL     OW 6883   5.336   2.397   1.821
 1995SOL    HW1 6884   5.431   2.377   1.844
 1995SOL    HW2 6885   5.275   2.337   1.873
 1996SOL     OW 6886   3.173   4.302   0.019
 1996SOL    HW1 6887   3.187   4.399   7.016
 1996SOL    HW2 6888   3.217   4.246   6.966
 1997SOL     OW 6889   5.547   0.853   3.737
 1997SOL    HW1 6890   5.547   0.923   3.666
 1997SOL    HW2 6891   5.553   0.897   3.827
 1998SOL     OW 6892   3.035   4.839   5.051
 1998SOL    HW1 6893   3.037   4.903   5.127
 1998SOL    HW2 6894   3.004   4.749   5.083
 1999SOL     OW 6895   2.042   0.884   1.908
 1999SOL    HW1 6896   2.014   0.926   1.994
 1999SOL    HW2 6897   2.075   0.791   1.926
 2000SOL     OW 6898   3.913   2.101   5.242
 2000SOL    HW1 6899   3.838   2.073   5.183
 2000SOL    HW2 6900   3.983   2.147   5.187
 2001SOL     OW 6901   2.844   2.841   0.777
 2001SOL    HW1 6902   2.925   2.897   0.792
 2001SOL    HW2 6903   2.846   2.805   0.683
 2002SOL     OW 6904   1.877   4.766   5.041
 2002SOL    HW1 6905   1.899   4.863   5.046
 2002SOL    HW2 6906   1.852   4.732   5.131
 2003SOL     OW 6907   6.532   5.894   3.908
 2003SOL    HW1 6908   6.485   5.816   3.949
 2003SOL    HW2 6909   6.509   5.899   3.810
 2004SOL     OW 6910   3.137   0.839   5.562
 2004SOL    HW1 6911   3.229   0.857   5.527
 2004SOL    HW2 6912   3.128   0.741   5.581
 2005SOL     OW 6913   2.431   6.066   6.069
 2005SOL    HW1 6914   2.442   6.156   6.028
 2005SOL    HW2 6915   2.356   6.018   6.023
 2006SOL     OW 6916   3.900   4.875   3.976
 2006SOL    HW1 6917   3.814   4.924   3.970
 2006SOL    HW2 6918   3.906   4.828   4.064
 2007SOL     OW 6919   5.624   5.845   0.548
 2007SOL    HW1 6920   5.705   5.809   0.502
 2007SOL    HW2 6921   5.652   5.887   0.635
 2008SOL     OW 6922   0.506   5.832   4.024
 2008SOL    HW1 6923   0.594   5.787   4.042
 2008SOL    HW2 6924   0.433   5.764   4.024
 2009SOL     OW 6925   0.358   0.229   2.056
 2009SOL    HW1 6926   0.405   0.292   1.995
 2009SOL    HW2 6927   0.409   0.143   2.060
 2010SOL     OW 6928   1.462   0.358   0.700
 2010SOL    HW1 6929   1.521   0.387   0.625
 2010SOL    HW2 6930   1.444   0.435   0.760
 2011SOL     OW 6931   0.158   2.189   5.305
 2011SOL    HW1 6932   0.098   2.180   5.385
 2011SOL    HW2 6933   0.217   2.108   5.299
 2012SOL     OW 6934   1.119   3.769   1.132
 2012SOL    HW1 6935   1.109   3.694   1.198
 2012SOL    HW2 6936   1.197   3.752   1.073
 2013SOL     OW 6937   4.861   1.617   2.186
 2013SOL    HW1 6938   4.917   1.660   2.258
 2013SOL    HW2 6939   4.818   1.689   2.131
 2014SOL     OW 6940   2.504   5.746   2.615
 2014SOL    HW1 6941   2.527   5.842   2.596
 2014SOL    HW2 6942   2.418   5.742   2.666
 2015SOL     OW 6943   3.663   6.805   6.552
 2015SOL    HW1 6944   3.654   6.745   6.631
 2015SOL    HW2 6945   3.758   6.835   6.543
 2016SOL     OW 6946   0.242   5.275   4.554
 2016SOL    HW1 6947   0.179   5.335   4.602
 2016SOL    HW2 6948   0.224   5.180   4.581
 2017SOL     OW 6949   3.238   5.841   2.510
 2017SOL    HW1 6950   3.237   5.817   2.607
 2017SOL    HW2 6951   3.286   5.770   2.458
 2018SOL     OW 6952   0.777   5.510   5.787
 2018SOL    HW1 6953   0.791   5.432   5.725
 2018SOL    HW2 6954   0.866   5.552   5.808
 2019SOL     OW 6955   6.023   1.725   2.450
 2019SOL    HW1 6956   5.926   1.702   2.449
 2019SOL    HW2 6957   6.048   1.764   2.361
 2020SOL     OW 6958   2.790   6.057   3.020
 2020SOL    HW1 6959   2.806   6.088   2.927
 2020SOL    HW2 6960   2.719   5.986   3.020
 2021SOL     OW 6961   1.121   0.292   2.129
 2021SOL    HW1 6962   1.041   0.294   2.068
 2021SOL    HW2 6963   1.096   0.332   2.217
 2022SOL     OW 6964   1.800   3.702   1.842
 2022SOL    HW1 6965   1.793   3.629   1.774
 2022SOL    HW2 6966   1.872   3.679   1.908
 2023SOL     OW 6967   6.735   0.945   5.677
 2023SOL    HW1 6968   6.675   0.876   5.638
 2023SOL    HW2 6969   6.685   0.998   5.746
 2024SOL     OW 6970   5.888   0.960   3.514
 2024SOL    HW1 6971   5.952   0.953   3.438
 2024SOL    HW2 6972   5.856   0.869   3.539
 2025SOL     OW 6973   6.975   1.264   1.467
 2025SOL    HW1 6974   0.002   1.178   1.491
 2025SOL    HW2 6975   6.889   1.246   1.421
 2026SOL     OW 6976   1.937   1.705   5.489
 2026SOL    HW1 6977   1.869   1.735   5.422
 2026SOL    HW2 6978   2.021   1.679   5.442
 2027SOL     OW 6979   0.929   1.327   3.053
 2027SOL    HW1 6980   0.911   1.293   3.145
 2027SOL    HW2 6981   0.886   1.265   2.986
 2028SOL     OW 6982   4.242   3.112   6.915
 2028SOL    HW1 6983   4.281   3.203   6.912
 2028SOL    HW2 6984   4.173   3.107   6.987
 2029SOL     OW 6985   1.247   0.653   0.287
 2029SOL    HW1 6986   1.307   0.613   0.218
 2029SOL    HW2 6987   1.187   0.721   0.244
 2030SOL     OW 6988   2.031   1.063   3.327
 2030SOL    HW1 6989   2.010   1.090   3.421
 2030SOL    HW2 6990   2.051   0.965   3.324
 2031SOL     OW 6991   5.671   6.945   2.215
 2031SOL    HW1 6992   5.721   6.884   2.154
 2031SOL    HW2 6993   5.667   6.905   2.306
 2032SOL     OW 6994   5.235   6.679   1.325
 2032SOL    HW1 6995   5.216   6.651   1.231
 2032SOL    HW2 6996   5.302   6.616   1.365
 2033SOL     OW 6997   6.001   5.134   6.838
 2033SOL    HW1 6998   6.043   5.215   6.797
 2033SOL    HW2 6999   5.947   5.161   6.918
 2034SOL     OW 7000   2.166   7.011   2.510
 2034SOL    HW1 7001   2.103   6.977   2.580
 2034SOL    HW2 7002   2.160   0.094   2.505
 2035SOL     OW 7003   1.177   2.769   2.408
 2035SOL    HW1 7004   1.097   2.717   2.380
 2035SOL    HW2 7005   1.148   2.845   2.467
 2036SOL     OW 7006   1.981   4.386   0.781
 2036SOL    HW1 7007   1.895   4.436   0.792
 2036SOL    HW2 7008   1.968   4.313   0.714
 2037SOL     OW 7009   0.064   1.373   6.064
 2037SOL    HW1 7010   0.017   1.462   6.062
 2037SOL    HW2 7011   0.152   1.381   6.019
 2038SOL     OW 7012   0.893   0.771   4.109
 2038SOL    HW1 7013   0.867   0.835   4.181
 2038SOL    HW2 7014   0.824   0.699   4.102
 2039SOL     OW 7015   0.550   5.593   2.458
 2039SOL    HW1 7016   0.625   5.660   2.465
 2039SOL    HW2 7017   0.512   5.576   2.549
 2040SOL     OW 7018   4.159   3.347   4.614
 2040SOL    HW1 7019   4.104   3.321   4.693
 2040SOL    HW2 7020   4.253   3.315   4.628
 2041SOL     OW 7021   6.293   4.020   5.874
 2041SOL    HW1 7022   6.244   3.951   5.927
 2041SOL    HW2 7023   6.295   3.993   5.778
 2042SOL     OW 7024   4.258   5.208   6.664
 2042SOL    HW1 7025   4.338   5.264   6.685
 2042SOL    HW2 7026   4.285   5.112   6.660
 2043SOL     OW 7027   5.393   4.616   1.986
 2043SOL    HW1 7028   5.385   4.703   1.937
 2043SOL    HW2 7029   5.340   4.546   1.939
 2044SOL     OW 7030   6.438   0.294   1.941
 2044SOL    HW1 7031   6.372   0.364   1.969
 2044SOL    HW2 7032   6.389   0.212   1.913
 2045SOL     OW 7033   2.138   5.215   5.971
 2045SOL    HW1 7034   2.155   5.249   5.878
 2045SOL    HW2 7035   2.040   5.198   5.982
 2046SOL     OW 7036   6.423   6.957   4.951
 2046SOL    HW1 7037   6.436   6.983   4.855
 2046SOL    HW2 7038   6.420   6.857   4.958
 2047SOL     OW 7039   5.720   2.534   0.391
 2047SOL    HW1 7040   5.699   2.632   0.393
 2047SOL    HW2 7041   5.818   2.521   0.377
 2048SOL     OW 7042   4.697   6.957   5.581
 2048SOL    HW1 7043   4.606   6.998   5.580
 2048SOL    HW2 7044   4.766   0.011   5.567
 2049SOL     OW 7045   4.802   0.381   0.619
 2049SOL    HW1 7046   4.731   0.434   0.666
 2049SOL    HW2 7047   4.772   0.361   0.526
 2050SOL     OW 7048   5.436   2.190   3.923
 2050SOL    HW1 7049   5.379   2.252   3.870
 2050SOL    HW2 7050   5.532   2.218   3.914
 2051SOL     OW 7051   1.784   5.590   0.607
 2051SOL    HW1 7052   1.846   5.514   0.620
 2051SOL    HW2 7053   1.723   5.571   0.530
 2052SOL     OW 7054   0.861   3.106   0.935
 2052SOL    HW1 7055   0.779   3.064   0.974
 2052SOL    HW2 7056   0.844   3.130   0.840
 2053SOL     OW 7057   5.990   0.736   0.362
 2053SOL    HW1 7058   6.062   0.670   0.382
 2053SOL    HW2 7059   6.013   0.787   0.279
 2054SOL     OW 7060   5.967   2.595   0.960
 2054SOL    HW1 7061   5.926   2.684   0.939
 2054SOL    HW2 7062   6.047   2.607   1.018
 2055SOL     OW 7063   5.536   2.652   4.289
 2055SOL    HW1 7064   5.473   2.704   4.347
 2055SOL    HW2 7065   5.517   2.555   4.297
 2056SOL     OW 7066   1.871   0.696   3.389
 2056SOL    HW1 7067   1.799   0.707   3.457
 2056SOL    HW2 7068   1.840   0.733   3.301
 2057SOL     OW 7069   0.052   3.053   3.963
 2057SOL    HW1 7070   0.139   3.042   3.915
 2057SOL    HW2 7071   0.070   3.069   4.060
 2058SOL     OW 7072   6.746   2.537   2.300
 2058SOL    HW1 7073   6.799   2.569   2.379
 2058SOL    HW2 7074   6.693   2.456   2.326
 2059SOL     OW 7075   1.594   1.529   6.749
 2059SOL    HW1 7076   1.589   1.555   6.845
 2059SOL    HW2 7077   1.684   1.489   6.730
 2060SOL     OW 7078   0.905   5.393   2.440
 2060SOL    HW1 7079   0.813   5.378   2.405
 2060SOL    HW2 7080   0.906   5.380   2.539
 2061SOL     OW 7081   6.346   1.753   1.794
 2061SOL    HW1 7082   6.297   1.677   1.752
 2061SOL    HW2 7083   6.382   1.725   1.883
 2062SOL     OW 7084   4.780   0.510   3.215
 2062SOL    HW1 7085   4.737   0.430   3.256
 2062SOL    HW2 7086   4.745   0.523   3.122
 2063SOL     OW 7087   2.246   2.607   6.301
 2063SOL    HW1 7088   2.170   2.553   6.337
 2063SOL    HW2 7089   2.211   2.689   6.256
 2064SOL     OW 7090   1.020   2.799   0.355
 2064SOL    HW1 7091   1.013   2.736   0.433
 2064SOL    HW2 7092   1.073   2.756   0.282
 2065SOL     OW 7093   6.230   3.956   1.356
 2065SOL    HW1 7094   6.276   3.935   1.442
 2065SOL    HW2 7095   6.132   3.938   1.366
 2066SOL     OW 7096   1.261   6.997   4.348
 2066SOL    HW1 7097   1.293   6.911   4.308
 2066SOL    HW2 7098   1.307   0.056   4.303
 2067SOL     OW 7099   6.542   0.254   1.316
 2067SOL    HW1 7100   6.539   0.279   1.413
 2067SOL    HW2 7101   6.632   0.277   1.278
 2068SOL     OW 7102   1.722   1.767   5.311
 2068SOL    HW1 7103   1.658   1.691   5.320
 2068SOL    HW2 7104   1.671   1.853   5.312
 2069SOL     OW 7105   0.623   2.473   2.034
 2069SOL    HW1 7106   0.689   2.410   2.076
 2069SOL    HW2 7107   0.646   2.486   1.938
 2070SOL     OW 7108   1.061   0.842   2.812
 2070SOL    HW1 7109   1.148   0.812   2.851
 2070SOL    HW2 7110   1.079   0.896   2.730
 2071SOL     OW 7111   1.335   6.744   4.195
 2071SOL    HW1 7112   1.308   6.741   4.099
 2071SOL    HW2 7113   1.345   6.651   4.230
 2072SOL     OW 7114   4.776   5.338   1.308
 2072SOL    HW1 7115   4.871   5.327   1.277
 2072SOL    HW2 7116   4.736   5.419   1.266
 2073SOL     OW 7117   2.579   6.462   6.136
 2073SOL    HW1 7118   2.484   6.456   6.164
 2073SOL    HW2 7119   2.637   6.477   6.216
 2074SOL     OW 7120   5.788   1.609   2.177
 2074SOL    HW1 7121   5.756   1.661   2.099
 2074SOL    HW2 7122   5.774   1.511   2.161
 2075SOL     OW 7123   4.951   3.286   0.187
 2075SOL    HW1 7124   4.980   3.206   0.239
 2075SOL    HW2 7125   4.951   3.264   0.090
 2076SOL     OW 7126   5.039   0.197   1.142
 2076SOL    HW1 7127   5.110   0.141   1.100
 2076SOL    HW2 7128   5.082   0.259   1.208
 2077SOL     OW 7129   5.569   1.131   2.659
 2077SOL    HW1 7130   5.614   1.206   2.707
 2077SOL    HW2 7131   5.632   1.054   2.650
 2078SOL     OW 7132   3.224   5.116   5.802
 2078SOL    HW1 7133   3.279   5.079   5.727
 2078SOL    HW2 7134   3.246   5.067   5.887
 2079SOL     OW 7135   5.583   0.941   3.987
 2079SOL    HW1 7136   5.681   0.951   3.970
 2079SOL    HW2 7137   5.544   1.028   4.016
 2080SOL     OW 7138   2.617   2.512   4.507
 2080SOL    HW1 7139   2.654   2.427   4.544
 2080SOL    HW2 7140   2.553   2.551   4.572
 2081SOL     OW 7141   0.388   6.621   5.532
 2081SOL    HW1 7142   0.290   6.614   5.551
 2081SOL    HW2 7143   0.402   6.634   5.433
 2082SOL     OW 7144   5.518   0.790   1.577
 2082SOL    HW1 7145   5.498   0.826   1.668
 2082SOL    HW2 7146   5.435   0.789   1.522
 2083SOL     OW 7147   3.732   5.258   6.056
 2083SOL    HW1 7148   3.739   5.185   6.124
 2083SOL    HW2 7149   3.659   5.321   6.082
 2084SOL     OW 7150   0.274   2.813   3.334
 2084SOL    HW1 7151   0.265   2.889   3.269
 2084SOL    HW2 7152   0.184   2.790   3.371
 2085SOL     OW 7153   5.479   0.417   5.808
 2085SOL    HW1 7154   5.410   0.393   5.876
 2085SOL    HW2 7155   5.506   0.336   5.757
 2086SOL     OW 7156   3.095   5.007   0.692
 2086SOL    HW1 7157   3.025   4.936   0.687
 2086SOL    HW2 7158   3.156   4.988   0.770
 2087SOL     OW 7159   5.050   6.738   3.625
 2087SOL    HW1 7160   5.107   6.799   3.569
 2087SOL    HW2 7161   5.095   6.649   3.632
 2088SOL     OW 7162   3.289   0.156   0.832
 2088SOL    HW1 7163   3.199   0.189   0.804
 2088SOL    HW2 7164   3.351   0.233   0.842
 2089SOL     OW 7165   4.226   0.471   6.665
 2089SOL    HW1 7166   4.305   0.533   6.668
 2089SOL    HW2 7167   4.142   0.525   6.664
 2090SOL     OW 7168   3.900   3.501   4.779
 2090SOL    HW1 7169   3.941   3.543   4.699
 2090SOL    HW2 7170   3.938   3.410   4.793
 2091SOL     OW 7171   2.109   4.469   1.278
 2091SOL    HW1 7172   2.110   4.379   1.321
 2091SOL    HW2 7173   2.141   4.462   1.184
 2092SOL     OW 7174   6.707   6.767   1.003
 2092SOL    HW1 7175   6.747   6.732   1.087
 2092SOL    HW2 7176   6.767   6.836   0.963
 2093SOL     OW 7177   0.965   2.824   1.643
 2093SOL    HW1 7178   0.977   2.842   1.741
 2093SOL    HW2 7179   1.045   2.777   1.608
 2094SOL     OW 7180   5.717   0.094   2.001
 2094SOL    HW1 7181   5.651   0.167   1.985
 2094SOL    HW2 7182   5.688   0.038   2.079
 2095SOL     OW 7183   5.906   5.437   4.947
 2095SOL    HW1 7184   6.004   5.451   4.935
 2095SOL    HW2 7185   5.881   5.455   5.042
 2096SOL     OW 7186   4.955   3.907   2.648
 2096SOL    HW1 7187   4.975   3.924   2.551
 2096SOL    HW2 7188   4.986   3.816   2.673
 2097SOL     OW 7189   0.147   2.339   6.873
 2097SOL    HW1 7190   0.076   2.410   6.862
 2097SOL    HW2 7191   0.237   2.382   6.866
 2098SOL     OW 7192   4.745   0.043   4.168
 2098SOL    HW1 7193   4.756   6.970   4.126
 2098SOL    HW2 7194   4.738   0.113   4.097
 2099SOL     OW 7195   3.068   1.656   4.476
 2099SOL    HW1 7196   3.110   1.619   4.560
 2099SOL    HW2 7197   3.014   1.584   4.432
 2100SOL     OW 7198   4.479   4.162   6.360
 2100SOL    HW1 7199   4.481   4.172   6.261
 2100SOL    HW2 7200   4.573   4.159   6.394
 2101SOL     OW 7201   0.412   6.932   3.790
 2101SOL    HW1 7202   0.337   6.966   3.734
 2101SOL    HW2 7203   0.396   6.836   3.813
 2102SOL     OW 7204   0.053   4.961   2.937
 2102SOL    HW1 7205   0.096   5.004   2.858
 2102SOL    HW2 7206   0.088   4.868   2.947
 2103SOL     OW 7207   3.491   3.675   6.197
 2103SOL    HW1 7208   3.503   3.756   6.254
 2103SOL    HW2 7209   3.427   3.696   6.123
 2104SOL     OW 7210   1.550   3.560   5.445
 2104SOL    HW1 7211   1.459   3.518   5.447
 2104SOL    HW2 7212   1.615   3.495   5.406
 2105SOL     OW 7213   5.823   5.797   1.622
 2105SOL    HW1 7214   5.880   5.844   1.691
 2105SOL    HW2 7215   5.873   5.792   1.536
 2106SOL     OW 7216   4.744   5.597   6.878
 2106SOL    HW1 7217   4.835   5.570   6.846
 2106SOL    HW2 7218   4.728   5.558   6.969
 2107SOL     OW 7219   4.205   4.346   5.960
 2107SOL    HW1 7220   4.284   4.355   6.020
 2107SOL    HW2 7221   4.231   4.372   5.867
 2108SOL     OW 7222   5.760   5.051   6.115
 2108SOL    HW1 7223   5.715   4.964   6.097
 2108SOL    HW2 7224   5.855   5.034   6.142
 2109SOL     OW 7225   5.784   6.582   2.708
 2109SOL    HW1 7226   5.765   6.588   2.611
 2109SOL    HW2 7227   5.818   6.490   2.730
 2110SOL     OW 7228   2.443   4.328   6.186
 2110SOL    HW1 7229   2.371   4.290   6.244
 2110SOL    HW2 7230   2.408   4.408   6.138
 2111SOL     OW 7231   1.398   3.073   0.283
 2111SOL    HW1 7232   1.302   3.077   0.311
 2111SOL    HW2 7233   1.457   3.075   0.364
 2112SOL     OW 7234   4.752   3.000   1.461
 2112SOL    HW1 7235   4.754   2.902   1.480
 2112SOL    HW2 7236   4.742   3.050   1.547
 2113SOL     OW 7237   0.615   0.481   2.879
 2113SOL    HW1 7238   0.589   0.573   2.911
 2113SOL    HW2 7239   0.543   0.446   2.819
 2114SOL     OW 7240   2.247   3.795   6.836
 2114SOL    HW1 7241   2.213   3.754   6.921
 2114SOL    HW2 7242   2.329   3.747   6.806
 2115SOL     OW 7243   2.259   4.795   2.297
 2115SOL    HW1 7244   2.315   4.731   2.351
 2115SOL    HW2 7245   2.280   4.783   2.200
 2116SOL     OW 7246   0.304   4.204   3.184
 2116SOL    HW1 7247   0.211   4.183   3.154
 2116SOL    HW2 7248   0.316   4.174   3.279
 2117SOL     OW 7249   0.246   4.689   0.961
 2117SOL    HW1 7250   0.277   4.630   0.886
 2117SOL    HW2 7251   0.324   4.722   1.012
 2118SOL     OW 7252   0.247   4.014   1.933
 2118SOL    HW1 7253   0.346   4.002   1.948
 2118SOL    HW2 7254   0.198   3.990   2.017
 2119SOL     OW 7255   2.493   6.146   1.351
 2119SOL    HW1 7256   2.589   6.119   1.350
 2119SOL    HW2 7257   2.441   6.087   1.289
 2120SOL     OW 7258   6.595   4.679   2.332
 2120SOL    HW1 7259   6.537   4.754   2.364
 2120SOL    HW2 7260   6.664   4.658   2.401
 2121SOL     OW 7261   0.285   5.660   4.998
 2121SOL    HW1 7262   0.284   5.744   4.944
 2121SOL    HW2 7263   0.327   5.677   5.087
 2122SOL     OW 7264   4.576   4.408   4.803
 2122SOL    HW1 7265   4.655   4.365   4.847
 2122SOL    HW2 7266   4.511   4.438   4.873
 2123SOL     OW 7267   6.161   4.484   3.107
 2123SOL    HW1 7268   6.257   4.471   3.134
 2123SOL    HW2 7269   6.156   4.550   3.032
 2124SOL     OW 7270   2.054   2.038   0.758
 2124SOL    HW1 7271   1.981   2.106   0.750
 2124SOL    HW2 7272   2.126   2.059   0.691
 2125SOL     OW 7273   2.930   0.146   0.545
 2125SOL    HW1 7274   2.922   0.129   0.447
 2125SOL    HW2 7275   2.839   0.152   0.586
 2126SOL     OW 7276   2.648   0.861   6.807
 2126SOL    HW1 7277   2.696   0.817   6.883
 2126SOL    HW2 7278   2.679   0.822   6.721
 2127SOL     OW 7279   5.672   3.220   4.629
 2127SOL    HW1 7280   5.698   3.283   4.702
 2127SOL    HW2 7281   5.696   3.126   4.655
 2128SOL     OW 7282   0.402   4.920   4.050
 2128SOL    HW1 7283   0.433   4.834   4.010
 2128SOL    HW2 7284   0.302   4.923   4.051
 2129SOL     OW 7285   4.036   1.601   5.715
 2129SOL    HW1 7286   3.966   1.600   5.786
 2129SOL    HW2 7287   4.072   1.694   5.705
 2130SOL     OW 7288   4.245   6.361   2.309
 2130SOL    HW1 7289   4.286   6.448   2.333
 2130SOL    HW2 7290   4.316   6.292   2.297
 2131SOL     OW 7291   6.953   1.442   0.174
 2131SOL    HW1 7292   0.004   1.378   0.210
 2131SOL    HW2 7293   6.960   1.445   0.074
 2132SOL     OW 7294   1.651   3.407   0.634
 2132SOL    HW1 7295   1.711   3.482   0.665
 2132SOL    HW2 7296   1.690   3.365   0.552
 2133SOL     OW 7297   2.669   2.729   6.192
 2133SOL    HW1 7298   2.607   2.729   6.114
 2133SOL    HW2 7299   2.731   2.651   6.186
 2134SOL     OW 7300   1.058   0.391   0.301
 2134SOL    HW1 7301   1.020   0.484   0.308
 2134SOL    HW2 7302   1.157   0.395   0.310
 2135SOL     OW 7303   0.576   3.692   4.125
 2135SOL    HW1 7304   0.584   3.741   4.038
 2135SOL    HW2 7305   0.569   3.594   4.108
 2136SOL     OW 7306   2.340   5.784   1.604
 2136SOL    HW1 7307   2.429   5.823   1.626
 2136SOL    HW2 7308   2.340   5.687   1.626
 2137SOL     OW 7309   2.430   6.031   4.041
 2137SOL    HW1 7310   2.358   5.966   4.017
 2137SOL    HW2 7311   2.389   6.118   4.069
 2138SOL     OW 7312   5.507   2.012   2.619
 2138SOL    HW1 7313   5.548   2.100   2.597
 2138SOL    HW2 7314   5.578   1.943   2.630
 2139SOL     OW 7315   2.643   1.204   5.547
 2139SOL    HW1 7316   2.696   1.163   5.622
 2139SOL    HW2 7317   2.697   1.200   5.463
 2140SOL     OW 7318   2.353   1.455   5.164
 2140SOL    HW1 7319   2.397   1.423   5.248
 2140SOL    HW2 7320   2.269   1.505   5.187
 2141SOL     OW 7321   6.374   4.452   2.552
 2141SOL    HW1 7322   6.274   4.450   2.560
 2141SOL    HW2 7323   6.399   4.460   2.455
 2142SOL     OW 7324   2.131   1.296   3.225
 2142SOL    HW1 7325   2.056   1.338   3.173
 2142SOL    HW2 7326   2.100   1.209   3.263
 2143SOL     OW 7327   1.543   4.443   0.662
 2143SOL    HW1 7328   1.489   4.499   0.599
 2143SOL    HW2 7329   1.612   4.500   0.706
 2144SOL     OW 7330   6.496   6.009   4.197
 2144SOL    HW1 7331   6.423   5.943   4.182
 2144SOL    HW2 7332   6.556   6.012   4.117
 2145SOL     OW 7333   4.258   6.978   3.666
 2145SOL    HW1 7334   4.284   6.969   3.570
 2145SOL    HW2 7335   4.224   0.054   3.682
 2146SOL     OW 7336   2.034   3.144   0.909
 2146SOL    HW1 7337   2.100   3.076   0.876
 2146SOL    HW2 7338   1.973   3.102   0.976
 2147SOL     OW 7339   5.636   1.365   5.198
 2147SOL    HW1 7340   5.590   1.337   5.283
 2147SOL    HW2 7341   5.569   1.366   5.123
 2148SOL     OW 7342   0.425   2.985   6.868
 2148SOL    HW1 7343   0.325   2.983   6.874
 2148SOL    HW2 7344   0.463   2.910   6.921
 2149SOL     OW 7345   0.499   0.420   6.742
 2149SOL    HW1 7346   0.416   0.374   6.710
 2149SOL    HW2 7347   0.503   0.512   6.704
 2150SOL     OW 7348   2.142   3.371   1.430
 2150SOL    HW1 7349   2.232   3.394   1.392
 2150SOL    HW2 7350   2.096   3.305   1.371
 2151SOL     OW 7351   1.414   5.796   0.184
 2151SOL    HW1 7352   1.453   5.836   0.267
 2151SOL    HW2 7353   1.436   5.698   0.181
 2152SOL     OW 7354   3.956   6.076   3.514
 2152SOL    HW1 7355   3.858   6.067   3.501
 2152SOL    HW2 7356   3.978   6.067   3.612
 2153SOL     OW 7357   4.919   1.159   3.947
 2153SOL    HW1 7358   4.983   1.112   3.887
 2153SOL    HW2 7359   4.875   1.233   3.897
 2154SOL     OW 7360   2.977   6.714   3.200
 2154SOL    HW1 7361   2.946   6.791   3.144
 2154SOL    HW2 7362   3.069   6.734   3.236
 2155SOL     OW 7363   4.907   6.699   1.261
 2155SOL    HW1 7364   4.857   6.660   1.338
 2155SOL    HW2 7365   4.884   6.796   1.252
 2156SOL     OW 7366   6.172   1.552   3.914
 2156SOL    HW1 7367   6.110   1.536   3.836
 2156SOL    HW2 7368   6.182   1.467   3.965
 2157SOL     OW 7369   3.666   5.381   3.821
 2157SOL    HW1 7370   3.620   5.306   3.772
 2157SOL    HW2 7371   3.612   5.464   3.813
 2158SOL     OW 7372   3.378   0.558   0.148
 2158SOL    HW1 7373   3.447   0.543   0.219
 2158SOL    HW2 7374   3.287   0.543   0.186
 2159SOL     OW 7375   1.498   0.498   5.626
 2159SOL    HW1 7376   1.523   0.546   5.711
 2159SOL    HW2 7377   1.548   0.539   5.549
 2160SOL     OW 7378   5.629   6.330   0.465
 2160SOL    HW1 7379   5.658   6.249   0.413
 2160SOL    HW2 7380   5.693   6.405   0.448
 2161SOL     OW 7381   1.747   2.111   2.502
 2161SOL    HW1 7382   1.661   2.072   2.470
 2161SOL    HW2 7383   1.732   2.204   2.535
 2162SOL     OW 7384   1.253   7.013   2.294
 2162SOL    HW1 7385   1.279   0.028   2.203
 2162SOL    HW2 7386   1.213   0.072   2.346
 2163SOL     OW 7387   1.667   3.124   2.152
 2163SOL    HW1 7388   1.658   3.028   2.124
 2163SOL    HW2 7389   1.671   3.182   2.071
 2164SOL     OW 7390   1.826   2.587   2.607
 2164SOL    HW1 7391   1.924   2.580   2.627
 2164SOL    HW2 7392   1.813   2.605   2.510
 2165SOL     OW 7393   6.984   1.765   4.120
 2165SOL    HW1 7394   6.903   1.745   4.175
 2165SOL    HW2 7395   0.049   1.736   4.170
 2166SOL     OW 7396   6.817   4.022   2.982
 2166SOL    HW1 7397   6.832   3.947   2.918
 2166SOL    HW2 7398   6.725   4.016   3.020
 2167SOL     OW 7399   2.181   2.209   4.129
 2167SOL    HW1 7400   2.224   2.177   4.214
 2167SOL    HW2 7401   2.085   2.228   4.146
 2168SOL     OW 7402   1.877   1.466   3.092
 2168SOL    HW1 7403   1.875   1.415   3.006
 2168SOL    HW2 7404   1.879   1.564   3.073
 2169SOL     OW 7405   0.310   0.661   1.679
 2169SOL    HW1 7406   0.249   0.738   1.700
 2169SOL    HW2 7407   0.365   0.639   1.760
 2170SOL     OW 7408   0.930   4.449   5.409
 2170SOL    HW1 7409   1.014   4.401   5.435
 2170SOL    HW2 7410   0.854   4.384   5.409
 2171SOL     OW 7411   0.630   5.131   1.049
 2171SOL    HW1 7412   0.568   5.100   1.121
 2171SOL    HW2 7413   0.578   5.155   0.967
 2172SOL     OW 7414   1.033   1.602   4.980
 2172SOL    HW1 7415   1.090   1.668   5.029
 2172SOL    HW2 7416   0.964   1.651   4.927
 2173SOL     OW 7417   5.568   0.312   4.889
 2173SOL    HW1 7418   5.634   0.337   4.960
 2173SOL    HW2 7419   5.496   0.380   4.885
 2174SOL     OW 7420   0.083   6.613   5.208
 2174SOL    HW1 7421   0.019   6.655   5.272
 2174SOL    HW2 7422   0.175   6.613   5.247
 2175SOL     OW 7423   3.154   3.684   5.349
 2175SOL    HW1 7424   3.068   3.668   5.301
 2175SOL    HW2 7425   3.161   3.780   5.375
 2176SOL     OW 7426   5.570   2.218   1.424
 2176SOL    HW1 7427   5.600   2.123   1.419
 2176SOL    HW2 7428   5.489   2.230   1.367
 2177SOL     OW 7429   0.275   0.355   3.668
 2177SOL    HW1 7430   0.357   0.357   3.611
 2177SOL    HW2 7431   0.238   0.447   3.677
 2178SOL     OW 7432   1.000   2.048   2.401
 2178SOL    HW1 7433   0.942   2.116   2.447
 2178SOL    HW2 7434   0.949   1.963   2.391
 2179SOL     OW 7435   2.046   3.982   6.104
 2179SOL    HW1 7436   2.034   4.078   6.132
 2179SOL    HW2 7437   2.142   3.967   6.081
 2180SOL     OW 7438   0.700   5.801   2.111
 2180SOL    HW1 7439   0.748   5.863   2.050
 2180SOL    HW2 7440   0.756   5.720   2.127
 2181SOL     OW 7441   3.891   4.896   4.831
 2181SOL    HW1 7442   3.947   4.972   4.798
 2181SOL    HW2 7443   3.932   4.857   4.914
 2182SOL     OW 7444   0.183   5.650   2.653
 2182SOL    HW1 7445   0.165   5.595   2.734
 2182SOL    HW2 7446   0.166   5.595   2.571
 2183SOL     OW 7447   3.814   2.742   0.072
 2183SOL    HW1 7448   3.727   2.695   0.086
 2183SOL    HW2 7449   3.844   2.728   6.995
 2184SOL     OW 7450   6.212   0.817   6.735
 2184SOL    HW1 7451   6.289   0.825   6.797
 2184SOL    HW2 7452   6.189   0.720   6.723
 2185SOL     OW 7453   0.717   0.991   6.966
 2185SOL    HW1 7454   0.775   1.051   6.912
 2185SOL    HW2 7455   0.623   0.996   6.932
 2186SOL     OW 7456   6.965   5.374   5.437
 2186SOL    HW1 7457   6.935   5.289   5.395
 2186SOL    HW2 7458   6.996   5.438   5.366
 2187SOL     OW 7459   0.752   5.460   3.251
 2187SOL    HW1 7460   0.785   5.546   3.213
 2187SOL    HW2 7461   0.661   5.440   3.214
 2188SOL     OW 7462   2.184   0.381   0.843
 2188SOL    HW1 7463   2.178   0.454   0.911
 2188SOL    HW2 7464   2.101   0.325   0.847
 2189SOL     OW 7465   2.872   1.191   1.247
 2189SOL    HW1 7466   2.829   1.143   1.323
 2189SOL    HW2 7467   2.960   1.228   1.276
 2190SOL     OW 7468   6.099   4.186   2.544
 2190SOL    HW1 7469   6.082   4.284   2.553
 2190SOL    HW2 7470   6.184   4.172   2.492
 2191SOL     OW 7471   2.752   0.703   0.012
 2191SOL    HW1 7472   2.819   0.651   6.976
 2191SOL    HW2 7473   2.663   0.657   0.007
 2192SOL     OW 7474   4.466   1.043   1.556
 2192SOL    HW1 7475   4.561   1.053   1.527
 2192SOL    HW2 7476   4.425   0.966   1.507
 2193SOL     OW 7477   1.107   6.755   6.626
 2193SOL    HW1 7478   1.124   6.767   6.723
 2193SOL    HW2 7479   1.193   6.764   6.576
 2194SOL     OW 7480   0.886   4.122   6.254
 2194SOL    HW1 7481   0.848   4.169   6.174
 2194SOL    HW2 7482   0.812   4.076   6.304
 2195SOL     OW 7483   0.355   4.157   6.467
 2195SOL    HW1 7484   0.282   4.112   6.518
 2195SOL    HW2 7485   0.428   4.183   6.530
 2196SOL     OW 7486   2.786   6.250   5.791
 2196SOL    HW1 7487   2.854   6.177   5.797
 2196SOL    HW2 7488   2.832   6.336   5.768
 2197SOL     OW 7489   2.743   5.069   5.659
 2197SOL    HW1 7490   2.805   5.014   5.715
 2197SOL    HW2 7491   2.710   5.146   5.713
 2198SOL     OW 7492   0.421   0.829   6.504
 2198SOL    HW1 7493   0.338   0.782   6.534
 2198SOL    HW2 7494   0.412   0.927   6.520
 2199SOL     OW 7495   4.115   6.779   4.116
 2199SOL    HW1 7496   4.118   6.849   4.045
 2199SOL    HW2 7497   4.022   6.775   4.155
 2200SOL     OW 7498   2.600   1.583   4.379
 2200SOL    HW1 7499   2.515   1.534   4.400
 2200SOL    HW2 7500   2.590   1.632   4.292
 2201SOL     OW 7501   6.415   4.276   4.046
 2201SOL    HW1 7502   6.374   4.199   4.093
 2201SOL    HW2 7503   6.456   4.245   3.960
 2202SOL     OW 7504   3.957   5.904   1.979
 2202SOL    HW1 7505   3.917   5.907   2.071
 2202SOL    HW2 7506   3.924   5.982   1.926
 2203SOL     OW 7507   2.189   3.281   1.103
 2203SOL    HW1 7508   2.134   3.256   1.023
 2203SOL    HW2 7509   2.172   3.377   1.126
 2204SOL     OW 7510   4.568   3.034   0.987
 2204SOL    HW1 7511   4.584   2.980   1.070
 2204SOL    HW2 7512   4.474   3.067   0.987
 2205SOL     OW 7513   0.918   4.918   0.271
 2205SOL    HW1 7514   0.908   4.867   0.356
 2205SOL    HW2 7515   0.915   5.016   0.289
 2206SOL     OW 7516   2.781   2.360   6.430
 2206SOL    HW1 7517   2.809   2.455   6.423
 2206SOL    HW2 7518   2.683   2.352   6.411
 2207SOL     OW 7519   4.825   6.118   0.302
 2207SOL    HW1 7520   4.817   6.095   0.205
 2207SOL    HW2 7521   4.794   6.212   0.317
 2208SOL     OW 7522   0.855   6.147   4.055
 2208SOL    HW1 7523   0.893   6.068   4.104
 2208SOL    HW2 7524   0.764   6.125   4.021
 2209SOL     OW 7525   3.223   5.575   4.657
 2209SOL    HW1 7526   3.238   5.480   4.684
 2209SOL    HW2 7527   3.145   5.612   4.708
 2210SOL     OW 7528   4.824   6.309   1.049
 2210SOL    HW1 7529   4.837   6.342   1.142
 2210SOL    HW2 7530   4.728   6.284   1.035
 2211SOL     OW 7531   6.525   1.225   1.068
 2211SOL    HW1 7532   6.599   1.170   1.029
 2211SOL    HW2 7533   6.559   1.275   1.148
 2212SOL     OW 7534   2.255   6.151   6.825
 2212SOL    HW1 7535   2.355   6.141   6.832
 2212SOL    HW2 7536   2.219   6.179   6.914
 2213SOL     OW 7537   3.220   2.167   4.230
 2213SOL    HW1 7538   3.125   2.195   4.237
 2213SOL    HW2 7539   3.255   2.145   4.321
 2214SOL     OW 7540   3.955   2.965   6.176
 2214SOL    HW1 7541   3.878   2.995   6.232
 2214SOL    HW2 7542   3.925   2.956   6.081
 2215SOL     OW 7543   4.449   0.274   6.863
 2215SOL    HW1 7544   4.487   0.337   6.794
 2215SOL    HW2 7545   4.449   0.319   6.952
 2216SOL     OW 7546   0.694   6.887   6.205
 2216SOL    HW1 7547   0.622   6.863   6.139
 2216SOL    HW2 7548   0.665   6.859   6.296
 2217SOL     OW 7549   3.984   0.612   2.689
 2217SOL    HW1 7550   3.964   0.536   2.751
 2217SOL    HW2 7551   3.985   0.698   2.741
 2218SOL     OW 7552   0.419   5.461   5.698
 2218SOL    HW1 7553   0.466   5.395   5.757
 2218SOL    HW2 7554   0.341   5.417   5.654
 2219SOL     OW 7555   5.401   1.321   0.423
 2219SOL    HW1 7556   5.388   1.420   0.418
 2219SOL    HW2 7557   5.333   1.276   0.364
 2220SOL     OW 7558   0.679   6.281   5.623
 2220SOL    HW1 7559   0.623   6.362   5.640
 2220SOL    HW2 7560   0.738   6.264   5.702
 2221SOL     OW 7561   6.829   1.422   4.157
 2221SOL    HW1 7562   6.798   1.429   4.062
 2221SOL    HW2 7563   6.822   1.511   4.201
 2222SOL     OW 7564   4.719   6.176   1.290
 2222SOL    HW1 7565   4.685   6.110   1.223
 2222SOL    HW2 7566   4.722   6.133   1.380
 2223SOL     OW 7567   6.615   6.673   5.722
 2223SOL    HW1 7568   6.535   6.669   5.661
 2223SOL    HW2 7569   6.588   6.642   5.813
 2224SOL     OW 7570   5.643   3.767   0.329
 2224SOL    HW1 7571   5.652   3.849   0.272
 2224SOL    HW2 7572   5.567   3.711   0.295
 2225SOL     OW 7573   0.536   6.855   3.167
 2225SOL    HW1 7574   0.579   6.891   3.084
 2225SOL    HW2 7575   0.566   6.909   3.246
 2226SOL     OW 7576   2.412   4.955   0.733
 2226SOL    HW1 7577   2.378   4.869   0.772
 2226SOL    HW2 7578   2.349   5.029   0.756
 2227SOL     OW 7579   4.223   2.266   1.991
 2227SOL    HW1 7580   4.152   2.238   2.056
 2227SOL    HW2 7581   4.211   2.363   1.968
 2228SOL     OW 7582   4.821   5.154   0.071
 2228SOL    HW1 7583   4.823   5.232   0.133
 2228SOL    HW2 7584   4.797   5.186   6.996
 2229SOL     OW 7585   3.607   3.380   4.622
 2229SOL    HW1 7586   3.643   3.446   4.556
 2229SOL    HW2 7587   3.516   3.410   4.652
 2230SOL     OW 7588   5.412   6.392   0.641
 2230SOL    HW1 7589   5.469   6.340   0.576
 2230SOL    HW2 7590   5.443   6.487   0.643
 2231SOL     OW 7591   0.953   0.643   0.184
 2231SOL    HW1 7592   0.907   0.653   0.096
 2231SOL    HW2 7593   0.896   0.682   0.256
 2232SOL     OW 7594   1.462   0.238   5.652
 2232SOL    HW1 7595   1.382   0.203   5.701
 2232SOL    HW2 7596   1.455   0.338   5.644
 2233SOL     OW 7597   3.317   3.108   1.267
 2233SOL    HW1 7598   3.258   3.042   1.314
 2233SOL    HW2 7599   3.266   3.153   1.195
 2234SOL     OW 7600   4.019   1.843   0.817
 2234SOL    HW1 7601   3.989   1.787   0.739
 2234SOL    HW2 7602   4.076   1.918   0.784
 2235SOL     OW 7603   2.396   0.805   2.323
 2235SOL    HW1 7604   2.464   0.772   2.388
 2235SOL    HW2 7605   2.315   0.746   2.326
 2236SOL     OW 7606   2.211   4.280   5.393
 2236SOL    HW1 7607   2.116   4.255   5.412
 2236SOL    HW2 7608   2.272   4.210   5.430
 2237SOL     OW 7609   5.929   4.974   5.201
 2237SOL    HW1 7610   5.856   4.968   5.132
 2237SOL    HW2 7611   5.905   4.917   5.279
 2238SOL     OW 7612   4.952   4.216   2.434
 2238SOL    HW1 7613   4.857   4.240   2.417
 2238SOL    HW2 7614   4.996   4.193   2.347
 2239SOL     OW 7615   3.650   6.952   3.833
 2239SOL    HW1 7616   3.608   0.003   3.892
 2239SOL    HW2 7617   3.726   6.994   3.783
 2240SOL     OW 7618   4.618   5.417   3.340
 2240SOL    HW1 7619   4.703   5.466   3.320
 2240SOL    HW2 7620   4.561   5.413   3.258
 2241SOL     OW 7621   0.622   6.369   2.038
 2241SOL    HW1 7622   0.620   6.466   2.063
 2241SOL    HW2 7623   0.713   6.344   2.006
 2242SOL     OW 7624   4.913   3.261   3.235
 2242SOL    HW1 7625   4.906   3.230   3.140
 2242SOL    HW2 7626   4.879   3.189   3.296
 2243SOL     OW 7627   1.759   6.751   0.513
 2243SOL    HW1 7628   1.667   6.758   0.474
 2243SOL    HW2 7629   1.785   6.655   0.519
 2244SOL     OW 7630   2.438   0.012   0.934
 2244SOL    HW1 7631   2.452   0.110   0.922
 2244SOL    HW2 7632   2.500   6.979   0.874
 2245SOL     OW 7633   0.476   0.972   0.239
 2245SOL    HW1 7634   0.439   0.883   0.213
 2245SOL    HW2 7635   0.436   1.043   0.181
 2246SOL     OW 7636   2.313   0.859   5.222
 2246SOL    HW1 7637   2.235   0.853   5.285
 2246SOL    HW2 7638   2.299   0.795   5.147
 2247SOL     OW 7639   3.381   4.056   2.810
 2247SOL    HW1 7640   3.294   4.091   2.844
 2247SOL    HW2 7641   3.365   4.002   2.727
 2248SOL     OW 7642   5.762   4.090   5.252
 2248SOL    HW1 7643   5.782   3.996   5.280
 2248SOL    HW2 7644   5.667   4.097   5.223
 2249SOL     OW 7645   2.312   6.658   3.926
 2249SOL    HW1 7646   2.328   6.744   3.877
 2249SOL    HW2 7647   2.348   6.582   3.872
 2250SOL     OW 7648   4.094   4.152   6.131
 2250SOL    HW1 7649   4.146   4.204   6.063
 2250SOL    HW2 7650   4.003   4.192   6.141
 2251SOL     OW 7651   5.266   6.741   6.154
 2251SOL    HW1 7652   5.320   6.733   6.071
 2251SOL    HW2 7653   5.169   6.727   6.132
 2252SOL     OW 7654   4.836   2.086   2.711
 2252SOL    HW1 7655   4.801   2.096   2.804
 2252SOL    HW2 7656   4.932   2.113   2.708
 2253SOL     OW 7657   0.724   3.628   0.568
 2253SOL    HW1 7658   0.673   3.622   0.483
 2253SOL    HW2 7659   0.786   3.706   0.565
 2254SOL     OW 7660   3.828   4.053   2.902
 2254SOL    HW1 7661   3.907   4.102   2.939
 2254SOL    HW2 7662   3.848   3.955   2.898
 2255SOL     OW 7663   3.012   4.296   5.582
 2255SOL    HW1 7664   3.025   4.197   5.595
 2255SOL    HW2 7665   3.001   4.315   5.484
 2256SOL     OW 7666   5.097   6.220   1.916
 2256SOL    HW1 7667   5.143   6.145   1.963
 2256SOL    HW2 7668   5.000   6.199   1.905
 2257SOL     OW 7669   0.084   1.782   4.740
 2257SOL    HW1 7670   0.115   1.778   4.835
 2257SOL    HW2 7671   0.141   1.846   4.689
 2258SOL     OW 7672   1.980   6.700   4.510
 2258SOL    HW1 7673   2.017   6.775   4.564
 2258SOL    HW2 7674   1.884   6.684   4.536
 2259SOL     OW 7675   6.631   2.681   4.968
 2259SOL    HW1 7676   6.606   2.599   4.916
 2259SOL    HW2 7677   6.619   2.762   4.911
 2260SOL     OW 7678   1.116   4.169   1.549
 2260SOL    HW1 7679   1.100   4.108   1.471
 2260SOL    HW2 7680   1.165   4.119   1.621
 2261SOL     OW 7681   5.943   3.672   0.273
 2261SOL    HW1 7682   5.869   3.721   0.319
 2261SOL    HW2 7683   5.945   3.577   0.304
 2262SOL     OW 7684   6.637   0.401   4.351
 2262SOL    HW1 7685   6.694   0.393   4.433
 2262SOL    HW2 7686   6.636   0.496   4.320
 2263SOL     OW 7687   1.352   4.351   0.255
 2263SOL    HW1 7688   1.418   4.391   0.191
 2263SOL    HW2 7689   1.270   4.322   0.206
 2264SOL     OW 7690   2.077   6.734   6.435
 2264SOL    HW1 7691   2.025   6.768   6.356
 2264SOL    HW2 7692   2.099   6.811   6.495
 2265SOL     OW 7693   0.743   6.397   3.734
 2265SOL    HW1 7694   0.843   6.400   3.725
 2265SOL    HW2 7695   0.716   6.436   3.822
 2266SOL     OW 7696   5.112   1.774   6.584
 2266SOL    HW1 7697   5.133   1.677   6.572
 2266SOL    HW2 7698   5.029   1.797   6.533
 2267SOL     OW 7699   4.703   2.878   4.837
 2267SOL    HW1 7700   4.721   2.897   4.741
 2267SOL    HW2 7701   4.724   2.959   4.892
 2268SOL     OW 7702   6.803   4.532   6.210
 2268SOL    HW1 7703   6.824   4.509   6.115
 2268SOL    HW2 7704   6.715   4.490   6.235
 2269SOL     OW 7705   1.679   3.116   5.489
 2269SOL    HW1 7706   1.715   3.207   5.471
 2269SOL    HW2 7707   1.580   3.116   5.478
 2270SOL     OW 7708   4.412   2.506   6.222
 2270SOL    HW1 7709   4.508   2.512   6.193
 2270SOL    HW2 7710   4.385   2.410   6.225
 2271SOL     OW 7711   5.996   4.468   5.978
 2271SOL    HW1 7712   6.048   4.546   6.013
 2271SOL    HW2 7713   6.059   4.392   5.960
 2272SOL     OW 7714   6.206   1.219   5.906
 2272SOL    HW1 7715   6.274   1.146   5.913
 2272SOL    HW2 7716   6.245   1.305   5.938
 2273SOL     OW 7717   2.259   2.311   2.242
 2273SOL    HW1 7718   2.179   2.337   2.295
 2273SOL    HW2 7719   2.325   2.386   2.242
 2274SOL     OW 7720   0.707   1.168   0.261
 2274SOL    HW1 7721   0.678   1.207   0.348
 2274SOL    HW2 7722   0.635   1.107   0.226
 2275SOL     OW 7723   5.793   4.854   2.562
 2275SOL    HW1 7724   5.708   4.806   2.579
 2275SOL    HW2 7725   5.854   4.797   2.508
 2276SOL     OW 7726   1.736   1.289   1.689
 2276SOL    HW1 7727   1.822   1.288   1.637
 2276SOL    HW2 7728   1.734   1.370   1.748
 2277SOL     OW 7729   3.206   4.030   3.516
 2277SOL    HW1 7730   3.218   3.944   3.465
 2277SOL    HW2 7731   3.223   4.107   3.456
 2278SOL     OW 7732   0.833   2.073   3.412
 2278SOL    HW1 7733   0.788   2.156   3.381
 2278SOL    HW2 7734   0.922   2.064   3.366
 2279SOL     OW 7735   0.177   5.857   6.502
 2279SOL    HW1 7736   0.274   5.876   6.484
 2279SOL    HW2 7737   0.124   5.870   6.419
 2280SOL     OW 7738   5.137   1.157   5.255
 2280SOL    HW1 7739   5.178   1.188   5.169
 2280SOL    HW2 7740   5.197   1.091   5.299
 2281SOL     OW 7741   4.738   6.605   2.532
 2281SOL    HW1 7742   4.681   6.552   2.595
 2281SOL    HW2 7743   4.718   6.576   2.438
 2282SOL     OW 7744   4.347   5.396   5.782
 2282SOL    HW1 7745   4.273   5.458   5.807
 2282SOL    HW2 7746   4.322   5.303   5.808
 2283SOL     OW 7747   1.538   0.383   3.324
 2283SOL    HW1 7748   1.522   0.353   3.230
 2283SOL    HW2 7749   1.494   0.320   3.387
 2284SOL     OW 7750   1.074   3.060   6.430
 2284SOL    HW1 7751   1.129   3.001   6.489
 2284SOL    HW2 7752   1.042   3.139   6.482
 2285SOL     OW 7753   1.006   3.780   0.269
 2285SOL    HW1 7754   1.064   3.841   0.214
 2285SOL    HW2 7755   0.919   3.766   0.221
 2286SOL     OW 7756   4.970   6.550   3.327
 2286SOL    HW1 7757   4.974   6.650   3.333
 2286SOL    HW2 7758   4.963   6.511   3.419
 2287SOL     OW 7759   2.359   0.979   3.284
 2287SOL    HW1 7760   2.261   0.966   3.269
 2287SOL    HW2 7761   2.374   1.065   3.331
 2288SOL     OW 7762   0.548   5.148   3.518
 2288SOL    HW1 7763   0.621   5.089   3.484
 2288SOL    HW2 7764   0.584   5.239   3.535
 2289SOL     OW 7765   0.744   5.480   2.017
 2289SOL    HW1 7766   0.818   5.543   2.036
 2289SOL    HW2 7767   0.781   5.395   1.980
 2290SOL     OW 7768   0.876   4.822   1.208
 2290SOL    HW1 7769   0.866   4.749   1.276
 2290SOL    HW2 7770   0.864   4.783   1.116
 2291SOL     OW 7771   3.036   1.673   5.783
 2291SOL    HW1 7772   2.974   1.683   5.861
 2291SOL    HW2 7773   3.119   1.727   5.798
 2292SOL     OW 7774   1.330   0.988   4.798
 2292SOL    HW1 7775   1.402   0.921   4.778
 2292SOL    HW2 7776   1.272   0.999   4.718
 2293SOL     OW 7777   5.609   5.408   1.842
 2293SOL    HW1 7778   5.610   5.483   1.776
 2293SOL    HW2 7779   5.516   5.372   1.851
 2294SOL     OW 7780   3.902   6.618   6.980
 2294SOL    HW1 7781   3.917   6.712   7.011
 2294SOL    HW2 7782   3.889   6.617   6.881
 2295SOL     OW 7783   0.251   2.198   1.651
 2295SOL    HW1 7784   0.249   2.124   1.584
 2295SOL    HW2 7785   0.344   2.211   1.684
 2296SOL     OW 7786   3.107   0.344   0.459
 2296SOL    HW1 7787   3.155   0.408   0.519
 2296SOL    HW2 7788   3.036   0.297   0.511
 2297SOL     OW 7789   4.416   4.245   5.522
 2297SOL    HW1 7790   4.440   4.159   5.567
 2297SOL    HW2 7791   4.337   4.230   5.462
 2298SOL     OW 7792   3.514   2.038   1.441
 2298SOL    HW1 7793   3.529   2.105   1.369
 2298SOL    HW2 7794   3.524   2.082   1.530
 2299SOL     OW 7795   5.065   6.274   0.067
 2299SOL    HW1 7796   5.110   6.289   6.996
 2299SOL    HW2 7797   5.012   6.355   0.092
 2300SOL     OW 7798   1.681   5.774   1.493
 2300SOL    HW1 7799   1.744   5.851   1.482
 2300SOL    HW2 7800   1.710   5.699   1.434
 2301SOL     OW 7801   3.185   3.477   2.961
 2301SOL    HW1 7802   3.249   3.481   3.037
 2301SOL    HW2 7803   3.145   3.386   2.954
 2302SOL     OW 7804   3.723   5.883   2.827
 2302SOL    HW1 7805   3.661   5.923   2.894
 2302SOL    HW2 7806   3.669   5.837   2.756
 2303SOL     OW 7807   1.196   3.186   4.441
 2303SOL    HW1 7808   1.222   3.105   4.388
 2303SOL    HW2 7809   1.251   3.190   4.525
 2304SOL     OW 7810   2.777   0.853   3.225
 2304SOL    HW1 7811   2.778   0.812   3.316
 2304SOL    HW2 7812   2.709   0.807   3.168
 2305SOL     OW 7813   3.839   5.659   2.480
 2305SOL    HW1 7814   3.874   5.633   2.390
 2305SOL    HW2 7815   3.899   5.729   2.520
 2306SOL     OW 7816   2.333   4.467   2.269
 2306SOL    HW1 7817   2.409   4.462   2.203
 2306SOL    HW2 7818   2.369   4.495   2.358
 2307SOL     OW 7819   1.043   3.040   3.085
 2307SOL    HW1 7820   1.041   3.124   3.140
 2307SOL    HW2 7821   1.034   2.961   3.146
 2308SOL     OW 7822   0.774   0.956   6.598
 2308SOL    HW1 7823   0.845   0.889   6.582
 2308SOL    HW2 7824   0.726   0.976   6.513
 2309SOL     OW 7825   3.183   5.121   0.445
 2309SOL    HW1 7826   3.135   5.208   0.435
 2309SOL    HW2 7827   3.157   5.078   0.532
 2310SOL     OW 7828   5.969   0.756   1.786
 2310SOL    HW1 7829   6.040   0.707   1.736
 2310SOL    HW2 7830   5.913   0.691   1.837
 2311SOL     OW 7831   2.769   0.295   2.333
 2311SOL    HW1 7832   2.796   0.312   2.238
 2311SOL    HW2 7833   2.693   0.230   2.335
 2312SOL     OW 7834   4.136   0.086   2.802
 2312SOL    HW1 7835   4.062   0.074   2.868
 2312SOL    HW2 7836   4.099   0.126   2.718
 2313SOL     OW 7837   4.793   4.121   2.095
 2313SOL    HW1 7838   4.852   4.201   2.107
 2313SOL    HW2 7839   4.709   4.149   2.048
 2314SOL     OW 7840   5.999   0.755   3.855
 2314SOL    HW1 7841   6.030   0.661   3.871
 2314SOL    HW2 7842   5.972   0.765   3.759
 2315SOL     OW 7843   4.748   3.981   5.953
 2315SOL    HW1 7844   4.693   3.913   6.002
 2315SOL    HW2 7845   4.838   3.987   5.994
 2316SOL     OW 7846   2.821   1.269   6.164
 2316SOL    HW1 7847   2.766   1.214   6.100
 2316SOL    HW2 7848   2.776   1.357   6.178
 2317SOL     OW 7849   6.507   6.301   3.910
 2317SOL    HW1 7850   6.418   6.266   3.883
 2317SOL    HW2 7851   6.511   6.400   3.892
 2318SOL     OW 7852   2.061   3.851   4.696
 2318SOL    HW1 7853   2.126   3.844   4.621
 2318SOL    HW2 7854   2.075   3.937   4.745
 2319SOL     OW 7855   2.344   5.369   4.399
 2319SOL    HW1 7856   2.334   5.468   4.411
 2319SOL    HW2 7857   2.255   5.325   4.406
 2320SOL     OW 7858   1.413   3.137   5.460
 2320SOL    HW1 7859   1.401   3.236   5.449
 2320SOL    HW2 7860   1.330   3.098   5.500
 2321SOL     OW 7861   2.459   4.660   6.369
 2321SOL    HW1 7862   2.530   4.625   6.431
 2321SOL    HW2 7863   2.369   4.627   6.399
 2322SOL     OW 7864   2.078   3.465   2.283
 2322SOL    HW1 7865   2.087   3.366   2.293
 2322SOL    HW2 7866   2.113   3.493   2.194
 2323SOL     OW 7867   3.025   5.141   1.800
 2323SOL    HW1 7868   3.014   5.110   1.705
 2323SOL    HW2 7869   2.974   5.081   1.861
 2324SOL     OW 7870   6.591   6.024   1.991
 2324SOL    HW1 7871   6.555   5.930   1.987
 2324SOL    HW2 7872   6.647   6.042   1.911
 2325SOL     OW 7873   7.004   5.093   1.600
 2325SOL    HW1 7874   6.979   5.069   1.694
 2325SOL    HW2 7875   6.930   5.067   1.538
 2326SOL     OW 7876   1.268   6.267   6.720
 2326SOL    HW1 7877   1.328   6.336   6.680
 2326SOL    HW2 7878   1.193   6.313   6.769
 2327SOL     OW 7879   6.787   0.369   2.553
 2327SOL    HW1 7880   6.707   0.333   2.601
 2327SOL    HW2 7881   6.828   0.297   2.497
 2328SOL     OW 7882   1.349   2.079   1.980
 2328SOL    HW1 7883   1.312   2.067   2.072
 2328SOL    HW2 7884   1.443   2.113   1.986
 2329SOL     OW 7885   0.824   4.027   4.017
 2329SOL    HW1 7886   0.799   3.965   3.942
 2329SOL    HW2 7887   0.922   4.017   4.036
 2330SOL     OW 7888   0.132   3.191   0.375
 2330SOL    HW1 7889   0.109   3.257   0.304
 2330SOL    HW2 7890   0.230   3.170   0.371
 2331SOL     OW 7891   3.541   5.335   0.142
 2331SOL    HW1 7892   3.447   5.305   0.155
 2331SOL    HW2 7893   3.564   5.404   0.211
 2332SOL     OW 7894   6.010   0.201   5.724
 2332SOL    HW1 7895   6.062   0.237   5.647
 2332SOL    HW2 7896   6.070   0.187   5.803
 2333SOL     OW 7897   6.569   4.707   3.109
 2333SOL    HW1 7898   6.516   4.625   3.131
 2333SOL    HW2 7899   6.665   4.691   3.130
 2334SOL     OW 7900   1.113   1.004   6.435
 2334SOL    HW1 7901   1.193   0.970   6.386
 2334SOL    HW2 7902   1.121   1.103   6.447
 2335SOL     OW 7903   6.566   1.262   3.775
 2335SOL    HW1 7904   6.646   1.317   3.796
 2335SOL    HW2 7905   6.514   1.245   3.859
 2336SOL     OW 7906   3.028   1.749   3.759
 2336SOL    HW1 7907   3.051   1.835   3.805
 2336SOL    HW2 7908   3.110   1.714   3.713
 2337SOL     OW 7909   4.161   1.119   1.428
 2337SOL    HW1 7910   4.252   1.156   1.408
 2337SOL    HW2 7911   4.136   1.052   1.358
 2338SOL     OW 7912   1.075   3.966   4.043
 2338SOL    HW1 7913   1.141   4.024   4.090
 2338SOL    HW2 7914   1.081   3.873   4.076
 2339SOL     OW 7915   3.229   3.365   3.478
 2339SOL    HW1 7916   3.303   3.329   3.535
 2339SOL    HW2 7917   3.268   3.412   3.399
 2340SOL     OW 7918   0.507   5.174   6.643
 2340SOL    HW1 7919   0.602   5.205   6.643
 2340SOL    HW2 7920   0.491   5.115   6.722
 2341SOL     OW 7921   2.552   5.073   2.775
 2341SOL    HW1 7922   2.593   4.987   2.807
 2341SOL    HW2 7923   2.566   5.081   2.676
 2342SOL     OW 7924   2.568   6.816   4.336
 2342SOL    HW1 7925   2.541   6.911   4.323
 2342SOL    HW2 7926   2.547   6.764   4.253
 2343SOL     OW 7927   2.148   6.349   2.904
 2343SOL    HW1 7928   2.076   6.281   2.889
 2343SOL    HW2 7929   2.193   6.369   2.817
 2344SOL     OW 7930   6.713   5.614   0.353
 2344SOL    HW1 7931   6.692   5.711   0.365
 2344SOL    HW2 7932   6.768   5.582   0.430
 2345SOL     OW 7933   2.475   5.821   4.258
 2345SOL    HW1 7934   2.460   5.853   4.164
 2345SOL    HW2 7935   2.531   5.738   4.257
 2346SOL     OW 7936   4.201   3.326   5.887
 2346SOL    HW1 7937   4.290   3.363   5.910
 2346SOL    HW2 7938   4.157   3.383   5.818
 2347SOL     OW 7939   1.033   2.069   1.475
 2347SOL    HW1 7940   1.040   1.995   1.542
 2347SOL    HW2 7941   0.937   2.092   1.461
 2348SOL     OW 7942   1.799   6.105   3.740
 2348SOL    HW1 7943   1.866   6.049   3.787
 2348SOL    HW2 7944   1.846   6.174   3.685
 2349SOL     OW 7945   0.533   4.461   6.471
 2349SOL    HW1 7946   0.485   4.397   6.412
 2349SOL    HW2 7947   0.561   4.415   6.555
 2350SOL     OW 7948   5.652   3.814   5.938
 2350SOL    HW1 7949   5.680   3.859   6.022
 2350SOL    HW2 7950   5.559   3.777   5.948
 2351SOL     OW 7951   3.533   4.952   3.690
 2351SOL    HW1 7952   3.447   4.943   3.740
 2351SOL    HW2 7953   3.543   4.876   3.626
 2352SOL     OW 7954   6.550   2.989   3.552
 2352SOL    HW1 7955   6.485   2.963   3.480
 2352SOL    HW2 7956   6.550   2.919   3.623
 2353SOL     OW 7957   4.090   4.841   5.003
 2353SOL    HW1 7958   4.180   4.886   5.001
 2353SOL    HW2 7959   4.091   4.768   5.072
 2354SOL     OW 7960   2.366   2.312   4.594
 2354SOL    HW1 7961   2.303   2.313   4.671
 2354SOL    HW2 7962   2.340   2.383   4.528
 2355SOL     OW 7963   2.202   5.944   5.495
 2355SOL    HW1 7964   2.153   5.944   5.408
 2355SOL    HW2 7965   2.234   5.852   5.516
 2356SOL     OW 7966   1.025   2.802   6.965
 2356SOL    HW1 7967   1.013   2.731   6.896
 2356SOL    HW2 7968   1.096   2.774   0.012
 2357SOL     OW 7969   3.990   1.227   1.619
 2357SOL    HW1 7970   4.010   1.318   1.658
 2357SOL    HW2 7971   4.073   1.189   1.580
 2358SOL     OW 7972   2.571   5.428   5.603
 2358SOL    HW1 7973   2.491   5.372   5.585
 2358SOL    HW2 7974   2.638   5.376   5.655
 2359SOL     OW 7975   0.493   0.453   5.468
 2359SOL    HW1 7976   0.587   0.434   5.441
 2359SOL    HW2 7977   0.484   0.444   5.567
 2360SOL     OW 7978   6.214   3.909   0.552
 2360SOL    HW1 7979   6.191   3.931   0.457
 2360SOL    HW2 7980   6.182   3.982   0.612
 2361SOL     OW 7981   3.246   1.216   6.342
 2361SOL    HW1 7982   3.160   1.192   6.387
 2361SOL    HW2 7983   3.233   1.216   6.243
 2362SOL     OW 7984   2.947   5.914   3.627
 2362SOL    HW1 7985   2.922   6.008   3.603
 2362SOL    HW2 7986   2.931   5.900   3.725
 2363SOL     OW 7987   3.884   1.714   3.626
 2363SOL    HW1 7988   3.873   1.785   3.557
 2363SOL    HW2 7989   3.795   1.688   3.662
 2364SOL     OW 7990   1.490   2.322   2.202
 2364SOL    HW1 7991   1.397   2.357   2.190
 2364SOL    HW2 7992   1.542   2.337   2.118
 2365SOL     OW 7993   6.366   1.732   0.017
 2365SOL    HW1 7994   6.342   1.813   6.980
 2365SOL    HW2 7995   6.464   1.712   0.005
 2366SOL     OW 7996   2.720   5.104   0.507
 2366SOL    HW1 7997   2.677   5.150   0.585
 2366SOL    HW2 7998   2.714   5.005   0.520
 2367SOL     OW 7999   2.014   3.567   0.285
 2367SOL    HW1 8000   2.054   3.485   0.244
 2367SOL    HW2 8001   2.046   3.576   0.379
 2368SOL     OW 8002   5.767   6.758   4.457
 2368SOL    HW1 8003   5.836   6.780   4.388
 2368SOL    HW2 8004   5.805   6.777   4.548
 2369SOL     OW 8005   1.853   0.023   4.202
 2369SOL    HW1 8006   1.922   0.034   4.130
 2369SOL    HW2 8007   1.858   6.948   4.239
 2370SOL     OW 8008   5.368   3.215   0.249
 2370SOL    HW1 8009   5.405   3.128   0.217
 2370SOL    HW2 8010   5.309   3.199   0.329
 2371SOL     OW 8011   2.320   6.829   2.090
 2371SOL    HW1 8012   2.256   6.844   2.165
 2371SOL    HW2 8013   2.398   6.775   2.122
 2372SOL     OW 8014   6.628   2.920   2.051
 2372SOL    HW1 8015   6.651   3.015   2.070
 2372SOL    HW2 8016   6.664   2.894   1.961
 2373SOL     OW 8017   1.694   3.696   5.801
 2373SOL    HW1 8018   1.713   3.610   5.754
 2373SOL    HW2 8019   1.764   3.713   5.870
 2374SOL     OW 8020   6.557   2.254   5.144
 2374SOL    HW1 8021   6.552   2.353   5.157
 2374SOL    HW2 8022   6.588   2.234   5.050
 2375SOL     OW 8023   3.346   5.360   5.922
 2375SOL    HW1 8024   3.337   5.432   5.854
 2375SOL    HW2 8025   3.305   5.276   5.887
 2376SOL     OW 8026   5.948   3.597   4.023
 2376SOL    HW1 8027   5.879   3.539   3.981
 2376SOL    HW2 8028   5.974   3.560   4.112
 2377SOL     OW 8029   3.462   3.731   3.623
 2377SOL    HW1 8030   3.557   3.701   3.618
 2377SOL    HW2 8031   3.422   3.699   3.710
 2378SOL     OW 8032   5.264   2.295   0.541
 2378SOL    HW1 8033   5.185   2.341   0.582
 2378SOL    HW2 8034   5.253   2.293   0.441
 2379SOL     OW 8035   6.924   0.954   0.432
 2379SOL    HW1 8036   6.852   0.956   0.501
 2379SOL    HW2 8037   7.013   0.940   0.478
 2380SOL     OW 8038   0.164   2.711   6.883
 2380SOL    HW1 8039   0.101   2.735   6.957
 2380SOL    HW2 8040   0.115   2.657   6.814
 2381SOL     OW 8041   2.368   6.248   3.006
 2381SOL    HW1 8042   2.446   6.310   3.000
 2381SOL    HW2 8043   2.285   6.297   2.980
 2382SOL     OW 8044   1.756   3.942   4.545
 2382SOL    HW1 8045   1.838   3.999   4.547
 2382SOL    HW2 8046   1.738   3.914   4.450
 2383SOL     OW 8047   6.564   7.007   1.248
 2383SOL    HW1 8048   6.530   6.962   1.330
 2383SOL    HW2 8049   6.561   0.089   1.261
 2384SOL     OW 8050   5.149   2.157   2.844
 2384SOL    HW1 8051   5.115   2.189   2.933
 2384SOL    HW2 8052   5.226   2.095   2.858
 2385SOL     OW 8053   6.868   0.444   6.980
 2385SOL    HW1 8054   6.872   0.355   0.009
 2385SOL    HW2 8055   6.945   0.500   7.008
 2386SOL     OW 8056   5.140   5.846   4.109
 2386SOL    HW1 8057   5.195   5.843   4.192
 2386SOL    HW2 8058   5.063   5.782   4.118
 2387SOL     OW 8059   2.371   1.137   4.138
 2387SOL    HW1 8060   2.272   1.146   4.143
 2387SOL    HW2 8061   2.405   1.184   4.056
 2388SOL     OW 8062   6.865   2.661   3.873
 2388SOL    HW1 8063   6.960   2.632   3.867
 2388SOL    HW2 8064   6.848   2.705   3.960
 2389SOL     OW 8065   4.530   4.646   3.566
 2389SOL    HW1 8066   4.446   4.697   3.581
 2389SOL    HW2 8067   4.559   4.602   3.651
 2390SOL     OW 8068   3.471   2.920   2.894
 2390SOL    HW1 8069   3.488   2.909   2.796
 2390SOL    HW2 8070   3.378   2.891   2.915
 2391SOL     OW 8071   5.813   4.593   6.201
 2391SOL    HW1 8072   5.734   4.532   6.201
 2391SOL    HW2 8073   5.896   4.542   6.224
 2392SOL     OW 8074   2.933   6.982   6.309
 2392SOL    HW1 8075   2.915   6.989   6.408
 2392SOL    HW2 8076   2.906   6.892   6.276
 2393SOL     OW 8077   5.195   4.274   6.153
 2393SOL    HW1 8078   5.187   4.344   6.082
 2393SOL    HW2 8079   5.144   4.303   6.234
 2394SOL     OW 8080   0.214   3.741   4.291
 2394SOL    HW1 8081   0.129   3.785   4.321
 2394SOL    HW2 8082   0.191   3.660   4.237
 2395SOL     OW 8083   4.975   0.021   5.749
 2395SOL    HW1 8084   4.904   0.070   5.699
 2395SOL    HW2 8085   4.939   7.007   5.837
 2396SOL     OW 8086   3.745   5.098   1.096
 2396SOL    HW1 8087   3.720   5.007   1.130
 2396SOL    HW2 8088   3.761   5.159   1.174
 2397SOL     OW 8089   0.446   4.319   4.469
 2397SOL    HW1 8090   0.415   4.230   4.503
 2397SOL    HW2 8091   0.543   4.314   4.445
 2398SOL     OW 8092   4.848   4.011   6.792
 2398SOL    HW1 8093   4.751   4.022   6.770
 2398SOL    HW2 8094   4.887   3.940   6.733
 2399SOL     OW 8095   4.324   0.597   1.113
 2399SOL    HW1 8096   4.382   0.577   1.192
 2399SOL    HW2 8097   4.324   0.695   1.095
 2400SOL     OW 8098   3.024   3.490   1.053
 2400SOL    HW1 8099   3.004   3.513   1.148
 2400SOL    HW2 8100   2.939   3.491   1.000
 2401SOL     OW 8101   5.680   6.303   0.100
 2401SOL    HW1 8102   5.736   6.296   0.182
 2401SOL    HW2 8103   5.583   6.294   0.124
 2402SOL     OW 8104   0.578   0.260   4.582
 2402SOL    HW1 8105   0.598   0.204   4.502
 2402SOL    HW2 8106   0.611   0.214   4.664
 2403SOL     OW 8107   1.230   2.552   5.984
 2403SOL    HW1 8108   1.133   2.528   5.992
 2403SOL    HW2 8109   1.252   2.622   6.051
 2404SOL     OW 8110   2.437   1.380   1.276
 2404SOL    HW1 8111   2.403   1.296   1.234
 2404SOL    HW2 8112   2.521   1.360   1.326
 2405SOL     OW 8113   3.433   3.951   2.544
 2405SOL    HW1 8114   3.470   4.012   2.474
 2405SOL    HW2 8115   3.408   3.864   2.502
 2406SOL     OW 8116   3.423   1.198   1.500
 2406SOL    HW1 8117   3.455   1.257   1.573
 2406SOL    HW2 8118   3.463   1.227   1.413
 2407SOL     OW 8119   5.757   2.131   3.788
 2407SOL    HW1 8120   5.719   2.193   3.719
 2407SOL    HW2 8121   5.852   2.155   3.806
 2408SOL     OW 8122   4.542   4.411   2.187
 2408SOL    HW1 8123   4.550   4.346   2.111
 2408SOL    HW2 8124   4.633   4.441   2.215
 2409SOL     OW 8125   2.267   4.111   2.607
 2409SOL    HW1 8126   2.362   4.142   2.621
 2409SOL    HW2 8127   2.235   4.065   2.690
 2410SOL     OW 8128   3.941   3.238   4.437
 2410SOL    HW1 8129   3.865   3.302   4.444
 2410SOL    HW2 8130   4.023   3.279   4.478
 2411SOL     OW 8131   5.275   6.274   5.044
 2411SOL    HW1 8132   5.176   6.287   5.036
 2411SOL    HW2 8133   5.315   6.356   5.085
 2412SOL     OW 8134   5.370   4.415   1.788
 2412SOL    HW1 8135   5.353   4.321   1.759
 2412SOL    HW2 8136   5.444   4.454   1.733
 2413SOL     OW 8137   5.731   0.632   1.630
 2413SOL    HW1 8138   5.661   0.696   1.597
 2413SOL    HW2 8139   5.819   0.655   1.589
 2414SOL     OW 8140   4.771   4.136   3.760
 2414SOL    HW1 8141   4.714   4.190   3.698
 2414SOL    HW2 8142   4.746   4.156   3.854
 2415SOL     OW 8143   6.029   1.235   2.841
 2415SOL    HW1 8144   6.075   1.270   2.759
 2415SOL    HW2 8145   6.039   1.136   2.845
 2416SOL     OW 8146   5.536   2.165   5.736
 2416SOL    HW1 8147   5.594   2.241   5.768
 2416SOL    HW2 8148   5.594   2.093   5.698
 2417SOL     OW 8149   3.148   3.479   4.775
 2417SOL    HW1 8150   3.238   3.474   4.818
 2417SOL    HW2 8151   3.089   3.539   4.828
 2418SOL     OW 8152   3.544   3.254   4.293
 2418SOL    HW1 8153   3.473   3.280   4.359
 2418SOL    HW2 8154   3.617   3.205   4.341
 2419SOL     OW 8155   0.106   6.559   3.370
 2419SOL    HW1 8156   0.157   6.541   3.454
 2419SOL    HW2 8157   0.170   6.567   3.293
 2420SOL     OW 8158   3.622   0.513   1.749
 2420SOL    HW1 8159   3.644   0.416   1.755
 2420SOL    HW2 8160   3.706   0.567   1.750
 2421SOL     OW 8161   2.131   2.730   4.877
 2421SOL    HW1 8162   2.177   2.658   4.929
 2421SOL    HW2 8163   2.062   2.774   4.935
 2422SOL     OW 8164   5.074   1.711   0.877
 2422SOL    HW1 8165   5.006   1.730   0.947
 2422SOL    HW2 8166   5.119   1.624   0.897
 2423SOL     OW 8167   2.573   6.425   2.032
 2423SOL    HW1 8168   2.610   6.435   1.939
 2423SOL    HW2 8169   2.559   6.516   2.072
 2424SOL     OW 8170   6.186   1.039   0.362
 2424SOL    HW1 8171   6.201   1.074   0.269
 2424SOL    HW2 8172   6.088   1.026   0.377
 2425SOL     OW 8173   6.157   0.204   4.039
 2425SOL    HW1 8174   6.215   0.140   4.088
 2425SOL    HW2 8175   6.113   0.266   4.105
 2426SOL     OW 8176   1.925   5.065   5.020
 2426SOL    HW1 8177   1.942   5.163   5.009
 2426SOL    HW2 8178   1.965   5.015   4.943
 2427SOL     OW 8179   5.772   5.907   4.986
 2427SOL    HW1 8180   5.678   5.878   5.003
 2427SOL    HW2 8181   5.789   5.911   4.888
 2428SOL     OW 8182   0.681   0.755   1.727
 2428SOL    HW1 8183   0.624   0.782   1.650
 2428SOL    HW2 8184   0.754   0.694   1.695
 2429SOL     OW 8185   5.226   5.892   1.460
 2429SOL    HW1 8186   5.157   5.895   1.389
 2429SOL    HW2 8187   5.209   5.964   1.527
 2430SOL     OW 8188   6.041   0.649   2.591
 2430SOL    HW1 8189   6.140   0.655   2.576
 2430SOL    HW2 8190   6.011   0.729   2.643
 2431SOL     OW 8191   4.448   1.251   2.208
 2431SOL    HW1 8192   4.513   1.228   2.280
 2431SOL    HW2 8193   4.386   1.173   2.194
 2432SOL     OW 8194   4.392   6.147   2.155
 2432SOL    HW1 8195   4.490   6.166   2.147
 2432SOL    HW2 8196   4.372   6.055   2.120
 2433SOL     OW 8197   4.512   0.541   6.688
 2433SOL    HW1 8198   4.531   0.635   6.715
 2433SOL    HW2 8199   4.572   0.516   6.611
 2434SOL     OW 8200   3.671   1.146   5.606
 2434SOL    HW1 8201   3.769   1.147   5.588
 2434SOL    HW2 8202   3.625   1.090   5.536
 2435SOL     OW 8203   5.970   6.111   5.451
 2435SOL    HW1 8204   5.947   6.022   5.411
 2435SOL    HW2 8205   5.983   6.178   5.378
 2436SOL     OW 8206   2.033   6.020   0.312
 2436SOL    HW1 8207   2.130   6.007   0.333
 2436SOL    HW2 8208   1.981   6.025   0.397
 2437SOL     OW 8209   6.705   6.455   5.495
 2437SOL    HW1 8210   6.653   6.440   5.579
 2437SOL    HW2 8211   6.751   6.544   5.500
 2438SOL     OW 8212   2.684   2.483   0.758
 2438SOL    HW1 8213   2.782   2.501   0.748
 2438SOL    HW2 8214   2.671   2.387   0.782
 2439SOL     OW 8215   6.507   4.156   6.000
 2439SOL    HW1 8216   6.442   4.108   5.942
 2439SOL    HW2 8217   6.546   4.234   5.950
 2440SOL     OW 8218   5.334   5.381   5.778
 2440SOL    HW1 8219   5.414   5.438   5.761
 2440SOL    HW2 8220   5.256   5.415   5.725
 2441SOL     OW 8221   5.861   2.301   0.849
 2441SOL    HW1 8222   5.935   2.365   0.865
 2441SOL    HW2 8223   5.800   2.336   0.778
 2442SOL     OW 8224   0.955   3.931   4.591
 2442SOL    HW1 8225   0.947   3.891   4.683
 2442SOL    HW2 8226   0.972   3.859   4.525
 2443SOL     OW 8227   2.520   4.073   6.605
 2443SOL    HW1 8228   2.550   4.107   6.694
 2443SOL    HW2 8229   2.584   4.104   6.534
 2444SOL     OW 8230   2.333   3.731   5.696
 2444SOL    HW1 8231   2.415   3.780   5.666
 2444SOL    HW2 8232   2.255   3.763   5.643
 2445SOL     OW 8233   0.176   0.831   1.195
 2445SOL    HW1 8234   0.229   0.823   1.111
 2445SOL    HW2 8235   0.220   0.895   1.257
 2446SOL     OW 8236   6.389   4.237   5.042
 2446SOL    HW1 8237   6.324   4.161   5.043
 2446SOL    HW2 8238   6.344   4.320   5.010
 2447SOL     OW 8239   1.011   1.419   0.578
 2447SOL    HW1 8240   1.020   1.488   0.506
 2447SOL    HW2 8241   0.925   1.432   0.626
 2448SOL     OW 8242   0.980   0.378   4.893
 2448SOL    HW1 8243   0.994   0.473   4.918
 2448SOL    HW2 8244   1.067   0.336   4.870
 2449SOL     OW 8245   0.186   3.822   5.897
 2449SOL    HW1 8246   0.192   3.729   5.933
 2449SOL    HW2 8247   0.118   3.826   5.824
 2450SOL     OW 8248   2.182   3.984   2.837
 2450SOL    HW1 8249   2.105   3.931   2.804
 2450SOL    HW2 8250   2.210   3.950   2.927
 2451SOL     OW 8251   2.333   6.077   3.379
 2451SOL    HW1 8252   2.338   5.978   3.373
 2451SOL    HW2 8253   2.252   6.110   3.330
 2452SOL     OW 8254   1.038   2.661   4.123
 2452SOL    HW1 8255   1.111   2.729   4.117
 2452SOL    HW2 8256   1.070   2.583   4.178
 2453SOL     OW 8257   6.576   4.638   1.369
 2453SOL    HW1 8258   6.626   4.661   1.452
 2453SOL    HW2 8259   6.509   4.566   1.390
 2454SOL     OW 8260   3.321   1.192   2.263
 2454SOL    HW1 8261   3.417   1.191   2.292
 2454SOL    HW2 8262   3.269   1.129   2.320
 2455SOL     OW 8263   5.722   5.841   0.197
 2455SOL    HW1 8264   5.779   5.917   0.166
 2455SOL    HW2 8265   5.644   5.831   0.134
 2456SOL     OW 8266   4.937   6.312   1.323
 2456SOL    HW1 8267   4.855   6.255   1.324
 2456SOL    HW2 8268   4.937   6.373   1.402
 2457SOL     OW 8269   5.472   6.775   1.190
 2457SOL    HW1 8270   5.497   6.726   1.107
 2457SOL    HW2 8271   5.387   6.738   1.227
 2458SOL     OW 8272   0.658   5.420   3.513
 2458SOL    HW1 8273   0.650   5.520   3.519
 2458SOL    HW2 8274   0.681   5.394   3.419
 2459SOL     OW 8275   1.888   6.814   0.785
 2459SOL    HW1 8276   1.850   6.815   0.693
 2459SOL    HW2 8277   1.986   6.834   0.781
 2460SOL     OW 8278   3.283   5.586   1.526
 2460SOL    HW1 8279   3.375   5.594   1.565
 2460SOL    HW2 8280   3.217   5.572   1.600
 2461SOL     OW 8281   5.410   0.243   2.439
 2461SOL    HW1 8282   5.361   0.317   2.485
 2461SOL    HW2 8283   5.345   0.185   2.390
 2462SOL     OW 8284   1.704   4.967   6.461
 2462SOL    HW1 8285   1.610   4.949   6.488
 2462SOL    HW2 8286   1.725   4.918   6.376
 2463SOL     OW 8287   6.327   2.333   4.322
 2463SOL    HW1 8288   6.379   2.417   4.305
 2463SOL    HW2 8289   6.230   2.356   4.335
 2464SOL     OW 8290   1.745   3.329   1.127
 2464SOL    HW1 8291   1.701   3.299   1.042
 2464SOL    HW2 8292   1.821   3.267   1.149
 2465SOL     OW 8293   6.696   5.834   3.449
 2465SOL    HW1 8294   6.619   5.872   3.502
 2465SOL    HW2 8295   6.700   5.879   3.360
 2466SOL     OW 8296   4.152   1.706   2.674
 2466SOL    HW1 8297   4.235   1.739   2.628
 2466SOL    HW2 8298   4.078   1.700   2.607
 2467SOL     OW 8299   6.746   0.832   6.264
 2467SOL    HW1 8300   6.784   0.917   6.299
 2467SOL    HW2 8301   6.737   0.837   6.164
 2468SOL     OW 8302   6.816   5.013   1.393
 2468SOL    HW1 8303   6.864   5.059   1.318
 2468SOL    HW2 8304   6.720   5.043   1.395
 2469SOL     OW 8305   2.688   2.827   5.630
 2469SOL    HW1 8306   2.750   2.758   5.667
 2469SOL    HW2 8307   2.723   2.918   5.651
 2470SOL     OW 8308   5.426   2.977   0.162
 2470SOL    HW1 8309   5.401   2.909   0.231
 2470SOL    HW2 8310   5.465   2.932   0.083
 2471SOL     OW 8311   1.382   0.176   3.447
 2471SOL    HW1 8312   1.303   0.222   3.487
 2471SOL    HW2 8313   1.353   0.123   3.368
 2472SOL     OW 8314   6.236   1.623   3.224
 2472SOL    HW1 8315   6.218   1.564   3.303
 2472SOL    HW2 8316   6.227   1.719   3.251
 2473SOL     OW 8317   1.172   6.522   4.977
 2473SOL    HW1 8318   1.183   6.519   4.878
 2473SOL    HW2 8319   1.085   6.566   5.000
 2474SOL     OW 8320   6.213   5.109   4.994
 2474SOL    HW1 8321   6.176   5.143   5.081
 2474SOL    HW2 8322   6.261   5.184   4.948
 2475SOL     OW 8323   4.190   2.092   0.108
 2475SOL    HW1 8324   4.203   1.998   0.076
 2475SOL    HW2 8325   4.099   2.102   0.147
 2476SOL     OW 8326   0.586   2.350   4.146
 2476SOL    HW1 8327   0.535   2.337   4.061
 2476SOL    HW2 8328   0.526   2.335   4.224
 2477SOL     OW 8329   4.244   4.970   1.349
 2477SOL    HW1 8330   4.229   4.876   1.319
 2477SOL    HW2 8331   4.334   4.977   1.393
 2478SOL     OW 8332   6.624   6.760   3.407
 2478SOL    HW1 8333   6.604   6.843   3.459
 2478SOL    HW2 8334   6.601   6.774   3.311
 2479SOL     OW 8335   0.378   3.427   0.438
 2479SOL    HW1 8336   0.470   3.435   0.477
 2479SOL    HW2 8337   0.320   3.501   0.474
 2480SOL     OW 8338   0.421   3.479   1.020
 2480SOL    HW1 8339   0.395   3.483   0.924
 2480SOL    HW2 8340   0.365   3.543   1.073
 2481SOL     OW 8341   4.596   5.340   2.239
 2481SOL    HW1 8342   4.519   5.324   2.301
 2481SOL    HW2 8343   4.622   5.253   2.196
 2482SOL     OW 8344   4.686   2.054   4.395
 2482SOL    HW1 8345   4.715   2.127   4.457
 2482SOL    HW2 8346   4.755   2.041   4.324
 2483SOL     OW 8347   0.809   2.180   6.834
 2483SOL    HW1 8348   0.788   2.105   6.897
 2483SOL    HW2 8349   0.883   2.152   6.773
 2484SOL     OW 8350   3.028   2.192   6.062
 2484SOL    HW1 8351   3.027   2.095   6.038
 2484SOL    HW2 8352   2.942   2.216   6.108
 2485SOL     OW 8353   6.972   5.941   2.492
 2485SOL    HW1 8354   6.983   6.007   2.418
 2485SOL    HW2 8355   0.044   5.910   2.522
 2486SOL     OW 8356   0.996   5.337   3.185
 2486SOL    HW1 8357   0.907   5.376   3.210
 2486SOL    HW2 8358   1.062   5.411   3.171
 2487SOL     OW 8359   3.522   1.018   0.572
 2487SOL    HW1 8360   3.564   1.066   0.650
 2487SOL    HW2 8361   3.450   1.075   0.533
 2488SOL     OW 8362   3.006   6.278   6.668
 2488SOL    HW1 8363   3.006   6.344   6.593
 2488SOL    HW2 8364   3.092   6.227   6.668
 2489SOL     OW 8365   0.193   5.870   4.142
 2489SOL    HW1 8366   0.263   5.924   4.190
 2489SOL    HW2 8367   0.105   5.918   4.148
 2490SOL     OW 8368   4.836   3.482   1.857
 2490SOL    HW1 8369   4.927   3.487   1.898
 2490SOL    HW2 8370   4.790   3.399   1.888
 2491SOL     OW 8371   1.244   4.614   2.579
 2491SOL    HW1 8372   1.248   4.589   2.676
 2491SOL    HW2 8373   1.336   4.611   2.539
 2492SOL     OW 8374   4.200   2.947   6.263
 2492SOL    HW1 8375   4.103   2.947   6.239
 2492SOL    HW2 8376   4.245   3.028   6.226
 2493SOL     OW 8377   6.655   2.270   4.123
 2493SOL    HW1 8378   6.676   2.230   4.034
 2493SOL    HW2 8379   6.678   2.205   4.195
 2494SOL     OW 8380   4.947   3.421   1.509
 2494SOL    HW1 8381   4.853   3.388   1.498
 2494SOL    HW2 8382   4.991   3.372   1.584
 2495SOL     OW 8383   6.105   1.342   4.079
 2495SOL    HW1 8384   6.087   1.357   4.176
 2495SOL    HW2 8385   6.088   1.246   4.056
 2496SOL     OW 8386   0.786   6.420   0.461
 2496SOL    HW1 8387   0.749   6.344   0.514
 2496SOL    HW2 8388   0.725   6.499   0.468
 2497SOL     OW 8389   5.600   2.007   6.044
 2497SOL    HW1 8390   5.662   2.086   6.046
 2497SOL    HW2 8391   5.506   2.039   6.032
 2498SOL     OW 8392   1.300   3.967   4.596
 2498SOL    HW1 8393   1.361   3.963   4.516
 2498SOL    HW2 8394   1.263   3.876   4.615
 2499SOL     OW 8395   5.712   0.838   5.717
 2499SOL    HW1 8396   5.803   0.835   5.676
 2499SOL    HW2 8397   5.719   0.870   5.812
 2500SOL     OW 8398   4.776   2.843   6.484
 2500SOL    HW1 8399   4.800   2.912   6.552
 2500SOL    HW2 8400   4.739   2.888   6.402
 2501SOL     OW 8401   6.607   4.486   0.322
 2501SOL    HW1 8402   6.660   4.404   0.301
 2501SOL    HW2 8403   6.581   4.486   0.418
 2502SOL     OW 8404   1.912   6.817   2.973
 2502SOL    HW1 8405   1.881   6.725   2.950
 2502SOL    HW2 8406   1.913   6.828   3.072
 2503SOL     OW 8407   4.758   5.482   4.540
 2503SOL    HW1 8408   4.738   5.474   4.442
 2503SOL    HW2 8409   4.672   5.474   4.592
 2504SOL     OW 8410   2.073   4.341   3.721
 2504SOL    HW1 8411   2.156   4.286   3.731
 2504SOL    HW2 8412   2.034   4.360   3.811
 2505SOL     OW 8413   4.465   5.484   3.783
 2505SOL    HW1 8414   4.498   5.399   3.824
 2505SOL    HW2 8415   4.413   5.535   3.851
 2506SOL     OW 8416   0.101   1.853   0.018
 2506SOL    HW1 8417   0.114   1.790   6.959
 2506SOL    HW2 8418   0.180   1.848   0.080
 2507SOL     OW 8419   6.825   5.727   1.096
 2507SOL    HW1 8420   6.851   5.820   1.123
 2507SOL    HW2 8421   6.852   5.663   1.167
 2508SOL     OW 8422   2.500   2.490   2.309
 2508SOL    HW1 8423   2.454   2.573   2.340
 2508SOL    HW2 8424   2.527   2.436   2.389
 2509SOL     OW 8425   5.341   1.913   3.753
 2509SOL    HW1 8426   5.319   2.011   3.760
 2509SOL    HW2 8427   5.305   1.865   3.833
 2510SOL     OW 8428   3.633   5.908   1.031
 2510SOL    HW1 8429   3.673   5.978   1.091
 2510SOL    HW2 8430   3.621   5.824   1.084
 2511SOL     OW 8431   1.485   0.085   4.136
 2511SOL    HW1 8432   1.514   0.134   4.218
 2511SOL    HW2 8433   1.405   0.131   4.097
 2512SOL     OW 8434   4.548   2.537   4.188
 2512SOL    HW1 8435   4.531   2.492   4.276
 2512SOL    HW2 8436   4.467   2.529   4.131
 2513SOL     OW 8437   0.124   4.342   1.160
 2513SOL    HW1 8438   0.061   4.408   1.118
 2513SOL    HW2 8439   0.217   4.361   1.128
 2514SOL     OW 8440   1.319   1.634   4.130
 2514SOL    HW1 8441   1.308   1.677   4.220
 2514SOL    HW2 8442   1.314   1.704   4.059
 2515SOL     OW 8443   0.826   4.821   0.027
 2515SOL    HW1 8444   0.800   4.725   0.020
 2515SOL    HW2 8445   0.869   4.838   0.116
 2516SOL     OW 8446   4.870   6.420   3.873
 2516SOL    HW1 8447   4.865   6.342   3.935
 2516SOL    HW2 8448   4.878   6.386   3.779
 2517SOL     OW 8449   2.634   4.845   0.593
 2517SOL    HW1 8450   2.543   4.867   0.630
 2517SOL    HW2 8451   2.623   4.783   0.515
 2518SOL     OW 8452   2.489   2.659   6.386
 2518SOL    HW1 8453   2.544   2.699   6.312
 2518SOL    HW2 8454   2.395   2.647   6.356
 2519SOL     OW 8455   5.110   4.164   4.726
 2519SOL    HW1 8456   5.162   4.080   4.744
 2519SOL    HW2 8457   5.015   4.140   4.703
 2520SOL     OW 8458   2.157   4.973   1.975
 2520SOL    HW1 8459   2.237   5.033   1.975
 2520SOL    HW2 8460   2.186   4.880   1.953
 2521SOL     OW 8461   5.800   0.000   5.170
 2521SOL    HW1 8462   5.794   6.919   5.188
 2521SOL    HW2 8463   5.809   0.050   5.256
 2522SOL     OW 8464   1.355   3.216   4.683
 2522SOL    HW1 8465   1.429   3.280   4.704
 2522SOL    HW2 8466   1.292   3.211   4.761
 2523SOL     OW 8467   0.178   3.170   6.902
 2523SOL    HW1 8468   0.138   3.258   6.930
 2523SOL    HW2 8469   0.114   3.096   6.926
 2524SOL     OW 8470   1.143   6.826   5.152
 2524SOL    HW1 8471   1.050   6.798   5.176
 2524SOL    HW2 8472   1.140   6.905   5.091
 2525SOL     OW 8473   1.845   4.538   3.181
 2525SOL    HW1 8474   1.935   4.531   3.137
 2525SOL    HW2 8475   1.773   4.524   3.113
 2526SOL     OW 8476   6.954   1.674   5.452
 2526SOL    HW1 8477   6.955   1.579   5.423
 2526SOL    HW2 8478   6.895   1.727   5.391
 2527SOL     OW 8479   6.029   6.358   3.854
 2527SOL    HW1 8480   6.104   6.328   3.795
 2527SOL    HW2 8481   6.050   6.335   3.949
 2528SOL     OW 8482   5.797   5.689   0.403
 2528SOL    HW1 8483   5.768   5.741   0.322
 2528SOL    HW2 8484   5.757   5.598   0.400
 2529SOL     OW 8485   5.238   3.922   4.706
 2529SOL    HW1 8486   5.195   3.856   4.768
 2529SOL    HW2 8487   5.333   3.936   4.732
 2530SOL     OW 8488   0.945   6.986   4.333
 2530SOL    HW1 8489   1.043   6.995   4.350
 2530SOL    HW2 8490   0.923   0.008   4.243
 2531SOL     OW 8491   4.705   1.644   6.752
 2531SOL    HW1 8492   4.772   1.716   6.766
 2531SOL    HW2 8493   4.628   1.659   6.815
 2532SOL     OW 8494   1.795   4.448   5.793
 2532SOL    HW1 8495   1.784   4.365   5.848
 2532SOL    HW2 8496   1.888   4.451   5.756
 2533SOL     OW 8497   5.801   6.724   5.147
 2533SOL    HW1 8498   5.764   6.685   5.231
 2533SOL    HW2 8499   5.810   6.652   5.078
 2534SOL     OW 8500   6.931   1.654   3.872
 2534SOL    HW1 8501   6.974   1.669   3.961
 2534SOL    HW2 8502   6.962   1.723   3.807
 2535SOL     OW 8503   2.393   1.083   2.327
 2535SOL    HW1 8504   2.335   1.103   2.247
 2535SOL    HW2 8505   2.420   0.987   2.324
 2536SOL     OW 8506   6.565   0.536   3.771
 2536SOL    HW1 8507   6.637   0.578   3.826
 2536SOL    HW2 8508   6.482   0.528   3.826
 2537SOL     OW 8509   4.014   5.014   1.450
 2537SOL    HW1 8510   4.098   4.996   1.398
 2537SOL    HW2 8511   3.955   5.076   1.398
 2538SOL     OW 8512   1.830   4.696   5.291
 2538SOL    HW1 8513   1.889   4.755   5.347
 2538SOL    HW2 8514   1.795   4.622   5.348
 2539SOL     OW 8515   2.847   0.654   5.711
 2539SOL    HW1 8516   2.804   0.609   5.633
 2539SOL    HW2 8517   2.942   0.675   5.690
 2540SOL     OW 8518   5.592   1.939   2.190
 2540SOL    HW1 8519   5.639   1.990   2.262
 2540SOL    HW2 8520   5.660   1.891   2.134
 2541SOL     OW 8521   0.700   6.619   5.499
 2541SOL    HW1 8522   0.728   6.577   5.413
 2541SOL    HW2 8523   0.601   6.609   5.510
 2542SOL     OW 8524   3.406   1.885   4.596
 2542SOL    HW1 8525   3.368   1.837   4.675
 2542SOL    HW2 8526   3.501   1.854   4.582
 2543SOL     OW 8527   0.276   2.581   4.691
 2543SOL    HW1 8528   0.188   2.628   4.695
 2543SOL    HW2 8529   0.332   2.623   4.619
 2544SOL     OW 8530   6.055   5.819   2.705
 2544SOL    HW1 8531   5.966   5.783   2.680
 2544SOL    HW2 8532   6.045   5.910   2.744
 2545SOL     OW 8533   6.391   2.209   0.948
 2545SOL    HW1 8534   6.371   2.304   0.926
 2545SOL    HW2 8535   6.429   2.203   1.040
 2546SOL     OW 8536   6.266   4.124   2.961
 2546SOL    HW1 8537   6.237   4.065   3.036
 2546SOL    HW2 8538   6.241   4.081   2.873
 2547SOL     OW 8539   5.875   3.630   0.583
 2547SOL    HW1 8540   5.974   3.639   0.582
 2547SOL    HW2 8541   5.846   3.571   0.507
 2548SOL     OW 8542   6.835   6.689   5.551
 2548SOL    HW1 8543   6.900   6.756   5.589
 2548SOL    HW2 8544   6.763   6.673   5.618
 2549SOL     OW 8545   2.826   2.801   0.136
 2549SOL    HW1 8546   2.840   2.858   0.217
 2549SOL    HW2 8547   2.743   2.747   0.147
 2550SOL     OW 8548   3.961   5.900   6.473
 2550SOL    HW1 8549   4.005   5.972   6.420
 2550SOL    HW2 8550   3.865   5.893   6.449
 2551SOL     OW 8551   3.361   5.551   0.336
 2551SOL    HW1 8552   3.446   5.578   0.290
 2551SOL    HW2 8553   3.377   5.467   0.388
 2552SOL     OW 8554   2.285   5.744   1.322
 2552SOL    HW1 8555   2.315   5.823   1.269
 2552SOL    HW2 8556   2.279   5.768   1.419
 2553SOL     OW 8557   4.644   1.361   6.768
 2553SOL    HW1 8558   4.562   1.356   6.711
 2553SOL    HW2 8559   4.670   1.457   6.779
 2554SOL     OW 8560   1.393   5.737   1.393
 2554SOL    HW1 8561   1.469   5.753   1.456
 2554SOL    HW2 8562   1.393   5.641   1.365
 2555SOL     OW 8563   5.452   6.787   4.872
 2555SOL    HW1 8564   5.371   6.779   4.931
 2555SOL    HW2 8565   5.426   6.768   4.778
 2556SOL     OW 8566   3.854   0.427   0.271
 2556SOL    HW1 8567   3.938   0.469   0.302
 2556SOL    HW2 8568   3.870   0.330   0.250
 2557SOL     OW 8569   2.904   0.506   6.402
 2557SOL    HW1 8570   2.922   0.604   6.407
 2557SOL    HW2 8571   2.896   0.468   6.494
 2558SOL     OW 8572   4.989   3.536   0.573
 2558SOL    HW1 8573   4.923   3.517   0.645
 2558SOL    HW2 8574   4.984   3.633   0.547
 2559SOL     OW 8575   0.748   4.332   4.022
 2559SOL    HW1 8576   0.767   4.238   3.994
 2559SOL    HW2 8577   0.781   4.395   3.951
 2560SOL     OW 8578   4.781   1.946   3.672
 2560SOL    HW1 8579   4.787   1.876   3.743
 2560SOL    HW2 8580   4.786   2.037   3.715
 2561SOL     OW 8581   3.719   0.250   4.936
 2561SOL    HW1 8582   3.681   0.339   4.911
 2561SOL    HW2 8583   3.786   0.262   5.009
 2562SOL     OW 8584   2.618   6.458   3.992
 2562SOL    HW1 8585   2.583   6.532   4.051
 2562SOL    HW2 8586   2.555   6.444   3.916
 2563SOL     OW 8587   3.392   2.044   6.245
 2563SOL    HW1 8588   3.378   1.965   6.186
 2563SOL    HW2 8589   3.485   2.078   6.234
 2564SOL     OW 8590   1.675   1.759   6.953
 2564SOL    HW1 8591   1.737   1.823   6.908
 2564SOL    HW2 8592   1.582   1.796   6.953
 2565SOL     OW 8593   0.593   1.286   0.555
 2565SOL    HW1 8594   0.669   1.340   0.590
 2565SOL    HW2 8595   0.554   1.231   0.628
 2566SOL     OW 8596   2.415   0.805   0.909
 2566SOL    HW1 8597   2.385   0.788   0.815
 2566SOL    HW2 8598   2.514   0.821   0.909
 2567SOL     OW 8599   2.257   1.136   0.418
 2567SOL    HW1 8600   2.166   1.153   0.457
 2567SOL    HW2 8601   2.246   1.106   0.323
 2568SOL     OW 8602   3.572   6.150   7.009
 2568SOL    HW1 8603   3.493   6.128   0.049
 2568SOL    HW2 8604   3.654   6.152   0.048
 2569SOL     OW 8605   1.790   0.504   0.928
 2569SOL    HW1 8606   1.829   0.591   0.956
 2569SOL    HW2 8607   1.691   0.508   0.933
 2570SOL     OW 8608   6.986   6.387   5.440
 2570SOL    HW1 8609   6.903   6.436   5.412
 2570SOL    HW2 8610   0.006   6.337   5.362
 2571SOL     OW 8611   3.410   3.162   4.089
 2571SOL    HW1 8612   3.468   3.191   4.165
 2571SOL    HW2 8613   3.327   3.218   4.087
 2572SOL     OW 8614   2.032   5.768   1.961
 2572SOL    HW1 8615   1.935   5.778   1.983
 2572SOL    HW2 8616   2.086   5.774   2.046
 2573SOL     OW 8617   6.641   2.216   4.869
 2573SOL    HW1 8618   6.594   2.132   4.843
 2573SOL    HW2 8619   6.739   2.201   4.866
 2574SOL     OW 8620   0.593   3.684   2.358
 2574SOL    HW1 8621   0.672   3.626   2.380
 2574SOL    HW2 8622   0.574   3.745   2.434
 2575SOL     OW 8623   5.434   3.599   0.062
 2575SOL    HW1 8624   5.410   3.695   0.073
 2575SOL    HW2 8625   5.432   3.554   0.151
 2576SOL     OW 8626   1.952   6.660   3.600
 2576SOL    HW1 8627   2.033   6.624   3.553
 2576SOL    HW2 8628   1.972   6.671   3.697
 2577SOL     OW 8629   2.776   6.023   1.368
 2577SOL    HW1 8630   2.815   6.092   1.429
 2577SOL    HW2 8631   2.834   6.014   1.287
 2578SOL     OW 8632   4.936   1.673   3.965
 2578SOL    HW1 8633   4.940   1.614   4.046
 2578SOL    HW2 8634   4.854   1.731   3.970
 2579SOL     OW 8635   7.002   1.646   6.107
 2579SOL    HW1 8636   0.058   1.707   6.138
 2579SOL    HW2 8637   6.928   1.645   6.174
 2580SOL     OW 8638   1.002   2.579   6.283
 2580SOL    HW1 8639   1.015   2.480   6.278
 2580SOL    HW2 8640   1.086   2.625   6.254
 2581SOL     OW 8641   6.448   6.706   4.170
 2581SOL    HW1 8642   6.423   6.642   4.242
 2581SOL    HW2 8643   6.537   6.748   4.192
 2582SOL     OW 8644   0.682   5.590   2.929
 2582SOL    HW1 8645   0.730   5.608   3.015
 2582SOL    HW2 8646   0.663   5.677   2.882
 2583SOL     OW 8647   2.135   1.035   0.182
 2583SOL    HW1 8648   2.051   1.085   0.200
 2583SOL    HW2 8649   2.120   0.937   0.196
 2584SOL     OW 8650   5.247   6.724   1.873
 2584SOL    HW1 8651   5.259   6.641   1.927
 2584SOL    HW2 8652   5.325   6.785   1.887
 2585SOL     OW 8653   3.745   1.440   1.426
 2585SOL    HW1 8654   3.664   1.497   1.410
 2585SOL    HW2 8655   3.739   1.397   1.516
 2586SOL     OW 8656   6.604   2.587   4.502
 2586SOL    HW1 8657   6.688   2.640   4.498
 2586SOL    HW2 8658   6.596   2.541   4.591
 2587SOL     OW 8659   6.157   6.634   2.563
 2587SOL    HW1 8660   6.231   6.568   2.565
 2587SOL    HW2 8661   6.160   6.691   2.645
 2588SOL     OW 8662   5.247   0.662   1.847
 2588SOL    HW1 8663   5.160   0.687   1.888
 2588SOL    HW2 8664   5.235   0.652   1.748
 2589SOL     OW 8665   6.010   6.439   0.603
 2589SOL    HW1 8666   6.062   6.397   0.529
 2589SOL    HW2 8667   5.989   6.534   0.579
 2590SOL     OW 8668   4.083   6.089   2.647
 2590SOL    HW1 8669   4.181   6.080   2.635
 2590SOL    HW2 8670   4.064   6.161   2.714
 2591SOL     OW 8671   5.497   0.525   1.824
 2591SOL    HW1 8672   5.543   0.587   1.761
 2591SOL    HW2 8673   5.425   0.575   1.872
 2592SOL     OW 8674   3.208   5.541   1.262
 2592SOL    HW1 8675   3.158   5.621   1.228
 2592SOL    HW2 8676   3.229   5.554   1.359
 2593SOL     OW 8677   3.005   6.555   2.578
 2593SOL    HW1 8678   3.086   6.564   2.519
 2593SOL    HW2 8679   2.934   6.618   2.547
 2594SOL     OW 8680   0.955   5.863   6.415
 2594SOL    HW1 8681   0.940   5.918   6.333
 2594SOL    HW2 8682   0.875   5.806   6.432
 2595SOL     OW 8683   6.394   3.654   4.351
 2595SOL    HW1 8684   6.350   3.572   4.314
 2595SOL    HW2 8685   6.421   3.638   4.446
 2596SOL     OW 8686   3.893   2.077   1.918
 2596SOL    HW1 8687   3.798   2.109   1.925
 2596SOL    HW2 8688   3.947   2.144   1.867
 2597SOL     OW 8689   2.064   2.884   6.794
 2597SOL    HW1 8690   1.979   2.883   6.741
 2597SOL    HW2 8691   2.056   2.824   6.873
 2598SOL     OW 8692   6.525   2.766   2.850
 2598SOL    HW1 8693   6.600   2.710   2.887
 2598SOL    HW2 8694   6.437   2.722   2.870
 2599SOL     OW 8695   4.678   4.812   6.848
 2599SOL    HW1 8696   4.595   4.758   6.833
 2599SOL    HW2 8697   4.673   4.896   6.796
 2600SOL     OW 8698   6.677   3.736   3.444
 2600SOL    HW1 8699   6.769   3.717   3.475
 2600SOL    HW2 8700   6.613   3.727   3.520
 2601SOL     OW 8701   3.468   2.966   5.584
 2601SOL    HW1 8702   3.468   2.871   5.615
 2601SOL    HW2 8703   3.559   2.989   5.550
 2602SOL     OW 8704   6.134   5.969   4.661
 2602SOL    HW1 8705   6.166   5.876   4.638
 2602SOL    HW2 8706   6.048   5.963   4.711
 2603SOL     OW 8707   2.934   2.725   0.500
 2603SOL    HW1 8708   3.033   2.715   0.500
 2603SOL    HW2 8709   2.891   2.642   0.464
 2604SOL     OW 8710   6.104   0.889   1.973
 2604SOL    HW1 8711   6.048   0.834   1.912
 2604SOL    HW2 8712   6.090   0.860   2.068
 2605SOL     OW 8713   4.755   4.561   4.351
 2605SOL    HW1 8714   4.669   4.557   4.300
 2605SOL    HW2 8715   4.743   4.516   4.439
 2606SOL     OW 8716   7.009   4.697   1.904
 2606SOL    HW1 8717   0.038   4.637   1.838
 2606SOL    HW2 8718   6.931   4.741   1.860
 2607SOL     OW 8719   0.526   1.728   4.604
 2607SOL    HW1 8720   0.614   1.769   4.578
 2607SOL    HW2 8721   0.542   1.641   4.651
 2608SOL     OW 8722   5.245   0.930   0.904
 2608SOL    HW1 8723   5.301   0.848   0.912
 2608SOL    HW2 8724   5.176   0.931   0.976
 2609SOL     OW 8725   0.311   2.106   4.576
 2609SOL    HW1 8726   0.289   2.144   4.487
 2609SOL    HW2 8727   0.261   2.155   4.647
 2610SOL     OW 8728   6.090   5.569   4.299
 2610SOL    HW1 8729   6.173   5.555   4.246
 2610SOL    HW2 8730   6.011   5.574   4.238
 2611SOL     OW 8731   3.380   6.222   1.501
 2611SOL    HW1 8732   3.386   6.316   1.468
 2611SOL    HW2 8733   3.296   6.180   1.467
 2612SOL     OW 8734   6.080   6.429   4.139
 2612SOL    HW1 8735   6.116   6.459   4.227
 2612SOL    HW2 8736   5.988   6.465   4.126
 2613SOL     OW 8737   4.293   0.581   1.687
 2613SOL    HW1 8738   4.200   0.571   1.723
 2613SOL    HW2 8739   4.292   0.564   1.588
 2614SOL     OW 8740   6.929   6.527   6.636
 2614SOL    HW1 8741   6.866   6.453   6.612
 2614SOL    HW2 8742   7.010   6.490   6.681
 2615SOL     OW 8743   5.608   5.130   2.156
 2615SOL    HW1 8744   5.676   5.137   2.228
 2615SOL    HW2 8745   5.538   5.063   2.183
 2616SOL     OW 8746   3.776   2.966   2.748
 2616SOL    HW1 8747   3.793   2.902   2.823
 2616SOL    HW2 8748   3.687   2.947   2.708
 2617SOL     OW 8749   3.879   0.332   1.610
 2617SOL    HW1 8750   3.831   0.245   1.623
 2617SOL    HW2 8751   3.833   0.385   1.539
 2618SOL     OW 8752   0.995   0.430   0.958
 2618SOL    HW1 8753   0.912   0.398   1.002
 2618SOL    HW2 8754   1.010   0.526   0.981
 2619SOL     OW 8755   4.951   1.777   1.472
 2619SOL    HW1 8756   4.891   1.801   1.395
 2619SOL    HW2 8757   5.015   1.707   1.443
 2620SOL     OW 8758   1.627   4.223   3.818
 2620SOL    HW1 8759   1.615   4.245   3.915
 2620SOL    HW2 8760   1.659   4.305   3.769
 2621SOL     OW 8761   0.917   4.734   3.949
 2621SOL    HW1 8762   0.864   4.674   3.890
 2621SOL    HW2 8763   0.859   4.768   4.022
 2622SOL     OW 8764   3.082   3.151   6.224
 2622SOL    HW1 8765   3.007   3.162   6.289
 2622SOL    HW2 8766   3.079   3.226   6.158
 2623SOL     OW 8767   2.986   1.083   5.554
 2623SOL    HW1 8768   2.932   1.087   5.638
 2623SOL    HW2 8769   3.030   0.994   5.547
 2624SOL     OW 8770   6.629   2.537   4.107
 2624SOL    HW1 8771   6.571   2.552   4.027
 2624SOL    HW2 8772   6.636   2.439   4.124
 2625SOL     OW 8773   4.073   0.916   5.490
 2625SOL    HW1 8774   4.077   0.856   5.411
 2625SOL    HW2 8775   4.030   1.003   5.464
 2626SOL     OW 8776   2.008   6.682   2.655
 2626SOL    HW1 8777   2.087   6.717   2.705
 2626SOL    HW2 8778   1.972   6.754   2.595
 2627SOL     OW 8779   0.048   0.020   4.503
 2627SOL    HW1 8780   7.005   6.968   4.463
 2627SOL    HW2 8781   0.073   0.086   4.433
 2628SOL     OW 8782   3.966   5.423   5.734
 2628SOL    HW1 8783   3.932   5.337   5.773
 2628SOL    HW2 8784   3.964   5.494   5.804
 2629SOL     OW 8785   3.702   4.365   1.383
 2629SOL    HW1 8786   3.623   4.337   1.328
 2629SOL    HW2 8787   3.767   4.289   1.387
 2630SOL     OW 8788   2.813   2.288   2.358
 2630SOL    HW1 8789   2.841   2.314   2.265
 2630SOL    HW2 8790   2.720   2.251   2.355
 2631SOL     OW 8791   4.769   6.247   4.555
 2631SOL    HW1 8792   4.685   6.241   4.500
 2631SOL    HW2 8793   4.746   6.268   4.650
 2632SOL     OW 8794   4.959   2.103   0.540
 2632SOL    HW1 8795   4.939   2.189   0.586
 2632SOL    HW2 8796   4.958   2.117   0.441
 2633SOL     OW 8797   6.249   2.369   6.563
 2633SOL    HW1 8798   6.218   2.433   6.634
 2633SOL    HW2 8799   6.246   2.276   6.599
 2634SOL     OW 8800   2.319   5.449   1.355
 2634SOL    HW1 8801   2.329   5.524   1.420
 2634SOL    HW2 8802   2.260   5.478   1.279
 2635SOL     OW 8803   5.081   4.608   4.077
 2635SOL    HW1 8804   5.099   4.515   4.045
 2635SOL    HW2 8805   5.109   4.674   4.006
 2636SOL     OW 8806   5.957   0.474   5.033
 2636SOL    HW1 8807   5.966   0.391   5.089
 2636SOL    HW2 8808   5.866   0.513   5.047
 2637SOL     OW 8809   5.077   6.504   2.527
 2637SOL    HW1 8810   5.012   6.553   2.468
 2637SOL    HW2 8811   5.125   6.435   2.474
 2638SOL     OW 8812   5.833   5.999   1.022
 2638SOL    HW1 8813   5.796   6.025   1.111
 2638SOL    HW2 8814   5.851   6.082   0.968
 2639SOL     OW 8815   6.637   6.315   0.328
 2639SOL    HW1 8816   6.690   6.362   0.399
 2639SOL    HW2 8817   6.694   6.248   0.282
 2640SOL     OW 8818   6.859   6.966   5.963
 2640SOL    HW1 8819   6.923   0.017   5.998
 2640SOL    HW2 8820   6.908   6.881   5.945
 2641SOL     OW 8821   5.799   4.989   0.123
 2641SOL    HW1 8822   5.735   4.940   0.065
 2641SOL    HW2 8823   5.866   4.925   0.161
 2642SOL     OW 8824   6.406   6.862   3.891
 2642SOL    HW1 8825   6.324   6.806   3.905
 2642SOL    HW2 8826   6.484   6.818   3.935
 2643SOL     OW 8827   0.907   0.406   2.615
 2643SOL    HW1 8828   0.928   0.501   2.592
 2643SOL    HW2 8829   0.816   0.382   2.580
 2644SOL     OW 8830   0.295   4.790   6.160
 2644SOL    HW1 8831   0.249   4.837   6.236
 2644SOL    HW2 8832   0.247   4.705   6.140
 2645SOL     OW 8833   5.353   5.852   5.596
 2645SOL    HW1 8834   5.412   5.924   5.558
 2645SOL    HW2 8835   5.350   5.775   5.533
 2646SOL     OW 8836   6.450   6.351   6.912
 2646SOL    HW1 8837   6.491   6.437   6.943
 2646SOL    HW2 8838   6.419   6.299   6.992
 2647SOL     OW 8839   4.151   1.416   0.825
 2647SOL    HW1 8840   4.151   1.493   0.762
 2647SOL    HW2 8841   4.118   1.334   0.778
 2648SOL     OW 8842   4.495   0.578   2.145
 2648SOL    HW1 8843   4.500   0.657   2.084
 2648SOL    HW2 8844   4.486   0.608   2.239
 2649SOL     OW 8845   3.282   1.790   5.792
 2649SOL    HW1 8846   3.233   1.859   5.738
 2649SOL    HW2 8847   3.318   1.719   5.731
 2650SOL     OW 8848   0.428   6.024   2.101
 2650SOL    HW1 8849   0.447   6.094   2.033
 2650SOL    HW2 8850   0.514   5.992   2.142
 2651SOL     OW 8851   0.127   0.824   3.380
 2651SOL    HW1 8852   0.081   0.778   3.456
 2651SOL    HW2 8853   0.181   0.758   3.329
 2652SOL     OW 8854   3.046   3.389   2.457
 2652SOL    HW1 8855   2.993   3.473   2.444
 2652SOL    HW2 8856   3.126   3.391   2.397
 2653SOL     OW 8857   6.375   6.445   6.324
 2653SOL    HW1 8858   6.370   6.379   6.399
 2653SOL    HW2 8859   6.392   6.396   6.238
 2654SOL     OW 8860   5.853   3.013   6.145
 2654SOL    HW1 8861   5.852   2.965   6.233
 2654SOL    HW2 8862   5.940   2.997   6.099
 2655SOL     OW 8863   5.004   6.310   5.011
 2655SOL    HW1 8864   5.008   6.227   4.957
 2655SOL    HW2 8865   5.027   6.389   4.953
 2656SOL     OW 8866   5.681   3.081   4.198
 2656SOL    HW1 8867   5.595   3.116   4.161
 2656SOL    HW2 8868   5.709   3.001   4.145
 2657SOL     OW 8869   1.924   2.697   6.129
 2657SOL    HW1 8870   1.985   2.770   6.100
 2657SOL    HW2 8871   1.849   2.735   6.183
 2658SOL     OW 8872   5.951   4.051   5.951
 2658SOL    HW1 8873   5.982   3.977   5.891
 2658SOL    HW2 8874   5.916   4.127   5.897
 2659SOL     OW 8875   6.734   3.243   4.045
 2659SOL    HW1 8876   6.724   3.325   3.989
 2659SOL    HW2 8877   6.763   3.166   3.987
 2660SOL     OW 8878   6.961   2.463   3.114
 2660SOL    HW1 8879   6.869   2.445   3.149
 2660SOL    HW2 8880   0.005   2.485   3.190
 2661SOL     OW 8881   4.598   5.869   0.441
 2661SOL    HW1 8882   4.565   5.781   0.476
 2661SOL    HW2 8883   4.522   5.919   0.399
 2662SOL     OW 8884   3.051   6.768   3.831
 2662SOL    HW1 8885   3.143   6.805   3.830
 2662SOL    HW2 8886   3.053   6.672   3.801
 2663SOL     OW 8887   1.315   4.195   2.521
 2663SOL    HW1 8888   1.312   4.116   2.461
 2663SOL    HW2 8889   1.222   4.223   2.545
 2664SOL     OW 8890   4.044   3.664   2.072
 2664SOL    HW1 8891   4.100   3.586   2.100
 2664SOL    HW2 8892   4.015   3.714   2.153
 2665SOL     OW 8893   3.919   1.002   4.640
 2665SOL    HW1 8894   3.871   1.079   4.599
 2665SOL    HW2 8895   3.870   0.971   4.721
 2666SOL     OW 8896   5.445   5.721   1.522
 2666SOL    HW1 8897   5.441   5.622   1.510
 2666SOL    HW2 8898   5.386   5.765   1.454
 2667SOL     OW 8899   1.515   5.234   3.712
 2667SOL    HW1 8900   1.548   5.144   3.739
 2667SOL    HW2 8901   1.488   5.232   3.616
 2668SOL     OW 8902   0.212   3.092   5.627
 2668SOL    HW1 8903   0.206   3.126   5.721
 2668SOL    HW2 8904   0.219   3.169   5.564
 2669SOL     OW 8905   4.350   4.901   5.043
 2669SOL    HW1 8906   4.362   4.980   5.103
 2669SOL    HW2 8907   4.375   4.818   5.092
 2670SOL     OW 8908   1.648   0.935   6.695
 2670SOL    HW1 8909   1.694   1.010   6.647
 2670SOL    HW2 8910   1.665   0.849   6.645
 2671SOL     OW 8911   2.423   3.494   5.774
 2671SOL    HW1 8912   2.404   3.588   5.747
 2671SOL    HW2 8913   2.518   3.486   5.803
 2672SOL     OW 8914   1.202   4.940   1.257
 2672SOL    HW1 8915   1.165   4.873   1.321
 2672SOL    HW2 8916   1.133   4.961   1.187
 2673SOL     OW 8917   3.926   1.831   3.050
 2673SOL    HW1 8918   4.006   1.833   2.991
 2673SOL    HW2 8919   3.944   1.774   3.130
 2674SOL     OW 8920   5.222   5.295   5.339
 2674SOL    HW1 8921   5.133   5.252   5.351
 2674SOL    HW2 8922   5.293   5.234   5.375
 2675SOL     OW 8923   0.349   4.905   5.494
 2675SOL    HW1 8924   0.405   4.834   5.451
 2675SOL    HW2 8925   0.393   4.935   5.579
 2676SOL     OW 8926   4.303   0.967   2.081
 2676SOL    HW1 8927   4.384   0.947   2.137
 2676SOL    HW2 8928   4.332   0.998   1.991
 2677SOL     OW 8929   2.544   5.237   2.115
 2677SOL    HW1 8930   2.523   5.193   2.202
 2677SOL    HW2 8931   2.567   5.333   2.130
 2678SOL     OW 8932   0.501   4.916   5.722
 2678SOL    HW1 8933   0.578   4.901   5.784
 2678SOL    HW2 8934   0.419   4.873   5.760
 2679SOL     OW 8935   2.898   4.357   1.234
 2679SOL    HW1 8936   2.901   4.257   1.236
 2679SOL    HW2 8937   2.820   4.389   1.287
 2680SOL     OW 8938   1.159   2.276   1.667
 2680SOL    HW1 8939   1.108   2.219   1.602
 2680SOL    HW2 8940   1.098   2.345   1.706
 2681SOL     OW 8941   1.607   2.130   2.774
 2681SOL    HW1 8942   1.641   2.169   2.688
 2681SOL    HW2 8943   1.659   2.168   2.850
 2682SOL     OW 8944   5.826   2.074   3.208
 2682SOL    HW1 8945   5.734   2.080   3.171
 2682SOL    HW2 8946   5.833   2.132   3.290
 2683SOL     OW 8947   0.657   6.566   1.496
 2683SOL    HW1 8948   0.719   6.490   1.519
 2683SOL    HW2 8949   0.602   6.541   1.416
 2684SOL     OW 8950   2.594   6.611   2.723
 2684SOL    HW1 8951   2.564   6.524   2.685
 2684SOL    HW2 8952   2.636   6.596   2.812
 2685SOL     OW 8953   5.407   5.635   5.407
 2685SOL    HW1 8954   5.430   5.714   5.350
 2685SOL    HW2 8955   5.470   5.560   5.386
 2686SOL     OW 8956   2.034   2.907   4.314
 2686SOL    HW1 8957   2.105   2.931   4.379
 2686SOL    HW2 8958   1.981   2.989   4.290
 2687SOL     OW 8959   4.672   5.635   2.540
 2687SOL    HW1 8960   4.710   5.638   2.448
 2687SOL    HW2 8961   4.711   5.558   2.590
 2688SOL     OW 8962   3.882   4.805   6.374
 2688SOL    HW1 8963   3.961   4.761   6.332
 2688SOL    HW2 8964   3.803   4.743   6.371
 2689SOL     OW 8965   6.730   3.473   3.892
 2689SOL    HW1 8966   6.746   3.446   3.797
 2689SOL    HW2 8967   6.786   3.554   3.913
 2690SOL     OW 8968   3.731   3.498   3.447
 2690SOL    HW1 8969   3.821   3.496   3.403
 2690SOL    HW2 8970   3.682   3.413   3.426
 2691SOL     OW 8971   1.588   6.050   2.043
 2691SOL    HW1 8972   1.608   6.074   2.138
 2691SOL    HW2 8973   1.613   6.127   1.984
 2692SOL     OW 8974   0.391   6.751   3.526
 2692SOL    HW1 8975   0.368   6.715   3.436
 2692SOL    HW2 8976   0.381   6.851   3.526
 2693SOL     OW 8977   1.822   4.071   2.796
 2693SOL    HW1 8978   1.823   4.159   2.843
 2693SOL    HW2 8979   1.758   4.076   2.719
 2694SOL     OW 8980   2.099   6.913   3.200
 2694SOL    HW1 8981   2.048   6.841   3.248
 2694SOL    HW2 8982   2.036   6.988   3.178
 2695SOL     OW 8983   4.224   1.756   3.451
 2695SOL    HW1 8984   4.195   1.753   3.547
 2695SOL    HW2 8985   4.307   1.702   3.440
 2696SOL     OW 8986   3.835   3.857   5.578
 2696SOL    HW1 8987   3.913   3.919   5.577
 2696SOL    HW2 8988   3.867   3.762   5.578
 2697SOL     OW 8989   2.567   1.698   4.102
 2697SOL    HW1 8990   2.581   1.776   4.164
 2697SOL    HW2 8991   2.473   1.663   4.113
 2698SOL     OW 8992   2.695   3.616   0.655
 2698SOL    HW1 8993   2.787   3.644   0.630
 2698SOL    HW2 8994   2.628   3.672   0.606
 2699SOL     OW 8995   3.726   5.739   1.737
 2699SOL    HW1 8996   3.716   5.725   1.836
 2699SOL    HW2 8997   3.774   5.825   1.720
 2700SOL     OW 8998   2.143   3.612   2.834
 2700SOL    HW1 8999   2.154   3.514   2.817
 2700SOL    HW2 9000   2.108   3.656   2.751
 2701SOL     OW 9001   3.918   6.855   6.451
 2701SOL    HW1 9002   4.007   6.818   6.479
 2701SOL    HW2 9003   3.922   6.955   6.451
 2702SOL     OW 9004   6.836   0.202   3.482
 2702SOL    HW1 9005   6.933   0.199   3.459
 2702SOL    HW2 9006   6.820   0.146   3.563
 2703SOL     OW 9007   1.910   1.511   2.288
 2703SOL    HW1 9008   1.814   1.508   2.261
 2703SOL    HW2 9009   1.927   1.593   2.343
 2704SOL     OW 9010   2.492   4.878   1.323
 2704SOL    HW1 9011   2.573   4.833   1.286
 2704SOL    HW2 9012   2.422   4.810   1.343
 2705SOL     OW 9013   6.891   4.916   3.147
 2705SOL    HW1 9014   6.904   4.820   3.172
 2705SOL    HW2 9015   6.949   4.938   3.069
 2706SOL     OW 9016   6.873   1.367   2.036
 2706SOL    HW1 9017   6.884   1.441   2.103
 2706SOL    HW2 9018   6.893   1.279   2.080
 2707SOL     OW 9019   2.345   1.449   5.831
 2707SOL    HW1 9020   2.259   1.441   5.882
 2707SOL    HW2 9021   2.410   1.503   5.884
 2708SOL     OW 9022   1.805   2.568   1.339
 2708SOL    HW1 9023   1.896   2.563   1.298
 2708SOL    HW2 9024   1.747   2.497   1.300
 2709SOL     OW 9025   4.637   6.324   0.386
 2709SOL    HW1 9026   4.548   6.331   0.431
 2709SOL    HW2 9027   4.670   6.414   0.360
 2710SOL     OW 9028   6.192   3.728   2.944
 2710SOL    HW1 9029   6.156   3.811   2.985
 2710SOL    HW2 9030   6.242   3.750   2.861
 2711SOL     OW 9031   1.311   0.524   1.946
 2711SOL    HW1 9032   1.291   0.452   2.013
 2711SOL    HW2 9033   1.343   0.483   1.861
 2712SOL     OW 9034   2.884   3.853   0.367
 2712SOL    HW1 9035   2.962   3.863   0.305
 2712SOL    HW2 9036   2.888   3.763   0.411
 2713SOL     OW 9037   2.187   3.172   5.138
 2713SOL    HW1 9038   2.260   3.104   5.129
 2713SOL    HW2 9039   2.121   3.158   5.064
 2714SOL     OW 9040   5.176   6.776   5.448
 2714SOL    HW1 9041   5.233   6.711   5.398
 2714SOL    HW2 9042   5.106   6.726   5.499
 2715SOL     OW 9043   6.207   1.028   6.569
 2715SOL    HW1 9044   6.216   0.942   6.619
 2715SOL    HW2 9045   6.260   1.099   6.615
 2716SOL     OW 9046   0.559   0.065   2.387
 2716SOL    HW1 9047   0.544   0.104   2.478
 2716SOL    HW2 9048   0.593   0.136   2.325
 2717SOL     OW 9049   0.823   0.980   2.582
 2717SOL    HW1 9050   0.861   1.073   2.581
 2717SOL    HW2 9051   0.832   0.941   2.674
 2718SOL     OW 9052   1.809   5.077   3.752
 2718SOL    HW1 9053   1.836   5.160   3.801
 2718SOL    HW2 9054   1.742   5.026   3.807
 2719SOL     OW 9055   4.005   5.318   1.590
 2719SOL    HW1 9056   3.938   5.371   1.642
 2719SOL    HW2 9057   4.007   5.351   1.495
 2720SOL     OW 9058   1.280   5.955   3.589
 2720SOL    HW1 9059   1.351   5.994   3.647
 2720SOL    HW2 9060   1.194   5.950   3.640
 2721SOL     OW 9061   3.723   0.014   4.098
 2721SOL    HW1 9062   3.790   0.067   4.151
 2721SOL    HW2 9063   3.747   6.934   4.103
 2722SOL     OW 9064   1.344   5.889   2.080
 2722SOL    HW1 9065   1.365   5.791   2.088
 2722SOL    HW2 9066   1.426   5.938   2.053
 2723SOL     OW 9067   1.517   1.370   5.745
 2723SOL    HW1 9068   1.456   1.443   5.714
 2723SOL    HW2 9069   1.548   1.317   5.666
 2724SOL     OW 9070   4.051   5.196   6.332
 2724SOL    HW1 9071   4.052   5.249   6.417
 2724SOL    HW2 9072   4.145   5.182   6.301
 2725SOL     OW 9073   3.265   4.922   3.804
 2725SOL    HW1 9074   3.246   4.912   3.901
 2725SOL    HW2 9075   3.286   5.018   3.784
 2726SOL     OW 9076   4.838   5.490   1.659
 2726SOL    HW1 9077   4.863   5.458   1.568
 2726SOL    HW2 9078   4.744   5.526   1.657
 2727SOL     OW 9079   2.392   5.511   2.795
 2727SOL    HW1 9080   2.321   5.467   2.740
 2727SOL    HW2 9081   2.350   5.567   2.866
 2728SOL     OW 9082   3.381   6.981   5.683
 2728SOL    HW1 9083   3.329   6.939   5.758
 2728SOL    HW2 9084   3.326   0.036   5.642
 2729SOL     OW 9085   5.600   5.203   3.064
 2729SOL    HW1 9086   5.583   5.271   2.993
 2729SOL    HW2 9087   5.597   5.112   3.024
 2730SOL     OW 9088   2.049   5.608   1.275
 2730SOL    HW1 9089   2.010   5.548   1.345
 2730SOL    HW2 9090   2.133   5.648   1.310
 2731SOL     OW 9091   3.218   3.887   1.761
 2731SOL    HW1 9092   3.141   3.889   1.824
 2731SOL    HW2 9093   3.253   3.980   1.749
 2732SOL     OW 9094   6.059   2.095   2.458
 2732SOL    HW1 9095   6.091   2.180   2.500
 2732SOL    HW2 9096   6.061   2.021   2.526
 2733SOL     OW 9097   1.628   6.958   6.088
 2733SOL    HW1 9098   1.625   0.034   6.125
 2733SOL    HW2 9099   1.567   6.952   6.008
 2734SOL     OW 9100   1.885   5.724   3.889
 2734SOL    HW1 9101   1.957   5.698   3.824
 2734SOL    HW2 9102   1.797   5.722   3.842
 2735SOL     OW 9103   1.730   5.146   2.263
 2735SOL    HW1 9104   1.710   5.192   2.176
 2735SOL    HW2 9105   1.766   5.054   2.244
 2736SOL     OW 9106   4.307   0.317   5.566
 2736SOL    HW1 9107   4.302   0.333   5.664
 2736SOL    HW2 9108   4.250   0.385   5.519
 2737SOL     OW 9109   4.704   3.714   6.467
 2737SOL    HW1 9110   4.733   3.622   6.442
 2737SOL    HW2 9111   4.751   3.781   6.409
 2738SOL     OW 9112   5.673   5.184   4.139
 2738SOL    HW1 9113   5.693   5.090   4.167
 2738SOL    HW2 9114   5.757   5.228   4.107
 2739SOL     OW 9115   6.302   2.793   0.741
 2739SOL    HW1 9116   6.220   2.811   0.795
 2739SOL    HW2 9117   6.308   2.696   0.720
 2740SOL     OW 9118   6.224   2.309   3.303
 2740SOL    HW1 9119   6.293   2.253   3.257
 2740SOL    HW2 9120   6.165   2.251   3.358
 2741SOL     OW 9121   0.930   2.596   5.867
 2741SOL    HW1 9122   0.866   2.645   5.927
 2741SOL    HW2 9123   0.924   2.498   5.885
 2742SOL     OW 9124   1.890   6.519   6.512
 2742SOL    HW1 9125   1.827   6.544   6.586
 2742SOL    HW2 9126   1.955   6.593   6.497
 2743SOL     OW 9127   5.382   4.962   0.716
 2743SOL    HW1 9128   5.414   4.870   0.739
 2743SOL    HW2 9129   5.444   5.030   0.755
 2744SOL     OW 9130   4.062   1.388   6.433
 2744SOL    HW1 9131   4.123   1.400   6.356
 2744SOL    HW2 9132   3.996   1.315   6.412
 2745SOL     OW 9133   2.275   5.964   0.435
 2745SOL    HW1 9134   2.255   5.989   0.530
 2745SOL    HW2 9135   2.356   5.906   0.433
 2746SOL     OW 9136   1.504   2.368   6.132
 2746SOL    HW1 9137   1.503   2.334   6.226
 2746SOL    HW2 9138   1.550   2.457   6.129
 2747SOL     OW 9139   4.124   5.872   4.258
 2747SOL    HW1 9140   4.050   5.938   4.260
 2747SOL    HW2 9141   4.151   5.848   4.351
 2748SOL     OW 9142   3.745   1.060   3.969
 2748SOL    HW1 9143   3.775   1.132   3.906
 2748SOL    HW2 9144   3.696   0.990   3.918
 2749SOL     OW 9145   4.539   5.271   3.937
 2749SOL    HW1 9146   4.636   5.290   3.953
 2749SOL    HW2 9147   4.526   5.173   3.920
 2750SOL     OW 9148   0.267   5.922   2.623
 2750SOL    HW1 9149   0.261   5.823   2.611
 2750SOL    HW2 9150   0.354   5.954   2.588
 2751SOL     OW 9151   1.358   0.211   6.441
 2751SOL    HW1 9152   1.424   0.155   6.492
 2751SOL    HW2 9153   1.266   0.197   6.478
 2752SOL     OW 9154   5.815   6.261   5.654
 2752SOL    HW1 9155   5.845   6.205   5.576
 2752SOL    HW2 9156   5.770   6.202   5.721
 2753SOL     OW 9157   2.291   5.357   5.491
 2753SOL    HW1 9158   2.266   5.281   5.430
 2753SOL    HW2 9159   2.231   5.356   5.571
 2754SOL     OW 9160   1.422   6.449   3.910
 2754SOL    HW1 9161   1.330   6.431   3.944
 2754SOL    HW2 9162   1.483   6.375   3.938
 2755SOL     OW 9163   3.555   6.016   2.532
 2755SOL    HW1 9164   3.636   6.031   2.476
 2755SOL    HW2 9165   3.552   5.921   2.563
 2756SOL     OW 9166   0.561   2.893   5.821
 2756SOL    HW1 9167   0.658   2.900   5.796
 2756SOL    HW2 9168   0.533   2.976   5.869
 2757SOL     OW 9169   4.321   3.340   6.803
 2757SOL    HW1 9170   4.401   3.363   6.748
 2757SOL    HW2 9171   4.240   3.338   6.746
 2758SOL     OW 9172   6.662   6.229   2.437
 2758SOL    HW1 9173   6.744   6.173   2.422
 2758SOL    HW2 9174   6.582   6.169   2.440
 2759SOL     OW 9175   3.192   3.964   5.979
 2759SOL    HW1 9176   3.229   3.874   6.003
 2759SOL    HW2 9177   3.107   3.952   5.927
 2760SOL     OW 9178   5.201   6.508   3.045
 2760SOL    HW1 9179   5.167   6.599   3.067
 2760SOL    HW2 9180   5.146   6.469   2.971
 2761SOL     OW 9181   1.089   2.709   3.662
 2761SOL    HW1 9182   1.026   2.773   3.706
 2761SOL    HW2 9183   1.167   2.760   3.624
 2762SOL     OW 9184   2.299   2.408   0.481
 2762SOL    HW1 9185   2.202   2.384   0.479
 2762SOL    HW2 9186   2.332   2.405   0.575
 2763SOL     OW 9187   6.040   2.011   4.721
 2763SOL    HW1 9188   6.087   1.973   4.641
 2763SOL    HW2 9189   6.042   2.111   4.717
 2764SOL     OW 9190   0.816   3.513   2.380
 2764SOL    HW1 9191   0.833   3.467   2.293
 2764SOL    HW2 9192   0.859   3.462   2.454
 2765SOL     OW 9193   6.670   0.029   0.006
 2765SOL    HW1 9194   6.626   0.118   7.011
 2765SOL    HW2 9195   6.601   6.974   7.014
 2766SOL     OW 9196   4.902   0.883   6.809
 2766SOL    HW1 9197   4.844   0.962   6.829
 2766SOL    HW2 9198   4.974   0.911   6.745
 2767SOL     OW 9199   6.738   5.395   6.478
 2767SOL    HW1 9200   6.829   5.418   6.443
 2767SOL    HW2 9201   6.668   5.425   6.413
 2768SOL     OW 9202   3.987   0.017   1.325
 2768SOL    HW1 9203   4.037   0.097   1.292
 2768SOL    HW2 9204   3.956   6.980   1.246
 2769SOL     OW 9205   0.605   4.540   5.813
 2769SOL    HW1 9206   0.650   4.597   5.883
 2769SOL    HW2 9207   0.664   4.462   5.792
 2770SOL     OW 9208   3.000   6.393   0.319
 2770SOL    HW1 9209   3.063   6.415   0.394
 2770SOL    HW2 9210   2.916   6.446   0.330
 2771SOL     OW 9211   4.392   6.757   5.025
 2771SOL    HW1 9212   4.483   6.718   5.013
 2771SOL    HW2 9213   4.392   6.853   4.995
 2772SOL     OW 9214   4.659   0.302   3.347
 2772SOL    HW1 9215   4.649   0.210   3.309
 2772SOL    HW2 9216   4.749   0.310   3.390
 2773SOL     OW 9217   5.541   2.712   5.116
 2773SOL    HW1 9218   5.468   2.780   5.110
 2773SOL    HW2 9219   5.551   2.666   5.028
 2774SOL     OW 9220   6.389   1.842   4.162
 2774SOL    HW1 9221   6.424   1.934   4.179
 2774SOL    HW2 9222   6.446   1.775   4.210
 2775SOL     OW 9223   0.319   3.365   3.981
 2775SOL    HW1 9224   0.287   3.317   3.899
 2775SOL    HW2 9225   0.351   3.456   3.957
 2776SOL     OW 9226   4.989   4.480   6.293
 2776SOL    HW1 9227   5.023   4.555   6.350
 2776SOL    HW2 9228   4.979   4.512   6.199
 2777SOL     OW 9229   2.629   2.271   6.827
 2777SOL    HW1 9230   2.568   2.252   6.751
 2777SOL    HW2 9231   2.650   2.368   6.830
 2778SOL     OW 9232   2.776   0.092   6.131
 2778SOL    HW1 9233   2.819   0.091   6.222
 2778SOL    HW2 9234   2.833   0.039   6.068
 2779SOL     OW 9235   4.980   0.757   1.468
 2779SOL    HW1 9236   4.920   0.771   1.547
 2779SOL    HW2 9237   4.929   0.708   1.396
 2780SOL     OW 9238   0.008   2.058   4.647
 2780SOL    HW1 9239   7.003   2.072   4.550
 2780SOL    HW2 9240   7.000   1.965   4.673
 2781SOL     OW 9241   5.603   1.681   3.447
 2781SOL    HW1 9242   5.627   1.778   3.455
 2781SOL    HW2 9243   5.642   1.630   3.524
 2782SOL     OW 9244   5.216   0.371   5.661
 2782SOL    HW1 9245   5.204   0.350   5.564
 2782SOL    HW2 9246   5.305   0.415   5.674
 2783SOL     OW 9247   5.752   4.151   1.446
 2783SOL    HW1 9248   5.808   4.095   1.508
 2783SOL    HW2 9249   5.769   4.121   1.351
 2784SOL     OW 9250   0.767   2.388   1.287
 2784SOL    HW1 9251   0.678   2.427   1.311
 2784SOL    HW2 9252   0.839   2.453   1.311
 2785SOL     OW 9253   5.876   3.249   1.278
 2785SOL    HW1 9254   5.886   3.175   1.345
 2785SOL    HW2 9255   5.783   3.285   1.282
 2786SOL     OW 9256   0.338   6.028   0.001
 2786SOL    HW1 9257   0.425   6.076   0.010
 2786SOL    HW2 9258   0.335   5.981   6.930
 2787SOL     OW 9259   6.848   5.682   0.111
 2787SOL    HW1 9260   6.822   5.626   0.189
 2787SOL    HW2 9261   6.865   5.624   0.031
 2788SOL     OW 9262   3.209   6.561   6.023
 2788SOL    HW1 9263   3.238   6.491   5.959
 2788SOL    HW2 9264   3.110   6.572   6.018
 2789SOL     OW 9265   1.193   1.779   5.097
 2789SOL    HW1 9266   1.254   1.731   5.161
 2789SOL    HW2 9267   1.246   1.812   5.019
 2790SOL     OW 9268   1.340   5.630   2.117
 2790SOL    HW1 9269   1.405   5.554   2.108
 2790SOL    HW2 9270   1.275   5.609   2.190
 2791SOL     OW 9271   0.288   3.774   3.048
 2791SOL    HW1 9272   0.379   3.813   3.032
 2791SOL    HW2 9273   0.241   3.765   2.960
 2792SOL     OW 9274   3.666   0.993   5.947
 2792SOL    HW1 9275   3.614   1.013   6.030
 2792SOL    HW2 9276   3.710   1.077   5.914
 2793SOL     OW 9277   3.460   3.877   0.246
 2793SOL    HW1 9278   3.421   3.825   0.323
 2793SOL    HW2 9279   3.399   3.870   0.167
 2794SOL     OW 9280   0.917   2.513   0.330
 2794SOL    HW1 9281   0.865   2.427   0.336
 2794SOL    HW2 9282   0.903   2.554   0.240
 2795SOL     OW 9283   0.909   5.617   1.637
 2795SOL    HW1 9284   0.870   5.526   1.651
 2795SOL    HW2 9285   0.976   5.636   1.708
 2796SOL     OW 9286   2.205   5.472   6.172
 2796SOL    HW1 9287   2.224   5.437   6.080
 2796SOL    HW2 9288   2.123   5.529   6.170
 2797SOL     OW 9289   5.139   5.897   3.344
 2797SOL    HW1 9290   5.152   5.898   3.245
 2797SOL    HW2 9291   5.042   5.911   3.364
 2798SOL     OW 9292   4.739   0.563   1.601
 2798SOL    HW1 9293   4.759   0.661   1.598
 2798SOL    HW2 9294   4.661   0.547   1.662
 2799SOL     OW 9295   3.741   6.136   5.112
 2799SOL    HW1 9296   3.825   6.118   5.061
 2799SOL    HW2 9297   3.662   6.112   5.055
 2800SOL     OW 9298   5.882   0.078   6.096
 2800SOL    HW1 9299   5.954   0.119   6.040
 2800SOL    HW2 9300   5.920   0.047   6.183
 2801SOL     OW 9301   0.300   4.599   4.640
 2801SOL    HW1 9302   0.262   4.556   4.558
 2801SOL    HW2 9303   0.400   4.594   4.637
 2802SOL     OW 9304   1.663   5.145   5.456
 2802SOL    HW1 9305   1.585   5.158   5.396
 2802SOL    HW2 9306   1.709   5.233   5.470
 2803SOL     OW 9307   3.700   1.901   6.139
 2803SOL    HW1 9308   3.621   1.865   6.090
 2803SOL    HW2 9309   3.690   2.000   6.151
 2804SOL     OW 9310   0.124   2.505   4.194
 2804SOL    HW1 9311   0.030   2.533   4.211
 2804SOL    HW2 9312   0.137   2.489   4.096
 2805SOL     OW 9313   3.780   3.159   1.119
 2805SOL    HW1 9314   3.687   3.187   1.144
 2805SOL    HW2 9315   3.812   3.090   1.184
 2806SOL     OW 9316   0.412   3.906   6.255
 2806SOL    HW1 9317   0.329   3.894   6.310
 2806SOL    HW2 9318   0.397   3.975   6.185
 2807SOL     OW 9319   3.960   0.412   3.789
 2807SOL    HW1 9320   3.984   0.501   3.749
 2807SOL    HW2 9321   3.938   0.424   3.886
 2808SOL     OW 9322   0.653   5.136   5.541
 2808SOL    HW1 9323   0.655   5.121   5.640
 2808SOL    HW2 9324   0.611   5.057   5.496
 2809SOL     OW 9325   0.279   5.259   1.828
 2809SOL    HW1 9326   0.305   5.351   1.855
 2809SOL    HW2 9327   0.279   5.252   1.728
 2810SOL     OW 9328   2.345   0.054   2.836
 2810SOL    HW1 9329   2.260   0.050   2.783
 2810SOL    HW2 9330   2.326   0.026   2.930
 2811SOL     OW 9331   1.110   1.141   1.167
 2811SOL    HW1 9332   1.066   1.065   1.215
 2811SOL    HW2 9333   1.145   1.207   1.234
 2812SOL     OW 9334   0.841   1.398   1.073
 2812SOL    HW1 9335   0.894   1.471   1.031
 2812SOL    HW2 9336   0.779   1.436   1.142
 2813SOL     OW 9337   0.983   3.168   1.321
 2813SOL    HW1 9338   0.961   3.254   1.274
 2813SOL    HW2 9339   1.022   3.187   1.411
 2814SOL     OW 9340   2.646   4.470   0.539
 2814SOL    HW1 9341   2.704   4.399   0.499
 2814SOL    HW2 9342   2.638   4.547   0.475
 2815SOL     OW 9343   0.444   4.891   4.691
 2815SOL    HW1 9344   0.521   4.930   4.741
 2815SOL    HW2 9345   0.453   4.792   4.688
 2816SOL     OW 9346   0.775   6.030   5.538
 2816SOL    HW1 9347   0.870   6.040   5.568
 2816SOL    HW2 9348   0.724   6.113   5.561
 2817SOL     OW 9349   4.105   0.697   2.270
 2817SOL    HW1 9350   4.120   0.600   2.249
 2817SOL    HW2 9351   4.176   0.728   2.333
 2818SOL     OW 9352   1.763   0.403   0.508
 2818SOL    HW1 9353   1.800   0.312   0.491
 2818SOL    HW2 9354   1.822   0.451   0.573
 2819SOL     OW 9355   0.694   0.300   6.860
 2819SOL    HW1 9356   0.784   0.341   6.842
 2819SOL    HW2 9357   0.623   0.356   6.818
 2820SOL     OW 9358   1.445   2.703   7.003
 2820SOL    HW1 9359   1.440   2.801   0.004
 2820SOL    HW2 9360   1.533   2.668   0.018
 2821SOL     OW 9361   3.344   3.242   6.244
 2821SOL    HW1 9362   3.348   3.331   6.290
 2821SOL    HW2 9363   3.249   3.210   6.240
 2822SOL     OW 9364   4.503   2.712   0.489
 2822SOL    HW1 9365   4.586   2.659   0.469
 2822SOL    HW2 9366   4.518   2.808   0.466
 2823SOL     OW 9367   4.890   2.577   1.800
 2823SOL    HW1 9368   4.961   2.507   1.791
 2823SOL    HW2 9369   4.869   2.593   1.896
 2824SOL     OW 9370   1.403   3.622   4.362
 2824SOL    HW1 9371   1.303   3.619   4.360
 2824SOL    HW2 9372   1.439   3.568   4.286
 2825SOL     OW 9373   5.650   1.922   6.316
 2825SOL    HW1 9374   5.642   1.962   6.224
 2825SOL    HW2 9375   5.595   1.976   6.380
 2826SOL     OW 9376   2.590   2.562   6.835
 2826SOL    HW1 9377   2.544   2.624   6.772
 2826SOL    HW2 9378   2.615   2.611   6.919
 2827SOL     OW 9379   6.144   1.076   6.291
 2827SOL    HW1 9380   6.093   1.159   6.269
 2827SOL    HW2 9381   6.166   1.076   6.389
 2828SOL     OW 9382   1.940   3.890   1.012
 2828SOL    HW1 9383   1.895   3.979   1.019
 2828SOL    HW2 9384   1.915   3.833   1.091
 2829SOL     OW 9385   3.356   3.728   2.418
 2829SOL    HW1 9386   3.342   3.677   2.334
 2829SOL    HW2 9387   3.405   3.671   2.484
 2830SOL     OW 9388   3.225   5.838   5.503
 2830SOL    HW1 9389   3.212   5.919   5.445
 2830SOL    HW2 9390   3.305   5.851   5.561
 2831SOL     OW 9391   5.425   1.935   1.969
 2831SOL    HW1 9392   5.477   1.969   2.048
 2831SOL    HW2 9393   5.351   1.877   2.002
 2832SOL     OW 9394   0.695   3.854   1.873
 2832SOL    HW1 9395   0.759   3.888   1.804
 2832SOL    HW2 9396   0.746   3.806   1.945
 2833SOL     OW 9397   1.633   2.389   1.985
 2833SOL    HW1 9398   1.671   2.297   1.994
 2833SOL    HW2 9399   1.658   2.427   1.896
 2834SOL     OW 9400   3.653   6.255   4.705
 2834SOL    HW1 9401   3.720   6.203   4.652
 2834SOL    HW2 9402   3.572   6.199   4.720
 2835SOL     OW 9403   6.666   0.859   0.385
 2835SOL    HW1 9404   6.647   0.762   0.368
 2835SOL    HW2 9405   6.658   0.877   0.484
 2836SOL     OW 9406   3.595   5.807   2.220
 2836SOL    HW1 9407   3.505   5.848   2.215
 2836SOL    HW2 9408   3.609   5.768   2.312
 2837SOL     OW 9409   5.117   4.024   1.769
 2837SOL    HW1 9410   5.068   3.937   1.767
 2837SOL    HW2 9411   5.051   4.099   1.764
 2838SOL     OW 9412   6.156   4.755   6.558
 2838SOL    HW1 9413   6.228   4.809   6.602
 2838SOL    HW2 9414   6.088   4.728   6.627
 2839SOL     OW 9415   6.281   3.314   4.914
 2839SOL    HW1 9416   6.343   3.245   4.879
 2839SOL    HW2 9417   6.285   3.395   4.856
 2840SOL     OW 9418   0.046   6.529   4.137
 2840SOL    HW1 9419   0.042   6.456   4.206
 2840SOL    HW2 9420   0.138   6.534   4.100
 2841SOL     OW 9421   6.325   3.846   2.347
 2841SOL    HW1 9422   6.327   3.945   2.358
 2841SOL    HW2 9423   6.244   3.809   2.393
 2842SOL     OW 9424   1.372   0.506   3.708
 2842SOL    HW1 9425   1.328   0.560   3.636
 2842SOL    HW2 9426   1.470   0.499   3.689
 2843SOL     OW 9427   2.158   2.496   4.162
 2843SOL    HW1 9428   2.174   2.411   4.112
 2843SOL    HW2 9429   2.215   2.569   4.123
 2844SOL     OW 9430   5.043   3.993   6.982
 2844SOL    HW1 9431   4.971   4.022   6.919
 2844SOL    HW2 9432   5.104   3.929   6.935
 2845SOL     OW 9433   3.324   2.077   2.805
 2845SOL    HW1 9434   3.253   2.024   2.850
 2845SOL    HW2 9435   3.397   2.096   2.870
 2846SOL     OW 9436   6.372   0.217   6.733
 2846SOL    HW1 9437   6.411   0.209   6.824
 2846SOL    HW2 9438   6.282   0.173   6.732
 2847SOL     OW 9439   4.535   4.186   1.412
 2847SOL    HW1 9440   4.579   4.099   1.391
 2847SOL    HW2 9441   4.452   4.196   1.356
 2848SOL     OW 9442   0.957   4.002   5.296
 2848SOL    HW1 9443   0.909   3.928   5.344
 2848SOL    HW2 9444   0.894   4.078   5.280
 2849SOL     OW 9445   4.890   0.333   1.703
 2849SOL    HW1 9446   4.871   0.416   1.650
 2849SOL    HW2 9447   4.893   0.255   1.641
 2850SOL     OW 9448   1.756   0.672   2.085
 2850SOL    HW1 9449   1.796   0.609   2.152
 2850SOL    HW2 9450   1.740   0.761   2.129
 2851SOL     OW 9451   3.571   3.025   1.728
 2851SOL    HW1 9452   3.585   2.974   1.813
 2851SOL    HW2 9453   3.474   3.020   1.702
 2852SOL     OW 9454   6.545   4.602   6.522
 2852SOL    HW1 9455   6.515   4.589   6.428
 2852SOL    HW2 9456   6.508   4.529   6.579
 2853SOL     OW 9457   0.024   4.222   5.754
 2853SOL    HW1 9458   0.124   4.226   5.763
 2853SOL    HW2 9459   0.000   4.154   5.684
 2854SOL     OW 9460   4.411   0.725   5.648
 2854SOL    HW1 9461   4.458   0.741   5.561
 2854SOL    HW2 9462   4.312   0.730   5.634
 2855SOL     OW 9463   2.349   2.148   5.091
 2855SOL    HW1 9464   2.427   2.210   5.096
 2855SOL    HW2 9465   2.286   2.168   5.167
 2856SOL     OW 9466   1.142   5.494   3.959
 2856SOL    HW1 9467   1.198   5.493   3.876
 2856SOL    HW2 9468   1.046   5.502   3.935
 2857SOL     OW 9469   6.771   4.357   1.269
 2857SOL    HW1 9470   6.674   4.355   1.248
 2857SOL    HW2 9471   6.796   4.275   1.320
 2858SOL     OW 9472   4.360   4.578   2.369
 2858SOL    HW1 9473   4.306   4.634   2.307
 2858SOL    HW2 9474   4.401   4.501   2.320
 2859SOL     OW 9475   5.124   4.897   0.806
 2859SOL    HW1 9476   5.219   4.903   0.774
 2859SOL    HW2 9477   5.120   4.925   0.902
 2860SOL     OW 9478   1.137   0.171   2.473
 2860SOL    HW1 9479   1.089   0.251   2.511
 2860SOL    HW2 9480   1.185   0.123   2.547
 2861SOL     OW 9481   4.895   4.743   5.766
 2861SOL    HW1 9482   4.938   4.786   5.686
 2861SOL    HW2 9483   4.872   4.813   5.833
 2862SOL     OW 9484   4.388   2.977   0.113
 2862SOL    HW1 9485   4.312   3.002   0.053
 2862SOL    HW2 9486   4.390   2.878   0.126
 2863SOL     OW 9487   5.971   0.739   4.947
 2863SOL    HW1 9488   5.968   0.775   5.040
 2863SOL    HW2 9489   5.998   0.642   4.949
 2864SOL     OW 9490   3.564   4.723   0.198
 2864SOL    HW1 9491   3.489   4.777   0.235
 2864SOL    HW2 9492   3.641   4.784   0.176
 2865SOL     OW 9493   5.862   5.176   4.887
 2865SOL    HW1 9494   5.882   5.265   4.930
 2865SOL    HW2 9495   5.943   5.144   4.838
 2866SOL     OW 9496   4.332   4.159   0.429
 2866SOL    HW1 9497   4.367   4.067   0.442
 2866SOL    HW2 9498   4.404   4.219   0.394
 2867SOL     OW 9499   5.474   6.119   2.085
 2867SOL    HW1 9500   5.474   6.109   2.185
 2867SOL    HW2 9501   5.496   6.214   2.061
 2868SOL     OW 9502   1.162   0.498   5.464
 2868SOL    HW1 9503   1.094   0.521   5.395
 2868SOL    HW2 9504   1.226   0.431   5.427
 2869SOL     OW 9505   6.305   5.423   4.190
 2869SOL    HW1 9506   6.402   5.415   4.208
 2869SOL    HW2 9507   6.259   5.337   4.214
 2870SOL     OW 9508   6.753   2.410   2.017
 2870SOL    HW1 9509   6.850   2.402   1.992
 2870SOL    HW2 9510   6.745   2.467   2.099
 2871SOL     OW 9511   5.118   2.233   2.503
 2871SOL    HW1 9512   5.119   2.151   2.446
 2871SOL    HW2 9513   5.138   2.208   2.597
 2872SOL     OW 9514   3.033   2.112   2.386
 2872SOL    HW1 9515   2.954   2.172   2.373
 2872SOL    HW2 9516   3.029   2.070   2.477
 2873SOL     OW 9517   0.658   0.057   0.918
 2873SOL    HW1 9518   0.684   7.010   0.846
 2873SOL    HW2 9519   0.570   0.028   0.958
 2874SOL     OW 9520   2.640   1.390   3.042
 2874SOL    HW1 9521   2.583   1.401   2.961
 2874SOL    HW2 9522   2.649   1.292   3.063
 2875SOL     OW 9523   2.047   6.980   2.778
 2875SOL    HW1 9524   2.060   6.932   2.864
 2875SOL    HW2 9525   1.949   6.995   2.762
 2876SOL     OW 9526   1.779   0.227   1.924
 2876SOL    HW1 9527   1.714   0.301   1.945
 2876SOL    HW2 9528   1.744   0.141   1.961
 2877SOL     OW 9529   0.919   2.547   6.677
 2877SOL    HW1 9530   0.991   2.529   6.744
 2877SOL    HW2 9531   0.833   2.568   6.724
 2878SOL     OW 9532   3.938   3.062   3.951
 2878SOL    HW1 9533   3.992   3.097   3.875
 2878SOL    HW2 9534   3.921   3.135   4.017
 2879SOL     OW 9535   4.763   4.107   0.112
 2879SOL    HW1 9536   4.665   4.088   0.113
 2879SOL    HW2 9537   4.793   4.125   0.018
 2880SOL     OW 9538   2.392   1.206   3.492
 2880SOL    HW1 9539   2.395   1.302   3.463
 2880SOL    HW2 9540   2.342   1.199   3.578
 2881SOL     OW 9541   4.797   6.177   6.894
 2881SOL    HW1 9542   4.860   6.160   6.819
 2881SOL    HW2 9543   4.816   6.114   6.969
 2882SOL     OW 9544   4.489   6.210   0.164
 2882SOL    HW1 9545   4.554   6.239   0.234
 2882SOL    HW2 9546   4.472   6.286   0.101
 2883SOL     OW 9547   5.710   5.888   4.073
 2883SOL    HW1 9548   5.657   5.815   4.030
 2883SOL    HW2 9549   5.732   5.957   4.005
 2884SOL     OW 9550   6.433   5.148   4.419
 2884SOL    HW1 9551   6.527   5.114   4.422
 2884SOL    HW2 9552   6.434   5.248   4.419
 2885SOL     OW 9553   1.155   2.309   3.386
 2885SOL    HW1 9554   1.096   2.365   3.444
 2885SOL    HW2 9555   1.250   2.339   3.395
 2886SOL     OW 9556   2.174   4.542   5.449
 2886SOL    HW1 9557   2.241   4.587   5.389
 2886SOL    HW2 9558   2.167   4.446   5.424
 2887SOL     OW 9559   0.433   5.908   3.116
 2887SOL    HW1 9560   0.480   5.972   3.054
 2887SOL    HW2 9561   0.418   5.952   3.204
 2888SOL     OW 9562   6.155   6.837   6.691
 2888SOL    HW1 9563   6.137   6.787   6.606
 2888SOL    HW2 9564   6.218   6.912   6.672
 2889SOL     OW 9565   3.377   6.521   2.504
 2889SOL    HW1 9566   3.309   6.574   2.453
 2889SOL    HW2 9567   3.343   6.428   2.518
 2890SOL     OW 9568   1.322   1.458   1.558
 2890SOL    HW1 9569   1.253   1.531   1.549
 2890SOL    HW2 9570   1.412   1.499   1.573
 2891SOL     OW 9571   0.018   2.585   4.512
 2891SOL    HW1 9572   6.982   2.595   4.597
 2891SOL    HW2 9573   7.002   2.506   4.461
 2892SOL     OW 9574   6.069   3.811   2.514
 2892SOL    HW1 9575   6.099   3.820   2.609
 2892SOL    HW2 9576   5.979   3.852   2.504
 2893SOL     OW 9577   6.523   5.647   4.935
 2893SOL    HW1 9578   6.506   5.595   4.852
 2893SOL    HW2 9579   6.616   5.685   4.933
 2894SOL     OW 9580   2.121   6.111   2.466
 2894SOL    HW1 9581   2.110   6.209   2.449
 2894SOL    HW2 9582   2.032   6.068   2.476
 2895SOL     OW 9583   4.341   0.004   6.049
 2895SOL    HW1 9584   4.270   0.022   6.117
 2895SOL    HW2 9585   4.305   6.956   5.981
 2896SOL     OW 9586   5.825   6.439   4.544
 2896SOL    HW1 9587   5.732   6.475   4.537
 2896SOL    HW2 9588   5.839   6.403   4.637
 2897SOL     OW 9589   3.948   5.094   3.164
 2897SOL    HW1 9590   3.911   5.001   3.161
 2897SOL    HW2 9591   3.874   5.159   3.145
 2898SOL     OW 9592   5.605   2.679   2.610
 2898SOL    HW1 9593   5.685   2.718   2.656
 2898SOL    HW2 9594   5.584   2.734   2.529
 2899SOL     OW 9595   6.809   4.015   0.888
 2899SOL    HW1 9596   6.869   3.958   0.944
 2899SOL    HW2 9597   6.814   4.110   0.919
 2900SOL     OW 9598   2.454   3.212   5.814
 2900SOL    HW1 9599   2.457   3.311   5.802
 2900SOL    HW2 9600   2.530   3.183   5.872
 2901SOL     OW 9601   0.810   3.873   3.377
 2901SOL    HW1 9602   0.789   3.969   3.358
 2901SOL    HW2 9603   0.790   3.819   3.295
 2902SOL     OW 9604   6.992   6.074   3.511
 2902SOL    HW1 9605   7.012   6.010   3.585
 2902SOL    HW2 9606   0.051   6.076   3.446
 2903SOL     OW 9607   4.742   5.150   0.408
 2903SOL    HW1 9608   4.657   5.202   0.400
 2903SOL    HW2 9609   4.749   5.111   0.500
 2904SOL     OW 9610   2.588   4.100   5.413
 2904SOL    HW1 9611   2.571   4.196   5.388
 2904SOL    HW2 9612   2.561   4.041   5.338
 2905SOL     OW 9613   1.345   6.129   1.761
 2905SOL    HW1 9614   1.414   6.169   1.821
 2905SOL    HW2 9615   1.370   6.147   1.665
 2906SOL     OW 9616   6.535   6.287   4.179
 2906SOL    HW1 9617   6.518   6.306   4.082
 2906SOL    HW2 9618   6.520   6.190   4.197
 2907SOL     OW 9619   0.865   1.353   4.458
 2907SOL    HW1 9620   0.886   1.417   4.532
 2907SOL    HW2 9621   0.880   1.399   4.370
 2908SOL     OW 9622   4.206   6.568   2.818
 2908SOL    HW1 9623   4.226   6.472   2.798
 2908SOL    HW2 9624   4.200   6.619   2.732
 2909SOL     OW 9625   0.403   6.335   1.623
 2909SOL    HW1 9626   0.325   6.273   1.612
 2909SOL    HW2 9627   0.372   6.420   1.666
 2910SOL     OW 9628   0.059   0.856   4.167
 2910SOL    HW1 9629   0.115   0.821   4.092
 2910SOL    HW2 9630   0.028   0.949   4.145
 2911SOL     OW 9631   6.971   4.632   5.401
 2911SOL    HW1 9632   0.012   4.699   5.447
 2911SOL    HW2 9633   0.009   4.579   5.337
 2912SOL     OW 9634   0.773   1.259   1.802
 2912SOL    HW1 9635   0.765   1.319   1.723
 2912SOL    HW2 9636   0.828   1.179   1.778
 2913SOL     OW 9637   2.984   0.003   1.885
 2913SOL    HW1 9638   2.950   0.014   1.792
 2913SOL    HW2 9639   3.065   0.061   1.898
 2914SOL     OW 9640   4.048   5.444   0.892
 2914SOL    HW1 9641   4.144   5.456   0.867
 2914SOL    HW2 9642   4.007   5.533   0.910
 2915SOL     OW 9643   1.992   0.514   2.609
 2915SOL    HW1 9644   1.921   0.571   2.569
 2915SOL    HW2 9645   2.044   0.568   2.676
 2916SOL     OW 9646   1.573   6.334   0.022
 2916SOL    HW1 9647   1.560   6.243   0.061
 2916SOL    HW2 9648   1.639   6.329   6.964
 2917SOL     OW 9649   2.853   6.305   4.027
 2917SOL    HW1 9650   2.910   6.387   4.019
 2917SOL    HW2 9651   2.757   6.332   4.032
 2918SOL     OW 9652   4.883   2.612   2.060
 2918SOL    HW1 9653   4.927   2.539   2.113
 2918SOL    HW2 9654   4.881   2.696   2.113
 2919SOL     OW 9655   1.022   5.963   5.062
 2919SOL    HW1 9656   1.043   6.061   5.058
 2919SOL    HW2 9657   1.022   5.934   5.158
 2920SOL     OW 9658   1.634   2.350   2.578
 2920SOL    HW1 9659   1.573   2.389   2.509
 2920SOL    HW2 9660   1.703   2.417   2.603
 2921SOL     OW 9661   1.017   6.394   3.661
 2921SOL    HW1 9662   1.108   6.432   3.676
 2921SOL    HW2 9663   1.005   6.312   3.716
 2922SOL     OW 9664   3.557   6.609   3.611
 2922SOL    HW1 9665   3.578   6.659   3.695
 2922SOL    HW2 9666   3.474   6.555   3.625
 2923SOL     OW 9667   6.343   5.757   5.100
 2923SOL    HW1 9668   6.409   5.731   5.030
 2923SOL    HW2 9669   6.369   5.715   5.187
 2924SOL     OW 9670   5.937   2.035   5.124
 2924SOL    HW1 9671   5.866   2.027   5.194
 2924SOL    HW2 9672   6.021   2.069   5.166
 2925SOL     OW 9673   5.075   6.346   5.881
 2925SOL    HW1 9674   5.041   6.402   5.956
 2925SOL    HW2 9675   5.026   6.368   5.797
 2926SOL     OW 9676   6.609   3.202   4.418
 2926SOL    HW1 9677   6.665   3.260   4.359
 2926SOL    HW2 9678   6.601   3.111   4.377
 2927SOL     OW 9679   1.123   1.812   2.106
 2927SOL    HW1 9680   1.025   1.819   2.119
 2927SOL    HW2 9681   1.155   1.722   2.135
 2928SOL     OW 9682   6.697   3.310   6.957
 2928SOL    HW1 9683   6.628   3.238   6.961
 2928SOL    HW2 9684   6.787   3.273   6.981
 2929SOL     OW 9685   2.364   2.164   4.354
 2929SOL    HW1 9686   2.372   2.207   4.444
 2929SOL    HW2 9687   2.449   2.177   4.304
 2930SOL     OW 9688   0.707   3.890   4.252
 2930SOL    HW1 9689   0.750   3.963   4.198
 2930SOL    HW2 9690   0.672   3.820   4.190
 2931SOL     OW 9691   4.812   3.906   5.694
 2931SOL    HW1 9692   4.763   3.898   5.781
 2931SOL    HW2 9693   4.893   3.962   5.707
 2932SOL     OW 9694   6.155   5.431   0.676
 2932SOL    HW1 9695   6.071   5.409   0.626
 2932SOL    HW2 9696   6.158   5.529   0.695
 2933SOL     OW 9697   1.271   0.204   0.075
 2933SOL    HW1 9698   1.302   0.236   0.165
 2933SOL    HW2 9699   1.198   0.264   0.042
 2934SOL     OW 9700   3.536   4.486   0.312
 2934SOL    HW1 9701   3.535   4.575   0.266
 2934SOL    HW2 9702   3.554   4.414   0.245
 2935SOL     OW 9703   0.429   2.187   6.213
 2935SOL    HW1 9704   0.343   2.139   6.232
 2935SOL    HW2 9705   0.418   2.246   6.134
 2936SOL     OW 9706   4.624   6.177   0.751
 2936SOL    HW1 9707   4.540   6.134   0.717
 2936SOL    HW2 9708   4.703   6.140   0.702
 2937SOL     OW 9709   4.858   4.699   2.533
 2937SOL    HW1 9710   4.930   4.651   2.483
 2937SOL    HW2 9711   4.775   4.643   2.534
 2938SOL     OW 9712   0.179   5.248   6.241
 2938SOL    HW1 9713   0.086   5.279   6.260
 2938SOL    HW2 9714   0.239   5.273   6.318
 2939SOL     OW 9715   0.045   6.501   1.842
 2939SOL    HW1 9716   0.065   6.514   1.939
 2939SOL    HW2 9717   0.044   6.403   1.821
 2940SOL     OW 9718   3.950   6.725   3.739
 2940SOL    HW1 9719   3.972   6.758   3.647
 2940SOL    HW2 9720   3.958   6.625   3.741
 2941SOL     OW 9721   1.966   4.512   3.438
 2941SOL    HW1 9722   1.949   4.415   3.456
 2941SOL    HW2 9723   1.940   4.533   3.344
 2942SOL     OW 9724   3.720   1.339   0.879
 2942SOL    HW1 9725   3.777   1.364   0.957
 2942SOL    HW2 9726   3.624   1.349   0.902
 2943SOL     OW 9727   6.135   3.932   3.116
 2943SOL    HW1 9728   6.139   3.860   3.185
 2943SOL    HW2 9729   6.041   3.964   3.106
 2944SOL     OW 9730   2.160   6.390   2.400
 2944SOL    HW1 9731   2.218   6.377   2.319
 2944SOL    HW2 9732   2.067   6.411   2.371
 2945SOL     OW 9733   4.807   4.309   1.233
 2945SOL    HW1 9734   4.720   4.353   1.207
 2945SOL    HW2 9735   4.849   4.269   1.153
 2946SOL     OW 9736   3.854   3.580   5.247
 2946SOL    HW1 9737   3.820   3.597   5.154
 2946SOL    HW2 9738   3.787   3.525   5.297
 2947SOL     OW 9739   6.671   6.489   0.760
 2947SOL    HW1 9740   6.574   6.498   0.737
 2947SOL    HW2 9741   6.708   6.406   0.717
 2948SOL     OW 9742   6.754   3.890   1.798
 2948SOL    HW1 9743   6.817   3.914   1.872
 2948SOL    HW2 9744   6.724   3.974   1.753
 2949SOL     OW 9745   1.207   6.763   1.000
 2949SOL    HW1 9746   1.292   6.761   0.947
 2949SOL    HW2 9747   1.179   6.670   1.024
 2950SOL     OW 9748   5.886   4.999   3.013
 2950SOL    HW1 9749   5.957   5.056   3.053
 2950SOL    HW2 9750   5.890   5.007   2.913
 2951SOL     OW 9751   6.859   1.532   1.609
 2951SOL    HW1 9752   6.798   1.514   1.686
 2951SOL    HW2 9753   6.910   1.449   1.586
 2952SOL     OW 9754   6.391   1.943   4.881
 2952SOL    HW1 9755   6.313   2.002   4.903
 2952SOL    HW2 9756   6.436   1.913   4.965
 2953SOL     OW 9757   1.292   5.173   3.553
 2953SOL    HW1 9758   1.209   5.154   3.501
 2953SOL    HW2 9759   1.322   5.090   3.600
 2954SOL     OW 9760   0.170   4.571   6.021
 2954SOL    HW1 9761   0.169   4.482   6.065
 2954SOL    HW2 9762   0.245   4.574   5.954
 2955SOL     OW 9763   2.236   4.228   5.768
 2955SOL    HW1 9764   2.220   4.183   5.681
 2955SOL    HW2 9765   2.323   4.196   5.807
 2956SOL     OW 9766   5.442   4.723   4.087
 2956SOL    HW1 9767   5.441   4.636   4.038
 2956SOL    HW2 9768   5.525   4.774   4.064
 2957SOL     OW 9769   2.268   4.690   1.340
 2957SOL    HW1 9770   2.204   4.753   1.383
 2957SOL    HW2 9771   2.228   4.598   1.336
 2958SOL     OW 9772   1.851   5.222   2.509
 2958SOL    HW1 9773   1.778   5.227   2.441
 2958SOL    HW2 9774   1.850   5.132   2.553
 2959SOL     OW 9775   6.837   3.516   2.440
 2959SOL    HW1 9776   6.749   3.541   2.483
 2959SOL    HW2 9777   6.886   3.453   2.500
 2960SOL     OW 9778   5.482   6.853   0.882
 2960SOL    HW1 9779   5.545   6.818   0.951
 2960SOL    HW2 9780   5.508   6.947   0.858
 2961SOL     OW 9781   5.658   3.465   2.037
 2961SOL    HW1 9782   5.698   3.553   2.012
 2961SOL    HW2 9783   5.558   3.473   2.036
 2962SOL     OW 9784   6.741   0.241   3.014
 2962SOL    HW1 9785   6.713   0.176   2.943
 2962SOL    HW2 9786   6.663   0.298   3.039
 2963SOL     OW 9787   1.896   0.749   5.385
 2963SOL    HW1 9788   1.901   0.716   5.290
 2963SOL    HW2 9789   1.938   0.681   5.446
 2964SOL     OW 9790   1.188   1.237   6.718
 2964SOL    HW1 9791   1.261   1.174   6.744
 2964SOL    HW2 9792   1.166   1.297   6.796
 2965SOL     OW 9793   6.991   6.886   5.229
 2965SOL    HW1 9794   0.001   6.908   5.323
 2965SOL    HW2 9795   6.911   6.827   5.230
 2966SOL     OW 9796   3.277   5.683   2.149
 2966SOL    HW1 9797   3.270   5.776   2.183
 2966SOL    HW2 9798   3.287   5.619   2.225
 2967SOL     OW 9799   5.441   0.547   4.560
 2967SOL    HW1 9800   5.445   0.573   4.464
 2967SOL    HW2 9801   5.409   0.452   4.567
 2968SOL     OW 9802   1.474   3.621   1.474
 2968SOL    HW1 9803   1.429   3.582   1.394
 2968SOL    HW2 9804   1.562   3.661   1.446
 2969SOL     OW 9805   4.859   3.313   5.134
 2969SOL    HW1 9806   4.837   3.316   5.231
 2969SOL    HW2 9807   4.843   3.403   5.093
 2970SOL     OW 9808   2.904   1.824   4.335
 2970SOL    HW1 9809   2.915   1.781   4.245
 2970SOL    HW2 9810   2.969   1.783   4.399
 2971SOL     OW 9811   5.535   2.982   6.249
 2971SOL    HW1 9812   5.574   3.029   6.170
 2971SOL    HW2 9813   5.606   2.970   6.319
 2972SOL     OW 9814   6.168   5.582   0.105
 2972SOL    HW1 9815   6.231   5.531   0.046
 2972SOL    HW2 9816   6.079   5.536   0.105
 2973SOL     OW 9817   4.419   0.989   3.725
 2973SOL    HW1 9818   4.408   0.919   3.654
 2973SOL    HW2 9819   4.506   1.037   3.711
 2974SOL     OW 9820   4.800   6.772   2.118
 2974SOL    HW1 9821   4.770   6.865   2.096
 2974SOL    HW2 9822   4.895   6.775   2.149
 2975SOL     OW 9823   4.896   3.882   4.092
 2975SOL    HW1 9824   4.881   3.887   4.191
 2975SOL    HW2 9825   4.959   3.807   4.072
 2976SOL     OW 9826   4.133   1.340   2.227
 2976SOL    HW1 9827   4.040   1.337   2.189
 2976SOL    HW2 9828   4.187   1.407   2.176
 2977SOL     OW 9829   1.023   0.752   1.557
 2977SOL    HW1 9830   0.955   0.679   1.560
 2977SOL    HW2 9831   1.055   0.771   1.650
 2978SOL     OW 9832   4.659   5.374   6.504
 2978SOL    HW1 9833   4.688   5.421   6.420
 2978SOL    HW2 9834   4.581   5.423   6.544
 2979SOL     OW 9835   2.930   0.903   3.984
 2979SOL    HW1 9836   2.985   0.943   3.911
 2979SOL    HW2 9837   2.835   0.934   3.975
 2980SOL     OW 9838   3.759   3.586   4.985
 2980SOL    HW1 9839   3.808   3.574   4.899
 2980SOL    HW2 9840   3.681   3.648   4.971
 2981SOL     OW 9841   2.285   1.093   1.545
 2981SOL    HW1 9842   2.201   1.070   1.594
 2981SOL    HW2 9843   2.364   1.061   1.599
 2982SOL     OW 9844   1.911   6.990   0.560
 2982SOL    HW1 9845   1.883   6.929   0.486
 2982SOL    HW2 9846   2.010   7.005   0.555
 2983SOL     OW 9847   6.236   3.233   5.529
 2983SOL    HW1 9848   6.168   3.174   5.486
 2983SOL    HW2 9849   6.327   3.209   5.495
 2984SOL     OW 9850   0.558   5.118   1.467
 2984SOL    HW1 9851   0.631   5.054   1.442
 2984SOL    HW2 9852   0.563   5.199   1.408
 2985SOL     OW 9853   0.191   0.191   5.759
 2985SOL    HW1 9854   0.102   0.191   5.714
 2985SOL    HW2 9855   0.261   0.159   5.694
 2986SOL     OW 9856   3.752   3.565   2.349
 2986SOL    HW1 9857   3.805   3.626   2.289
 2986SOL    HW2 9858   3.783   3.470   2.336
 2987SOL     OW 9859   1.829   6.221   5.458
 2987SOL    HW1 9860   1.737   6.260   5.447
 2987SOL    HW2 9861   1.897   6.291   5.436
 2988SOL     OW 9862   0.175   1.374   6.504
 2988SOL    HW1 9863   0.202   1.333   6.591
 2988SOL    HW2 9864   0.181   1.305   6.432
 2989SOL     OW 9865   4.748   2.898   4.525
 2989SOL    HW1 9866   4.722   2.851   4.440
 2989SOL    HW2 9867   4.780   2.991   4.503
 2990SOL     OW 9868   5.570   1.662   4.180
 2990SOL    HW1 9869   5.612   1.752   4.194
 2990SOL    HW2 9870   5.641   1.592   4.183
 2991SOL     OW 9871   0.473   3.869   0.765
 2991SOL    HW1 9872   0.460   3.904   0.673
 2991SOL    HW2 9873   0.563   3.895   0.798
 2992SOL     OW 9874   0.453   3.868   5.500
 2992SOL    HW1 9875   0.516   3.798   5.468
 2992SOL    HW2 9876   0.359   3.839   5.481
 2993SOL     OW 9877   2.605   3.403   1.213
 2993SOL    HW1 9878   2.693   3.385   1.258
 2993SOL    HW2 9879   2.620   3.462   1.134
 2994SOL     OW 9880   3.895   5.518   5.993
 2994SOL    HW1 9881   3.860   5.436   6.038
 2994SOL    HW2 9882   3.838   5.597   6.019
 2995SOL     OW 9883   4.595   0.847   0.840
 2995SOL    HW1 9884   4.550   0.932   0.870
 2995SOL    HW2 9885   4.639   0.862   0.752
 2996SOL     OW 9886   6.975   0.504   4.441
 2996SOL    HW1 9887   6.911   0.578   4.458
 2996SOL    HW2 9888   0.024   0.532   4.371
 2997SOL     OW 9889   4.922   6.426   4.335
 2997SOL    HW1 9890   4.857   6.492   4.298
 2997SOL    HW2 9891   4.883   6.382   4.416
 2998SOL     OW 9892   2.519   1.724   2.455
 2998SOL    HW1 9893   2.593   1.788   2.478
 2998SOL    HW2 9894   2.535   1.637   2.502
 2999SOL     OW 9895   3.310   3.965   1.147
 2999SOL    HW1 9896   3.295   3.884   1.090
 2999SOL    HW2 9897   3.399   3.958   1.192
 3000SOL     OW 9898   3.054   4.113   5.145
 3000SOL    HW1 9899   3.083   4.207   5.167
 3000SOL    HW2 9900   2.969   4.093   5.194
 3001SOL     OW 9901   5.452   0.683   5.658
 3001SOL    HW1 9902   5.461   0.584   5.665
 3001SOL    HW2 9903   5.543   0.725   5.658
 3002SOL     OW 9904   1.585   1.920   2.142
 3002SOL    HW1 9905   1.605   1.973   2.060
 3002SOL    HW2 9906   1.537   1.978   2.208
 3003SOL     OW 9907   1.741   6.357   6.839
 3003SOL    HW1 9908   1.839   6.348   6.821
 3003SOL    HW2 9909   1.720   6.451   6.866
 3004SOL     OW 9910   2.486   6.526   3.548
 3004SOL    HW1 9911   2.558   6.591   3.522
 3004SOL    HW2 9912   2.491   6.446   3.489
 3005SOL     OW 9913   1.004   1.936   0.045
 3005SOL    HW1 9914   1.090   1.895   0.015
 3005SOL    HW2 9915   1.013   2.036   0.046
 3006SOL     OW 9916   4.895   1.792   5.921
 3006SOL    HW1 9917   4.926   1.796   6.016
 3006SOL    HW2 9918   4.797   1.772   5.918
 3007SOL     OW 9919   5.447   5.624   0.066
 3007SOL    HW1 9920   5.452   5.526   0.050
 3007SOL    HW2 9921   5.437   5.641   0.165
 3008SOL     OW 9922   4.787   3.469   5.793
 3008SOL    HW1 9923   4.886   3.466   5.779
 3008SOL    HW2 9924   4.766   3.515   5.879
 3009SOL     OW 9925   0.265   3.446   1.809
 3009SOL    HW1 9926   0.261   3.392   1.725
 3009SOL    HW2 9927   0.172   3.460   1.843
 3010SOL     OW 9928   4.059   5.901   0.849
 3010SOL    HW1 9929   4.060   5.890   0.749
 3010SOL    HW2 9930   4.041   5.996   0.872
 3011SOL     OW 9931   6.669   0.556   1.224
 3011SOL    HW1 9932   6.751   0.527   1.274
 3011SOL    HW2 9933   6.672   0.520   1.131
 3012SOL     OW 9934   2.220   2.276   5.319
 3012SOL    HW1 9935   2.150   2.347   5.321
 3012SOL    HW2 9936   2.310   2.317   5.334
 3013SOL     OW 9937   0.828   4.847   4.665
 3013SOL    HW1 9938   0.864   4.866   4.757
 3013SOL    HW2 9939   0.879   4.901   4.598
 3014SOL     OW 9940   5.500   0.197   6.055
 3014SOL    HW1 9941   5.456   0.121   6.104
 3014SOL    HW2 9942   5.438   0.276   6.055
 3015SOL     OW 9943   1.005   0.796   6.535
 3015SOL    HW1 9944   1.077   0.740   6.575
 3015SOL    HW2 9945   1.045   0.879   6.496
 3016SOL     OW 9946   1.892   6.176   4.123
 3016SOL    HW1 9947   1.929   6.118   4.051
 3016SOL    HW2 9948   1.946   6.260   4.130
 3017SOL     OW 9949   1.102   5.186   0.469
 3017SOL    HW1 9950   1.114   5.269   0.524
 3017SOL    HW2 9951   1.148   5.109   0.514
 3018SOL     OW 9952   3.604   0.040   1.363
 3018SOL    HW1 9953   3.610   0.136   1.390
 3018SOL    HW2 9954   3.512   0.020   1.330
 3019SOL     OW 9955   1.797   0.552   6.069
 3019SOL    HW1 9956   1.857   0.473   6.080
 3019SOL    HW2 9957   1.847   0.626   6.025
 3020SOL     OW 9958   6.378   4.107   6.678
 3020SOL    HW1 9959   6.357   4.037   6.610
 3020SOL    HW2 9960   6.296   4.130   6.729
 3021SOL     OW 9961   4.076   0.376   4.849
 3021SOL    HW1 9962   4.094   0.315   4.927
 3021SOL    HW2 9963   4.140   0.453   4.852
 3022SOL     OW 9964   3.677   5.609   3.452
 3022SOL    HW1 9965   3.717   5.622   3.362
 3022SOL    HW2 9966   3.690   5.692   3.506
 3023SOL     OW 9967   5.146   5.542   4.469
 3023SOL    HW1 9968   5.108   5.477   4.402
 3023SOL    HW2 9969   5.168   5.628   4.423
 3024SOL     OW 9970   0.325   6.919   0.394
 3024SOL    HW1 9971   0.241   6.970   0.379
 3024SOL    HW2 9972   0.347   6.868   0.311
 3025SOL     OW 9973   3.954   5.420   0.171
 3025SOL    HW1 9974   3.976   5.377   0.084
 3025SOL    HW2 9975   4.032   5.473   0.203
 3026SOL     OW 9976   6.762   0.777   1.996
 3026SOL    HW1 9977   6.722   0.725   2.071
 3026SOL    HW2 9978   6.861   0.759   1.992
 3027SOL     OW 9979   4.397   0.649   0.731
 3027SOL    HW1 9980   4.428   0.715   0.800
 3027SOL    HW2 9981   4.359   0.569   0.777
 3028SOL     OW 9982   3.005   2.945   5.742
 3028SOL    HW1 9983   3.067   2.876   5.777
 3028SOL    HW2 9984   2.990   2.930   5.644
 3029SOL     OW 9985   0.114   3.111   4.651
 3029SOL    HW1 9986   0.101   3.165   4.734
 3029SOL    HW2 9987   0.056   3.030   4.654
 3030SOL     OW 9988   2.277   3.045   6.717
 3030SOL    HW1 9989   2.279   3.057   6.816
 3030SOL    HW2 9990   2.187   3.011   6.689
 3031SOL     OW 9991   0.893   6.088   0.411
 3031SOL    HW1 9992   0.867   6.161   0.475
 3031SOL    HW2 9993   0.954   6.024   0.456
 3032SOL     OW 9994   2.530   0.561   2.952
 3032SOL    HW1 9995   2.592   0.493   2.992
 3032SOL    HW2 9996   2.537   0.557   2.852
 3033SOL     OW 9997   0.389   1.505   5.536
 3033SOL    HW1 9998   0.434   1.580   5.487
 3033SOL    HW2 9999   0.291   1.506   5.514
 3034SOL     OW10000   6.396   4.398   3.201
 3034SOL    HW110001   6.339   4.426   3.278
 3034SOL    HW210002   6.440   4.311   3.223
 3035SOL     OW10003   0.575   3.329   0.605
 3035SOL    HW110004   0.614   3.309   0.515
 3035SOL    HW210005   0.645   3.319   0.675
 3036SOL     OW10006   2.970   2.228   5.316
 3036SOL    HW110007   3.045   2.280   5.276
 3036SOL    HW210008   2.980   2.131   5.292
 3037SOL     OW10009   0.930   5.747   6.931
 3037SOL    HW110010   1.004   5.750   6.863
 3037SOL    HW210011   0.969   5.746   0.006
 3038SOL     OW10012   5.718   4.446   5.911
 3038SOL    HW110013   5.716   4.353   5.873
 3038SOL    HW210014   5.806   4.462   5.955
 3039SOL     OW10015   6.943   3.803   6.004
 3039SOL    HW110016   0.022   3.801   5.977
 3039SOL    HW210017   6.886   3.823   5.924
 3040SOL     OW10018   5.424   4.819   6.218
 3040SOL    HW110019   5.365   4.896   6.193
 3040SOL    HW210020   5.507   4.822   6.162
 3041SOL     OW10021   1.331   4.491   5.589
 3041SOL    HW110022   1.260   4.561   5.582
 3041SOL    HW210023   1.420   4.530   5.565
 3042SOL     OW10024   0.348   5.169   4.186
 3042SOL    HW110025   0.403   5.087   4.195
 3042SOL    HW210026   0.385   5.227   4.113
 3043SOL     OW10027   2.644   5.422   0.654
 3043SOL    HW110028   2.733   5.467   0.640
 3043SOL    HW210029   2.660   5.329   0.687
 3044SOL     OW10030   3.734   3.530   4.402
 3044SOL    HW110031   3.647   3.573   4.377
 3044SOL    HW210032   3.805   3.559   4.338
 3045SOL     OW10033   4.057   1.919   2.106
 3045SOL    HW110034   4.145   1.966   2.110
 3045SOL    HW210035   3.987   1.982   2.075
 3046SOL     OW10036   4.993   6.361   0.671
 3046SOL    HW110037   5.027   6.434   0.611
 3046SOL    HW210038   5.056   6.349   0.747
 3047SOL     OW10039   6.058   1.389   4.903
 3047SOL    HW110040   6.041   1.312   4.841
 3047SOL    HW210041   6.021   1.367   4.994
 3048SOL     OW10042   3.803   4.569   0.978
 3048SOL    HW110043   3.895   4.601   0.955
 3048SOL    HW210044   3.737   4.639   0.952
 3049SOL     OW10045   0.926   1.604   2.992
 3049SOL    HW110046   0.937   1.505   2.992
 3049SOL    HW210047   0.867   1.631   2.916
 3050SOL     OW10048   3.614   2.089   0.308
 3050SOL    HW110049   3.536   2.150   0.292
 3050SOL    HW210050   3.634   2.038   0.224
 3051SOL     OW10051   2.259   5.071   5.582
 3051SOL    HW110052   2.195   5.050   5.509
 3051SOL    HW210053   2.345   5.022   5.567
 3052SOL     OW10054   0.031   0.015   2.230
 3052SOL    HW110055   0.067   0.015   2.324
 3052SOL    HW210056   7.007   6.944   2.211
 3053SOL     OW10057   1.036   4.125   0.672
 3053SOL    HW110058   1.055   4.172   0.586
 3053SOL    HW210059   1.104   4.054   0.687
 3054SOL     OW10060   5.323   0.586   2.497
 3054SOL    HW110061   5.324   0.615   2.593
 3054SOL    HW210062   5.311   0.666   2.438
 3055SOL     OW10063   5.778   6.264   6.482
 3055SOL    HW110064   5.721   6.187   6.508
 3055SOL    HW210065   5.749   6.299   6.393
 3056SOL     OW10066   4.941   1.136   5.659
 3056SOL    HW110067   4.892   1.049   5.658
 3056SOL    HW210068   4.875   1.211   5.648
 3057SOL     OW10069   5.292   3.622   3.121
 3057SOL    HW110070   5.323   3.680   3.046
 3057SOL    HW210071   5.253   3.538   3.084
 3058SOL     OW10072   0.245   4.443   6.394
 3058SOL    HW110073   0.247   4.347   6.424
 3058SOL    HW210074   0.171   4.456   6.329
 3059SOL     OW10075   1.575   1.600   3.278
 3059SOL    HW110076   1.575   1.501   3.293
 3059SOL    HW210077   1.642   1.624   3.208
 3060SOL     OW10078   5.556   4.897   4.454
 3060SOL    HW110079   5.545   4.996   4.459
 3060SOL    HW210080   5.472   4.853   4.488
 3061SOL     OW10081   5.980   6.837   4.265
 3061SOL    HW110082   6.017   6.772   4.199
 3061SOL    HW210083   5.923   6.905   4.217
 3062SOL     OW10084   4.176   4.397   0.693
 3062SOL    HW110085   4.170   4.339   0.775
 3062SOL    HW210086   4.271   4.425   0.679
 3063SOL     OW10087   0.616   4.922   2.701
 3063SOL    HW110088   0.562   4.981   2.641
 3063SOL    HW210089   0.561   4.842   2.726
 3064SOL     OW10090   4.955   2.164   6.797
 3064SOL    HW110091   5.029   2.107   6.835
 3064SOL    HW210092   4.889   2.185   6.868
 3065SOL     OW10093   6.078   1.583   0.169
 3065SOL    HW110094   6.159   1.617   0.216
 3065SOL    HW210095   6.052   1.647   0.097
 3066SOL     OW10096   5.211   6.792   4.985
 3066SOL    HW110097   5.176   6.882   4.958
 3066SOL    HW210098   5.150   6.751   5.053
 3067SOL     OW10099   1.123   2.666   5.464
 3067SOL    HW110100   1.064   2.733   5.509
 3067SOL    HW210101   1.072   2.620   5.392
 3068SOL     OW10102   6.917   0.576   0.732
 3068SOL    HW110103   6.889   0.623   0.648
 3068SOL    HW210104   6.860   0.605   0.808
 3069SOL     OW10105   5.253   6.593   3.368
 3069SOL    HW110106   5.177   6.562   3.312
 3069SOL    HW210107   5.304   6.513   3.402
 3070SOL     OW10108   2.042   0.791   0.305
 3070SOL    HW110109   2.094   0.712   0.338
 3070SOL    HW210110   2.025   0.854   0.381
 3071SOL     OW10111   5.832   4.577   5.282
 3071SOL    HW110112   5.862   4.489   5.245
 3071SOL    HW210113   5.774   4.624   5.214
 3072SOL     OW10114   2.009   6.889   6.185
 3072SOL    HW110115   1.987   6.792   6.177
 3072SOL    HW210116   2.082   6.912   6.120
 3073SOL     OW10117   0.051   4.784   2.175
 3073SOL    HW110118   0.120   4.715   2.196
 3073SOL    HW210119   0.010   4.764   2.085
 3074SOL     OW10120   3.445   2.703   1.687
 3074SOL    HW110121   3.411   2.753   1.607
 3074SOL    HW210122   3.423   2.606   1.678
 3075SOL     OW10123   3.193   5.260   1.973
 3075SOL    HW110124   3.118   5.220   1.921
 3075SOL    HW210125   3.165   5.349   2.008
 3076SOL     OW10126   0.799   0.695   4.930
 3076SOL    HW110127   0.753   0.760   4.870
 3076SOL    HW210128   0.872   0.742   4.980
 3077SOL     OW10129   0.028   4.133   2.373
 3077SOL    HW110130   0.087   4.059   2.342
 3077SOL    HW210131   6.972   4.148   2.307
 3078SOL     OW10132   7.009   3.401   1.869
 3078SOL    HW110133   6.986   3.447   1.954
 3078SOL    HW210134   6.927   3.393   1.812
 3079SOL     OW10135   2.125   3.848   5.568
 3079SOL    HW110136   2.034   3.824   5.602
 3079SOL    HW210137   2.134   3.822   5.472
 3080SOL     OW10138   3.572   4.463   0.764
 3080SOL    HW110139   3.522   4.422   0.688
 3080SOL    HW210140   3.508   4.515   0.821
 3081SOL     OW10141   1.254   3.672   0.353
 3081SOL    HW110142   1.174   3.727   0.373
 3081SOL    HW210143   1.245   3.582   0.397
 3082SOL     OW10144   4.512   5.625   4.302
 3082SOL    HW110145   4.561   5.538   4.310
 3082SOL    HW210146   4.433   5.614   4.241
 3083SOL     OW10147   3.877   5.498   1.721
 3083SOL    HW110148   3.967   5.542   1.727
 3083SOL    HW210149   3.806   5.569   1.714
 3084SOL     OW10150   6.616   4.399   4.623
 3084SOL    HW110151   6.709   4.376   4.592
 3084SOL    HW210152   6.622   4.456   4.705
 3085SOL     OW10153   5.995   5.389   0.260
 3085SOL    HW110154   5.958   5.339   0.337
 3085SOL    HW210155   6.093   5.369   0.251
 3086SOL     OW10156   6.239   6.603   6.532
 3086SOL    HW110157   6.319   6.644   6.578
 3086SOL    HW210158   6.269   6.553   6.452
 3087SOL     OW10159   3.328   0.087   2.108
 3087SOL    HW110160   3.300   7.009   2.098
 3087SOL    HW210161   3.261   0.147   2.064
 3088SOL     OW10162   2.100   3.268   5.698
 3088SOL    HW110163   2.092   3.266   5.798
 3088SOL    HW210164   2.141   3.355   5.670
 3089SOL     OW10165   4.735   5.176   5.952
 3089SOL    HW110166   4.766   5.259   5.904
 3089SOL    HW210167   4.738   5.191   6.050
 3090SOL     OW10168   0.498   2.893   2.443
 3090SOL    HW110169   0.429   2.916   2.375
 3090SOL    HW210170   0.489   2.798   2.471
 3091SOL     OW10171   0.725   2.717   1.414
 3091SOL    HW110172   0.749   2.758   1.502
 3091SOL    HW210173   0.634   2.675   1.420
 3092SOL     OW10174   5.755   1.345   2.466
 3092SOL    HW110175   5.693   1.266   2.466
 3092SOL    HW210176   5.821   1.335   2.391
 3093SOL     OW10177   6.146   5.982   0.399
 3093SOL    HW110178   6.114   5.889   0.415
 3093SOL    HW210179   6.131   6.006   0.303
 3094SOL     OW10180   2.171   2.179   6.883
 3094SOL    HW110181   2.243   2.147   6.945
 3094SOL    HW210182   2.196   2.269   6.848
 3095SOL     OW10183   1.871   3.795   5.630
 3095SOL    HW110184   1.804   3.763   5.697
 3095SOL    HW210185   1.826   3.806   5.541
 3096SOL     OW10186   0.374   3.298   3.722
 3096SOL    HW110187   0.331   3.375   3.676
 3096SOL    HW210188   0.451   3.265   3.668
 3097SOL     OW10189   5.497   2.750   5.395
 3097SOL    HW110190   5.532   2.709   5.311
 3097SOL    HW210191   5.405   2.787   5.378
 3098SOL     OW10192   1.880   3.236   2.986
 3098SOL    HW110193   1.849   3.284   3.068
 3098SOL    HW210194   1.814   3.163   2.964
 3099SOL     OW10195   0.346   6.206   4.855
 3099SOL    HW110196   0.247   6.200   4.854
 3099SOL    HW210197   0.378   6.214   4.950
 3100SOL     OW10198   5.447   5.018   1.686
 3100SOL    HW110199   5.377   5.087   1.668
 3100SOL    HW210200   5.436   4.942   1.621
 3101SOL     OW10201   4.470   6.810   5.471
 3101SOL    HW110202   4.511   6.732   5.424
 3101SOL    HW210203   4.536   6.885   5.475
 3102SOL     OW10204   6.810   4.845   1.799
 3102SOL    HW110205   6.785   4.930   1.752
 3102SOL    HW210206   6.759   4.838   1.885
 3103SOL     OW10207   3.238   1.328   1.808
 3103SOL    HW110208   3.315   1.349   1.867
 3103SOL    HW210209   3.154   1.323   1.863
 3104SOL     OW10210   4.832   1.747   5.338
 3104SOL    HW110211   4.910   1.809   5.347
 3104SOL    HW210212   4.757   1.779   5.396
 3105SOL     OW10213   5.927   3.527   0.032
 3105SOL    HW110214   5.951   3.434   0.061
 3105SOL    HW210215   5.927   3.588   0.112
 3106SOL     OW10216   5.713   0.944   5.964
 3106SOL    HW110217   5.644   0.932   6.035
 3106SOL    HW210218   5.766   1.027   5.981
 3107SOL     OW10219   3.447   1.948   4.961
 3107SOL    HW110220   3.426   1.854   4.987
 3107SOL    HW210221   3.420   1.963   4.865
 3108SOL     OW10222   2.323   4.170   3.746
 3108SOL    HW110223   2.324   4.123   3.835
 3108SOL    HW210224   2.400   4.235   3.743
 3109SOL     OW10225   6.733   6.368   4.354
 3109SOL    HW110226   6.676   6.364   4.437
 3109SOL    HW210227   6.680   6.335   4.276
 3110SOL     OW10228   0.848   4.824   2.826
 3110SOL    HW110229   0.845   4.725   2.836
 3110SOL    HW210230   0.813   4.850   2.736
 3111SOL     OW10231   5.810   4.667   4.112
 3111SOL    HW110232   5.822   4.570   4.133
 3111SOL    HW210233   5.899   4.711   4.104
 3112SOL     OW10234   3.556   1.195   6.115
 3112SOL    HW110235   3.568   1.293   6.132
 3112SOL    HW210236   3.459   1.175   6.104
 3113SOL     OW10237   1.855   6.354   3.268
 3113SOL    HW110238   1.809   6.282   3.320
 3113SOL    HW210239   1.823   6.443   3.299
 3114SOL     OW10240   4.779   1.382   5.641
 3114SOL    HW110241   4.848   1.444   5.680
 3114SOL    HW210242   4.779   1.391   5.542
 3115SOL     OW10243   4.663   5.417   5.176
 3115SOL    HW110244   4.666   5.431   5.275
 3115SOL    HW210245   4.677   5.320   5.156
 3116SOL     OW10246   0.368   0.737   0.164
 3116SOL    HW110247   0.358   0.641   0.192
 3116SOL    HW210248   0.352   0.745   0.066
 3117SOL     OW10249   4.708   0.815   6.495
 3117SOL    HW110250   4.759   0.779   6.417
 3117SOL    HW210251   4.728   0.760   6.576
 3118SOL     OW10252   1.379   1.643   3.838
 3118SOL    HW110253   1.404   1.573   3.772
 3118SOL    HW210254   1.330   1.717   3.791
 3119SOL     OW10255   4.420   5.487   5.066
 3119SOL    HW110256   4.512   5.466   5.099
 3119SOL    HW210257   4.358   5.497   5.144
 3120SOL     OW10258   2.039   5.553   5.721
 3120SOL    HW110259   2.029   5.454   5.727
 3120SOL    HW210260   1.967   5.590   5.662
 3121SOL     OW10261   3.682   1.787   4.525
 3121SOL    HW110262   3.671   1.724   4.447
 3121SOL    HW210263   3.692   1.880   4.491
 3122SOL     OW10264   5.132   5.138   4.430
 3122SOL    HW110265   5.065   5.197   4.475
 3122SOL    HW210266   5.137   5.161   4.333
 3123SOL     OW10267   2.429   1.489   3.551
 3123SOL    HW110268   2.372   1.549   3.608
 3123SOL    HW210269   2.525   1.507   3.568
 3124SOL     OW10270   4.963   0.088   4.327
 3124SOL    HW110271   4.871   0.073   4.289
 3124SOL    HW210272   4.958   0.088   4.427
 3125SOL     OW10273   1.503   1.188   4.978
 3125SOL    HW110274   1.602   1.198   4.970
 3125SOL    HW210275   1.467   1.146   4.894
 3126SOL     OW10276   5.618   5.487   5.295
 3126SOL    HW110277   5.703   5.536   5.280
 3126SOL    HW210278   5.638   5.393   5.322
 3127SOL     OW10279   0.285   1.184   5.328
 3127SOL    HW110280   0.258   1.131   5.248
 3127SOL    HW210281   0.209   1.242   5.357
 3128SOL     OW10282   3.980   0.279   0.505
 3128SOL    HW110283   3.945   0.256   0.415
 3128SOL    HW210284   3.903   0.296   0.567
 3129SOL     OW10285   4.445   3.820   0.059
 3129SOL    HW110286   4.404   3.764   0.131
 3129SOL    HW210287   4.423   3.780   6.987
 3130SOL     OW10288   6.928   4.805   2.409
 3130SOL    HW110289   6.901   4.708   2.404
 3130SOL    HW210290   6.981   4.829   2.328
 3131SOL     OW10291   6.028   4.285   2.978
 3131SOL    HW110292   6.111   4.229   2.973
 3131SOL    HW210293   6.039   4.353   3.051
 3132SOL     OW10294   4.335   4.665   0.030
 3132SOL    HW110295   4.269   4.736   0.054
 3132SOL    HW210296   4.327   4.589   0.094
 3133SOL     OW10297   4.156   0.090   4.400
 3133SOL    HW110298   4.142   0.011   4.460
 3133SOL    HW210299   4.132   0.174   4.450
 3134SOL     OW10300   5.100   4.675   2.223
 3134SOL    HW110301   5.122   4.764   2.262
 3134SOL    HW210302   5.061   4.616   2.294
 3135SOL     OW10303   4.533   5.550   6.658
 3135SOL    HW110304   4.535   5.642   6.618
 3135SOL    HW210305   4.605   5.543   6.728
 3136SOL     OW10306   6.835   1.613   3.206
 3136SOL    HW110307   6.914   1.562   3.241
 3136SOL    HW210308   6.753   1.583   3.254
 3137SOL     OW10309   5.999   6.617   6.421
 3137SOL    HW110310   6.092   6.618   6.458
 3137SOL    HW210311   5.991   6.543   6.354
 3138SOL     OW10312   5.972   6.186   4.136
 3138SOL    HW110313   6.014   6.252   4.199
 3138SOL    HW210314   5.873   6.194   4.140
 3139SOL     OW10315   2.577   5.245   1.468
 3139SOL    HW110316   2.592   5.153   1.504
 3139SOL    HW210317   2.481   5.255   1.441
 3140SOL     OW10318   6.633   6.558   6.293
 3140SOL    HW110319   6.535   6.545   6.304
 3140SOL    HW210320   6.655   6.655   6.294
 3141SOL     OW10321   6.755   1.604   6.198
 3141SOL    HW110322   6.677   1.667   6.192
 3141SOL    HW210323   6.748   1.535   6.126
 3142SOL     OW10324   4.265   0.729   3.959
 3142SOL    HW110325   4.260   0.662   4.033
 3142SOL    HW210326   4.332   0.800   3.982
 3143SOL     OW10327   6.278   1.187   0.754
 3143SOL    HW110328   6.274   1.270   0.809
 3143SOL    HW210329   6.299   1.109   0.812
 3144SOL     OW10330   3.696   4.110   0.311
 3144SOL    HW110331   3.711   4.029   0.367
 3144SOL    HW210332   3.598   4.130   0.308
 3145SOL     OW10333   0.009   6.755   0.640
 3145SOL    HW110334   6.928   6.758   0.623
 3145SOL    HW210335   0.026   6.722   0.733
 3146SOL     OW10336   0.314   0.605   4.775
 3146SOL    HW110337   0.326   0.580   4.871
 3146SOL    HW210338   0.248   0.543   4.732
 3147SOL     OW10339   3.773   5.498   0.766
 3147SOL    HW110340   3.800   5.562   0.837
 3147SOL    HW210341   3.851   5.440   0.741
 3148SOL     OW10342   0.076   5.402   2.150
 3148SOL    HW110343   0.087   5.351   2.065
 3148SOL    HW210344   0.147   5.374   2.215
 3149SOL     OW10345   2.957   1.829   6.900
 3149SOL    HW110346   3.005   1.798   6.983
 3149SOL    HW210347   2.958   1.929   6.896
 3150SOL     OW10348   6.394   5.539   5.273
 3150SOL    HW110349   6.462   5.484   5.320
 3150SOL    HW210350   6.302   5.509   5.299
 3151SOL     OW10351   6.938   0.580   5.733
 3151SOL    HW110352   6.970   0.537   5.817
 3151SOL    HW210353   7.010   0.638   5.695
 3152SOL     OW10354   1.265   3.413   6.236
 3152SOL    HW110355   1.338   3.350   6.210
 3152SOL    HW210356   1.270   3.495   6.179
 3153SOL     OW10357   6.148   4.805   0.979
 3153SOL    HW110358   6.214   4.873   0.946
 3153SOL    HW210359   6.174   4.774   1.070
 3154SOL     OW10360   4.846   1.310   0.090
 3154SOL    HW110361   4.752   1.277   0.090
 3154SOL    HW210362   4.871   1.341   7.015
 3155SOL     OW10363   1.120   4.695   0.632
 3155SOL    HW110364   1.155   4.706   0.726
 3155SOL    HW210365   1.171   4.623   0.586
 3156SOL     OW10366   3.603   4.156   1.844
 3156SOL    HW110367   3.629   4.240   1.798
 3156SOL    HW210368   3.682   4.118   1.892
 3157SOL     OW10369   0.593   1.047   5.943
 3157SOL    HW110370   0.638   1.128   5.905
 3157SOL    HW210371   0.563   0.987   5.869
 3158SOL     OW10372   1.360   1.270   6.085
 3158SOL    HW110373   1.424   1.247   6.158
 3158SOL    HW210374   1.386   1.358   6.044
 3159SOL     OW10375   5.858   0.302   6.816
 3159SOL    HW110376   5.789   0.282   6.747
 3159SOL    HW210377   5.815   0.305   6.906
 3160SOL     OW10378   1.861   0.067   6.329
 3160SOL    HW110379   1.862   0.054   6.428
 3160SOL    HW210380   1.923   0.002   6.286
 3161SOL     OW10381   2.401   2.208   2.035
 3161SOL    HW110382   2.465   2.278   2.004
 3161SOL    HW210383   2.334   2.249   2.097
 3162SOL     OW10384   2.039   5.385   1.125
 3162SOL    HW110385   2.043   5.478   1.164
 3162SOL    HW210386   1.947   5.348   1.137
 3163SOL     OW10387   4.212   4.313   0.083
 3163SOL    HW110388   4.217   4.229   0.137
 3163SOL    HW210389   4.261   4.386   0.130
 3164SOL     OW10390   2.622   0.006   2.958
 3164SOL    HW110391   2.522   7.015   2.956
 3164SOL    HW210392   2.663   6.933   2.946
 3165SOL     OW10393   0.821   6.705   6.722
 3165SOL    HW110394   0.901   6.658   6.686
 3165SOL    HW210395   0.825   6.707   6.822
 3166SOL     OW10396   5.061   0.515   4.748
 3166SOL    HW110397   4.962   0.520   4.734
 3166SOL    HW210398   5.102   0.457   4.678
 3167SOL     OW10399   5.766   3.069   0.493
 3167SOL    HW110400   5.736   3.124   0.571
 3167SOL    HW210401   5.858   3.034   0.510
 3168SOL     OW10402   5.283   2.048   0.421
 3168SOL    HW110403   5.304   2.123   0.484
 3168SOL    HW210404   5.187   2.022   0.430
 3169SOL     OW10405   2.369   4.762   2.003
 3169SOL    HW110406   2.452   4.816   1.989
 3169SOL    HW210407   2.394   4.668   2.025
 3170SOL     OW10408   2.292   4.410   3.301
 3170SOL    HW110409   2.268   4.404   3.398
 3170SOL    HW210410   2.295   4.318   3.262
 3171SOL     OW10411   5.023   2.143   3.942
 3171SOL    HW110412   5.105   2.096   3.978
 3171SOL    HW210413   5.024   2.138   3.842
 3172SOL     OW10414   6.230   4.442   1.796
 3172SOL    HW110415   6.180   4.472   1.877
 3172SOL    HW210416   6.185   4.361   1.758
 3173SOL     OW10417   4.478   3.255   0.574
 3173SOL    HW110418   4.570   3.215   0.582
 3173SOL    HW210419   4.441   3.236   0.483
 3174SOL     OW10420   2.904   3.567   6.560
 3174SOL    HW110421   2.900   3.601   6.467
 3174SOL    HW210422   2.996   3.532   6.578
 3175SOL     OW10423   5.835   0.984   4.611
 3175SOL    HW110424   5.845   0.999   4.709
 3175SOL    HW210425   5.817   0.887   4.593
 3176SOL     OW10426   1.053   4.681   4.929
 3176SOL    HW110427   1.034   4.730   5.013
 3176SOL    HW210428   1.054   4.745   4.852
 3177SOL     OW10429   5.525   3.618   3.771
 3177SOL    HW110430   5.492   3.579   3.856
 3177SOL    HW210431   5.515   3.718   3.774
 3178SOL     OW10432   6.753   1.021   1.668
 3178SOL    HW110433   6.770   1.034   1.765
 3178SOL    HW210434   6.800   0.938   1.637
 3179SOL     OW10435   1.065   1.710   1.862
 3179SOL    HW110436   1.019   1.623   1.876
 3179SOL    HW210437   1.090   1.750   1.950
 3180SOL     OW10438   0.058   6.342   0.186
 3180SOL    HW110439   0.029   6.340   0.282
 3180SOL    HW210440   6.999   6.313   0.127
 3181SOL     OW10441   1.806   6.975   4.671
 3181SOL    HW110442   1.765   6.901   4.618
 3181SOL    HW210443   1.821   0.037   4.612
 3182SOL     OW10444   2.874   1.542   0.678
 3182SOL    HW110445   2.811   1.493   0.739
 3182SOL    HW210446   2.915   1.477   0.614
 3183SOL     OW10447   4.159   3.683   1.351
 3183SOL    HW110448   4.089   3.681   1.279
 3183SOL    HW210449   4.166   3.776   1.387
 3184SOL     OW10450   0.565   2.350   5.177
 3184SOL    HW110451   0.575   2.304   5.089
 3184SOL    HW210452   0.472   2.386   5.186
 3185SOL     OW10453   0.424   5.286   5.929
 3185SOL    HW110454   0.401   5.206   5.984
 3185SOL    HW210455   0.359   5.359   5.948
 3186SOL     OW10456   0.454   1.660   6.242
 3186SOL    HW110457   0.495   1.719   6.173
 3186SOL    HW210458   0.483   1.690   6.333
 3187SOL     OW10459   4.362   5.882   2.106
 3187SOL    HW110460   4.388   5.823   2.183
 3187SOL    HW210461   4.311   5.829   2.039
 3188SOL     OW10462   2.441   5.191   6.048
 3188SOL    HW110463   2.488   5.105   6.070
 3188SOL    HW210464   2.343   5.180   6.061
 3189SOL     OW10465   3.322   1.895   5.383
 3189SOL    HW110466   3.285   1.938   5.300
 3189SOL    HW210467   3.288   1.802   5.390
 3190SOL     OW10468   5.571   6.148   4.879
 3190SOL    HW110469   5.513   6.188   4.808
 3190SOL    HW210470   5.513   6.103   4.947
 3191SOL     OW10471   4.286   5.493   1.556
 3191SOL    HW110472   4.336   5.520   1.474
 3191SOL    HW210473   4.326   5.410   1.593
 3192SOL     OW10474   5.688   2.229   2.599
 3192SOL    HW110475   5.758   2.186   2.656
 3192SOL    HW210476   5.627   2.283   2.657
 3193SOL     OW10477   3.410   0.012   5.294
 3193SOL    HW110478   3.387   6.932   5.284
 3193SOL    HW210479   3.502   0.028   5.258
 3194SOL     OW10480   1.699   0.472   6.371
 3194SOL    HW110481   1.760   0.549   6.390
 3194SOL    HW210482   1.690   0.416   6.452
 3195SOL     OW10483   6.805   2.000   1.453
 3195SOL    HW110484   6.889   1.971   1.499
 3195SOL    HW210485   6.735   2.021   1.521
 3196SOL     OW10486   6.110   0.415   3.692
 3196SOL    HW110487   6.179   0.431   3.763
 3196SOL    HW210488   6.020   0.444   3.726
 3197SOL     OW10489   1.869   1.052   6.491
 3197SOL    HW110490   1.915   1.005   6.566
 3197SOL    HW210491   1.815   1.129   6.526
 3198SOL     OW10492   5.768   2.837   3.045
 3198SOL    HW110493   5.854   2.823   3.092
 3198SOL    HW210494   5.732   2.928   3.067
 3199SOL     OW10495   5.545   3.858   3.486
 3199SOL    HW110496   5.497   3.848   3.399
 3199SOL    HW210497   5.510   3.938   3.534
 3200SOL     OW10498   5.577   3.025   3.683
 3200SOL    HW110499   5.528   3.094   3.735
 3200SOL    HW210500   5.553   2.934   3.716
 3201SOL     OW10501   5.784   4.331   2.809
 3201SOL    HW110502   5.747   4.245   2.846
 3201SOL    HW210503   5.879   4.341   2.836
 3202SOL     OW10504   1.754   3.870   6.817
 3202SOL    HW110505   1.752   3.770   6.824
 3202SOL    HW210506   1.812   3.897   6.741
 3203SOL     OW10507   3.259   0.059   1.650
 3203SOL    HW110508   3.219   0.150   1.641
 3203SOL    HW210509   3.222   7.016   1.579
 3204SOL     OW10510   2.992   1.619   2.997
 3204SOL    HW110511   3.084   1.654   2.979
 3204SOL    HW210512   2.998   1.545   3.064
 3205SOL     OW10513   5.042   3.425   5.401
 3205SOL    HW110514   5.011   3.520   5.392
 3205SOL    HW210515   4.968   3.369   5.439
 3206SOL     OW10516   3.353   3.503   1.183
 3206SOL    HW110517   3.303   3.504   1.270
 3206SOL    HW210518   3.319   3.429   1.126
 3207SOL     OW10519   1.578   5.428   5.646
 3207SOL    HW110520   1.481   5.412   5.668
 3207SOL    HW210521   1.634   5.361   5.694
 3208SOL     OW10522   6.288   4.990   6.080
 3208SOL    HW110523   6.343   4.975   6.162
 3208SOL    HW210524   6.318   4.927   6.008
 3209SOL     OW10525   5.297   5.956   6.978
 3209SOL    HW110526   5.279   5.947   0.059
 3209SOL    HW210527   5.387   5.917   6.956
 3210SOL     OW10528   6.143   5.506   1.998
 3210SOL    HW110529   6.166   5.585   2.055
 3210SOL    HW210530   6.074   5.533   1.930
 3211SOL     OW10531   0.969   4.987   6.202
 3211SOL    HW110532   1.023   4.908   6.231
 3211SOL    HW210533   1.019   5.038   6.133
 3212SOL     OW10534   2.168   0.554   3.161
 3212SOL    HW110535   2.243   0.489   3.173
 3212SOL    HW210536   2.083   0.504   3.143
 3213SOL     OW10537   1.470   0.528   6.604
 3213SOL    HW110538   1.427   0.468   6.536
 3213SOL    HW210539   1.507   0.474   6.679
 3214SOL     OW10540   3.219   1.117   2.889
 3214SOL    HW110541   3.291   1.182   2.913
 3214SOL    HW210542   3.243   1.026   2.923
 3215SOL     OW10543   2.180   2.927   0.800
 3215SOL    HW110544   2.181   2.875   0.885
 3215SOL    HW210545   2.267   2.913   0.752
 3216SOL     OW10546   6.126   4.578   0.407
 3216SOL    HW110547   6.196   4.517   0.444
 3216SOL    HW210548   6.036   4.550   0.438
 3217SOL     OW10549   0.532   6.004   2.540
 3217SOL    HW110550   0.571   6.001   2.447
 3217SOL    HW210551   0.524   6.100   2.569
 3218SOL     OW10552   5.480   0.995   2.902
 3218SOL    HW110553   5.484   1.075   2.843
 3218SOL    HW210554   5.544   1.006   2.978
 3219SOL     OW10555   6.028   1.248   5.409
 3219SOL    HW110556   6.096   1.255   5.483
 3219SOL    HW210557   5.942   1.215   5.447
 3220SOL     OW10558   0.102   4.514   6.731
 3220SOL    HW110559   0.011   4.482   6.703
 3220SOL    HW210560   0.132   4.587   6.670
 3221SOL     OW10561   3.482   0.551   1.368
 3221SOL    HW110562   3.454   0.615   1.297
 3221SOL    HW210563   3.438   0.575   1.454
 3222SOL     OW10564   3.726   1.679   2.842
 3222SOL    HW110565   3.706   1.739   2.765
 3222SOL    HW210566   3.782   1.728   2.909
 3223SOL     OW10567   1.302   6.401   1.174
 3223SOL    HW110568   1.316   6.480   1.234
 3223SOL    HW210569   1.208   6.400   1.142
 3224SOL     OW10570   3.673   1.869   4.162
 3224SOL    HW110571   3.618   1.933   4.214
 3224SOL    HW210572   3.769   1.878   4.189
 3225SOL     OW10573   4.114   0.611   3.705
 3225SOL    HW110574   4.089   0.698   3.662
 3225SOL    HW210575   4.194   0.625   3.764
 3226SOL     OW10576   6.991   0.308   1.025
 3226SOL    HW110577   0.007   0.360   1.104
 3226SOL    HW210578   6.897   0.279   1.041
 3227SOL     OW10579   4.947   3.983   5.136
 3227SOL    HW110580   4.990   3.914   5.077
 3227SOL    HW210581   4.921   4.062   5.081
 3228SOL     OW10582   2.518   3.720   0.250
 3228SOL    HW110583   2.570   3.740   0.167
 3228SOL    HW210584   2.439   3.663   0.226
 3229SOL     OW10585   1.634   1.568   0.834
 3229SOL    HW110586   1.670   1.661   0.835
 3229SOL    HW210587   1.651   1.525   0.923
 3230SOL     OW10588   2.732   5.845   5.753
 3230SOL    HW110589   2.749   5.827   5.850
 3230SOL    HW210590   2.819   5.857   5.706
 3231SOL     OW10591   2.415   1.968   2.153
 3231SOL    HW110592   2.405   2.060   2.116
 3231SOL    HW210593   2.391   1.968   2.250
 3232SOL     OW10594   4.126   5.221   3.917
 3232SOL    HW110595   4.181   5.147   3.879
 3232SOL    HW210596   4.076   5.189   3.997
 3233SOL     OW10597   0.266   1.913   0.846
 3233SOL    HW110598   0.346   1.864   0.811
 3233SOL    HW210599   0.291   2.007   0.867
 3234SOL     OW10600   1.947   2.599   0.560
 3234SOL    HW110601   1.940   2.610   0.461
 3234SOL    HW210602   1.913   2.681   0.605
 3235SOL     OW10603   0.752   6.889   2.469
 3235SOL    HW110604   0.760   6.859   2.374
 3235SOL    HW210605   0.685   6.963   2.475
 3236SOL     OW10606   3.636   2.343   0.067
 3236SOL    HW110607   3.601   2.337   0.161
 3236SOL    HW210608   3.657   2.438   0.044
 3237SOL     OW10609   6.022   1.173   4.725
 3237SOL    HW110610   6.059   1.081   4.714
 3237SOL    HW210611   5.935   1.180   4.676
 3238SOL     OW10612   6.732   5.136   1.762
 3238SOL    HW110613   6.650   5.108   1.811
 3238SOL    HW210614   6.799   5.172   1.827
 3239SOL     OW10615   6.642   0.039   4.424
 3239SOL    HW110616   6.544   0.026   4.409
 3239SOL    HW210617   6.657   0.115   4.486
 3240SOL     OW10618   0.476   0.977   6.827
 3240SOL    HW110619   0.457   1.007   6.733
 3240SOL    HW210620   0.413   0.903   6.851
 3241SOL     OW10621   6.129   2.087   5.767
 3241SOL    HW110622   6.051   2.028   5.746
 3241SOL    HW210623   6.214   2.036   5.750
 3242SOL     OW10624   5.510   3.967   4.766
 3242SOL    HW110625   5.552   3.924   4.686
 3242SOL    HW210626   5.552   4.057   4.781
 3243SOL     OW10627   5.615   5.202   5.288
 3243SOL    HW110628   5.533   5.190   5.233
 3243SOL    HW210629   5.688   5.143   5.254
 3244SOL     OW10630   5.283   0.175   6.797
 3244SOL    HW110631   5.204   0.178   6.735
 3244SOL    HW210632   5.322   0.267   6.805
 3245SOL     OW10633   3.921   1.046   5.240
 3245SOL    HW110634   3.939   1.111   5.167
 3245SOL    HW210635   3.932   0.952   5.206
 3246SOL     OW10636   6.560   0.311   2.763
 3246SOL    HW110637   6.524   0.341   2.852
 3246SOL    HW210638   6.565   0.211   2.762
 3247SOL     OW10639   0.562   4.573   2.940
 3247SOL    HW110640   0.527   4.481   2.958
 3247SOL    HW210641   0.533   4.602   2.849
 3248SOL     OW10642   5.254   2.033   4.044
 3248SOL    HW110643   5.307   2.105   4.000
 3248SOL    HW210644   5.283   1.944   4.008
 3249SOL     OW10645   3.125   3.841   3.955
 3249SOL    HW110646   3.074   3.839   3.869
 3249SOL    HW210647   3.145   3.936   3.979
 3250SOL     OW10648   4.810   5.149   2.146
 3250SOL    HW110649   4.822   5.178   2.051
 3250SOL    HW210650   4.724   5.098   2.155
 3251SOL     OW10651   2.396   1.442   2.913
 3251SOL    HW110652   2.364   1.513   2.975
 3251SOL    HW210653   2.365   1.353   2.946
 3252SOL     OW10654   2.310   1.219   3.050
 3252SOL    HW110655   2.378   1.155   3.087
 3252SOL    HW210656   2.252   1.252   3.125
 3253SOL     OW10657   6.556   3.494   0.614
 3253SOL    HW110658   6.537   3.579   0.664
 3253SOL    HW210659   6.646   3.500   0.571
 3254SOL     OW10660   6.018   0.319   0.891
 3254SOL    HW110661   5.947   0.248   0.886
 3254SOL    HW210662   6.081   0.297   0.965
 3255SOL     OW10663   4.800   5.836   1.253
 3255SOL    HW110664   4.873   5.867   1.193
 3255SOL    HW210665   4.763   5.749   1.218
 3256SOL     OW10666   5.028   1.921   1.114
 3256SOL    HW110667   5.109   1.888   1.163
 3256SOL    HW210668   4.996   2.006   1.155
 3257SOL     OW10669   2.708   2.032   3.033
 3257SOL    HW110670   2.675   2.102   2.970
 3257SOL    HW210671   2.745   2.075   3.115
 3258SOL     OW10672   2.223   5.882   3.690
 3258SOL    HW110673   2.318   5.882   3.661
 3258SOL    HW210674   2.186   5.789   3.687
 3259SOL     OW10675   4.679   4.367   3.602
 3259SOL    HW110676   4.747   4.435   3.575
 3259SOL    HW210677   4.610   4.410   3.660
 3260SOL     OW10678   0.962   4.567   2.592
 3260SOL    HW110679   0.945   4.652   2.542
 3260SOL    HW210680   0.928   4.576   2.686
 3261SOL     OW10681   5.429   6.638   3.835
 3261SOL    HW110682   5.389   6.726   3.862
 3261SOL    HW210683   5.527   6.650   3.819
 3262SOL     OW10684   3.263   1.978   2.330
 3262SOL    HW110685   3.190   2.045   2.337
 3262SOL    HW210686   3.227   1.887   2.353
 3263SOL     OW10687   0.211   1.614   2.225
 3263SOL    HW110688   0.216   1.713   2.211
 3263SOL    HW210689   0.245   1.567   2.144
 3264SOL     OW10690   1.503   5.095   0.523
 3264SOL    HW110691   1.412   5.056   0.535
 3264SOL    HW210692   1.496   5.184   0.479
 3265SOL     OW10693   5.827   4.732   6.430
 3265SOL    HW110694   5.817   4.689   6.340
 3265SOL    HW210695   5.888   4.810   6.423
 3266SOL     OW10696   3.146   5.076   6.848
 3266SOL    HW110697   3.138   4.982   6.814
 3266SOL    HW210698   3.220   5.122   6.799
 3267SOL     OW10699   4.223   6.805   0.972
 3267SOL    HW110700   4.282   6.855   0.908
 3267SOL    HW210701   4.272   6.725   1.006
 3268SOL     OW10702   6.355   5.446   1.830
 3268SOL    HW110703   6.323   5.387   1.756
 3268SOL    HW210704   6.286   5.450   1.902
 3269SOL     OW10705   1.451   4.932   2.168
 3269SOL    HW110706   1.517   4.882   2.112
 3269SOL    HW210707   1.379   4.968   2.109
 3270SOL     OW10708   0.802   3.114   5.235
 3270SOL    HW110709   0.881   3.082   5.183
 3270SOL    HW210710   0.719   3.101   5.181
 3271SOL     OW10711   0.554   3.130   2.865
 3271SOL    HW110712   0.490   3.131   2.789
 3271SOL    HW210713   0.573   3.035   2.891
 3272SOL     OW10714   4.325   6.124   0.682
 3272SOL    HW110715   4.354   6.204   0.630
 3272SOL    HW210716   4.225   6.121   0.684
 3273SOL     OW10717   5.054   2.472   6.209
 3273SOL    HW110718   4.998   2.393   6.232
 3273SOL    HW210719   5.000   2.555   6.216
 3274SOL     OW10720   5.838   0.541   0.527
 3274SOL    HW110721   5.898   0.602   0.475
 3274SOL    HW210722   5.772   0.499   0.466
 3275SOL     OW10723   4.651   0.320   1.259
 3275SOL    HW110724   4.660   0.242   1.322
 3275SOL    HW210725   4.624   0.287   1.169
 3276SOL     OW10726   5.048   0.390   0.469
 3276SOL    HW110727   5.131   0.337   0.450
 3276SOL    HW210728   4.983   0.333   0.518
 3277SOL     OW10729   3.982   1.817   1.785
 3277SOL    HW110730   4.082   1.819   1.782
 3277SOL    HW210731   3.950   1.887   1.848
 3278SOL     OW10732   0.099   0.348   0.291
 3278SOL    HW110733   0.011   0.381   0.258
 3278SOL    HW210734   0.112   0.375   0.386
 3279SOL     OW10735   3.521   0.218   1.674
 3279SOL    HW110736   3.436   0.165   1.674
 3279SOL    HW210737   3.558   0.221   1.767
 3280SOL     OW10738   5.814   4.077   4.349
 3280SOL    HW110739   5.814   4.177   4.352
 3280SOL    HW210740   5.721   4.043   4.365
 3281SOL     OW10741   6.112   3.377   1.308
 3281SOL    HW110742   6.121   3.419   1.398
 3281SOL    HW210743   6.026   3.325   1.303
 3282SOL     OW10744   0.624   5.087   4.046
 3282SOL    HW110745   0.629   5.126   3.954
 3282SOL    HW210746   0.549   5.021   4.051
 3283SOL     OW10747   3.750   1.765   0.541
 3283SOL    HW110748   3.831   1.821   0.520
 3283SOL    HW210749   3.698   1.749   0.457
 3284SOL     OW10750   1.742   6.186   4.342
 3284SOL    HW110751   1.773   6.114   4.403
 3284SOL    HW210752   1.802   6.189   4.261
 3285SOL     OW10753   4.524   1.763   4.766
 3285SOL    HW110754   4.615   1.726   4.786
 3285SOL    HW210755   4.531   1.833   4.696
 3286SOL     OW10756   3.237   1.564   1.297
 3286SOL    HW110757   3.295   1.643   1.282
 3286SOL    HW210758   3.243   1.535   1.392
 3287SOL     OW10759   2.178   0.270   6.650
 3287SOL    HW110760   2.123   0.353   6.654
 3287SOL    HW210761   2.188   0.232   6.742
 3288SOL     OW10762   2.011   6.479   1.870
 3288SOL    HW110763   2.030   6.467   1.773
 3288SOL    HW210764   2.097   6.496   1.919
 3289SOL     OW10765   4.129   1.594   6.997
 3289SOL    HW110766   4.093   1.526   6.935
 3289SOL    HW210767   4.118   1.563   0.074
 3290SOL     OW10768   0.439   5.368   0.465
 3290SOL    HW110769   0.440   5.269   0.468
 3290SOL    HW210770   0.392   5.403   0.546
 3291SOL     OW10771   4.965   6.392   5.255
 3291SOL    HW110772   4.895   6.335   5.297
 3291SOL    HW210773   4.998   6.349   5.171
 3292SOL     OW10774   6.666   2.323   1.441
 3292SOL    HW110775   6.764   2.330   1.427
 3292SOL    HW210776   6.618   2.353   1.359
 3293SOL     OW10777   5.829   5.311   3.222
 3293SOL    HW110778   5.881   5.301   3.137
 3293SOL    HW210779   5.731   5.300   3.202
 3294SOL     OW10780   5.105   2.051   5.156
 3294SOL    HW110781   5.125   1.981   5.088
 3294SOL    HW210782   5.180   2.117   5.159
 3295SOL     OW10783   1.517   2.815   2.431
 3295SOL    HW110784   1.520   2.915   2.425
 3295SOL    HW210785   1.441   2.781   2.376
 3296SOL     OW10786   1.674   0.083   5.678
 3296SOL    HW110787   1.591   0.139   5.674
 3296SOL    HW210788   1.659   7.015   5.627
 3297SOL     OW10789   3.069   1.367   4.971
 3297SOL    HW110790   3.166   1.344   4.987
 3297SOL    HW210791   3.042   1.334   4.880
 3298SOL     OW10792   5.739   4.220   5.802
 3298SOL    HW110793   5.663   4.155   5.814
 3298SOL    HW210794   5.767   4.222   5.706
 3299SOL     OW10795   3.012   4.864   4.236
 3299SOL    HW110796   2.914   4.847   4.251
 3299SOL    HW210797   3.062   4.851   4.321
 3300SOL     OW10798   1.723   0.267   4.078
 3300SOL    HW110799   1.632   0.227   4.064
 3300SOL    HW210800   1.778   0.205   4.134
 3301SOL     OW10801   1.394   1.262   2.938
 3301SOL    HW110802   1.382   1.232   2.843
 3301SOL    HW210803   1.445   1.348   2.940
 3302SOL     OW10804   2.321   5.069   6.359
 3302SOL    HW110805   2.286   5.020   6.280
 3302SOL    HW210806   2.421   5.062   6.361
 3303SOL     OW10807   3.839   2.973   0.207
 3303SOL    HW110808   3.802   3.053   0.160
 3303SOL    HW210809   3.815   2.890   0.157
 3304SOL     OW10810   2.879   5.099   6.548
 3304SOL    HW110811   2.865   5.198   6.555
 3304SOL    HW210812   2.862   5.057   6.637
 3305SOL     OW10813   2.988   2.556   1.056
 3305SOL    HW110814   2.915   2.490   1.075
 3305SOL    HW210815   3.076   2.510   1.058
 3306SOL     OW10816   2.236   0.671   6.995
 3306SOL    HW110817   2.153   0.727   6.996
 3306SOL    HW210818   2.304   0.713   0.038
 3307SOL     OW10819   1.885   6.856   4.961
 3307SOL    HW110820   1.973   6.823   4.996
 3307SOL    HW210821   1.844   6.787   4.902
 3308SOL     OW10822   3.902   4.327   1.067
 3308SOL    HW110823   3.933   4.277   1.148
 3308SOL    HW210824   3.845   4.404   1.095
 3309SOL     OW10825   6.067   3.294   3.804
 3309SOL    HW110826   6.037   3.291   3.709
 3309SOL    HW210827   6.050   3.385   3.842
 3310SOL     OW10828   6.590   5.438   5.989
 3310SOL    HW110829   6.611   5.508   5.921
 3310SOL    HW210830   6.493   5.442   6.013
 3311SOL     OW10831   3.495   3.236   0.426
 3311SOL    HW110832   3.564   3.293   0.471
 3311SOL    HW210833   3.415   3.227   0.486
 3312SOL     OW10834   4.277   2.499   5.933
 3312SOL    HW110835   4.204   2.462   5.875
 3312SOL    HW210836   4.249   2.589   5.968
 3313SOL     OW10837   1.057   1.001   3.275
 3313SOL    HW110838   1.080   0.905   3.264
 3313SOL    HW210839   1.097   1.054   3.200
 3314SOL     OW10840   2.835   5.281   2.784
 3314SOL    HW110841   2.779   5.358   2.813
 3314SOL    HW210842   2.832   5.273   2.684
 3315SOL     OW10843   0.025   5.520   5.222
 3315SOL    HW110844   0.058   5.428   5.202
 3315SOL    HW210845   0.101   5.584   5.215
 3316SOL     OW10846   3.421   2.124   5.859
 3316SOL    HW110847   3.489   2.190   5.893
 3316SOL    HW210848   3.404   2.055   5.929
 3317SOL     OW10849   4.644   2.652   3.054
 3317SOL    HW110850   4.624   2.666   2.957
 3317SOL    HW210851   4.605   2.566   3.085
 3318SOL     OW10852   3.298   2.205   0.660
 3318SOL    HW110853   3.258   2.150   0.734
 3318SOL    HW210854   3.352   2.280   0.700
 3319SOL     OW10855   0.061   6.176   3.275
 3319SOL    HW110856   7.003   6.241   3.286
 3319SOL    HW210857   0.046   6.120   3.194
 3320SOL     OW10858   6.090   6.928   1.141
 3320SOL    HW110859   6.181   6.917   1.100
 3320SOL    HW210860   6.097   6.924   1.241
 3321SOL     OW10861   4.856   1.325   0.364
 3321SOL    HW110862   4.915   1.262   0.415
 3321SOL    HW210863   4.876   1.318   0.266
 3322SOL     OW10864   6.568   3.905   0.988
 3322SOL    HW110865   6.490   3.943   0.937
 3322SOL    HW210866   6.653   3.943   0.952
 3323SOL     OW10867   1.334   2.059   1.726
 3323SOL    HW110868   1.274   2.139   1.716
 3323SOL    HW210869   1.359   2.047   1.822
 3324SOL     OW10870   5.259   5.464   6.039
 3324SOL    HW110871   5.284   5.420   5.953
 3324SOL    HW210872   5.235   5.560   6.021
 3325SOL     OW10873   1.910   3.988   6.359
 3325SOL    HW110874   1.892   4.087   6.363
 3325SOL    HW210875   1.962   3.967   6.277
 3326SOL     OW10876   4.368   0.852   2.995
 3326SOL    HW110877   4.396   0.818   2.905
 3326SOL    HW210878   4.359   0.952   2.991
 3327SOL     OW10879   1.352   5.136   0.872
 3327SOL    HW110880   1.276   5.072   0.866
 3327SOL    HW210881   1.319   5.229   0.855
 3328SOL     OW10882   4.851   2.246   0.056
 3328SOL    HW110883   4.881   2.340   0.043
 3328SOL    HW210884   4.754   2.237   0.033
 3329SOL     OW10885   6.553   5.276   5.694
 3329SOL    HW110886   6.633   5.330   5.721
 3329SOL    HW210887   6.469   5.324   5.722
 3330SOL     OW10888   6.498   3.439   2.219
 3330SOL    HW110889   6.442   3.397   2.290
 3330SOL    HW210890   6.483   3.391   2.132
 3331SOL     OW10891   2.180   2.759   1.021
 3331SOL    HW110892   2.257   2.715   0.976
 3331SOL    HW210893   2.140   2.696   1.088
 3332SOL     OW10894   5.945   4.833   0.807
 3332SOL    HW110895   6.011   4.811   0.879
 3332SOL    HW210896   5.950   4.930   0.785
 3333SOL     OW10897   4.326   4.865   5.948
 3333SOL    HW110898   4.248   4.809   5.922
 3333SOL    HW210899   4.332   4.871   6.048
 3334SOL     OW10900   2.470   4.324   1.851
 3334SOL    HW110901   2.413   4.374   1.786
 3334SOL    HW210902   2.547   4.283   1.802
 3335SOL     OW10903   5.178   4.376   5.215
 3335SOL    HW110904   5.084   4.402   5.194
 3335SOL    HW210905   5.177   4.291   5.268
 3336SOL     OW10906   3.474   5.369   6.174
 3336SOL    HW110907   3.410   5.384   6.099
 3336SOL    HW210908   3.456   5.435   6.247
 3337SOL     OW10909   3.426   1.970   0.909
 3337SOL    HW110910   3.455   1.883   0.869
 3337SOL    HW210911   3.330   1.987   0.886
 3338SOL     OW10912   6.909   4.558   1.136
 3338SOL    HW110913   6.842   4.532   1.067
 3338SOL    HW210914   6.876   4.532   1.227
 3339SOL     OW10915   7.007   5.631   6.862
 3339SOL    HW110916   0.052   5.632   6.941
 3339SOL    HW210917   7.012   5.720   6.816
 3340SOL     OW10918   3.361   6.451   1.345
 3340SOL    HW110919   3.416   6.525   1.306
 3340SOL    HW210920   3.269   6.455   1.306
 3341SOL     OW10921   0.901   1.123   2.213
 3341SOL    HW110922   0.868   1.070   2.134
 3341SOL    HW210923   0.928   1.060   2.286
 3342SOL     OW10924   2.361   6.557   4.324
 3342SOL    HW110925   2.419   6.517   4.395
 3342SOL    HW210926   2.265   6.551   4.351
 3343SOL     OW10927   5.527   2.849   0.741
 3343SOL    HW110928   5.458   2.894   0.798
 3343SOL    HW210929   5.592   2.917   0.708
 3344SOL     OW10930   7.010   3.834   5.714
 3344SOL    HW110931   6.979   3.743   5.684
 3344SOL    HW210932   6.971   3.904   5.654
 3345SOL     OW10933   2.970   3.226   5.823
 3345SOL    HW110934   2.962   3.127   5.838
 3345SOL    HW210935   3.058   3.247   5.781
 3346SOL     OW10936   0.967   0.224   1.885
 3346SOL    HW110937   1.052   0.191   1.846
 3346SOL    HW210938   0.890   0.197   1.827
 3347SOL     OW10939   5.888   4.320   5.190
 3347SOL    HW110940   5.968   4.317   5.250
 3347SOL    HW210941   5.831   4.240   5.207
 3348SOL     OW10942   3.743   2.924   4.150
 3348SOL    HW110943   3.836   2.928   4.112
 3348SOL    HW210944   3.682   2.878   4.086
 3349SOL     OW10945   6.088   3.708   4.928
 3349SOL    HW110946   6.075   3.615   4.961
 3349SOL    HW210947   6.001   3.758   4.932
 3350SOL     OW10948   1.488   1.094   1.331
 3350SOL    HW110949   1.406   1.149   1.313
 3350SOL    HW210950   1.502   1.086   1.429
 3351SOL     OW10951   5.031   1.530   1.770
 3351SOL    HW110952   4.948   1.561   1.816
 3351SOL    HW210953   5.022   1.545   1.671
 3352SOL     OW10954   0.264   3.686   1.134
 3352SOL    HW110955   0.344   3.708   1.190
 3352SOL    HW210956   0.273   3.731   1.045
 3353SOL     OW10957   2.330   6.878   5.894
 3353SOL    HW110958   2.239   6.918   5.882
 3353SOL    HW210959   2.370   6.910   5.979
 3354SOL     OW10960   0.995   2.044   2.988
 3354SOL    HW110961   1.020   2.106   3.063
 3354SOL    HW210962   0.905   2.005   3.007
 3355SOL     OW10963   6.893   1.051   2.667
 3355SOL    HW110964   6.858   1.140   2.696
 3355SOL    HW210965   6.919   0.998   2.747
 3356SOL     OW10966   2.498   3.350   6.953
 3356SOL    HW110967   2.496   3.285   0.011
 3356SOL    HW210968   2.579   3.408   6.961
 3357SOL     OW10969   2.688   5.127   1.886
 3357SOL    HW110970   2.641   5.087   1.808
 3357SOL    HW210971   2.622   5.145   1.959
 3358SOL     OW10972   5.121   4.898   2.382
 3358SOL    HW110973   5.050   4.969   2.385
 3358SOL    HW210974   5.151   4.877   2.475
 3359SOL     OW10975   1.809   1.537   2.698
 3359SOL    HW110976   1.719   1.559   2.659
 3359SOL    HW210977   1.879   1.589   2.650
 3360SOL     OW10978   1.142   0.463   7.008
 3360SOL    HW110979   1.084   0.517   0.051
 3360SOL    HW210980   1.202   0.523   6.955
 3361SOL     OW10981   5.579   6.937   2.965
 3361SOL    HW110982   5.655   6.872   2.966
 3361SOL    HW210983   5.499   6.896   3.009
 3362SOL     OW10984   1.679   1.070   5.952
 3362SOL    HW110985   1.680   1.034   6.046
 3362SOL    HW210986   1.690   1.169   5.955
 3363SOL     OW10987   0.340   1.089   6.566
 3363SOL    HW110988   0.262   1.099   6.504
 3363SOL    HW210989   0.412   1.154   6.542
 3364SOL     OW10990   1.762   4.780   6.252
 3364SOL    HW110991   1.858   4.810   6.251
 3364SOL    HW210992   1.729   4.770   6.158
 3365SOL     OW10993   6.246   1.929   5.248
 3365SOL    HW110994   6.320   1.966   5.305
 3365SOL    HW210995   6.171   1.899   5.306
 3366SOL     OW10996   5.533   1.227   5.614
 3366SOL    HW110997   5.482   1.151   5.653
 3366SOL    HW210998   5.532   1.304   5.678
 3367SOL     OW10999   0.953   0.674   2.125
 3367SOL    HW111000   0.915   0.616   2.053
 3367SOL    HW211001   0.931   0.770   2.105
 3368SOL     OW11002   6.581   5.912   6.225
 3368SOL    HW111003   6.564   5.928   6.128
 3368SOL    HW211004   6.528   5.976   6.279
 3369SOL     OW11005   4.272   7.015   6.510
 3369SOL    HW111006   4.231   6.989   6.597
 3369SOL    HW211007   4.205   0.048   6.455
 3370SOL     OW11008   5.838   6.471   5.478
 3370SOL    HW111009   5.770   6.540   5.503
 3370SOL    HW211010   5.819   6.387   5.528
 3371SOL     OW11011   0.658   5.254   1.685
 3371SOL    HW111012   0.642   5.196   1.765
 3371SOL    HW211013   0.631   5.205   1.602
 3372SOL     OW11014   0.723   1.152   2.928
 3372SOL    HW111015   0.670   1.199   2.858
 3372SOL    HW211016   0.737   1.056   2.900
 3373SOL     OW11017   6.271   2.181   5.035
 3373SOL    HW111018   6.255   2.106   5.100
 3373SOL    HW211019   6.362   2.219   5.050
 3374SOL     OW11020   3.040   5.018   5.240
 3374SOL    HW111021   3.124   5.073   5.246
 3374SOL    HW211022   2.964   5.069   5.282
 3375SOL     OW11023   4.443   4.732   5.286
 3375SOL    HW111024   4.491   4.794   5.348
 3375SOL    HW211025   4.349   4.719   5.318
 3376SOL     OW11026   3.290   3.796   2.046
 3376SOL    HW111027   3.243   3.795   1.958
 3376SOL    HW211028   3.227   3.766   2.117
 3377SOL     OW11029   1.572   6.290   5.513
 3377SOL    HW111030   1.544   6.258   5.604
 3377SOL    HW211031   1.548   6.221   5.445
 3378SOL     OW11032   6.599   1.780   1.235
 3378SOL    HW111033   6.670   1.815   1.175
 3378SOL    HW211034   6.538   1.854   1.261
 3379SOL     OW11035   0.728   4.268   5.423
 3379SOL    HW111036   0.657   4.311   5.367
 3379SOL    HW211037   0.702   4.174   5.444
 3380SOL     OW11038   7.007   4.211   6.527
 3380SOL    HW111039   7.009   4.120   6.568
 3380SOL    HW211040   6.976   4.277   6.596
 3381SOL     OW11041   3.075   2.270   0.197
 3381SOL    HW111042   3.106   2.232   0.285
 3381SOL    HW211043   2.982   2.238   0.178
 3382SOL     OW11044   6.866   1.171   1.143
 3382SOL    HW111045   6.841   1.234   1.069
 3382SOL    HW211046   6.800   1.096   1.146
 3383SOL     OW11047   5.861   5.036   2.766
 3383SOL    HW111048   5.876   5.118   2.710
 3383SOL    HW211049   5.832   4.961   2.706
 3384SOL     OW11050   3.852   3.203   4.174
 3384SOL    HW111051   3.884   3.210   4.268
 3384SOL    HW211052   3.807   3.115   4.160
 3385SOL     OW11053   6.224   3.828   3.457
 3385SOL    HW111054   6.254   3.910   3.505
 3385SOL    HW211055   6.297   3.797   3.396
 3386SOL     OW11056   5.956   4.362   5.478
 3386SOL    HW111057   6.031   4.379   5.542
 3386SOL    HW211058   5.876   4.415   5.506
 3387SOL     OW11059   2.246   2.169   2.634
 3387SOL    HW111060   2.191   2.144   2.714
 3387SOL    HW211061   2.220   2.260   2.603
 3388SOL     OW11062   5.829   2.362   1.345
 3388SOL    HW111063   5.796   2.393   1.256
 3388SOL    HW211064   5.751   2.340   1.404
 3389SOL     OW11065   5.561   4.361   3.514
 3389SOL    HW111066   5.574   4.336   3.418
 3389SOL    HW211067   5.464   4.356   3.537
 3390SOL     OW11068   4.654   2.933   5.586
 3390SOL    HW111069   4.587   3.000   5.555
 3390SOL    HW211070   4.608   2.847   5.606
 3391SOL     OW11071   4.039   2.163   4.802
 3391SOL    HW111072   4.079   2.121   4.720
 3391SOL    HW211073   3.949   2.123   4.820
 3392SOL     OW11074   3.629   0.262   4.018
 3392SOL    HW111075   3.671   0.332   4.076
 3392SOL    HW211076   3.645   0.172   4.057
 3393SOL     OW11077   6.798   6.840   0.140
 3393SOL    HW111078   6.871   6.786   0.098
 3393SOL    HW211079   6.768   6.910   0.075
 3394SOL     OW11080   5.973   2.705   1.279
 3394SOL    HW111081   6.041   2.741   1.214
 3394SOL    HW211082   6.019   2.649   1.347
 3395SOL     OW11083   1.462   3.463   5.077
 3395SOL    HW111084   1.440   3.556   5.106
 3395SOL    HW211085   1.523   3.466   4.998
 3396SOL     OW11086   0.050   4.154   3.798
 3396SOL    HW111087   0.146   4.181   3.806
 3396SOL    HW211088   0.007   4.158   3.889
 3397SOL     OW11089   3.822   6.311   5.740
 3397SOL    HW111090   3.870   6.321   5.828
 3397SOL    HW211091   3.754   6.239   5.747
 3398SOL     OW11092   1.000   6.688   4.417
 3398SOL    HW111093   1.040   6.644   4.337
 3398SOL    HW211094   0.974   6.782   4.395
 3399SOL     OW11095   5.227   4.841   3.971
 3399SOL    HW111096   5.284   4.784   4.031
 3399SOL    HW211097   5.249   4.820   3.875
 3400SOL     OW11098   5.148   2.320   0.270
 3400SOL    HW111099   5.074   2.257   0.250
 3400SOL    HW211100   5.213   2.322   0.194
 3401SOL     OW11101   5.782   3.983   0.174
 3401SOL    HW111102   5.825   3.954   0.089
 3401SOL    HW211103   5.838   4.054   0.218
 3402SOL     OW11104   5.638   5.622   1.686
 3402SOL    HW111105   5.570   5.693   1.669
 3402SOL    HW211106   5.730   5.661   1.678
 3403SOL     OW11107   3.527   0.873   5.247
 3403SOL    HW111108   3.495   0.859   5.153
 3403SOL    HW211109   3.558   0.967   5.258
 3404SOL     OW11110   4.474   1.060   0.555
 3404SOL    HW111111   4.497   1.154   0.582
 3404SOL    HW211112   4.523   1.037   0.472
 3405SOL     OW11113   6.839   3.482   6.487
 3405SOL    HW111114   6.755   3.447   6.446
 3405SOL    HW211115   6.816   3.544   6.563
 3406SOL     OW11116   1.768   3.751   2.691
 3406SOL    HW111117   1.867   3.766   2.683
 3406SOL    HW211118   1.746   3.730   2.786
 3407SOL     OW11119   1.073   5.693   2.441
 3407SOL    HW111120   1.061   5.756   2.365
 3407SOL    HW211121   1.103   5.604   2.407
 3408SOL     OW11122   5.320   4.428   2.342
 3408SOL    HW111123   5.338   4.439   2.440
 3408SOL    HW211124   5.400   4.458   2.290
 3409SOL     OW11125   3.779   0.542   5.709
 3409SOL    HW111126   3.739   0.626   5.671
 3409SOL    HW211127   3.779   0.470   5.640
 3410SOL     OW11128   6.572   6.907   0.683
 3410SOL    HW111129   6.638   6.833   0.672
 3410SOL    HW211130   6.593   6.959   0.767
 3411SOL     OW11131   4.864   2.372   2.988
 3411SOL    HW111132   4.774   2.369   3.032
 3411SOL    HW211133   4.853   2.386   2.890
 3412SOL     OW11134   3.586   4.543   6.981
 3412SOL    HW111135   3.549   4.609   6.916
 3412SOL    HW211136   3.567   4.574   0.057
 3413SOL     OW11137   3.643   1.635   3.742
 3413SOL    HW111138   3.578   1.702   3.706
 3413SOL    HW211139   3.634   1.549   3.692
 3414SOL     OW11140   2.765   2.302   5.127
 3414SOL    HW111141   2.788   2.320   5.032
 3414SOL    HW211142   2.839   2.334   5.186
 3415SOL     OW11143   0.525   4.687   3.952
 3415SOL    HW111144   0.575   4.626   4.015
 3415SOL    HW211145   0.488   4.633   3.876
 3416SOL     OW11146   1.020   5.636   5.077
 3416SOL    HW111147   1.011   5.735   5.088
 3416SOL    HW211148   0.945   5.601   5.021
 3417SOL     OW11149   6.823   6.830   2.582
 3417SOL    HW111150   6.865   6.739   2.585
 3417SOL    HW211151   6.748   6.829   2.516
 3418SOL     OW11152   2.950   1.562   5.560
 3418SOL    HW111153   2.853   1.540   5.575
 3418SOL    HW211154   2.978   1.633   5.625
 3419SOL     OW11155   4.154   4.898   0.059
 3419SOL    HW111156   4.097   4.971   0.021
 3419SOL    HW211157   4.099   4.816   0.072
 3420SOL     OW11158   4.012   2.166   3.610
 3420SOL    HW111159   4.028   2.087   3.551
 3420SOL    HW211160   4.000   2.136   3.705
 3421SOL     OW11161   0.394   5.852   5.569
 3421SOL    HW111162   0.493   5.856   5.552
 3421SOL    HW211163   0.376   5.793   5.648
 3422SOL     OW11164   3.335   0.944   1.519
 3422SOL    HW111165   3.343   1.043   1.529
 3422SOL    HW211166   3.390   0.914   1.441
 3423SOL     OW11167   2.450   0.307   0.909
 3423SOL    HW111168   2.364   0.346   0.875
 3423SOL    HW211169   2.519   0.379   0.915
 3424SOL     OW11170   4.199   0.840   3.217
 3424SOL    HW111171   4.279   0.854   3.158
 3424SOL    HW211172   4.130   0.910   3.196
 3425SOL     OW11173   4.632   4.342   1.679
 3425SOL    HW111174   4.590   4.297   1.757
 3425SOL    HW211175   4.615   4.290   1.595
 3426SOL     OW11176   4.355   3.659   0.257
 3426SOL    HW111177   4.331   3.680   0.352
 3426SOL    HW211178   4.405   3.572   0.255
 3427SOL     OW11179   0.266   1.125   0.462
 3427SOL    HW111180   0.336   1.119   0.391
 3427SOL    HW211181   0.216   1.211   0.453
 3428SOL     OW11182   4.198   4.678   2.184
 3428SOL    HW111183   4.200   4.762   2.130
 3428SOL    HW211184   4.104   4.642   2.186
 3429SOL     OW11185   1.430   3.448   0.496
 3429SOL    HW111186   1.352   3.453   0.559
 3429SOL    HW211187   1.513   3.474   0.545
 3430SOL     OW11188   1.717   0.021   0.256
 3430SOL    HW111189   1.777   6.963   0.226
 3430SOL    HW211190   1.674   7.013   0.342
 3431SOL     OW11191   0.708   5.872   0.737
 3431SOL    HW111192   0.657   5.952   0.769
 3431SOL    HW211193   0.701   5.865   0.638
 3432SOL     OW11194   3.262   1.633   6.121
 3432SOL    HW111195   3.193   1.561   6.118
 3432SOL    HW211196   3.223   1.714   6.163
 3433SOL     OW11197   3.573   0.797   4.851
 3433SOL    HW111198   3.534   0.796   4.759
 3433SOL    HW211199   3.550   0.712   4.898
 3434SOL     OW11200   4.795   2.814   2.230
 3434SOL    HW111201   4.792   2.886   2.162
 3434SOL    HW211202   4.761   2.849   2.317
 3435SOL     OW11203   6.895   1.958   2.086
 3435SOL    HW111204   6.820   2.024   2.084
 3435SOL    HW211205   6.964   1.984   2.019
 3436SOL     OW11206   3.961   6.807   4.561
 3436SOL    HW111207   3.972   6.744   4.638
 3436SOL    HW211208   3.908   6.887   4.590
 3437SOL     OW11209   3.980   7.007   5.414
 3437SOL    HW111210   3.992   0.059   5.485
 3437SOL    HW211211   3.882   6.997   5.394
 3438SOL     OW11212   0.757   2.525   6.401
 3438SOL    HW111213   0.840   2.509   6.347
 3438SOL    HW211214   0.782   2.545   6.495
 3439SOL     OW11215   2.706   6.562   4.314
 3439SOL    HW111216   2.648   6.495   4.361
 3439SOL    HW211217   2.649   6.620   4.257
 3440SOL     OW11218   4.799   3.198   0.900
 3440SOL    HW111219   4.719   3.158   0.946
 3440SOL    HW211220   4.850   3.255   0.964
 3441SOL     OW11221   2.913   0.297   3.726
 3441SOL    HW111222   3.010   0.319   3.740
 3441SOL    HW211223   2.860   0.329   3.804
 3442SOL     OW11224   2.083   5.150   3.853
 3442SOL    HW111225   2.084   5.204   3.937
 3442SOL    HW211226   2.107   5.208   3.776
 3443SOL     OW11227   6.168   1.761   2.937
 3443SOL    HW111228   6.086   1.726   2.983
 3443SOL    HW211229   6.207   1.835   2.991
 3444SOL     OW11230   5.008   5.699   0.163
 3444SOL    HW111231   5.045   5.695   0.256
 3444SOL    HW211232   4.909   5.692   0.166
 3445SOL     OW11233   6.612   4.729   4.177
 3445SOL    HW111234   6.654   4.785   4.106
 3445SOL    HW211235   6.672   4.652   4.199
 3446SOL     OW11236   4.043   0.231   2.589
 3446SOL    HW111237   3.950   0.196   2.599
 3446SOL    HW211238   4.050   0.281   2.503
 3447SOL     OW11239   5.490   6.548   0.266
 3447SOL    HW111240   5.493   6.578   0.170
 3447SOL    HW211241   5.495   6.448   0.270
 3448SOL     OW11242   3.773   1.177   1.748
 3448SOL    HW111243   3.860   1.222   1.729
 3448SOL    HW211244   3.739   1.133   1.665
 3449SOL     OW11245   6.554   6.837   2.855
 3449SOL    HW111246   6.469   6.802   2.816
 3449SOL    HW211247   6.631   6.779   2.824
 3450SOL     OW11248   0.801   1.692   1.727
 3450SOL    HW111249   0.782   1.597   1.702
 3450SOL    HW211250   0.900   1.705   1.735
 3451SOL     OW11251   1.188   6.017   3.926
 3451SOL    HW111252   1.220   6.048   4.016
 3451SOL    HW211253   1.265   5.981   3.874
 3452SOL     OW11254   6.044   1.218   0.601
 3452SOL    HW111255   6.139   1.214   0.631
 3452SOL    HW211256   6.010   1.125   0.585
 3453SOL     OW11257   5.556   5.635   4.668
 3453SOL    HW111258   5.482   5.576   4.697
 3453SOL    HW211259   5.538   5.729   4.697
 3454SOL     OW11260   1.177   1.037   0.719
 3454SOL    HW111261   1.139   0.980   0.646
 3454SOL    HW211262   1.172   1.133   0.692
 3455SOL     OW11263   1.691   2.818   4.523
 3455SOL    HW111264   1.720   2.753   4.452
 3455SOL    HW211265   1.754   2.811   4.601
 3456SOL     OW11266   5.675   6.782   1.436
 3456SOL    HW111267   5.615   6.777   1.356
 3456SOL    HW211268   5.733   6.863   1.429
 3457SOL     OW11269   2.723   4.708   3.766
 3457SOL    HW111270   2.708   4.657   3.681
 3457SOL    HW211271   2.762   4.797   3.745
 3458SOL     OW11272   5.748   6.889   1.142
 3458SOL    HW111273   5.771   6.824   1.070
 3458SOL    HW211274   5.666   6.860   1.190
 3459SOL     OW11275   0.163   4.935   3.739
 3459SOL    HW111276   0.257   4.903   3.724
 3459SOL    HW211277   0.102   4.891   3.673
 3460SOL     OW11278   4.589   2.628   7.001
 3460SOL    HW111279   4.550   2.590   6.917
 3460SOL    HW211280   4.543   2.589   0.063
 3461SOL     OW11281   3.781   6.181   4.054
 3461SOL    HW111282   3.712   6.227   4.110
 3461SOL    HW211283   3.842   6.249   4.014
 3462SOL     OW11284   4.890   3.644   3.025
 3462SOL    HW111285   4.865   3.728   2.979
 3462SOL    HW211286   4.883   3.656   3.124
 3463SOL     OW11287   2.309   2.916   1.258
 3463SOL    HW111288   2.293   2.875   1.168
 3463SOL    HW211289   2.340   3.010   1.247
 3464SOL     OW11290   5.275   3.098   6.283
 3464SOL    HW111291   5.370   3.072   6.264
 3464SOL    HW211292   5.242   3.050   6.364
 3465SOL     OW11293   2.021   3.700   2.032
 3465SOL    HW111294   2.082   3.623   2.010
 3465SOL    HW211295   2.075   3.782   2.048
 3466SOL     OW11296   5.703   5.021   5.052
 3466SOL    HW111297   5.612   5.064   5.053
 3466SOL    HW211298   5.767   5.080   5.003
 3467SOL     OW11299   2.650   2.766   0.963
 3467SOL    HW111300   2.691   2.808   1.044
 3467SOL    HW211301   2.703   2.790   0.882
 3468SOL     OW11302   4.566   1.259   1.308
 3468SOL    HW111303   4.542   1.168   1.344
 3468SOL    HW211304   4.603   1.249   1.216
 3469SOL     OW11305   4.643   6.834   5.826
 3469SOL    HW111306   4.549   6.839   5.861
 3469SOL    HW211307   4.647   6.879   5.736
 3470SOL     OW11308   0.090   2.643   2.211
 3470SOL    HW111309   0.053   2.736   2.212
 3470SOL    HW211310   0.102   2.611   2.304
 3471SOL     OW11311   4.797   4.154   2.966
 3471SOL    HW111312   4.725   4.184   3.028
 3471SOL    HW211313   4.758   4.140   2.875
 3472SOL     OW11314   4.788   1.918   3.194
 3472SOL    HW111315   4.756   1.829   3.227
 3472SOL    HW211316   4.844   1.961   3.265
 3473SOL     OW11317   6.846   4.094   3.325
 3473SOL    HW111318   6.777   4.074   3.394
 3473SOL    HW211319   6.926   4.037   3.341
 3474SOL     OW11320   6.476   5.329   4.757
 3474SOL    HW111321   6.438   5.313   4.666
 3474SOL    HW211322   6.566   5.287   4.764
 3475SOL     OW11323   6.980   3.988   4.299
 3475SOL    HW111324   6.929   4.074   4.298
 3475SOL    HW211325   0.040   3.996   4.361
 3476SOL     OW11326   1.463   1.823   3.395
 3476SOL    HW111327   1.415   1.876   3.324
 3476SOL    HW211328   1.513   1.748   3.352
 3477SOL     OW11329   0.303   3.952   1.528
 3477SOL    HW111330   0.363   3.957   1.448
 3477SOL    HW211331   0.354   3.911   1.604
 3478SOL     OW11332   2.417   6.946   0.036
 3478SOL    HW111333   2.410   6.993   0.124
 3478SOL    HW211334   2.436   7.013   6.981
 3479SOL     OW11335   0.838   3.273   3.496
 3479SOL    HW111336   0.851   3.345   3.429
 3479SOL    HW211337   0.919   3.268   3.555
 3480SOL     OW11338   1.227   5.569   6.950
 3480SOL    HW111339   1.157   5.509   6.988
 3480SOL    HW211340   1.210   5.663   6.977
 3481SOL     OW11341   6.442   0.622   6.627
 3481SOL    HW111342   6.477   0.675   6.550
 3481SOL    HW211343   6.342   0.620   6.623
 3482SOL     OW11344   5.808   3.717   4.672
 3482SOL    HW111345   5.835   3.719   4.576
 3482SOL    HW211346   5.840   3.800   4.717
 3483SOL     OW11347   4.520   1.929   3.605
 3483SOL    HW111348   4.618   1.928   3.620
 3483SOL    HW211349   4.487   1.836   3.590
 3484SOL     OW11350   2.129   3.447   6.123
 3484SOL    HW111351   2.041   3.439   6.170
 3484SOL    HW211352   2.113   3.463   6.025
 3485SOL     OW11353   0.176   1.683   5.555
 3485SOL    HW111354   0.181   1.645   5.648
 3485SOL    HW211355   0.080   1.692   5.529
 3486SOL     OW11356   2.189   0.292   4.749
 3486SOL    HW111357   2.161   0.277   4.844
 3486SOL    HW211358   2.167   0.211   4.694
 3487SOL     OW11359   6.188   1.594   6.765
 3487SOL    HW111360   6.126   1.660   6.808
 3487SOL    HW211361   6.136   1.515   6.734
 3488SOL     OW11362   6.005   0.615   4.207
 3488SOL    HW111363   6.014   0.518   4.226
 3488SOL    HW211364   5.908   0.638   4.199
 3489SOL     OW11365   3.085   0.313   0.779
 3489SOL    HW111366   3.075   0.397   0.833
 3489SOL    HW211367   2.999   0.294   0.731
 3490SOL     OW11368   4.304   5.169   0.766
 3490SOL    HW111369   4.346   5.089   0.721
 3490SOL    HW211370   4.204   5.159   0.764
 3491SOL     OW11371   5.054   4.286   0.218
 3491SOL    HW111372   5.056   4.336   0.304
 3491SOL    HW211373   4.960   4.282   0.183
 3492SOL     OW11374   5.586   4.357   2.508
 3492SOL    HW111375   5.589   4.295   2.430
 3492SOL    HW211376   5.655   4.331   2.575
 3493SOL     OW11377   6.347   3.464   4.652
 3493SOL    HW111378   6.272   3.407   4.619
 3493SOL    HW211379   6.431   3.410   4.655
 3494SOL     OW11380   3.467   1.753   2.500
 3494SOL    HW111381   3.384   1.790   2.543
 3494SOL    HW211382   3.448   1.732   2.404
 3495SOL     OW11383   1.123   3.268   1.963
 3495SOL    HW111384   1.134   3.357   2.008
 3495SOL    HW211385   1.189   3.261   1.888
 3496SOL     OW11386   6.659   4.990   0.704
 3496SOL    HW111387   6.757   5.008   0.704
 3496SOL    HW211388   6.624   4.990   0.610
 3497SOL     OW11389   4.250   0.800   2.539
 3497SOL    HW111390   4.257   0.707   2.575
 3497SOL    HW211391   4.206   0.859   2.606
 3498SOL     OW11392   2.082   1.929   1.478
 3498SOL    HW111393   2.085   1.843   1.529
 3498SOL    HW211394   2.080   2.006   1.542
 3499SOL     OW11395   5.810   5.550   5.669
 3499SOL    HW111396   5.861   5.578   5.587
 3499SOL    HW211397   5.850   5.593   5.749
 3500SOL     OW11398   1.116   1.776   3.551
 3500SOL    HW111399   1.156   1.707   3.491
 3500SOL    HW211400   1.176   1.790   3.630
 3501SOL     OW11401   2.151   6.974   6.584
 3501SOL    HW111402   2.171   0.054   6.569
 3501SOL    HW211403   2.189   6.945   6.672
 3502SOL     OW11404   5.229   3.469   1.816
 3502SOL    HW111405   5.161   3.532   1.853
 3502SOL    HW211406   5.182   3.394   1.769
 3503SOL     OW11407   6.796   5.750   6.260
 3503SOL    HW111408   6.714   5.805   6.243
 3503SOL    HW211409   6.805   5.734   6.358
 3504SOL     OW11410   1.310   0.935   2.268
 3504SOL    HW111411   1.389   0.989   2.299
 3504SOL    HW211412   1.341   0.865   2.204
 3505SOL     OW11413   5.771   4.993   5.606
 3505SOL    HW111414   5.748   5.011   5.702
 3505SOL    HW211415   5.718   4.916   5.572
 3506SOL     OW11416   5.111   4.434   4.435
 3506SOL    HW111417   5.164   4.386   4.365
 3506SOL    HW211418   5.084   4.524   4.401
 3507SOL     OW11419   2.393   0.057   0.578
 3507SOL    HW111420   2.326   0.131   0.584
 3507SOL    HW211421   2.484   0.093   0.601
 3508SOL     OW11422   3.091   2.560   5.367
 3508SOL    HW111423   3.122   2.491   5.302
 3508SOL    HW211424   2.993   2.548   5.384
 3509SOL     OW11425   4.246   5.942   6.981
 3509SOL    HW111426   4.333   5.992   6.973
 3509SOL    HW211427   4.178   6.001   0.007
 3510SOL     OW11428   1.965   0.695   1.026
 3510SOL    HW111429   1.961   0.775   0.967
 3510SOL    HW211430   2.060   0.669   1.042
 3511SOL     OW11431   2.440   4.485   1.427
 3511SOL    HW111432   2.390   4.563   1.389
 3511SOL    HW211433   2.443   4.493   1.526
 3512SOL     OW11434   1.067   4.044   6.799
 3512SOL    HW111435   1.036   4.128   6.843
 3512SOL    HW211436   1.155   4.060   6.754
 3513SOL     OW11437   6.029   2.195   0.574
 3513SOL    HW111438   6.095   2.172   0.646
 3513SOL    HW211439   5.940   2.154   0.596
 3514SOL     OW11440   5.107   0.753   2.593
 3514SOL    HW111441   5.084   0.661   2.563
 3514SOL    HW211442   5.077   0.766   2.688
 3515SOL     OW11443   5.693   5.982   4.593
 3515SOL    HW111444   5.600   6.018   4.603
 3515SOL    HW211445   5.730   6.009   4.504
 3516SOL     OW11446   5.233   0.543   1.262
 3516SOL    HW111447   5.323   0.518   1.225
 3516SOL    HW211448   5.199   0.470   1.321
 3517SOL     OW11449   6.817   1.665   0.694
 3517SOL    HW111450   6.839   1.678   0.598
 3517SOL    HW211451   6.854   1.579   0.726
 3518SOL     OW11452   6.044   1.827   4.931
 3518SOL    HW111453   6.023   1.891   4.856
 3518SOL    HW211454   6.048   1.877   5.017
 3519SOL     OW11455   3.105   0.488   0.246
 3519SOL    HW111456   3.090   0.436   0.330
 3519SOL    HW211457   3.052   0.573   0.250
 3520SOL     OW11458   3.018   5.426   5.406
 3520SOL    HW111459   3.028   5.403   5.502
 3520SOL    HW211460   3.007   5.525   5.396
 3521SOL     OW11461   3.135   3.156   6.776
 3521SOL    HW111462   3.184   3.165   6.863
 3521SOL    HW211463   3.055   3.216   6.778
 3522SOL     OW11464   6.844   5.597   6.644
 3522SOL    HW111465   6.909   5.567   6.714
 3522SOL    HW211466   6.802   5.518   6.601
 3523SOL     OW11467   1.244   5.140   5.781
 3523SOL    HW111468   1.250   5.043   5.754
 3523SOL    HW211469   1.258   5.198   5.701
 3524SOL     OW11470   6.253   1.903   3.247
 3524SOL    HW111471   6.168   1.922   3.296
 3524SOL    HW211472   6.319   1.863   3.310
 3525SOL     OW11473   6.038   4.840   4.067
 3525SOL    HW111474   6.004   4.918   4.014
 3525SOL    HW211475   6.125   4.865   4.111
 3526SOL     OW11476   1.366   5.869   3.164
 3526SOL    HW111477   1.314   5.898   3.245
 3526SOL    HW211478   1.372   5.944   3.099
 3527SOL     OW11479   6.675   2.579   6.010
 3527SOL    HW111480   6.649   2.615   5.921
 3527SOL    HW211481   6.604   2.517   6.043
 3528SOL     OW11482   2.607   6.416   5.637
 3528SOL    HW111483   2.673   6.382   5.704
 3528SOL    HW211484   2.641   6.399   5.544
 3529SOL     OW11485   5.033   5.785   6.921
 3529SOL    HW111486   5.022   5.781   0.003
 3529SOL    HW211487   5.122   5.748   6.896
 3530SOL     OW11488   6.985   6.144   2.287
 3530SOL    HW111489   6.895   6.187   2.295
 3530SOL    HW211490   6.989   6.092   2.201
 3531SOL     OW11491   4.630   1.489   1.705
 3531SOL    HW111492   4.632   1.479   1.605
 3531SOL    HW211493   4.535   1.502   1.735
 3532SOL     OW11494   2.245   1.095   2.089
 3532SOL    HW111495   2.145   1.083   2.088
 3532SOL    HW211496   2.268   1.184   2.048
 3533SOL     OW11497   6.345   1.623   2.266
 3533SOL    HW111498   6.400   1.553   2.220
 3533SOL    HW211499   6.271   1.579   2.318
 3534SOL     OW11500   0.392   2.070   2.001
 3534SOL    HW111501   0.400   2.008   2.079
 3534SOL    HW211502   0.409   2.163   2.031
 3535SOL     OW11503   2.913   5.092   4.911
 3535SOL    HW111504   2.956   5.018   4.961
 3535SOL    HW211505   2.956   5.179   4.937
 3536SOL     OW11506   3.114   2.006   2.970
 3536SOL    HW111507   3.023   1.967   2.958
 3536SOL    HW211508   3.112   2.073   3.044
 3537SOL     OW11509   1.729   5.801   3.020
 3537SOL    HW111510   1.738   5.810   2.920
 3537SOL    HW211511   1.789   5.867   3.065
 3538SOL     OW11512   2.984   5.427   4.934
 3538SOL    HW111513   2.902   5.470   4.899
 3538SOL    HW211514   3.028   5.487   5.001
 3539SOL     OW11515   3.638   4.103   4.259
 3539SOL    HW111516   3.734   4.096   4.231
 3539SOL    HW211517   3.624   4.050   4.343
 3540SOL     OW11518   1.733   2.037   4.264
 3540SOL    HW111519   1.708   1.960   4.204
 3540SOL    HW211520   1.798   2.096   4.217
 3541SOL     OW11521   3.294   3.386   5.089
 3541SOL    HW111522   3.372   3.352   5.036
 3541SOL    HW211523   3.311   3.482   5.115
 3542SOL     OW11524   1.428   4.872   2.680
 3542SOL    HW111525   1.493   4.914   2.617
 3542SOL    HW211526   1.475   4.841   2.762
 3543SOL     OW11527   5.263   2.469   4.177
 3543SOL    HW111528   5.275   2.452   4.275
 3543SOL    HW211529   5.171   2.442   4.149
 3544SOL     OW11530   1.929   3.955   6.626
 3544SOL    HW111531   1.909   3.960   6.528
 3544SOL    HW211532   2.011   3.900   6.641
 3545SOL     OW11533   4.354   5.395   6.297
 3545SOL    HW111534   4.370   5.483   6.342
 3545SOL    HW211535   4.282   5.405   6.229
 3546SOL     OW11536   6.994   5.580   3.379
 3546SOL    HW111537   0.076   5.591   3.385
 3546SOL    HW211538   6.952   5.604   3.467
 3547SOL     OW11539   4.527   5.104   4.279
 3547SOL    HW111540   4.524   5.048   4.196
 3547SOL    HW211541   4.456   5.175   4.274
 3548SOL     OW11542   4.779   2.544   5.396
 3548SOL    HW111543   4.869   2.506   5.373
 3548SOL    HW211544   4.721   2.472   5.434
 3549SOL     OW11545   6.442   4.651   3.644
 3549SOL    HW111546   6.379   4.597   3.700
 3549SOL    HW211547   6.536   4.631   3.671
 3550SOL     OW11548   5.261   2.113   3.213
 3550SOL    HW111549   5.300   2.151   3.297
 3550SOL    HW211550   5.208   2.183   3.166
 3551SOL     OW11551   3.348   6.256   2.554
 3551SOL    HW111552   3.397   6.177   2.515
 3551SOL    HW211553   3.364   6.259   2.653
 3552SOL     OW11554   5.267   6.057   2.675
 3552SOL    HW111555   5.339   6.120   2.644
 3552SOL    HW211556   5.200   6.107   2.730
 3553SOL     OW11557   5.457   2.446   2.527
 3553SOL    HW111558   5.501   2.531   2.556
 3553SOL    HW211559   5.413   2.403   2.606
 3554SOL     OW11560   4.266   4.662   6.608
 3554SOL    HW111561   4.245   4.641   6.512
 3554SOL    HW211562   4.188   4.638   6.665
 3555SOL     OW11563   0.902   3.399   3.274
 3555SOL    HW111564   1.000   3.379   3.284
 3555SOL    HW211565   0.861   3.334   3.210
 3556SOL     OW11566   2.922   0.439   5.323
 3556SOL    HW111567   2.976   0.435   5.238
 3556SOL    HW211568   2.828   0.464   5.301
 3557SOL     OW11569   1.824   0.332   4.746
 3557SOL    HW111570   1.895   0.312   4.813
 3557SOL    HW211571   1.865   0.363   4.661
 3558SOL     OW11572   0.075   6.215   1.800
 3558SOL    HW111573   0.111   6.188   1.889
 3558SOL    HW211574   0.108   6.150   1.731
 3559SOL     OW11575   0.718   0.830   4.503
 3559SOL    HW111576   0.752   0.917   4.539
 3559SOL    HW211577   0.655   0.788   4.569
 3560SOL     OW11578   0.824   5.719   1.355
 3560SOL    HW111579   0.801   5.686   1.446
 3560SOL    HW211580   0.923   5.731   1.348
 3561SOL     OW11581   4.850   4.375   5.781
 3561SOL    HW111582   4.948   4.361   5.792
 3561SOL    HW211583   4.804   4.286   5.772
 3562SOL     OW11584   5.702   0.290   3.687
 3562SOL    HW111585   5.741   0.228   3.619
 3562SOL    HW211586   5.746   0.274   3.775
 3563SOL     OW11587   5.453   1.196   1.149
 3563SOL    HW111588   5.506   1.119   1.184
 3563SOL    HW211589   5.485   1.281   1.190
 3564SOL     OW11590   0.212   4.426   4.408
 3564SOL    HW111591   0.228   4.518   4.370
 3564SOL    HW211592   0.300   4.382   4.427
 3565SOL     OW11593   2.697   0.649   4.630
 3565SOL    HW111594   2.640   0.662   4.549
 3565SOL    HW211595   2.788   0.688   4.613
 3566SOL     OW11596   0.116   3.210   5.878
 3566SOL    HW111597   0.074   3.145   5.942
 3566SOL    HW211598   0.045   3.264   5.833
 3567SOL     OW11599   0.214   3.367   0.768
 3567SOL    HW111600   0.127   3.398   0.807
 3567SOL    HW211601   0.275   3.445   0.757
 3568SOL     OW11602   4.339   4.705   3.316
 3568SOL    HW111603   4.400   4.626   3.316
 3568SOL    HW211604   4.296   4.714   3.406
 3569SOL     OW11605   2.972   3.817   4.660
 3569SOL    HW111606   2.960   3.890   4.727
 3569SOL    HW211607   2.927   3.734   4.693
 3570SOL     OW11608   6.564   1.704   5.769
 3570SOL    HW111609   6.626   1.636   5.807
 3570SOL    HW211610   6.470   1.669   5.771
 3571SOL     OW11611   1.851   6.491   5.366
 3571SOL    HW111612   1.843   6.589   5.350
 3571SOL    HW211613   1.801   6.441   5.295
 3572SOL     OW11614   5.058   4.468   1.315
 3572SOL    HW111615   5.132   4.451   1.379
 3572SOL    HW211616   5.001   4.386   1.306
 3573SOL     OW11617   6.483   3.829   1.837
 3573SOL    HW111618   6.469   3.827   1.936
 3573SOL    HW211619   6.580   3.836   1.817
 3574SOL     OW11620   2.636   3.135   6.011
 3574SOL    HW111621   2.707   3.067   5.990
 3574SOL    HW211622   2.674   3.204   6.073
 3575SOL     OW11623   5.310   0.071   0.498
 3575SOL    HW111624   5.245   0.089   0.572
 3575SOL    HW211625   5.266   0.089   0.410
 3576SOL     OW11626   0.750   3.212   7.007
 3576SOL    HW111627   0.801   3.290   6.971
 3576SOL    HW211628   0.657   3.240   0.012
 3577SOL     OW11629   2.345   2.700   5.431
 3577SOL    HW111630   2.384   2.651   5.352
 3577SOL    HW211631   2.341   2.798   5.411
 3578SOL     OW11632   3.589   2.961   6.635
 3578SOL    HW111633   3.568   2.864   6.643
 3578SOL    HW211634   3.548   2.997   6.551
 3579SOL     OW11635   0.329   3.440   2.481
 3579SOL    HW111636   0.384   3.459   2.400
 3579SOL    HW211637   0.390   3.409   2.555
 3580SOL     OW11638   0.600   3.637   1.523
 3580SOL    HW111639   0.552   3.549   1.530
 3580SOL    HW211640   0.582   3.692   1.604
 3581SOL     OW11641   0.658   0.378   2.515
 3581SOL    HW111642   0.607   0.464   2.508
 3581SOL    HW211643   0.653   0.329   2.427
 3582SOL     OW11644   3.510   3.707   5.831
 3582SOL    HW111645   3.563   3.635   5.786
 3582SOL    HW211646   3.461   3.761   5.762
 3583SOL     OW11647   0.410   4.601   1.224
 3583SOL    HW111648   0.313   4.608   1.245
 3583SOL    HW211649   0.428   4.514   1.177
 3584SOL     OW11650   5.502   4.519   4.980
 3584SOL    HW111651   5.592   4.478   4.991
 3584SOL    HW211652   5.500   4.575   4.897
 3585SOL     OW11653   2.809   1.963   3.921
 3585SOL    HW111654   2.883   1.985   3.984
 3585SOL    HW211655   2.822   2.015   3.836
 3586SOL     OW11656   6.344   3.008   4.202
 3586SOL    HW111657   6.269   3.059   4.243
 3586SOL    HW211658   6.420   3.002   4.267
 3587SOL     OW11659   3.616   6.667   6.318
 3587SOL    HW111660   3.641   6.741   6.381
 3587SOL    HW211661   3.624   6.579   6.364
 3588SOL     OW11662   6.809   4.235   4.305
 3588SOL    HW111663   6.866   4.291   4.365
 3588SOL    HW211664   6.776   4.290   4.228
 3589SOL     OW11665   0.377   0.072   6.185
 3589SOL    HW111666   0.398   6.997   6.218
 3589SOL    HW211667   0.343   0.128   6.262
 3590SOL     OW11668   6.977   4.717   0.821
 3590SOL    HW111669   0.056   4.701   0.841
 3590SOL    HW211670   6.965   4.736   0.723
 3591SOL     OW11671   5.770   2.220   6.576
 3591SOL    HW111672   5.692   2.175   6.533
 3591SOL    HW211673   5.740   2.305   6.618
 3592SOL     OW11674   1.693   6.943   1.811
 3592SOL    HW111675   1.775   6.886   1.812
 3592SOL    HW211676   1.685   6.990   1.723
 3593SOL     OW11677   5.031   3.262   5.973
 3593SOL    HW111678   5.031   3.287   5.876
 3593SOL    HW211679   5.020   3.163   5.982
 3594SOL     OW11680   4.342   4.973   4.482
 3594SOL    HW111681   4.383   5.031   4.411
 3594SOL    HW211682   4.405   4.898   4.503
 3595SOL     OW11683   5.451   6.030   6.071
 3595SOL    HW111684   5.450   5.958   6.002
 3595SOL    HW211685   5.361   6.073   6.075
 3596SOL     OW11686   3.476   1.569   3.357
 3596SOL    HW111687   3.413   1.521   3.297
 3596SOL    HW211688   3.483   1.665   3.329
 3597SOL     OW11689   2.209   3.406   5.258
 3597SOL    HW111690   2.191   3.317   5.216
 3597SOL    HW211691   2.304   3.410   5.288
 3598SOL     OW11692   1.478   5.439   4.791
 3598SOL    HW111693   1.432   5.438   4.702
 3598SOL    HW211694   1.443   5.516   4.845
 3599SOL     OW11695   4.945   1.711   5.087
 3599SOL    HW111696   4.908   1.732   5.178
 3599SOL    HW211697   4.874   1.724   5.018
 3600SOL     OW11698   3.574   3.507   0.741
 3600SOL    HW111699   3.553   3.425   0.795
 3600SOL    HW211700   3.597   3.582   0.802
 3601SOL     OW11701   4.974   0.824   5.307
 3601SOL    HW111702   4.910   0.899   5.318
 3601SOL    HW211703   5.059   0.858   5.265
 3602SOL     OW11704   2.508   2.082   1.260
 3602SOL    HW111705   2.501   2.087   1.359
 3602SOL    HW211706   2.418   2.096   1.219
 3603SOL     OW11707   3.004   1.305   5.961
 3603SOL    HW111708   3.093   1.351   5.962
 3603SOL    HW211709   2.964   1.309   6.053
 3604SOL     OW11710   6.709   0.437   3.505
 3604SOL    HW111711   6.731   0.345   3.471
 3604SOL    HW211712   6.638   0.431   3.575
 3605SOL     OW11713   0.968   5.787   3.418
 3605SOL    HW111714   0.998   5.692   3.423
 3605SOL    HW211715   1.042   5.845   3.384
 3606SOL     OW11716   2.407   6.699   1.572
 3606SOL    HW111717   2.460   6.726   1.653
 3606SOL    HW211718   2.468   6.692   1.493
 3607SOL     OW11719   5.456   2.770   3.015
 3607SOL    HW111720   5.383   2.702   3.005
 3607SOL    HW211721   5.502   2.782   2.927
 3608SOL     OW11722   3.142   1.876   4.812
 3608SOL    HW111723   3.086   1.868   4.895
 3608SOL    HW211724   3.156   1.973   4.791
 3609SOL     OW11725   2.179   6.873   4.451
 3609SOL    HW111726   2.258   6.817   4.475
 3609SOL    HW211727   2.136   6.836   4.368
 3610SOL     OW11728   2.489   6.376   5.132
 3610SOL    HW111729   2.548   6.319   5.074
 3610SOL    HW211730   2.472   6.463   5.085
 3611SOL     OW11731   5.153   4.822   3.205
 3611SOL    HW111732   5.106   4.903   3.169
 3611SOL    HW211733   5.242   4.814   3.159
 3612SOL     OW11734   5.761   1.161   6.623
 3612SOL    HW111735   5.796   1.077   6.581
 3612SOL    HW211736   5.795   1.168   6.717
 3613SOL     OW11737   3.853   5.202   1.337
 3613SOL    HW111738   3.912   5.238   1.265
 3613SOL    HW211739   3.817   5.277   1.392
 3614SOL     OW11740   3.912   4.237   6.423
 3614SOL    HW111741   3.991   4.291   6.453
 3614SOL    HW211742   3.918   4.221   6.325
 3615SOL     OW11743   6.212   2.525   5.549
 3615SOL    HW111744   6.285   2.577   5.593
 3615SOL    HW211745   6.172   2.580   5.475
 3616SOL     OW11746   1.517   1.930   6.775
 3616SOL    HW111747   1.424   1.943   6.738
 3616SOL    HW211748   1.583   1.938   6.700
 3617SOL     OW11749   3.671   6.440   6.458
 3617SOL    HW111750   3.771   6.434   6.464
 3617SOL    HW211751   3.635   6.351   6.429
 3618SOL     OW11752   1.937   4.242   4.736
 3618SOL    HW111753   1.918   4.182   4.813
 3618SOL    HW211754   1.980   4.190   4.663
 3619SOL     OW11755   5.679   2.891   1.597
 3619SOL    HW111756   5.664   2.798   1.632
 3619SOL    HW211757   5.640   2.898   1.505
 3620SOL     OW11758   6.134   6.263   4.983
 3620SOL    HW111759   6.083   6.180   5.008
 3620SOL    HW211760   6.226   6.259   5.021
 3621SOL     OW11761   3.014   3.147   3.706
 3621SOL    HW111762   3.061   3.076   3.758
 3621SOL    HW211763   3.040   3.140   3.610
 3622SOL     OW11764   1.074   6.691   0.183
 3622SOL    HW111765   1.054   6.601   0.222
 3622SOL    HW211766   1.167   6.718   0.207
 3623SOL     OW11767   1.058   4.536   6.085
 3623SOL    HW111768   1.118   4.479   6.142
 3623SOL    HW211769   1.102   4.552   5.996
 3624SOL     OW11770   3.440   1.002   1.958
 3624SOL    HW111771   3.485   0.956   2.034
 3624SOL    HW211772   3.343   1.015   1.979
 3625SOL     OW11773   6.921   2.624   0.565
 3625SOL    HW111774   6.829   2.660   0.551
 3625SOL    HW211775   6.927   2.580   0.655
 3626SOL     OW11776   1.238   2.467   4.988
 3626SOL    HW111777   1.200   2.540   4.931
 3626SOL    HW211778   1.218   2.378   4.946
 3627SOL     OW11779   3.863   2.079   1.592
 3627SOL    HW111780   3.932   2.092   1.663
 3627SOL    HW211781   3.774   2.109   1.627
 3628SOL     OW11782   6.507   2.048   1.916
 3628SOL    HW111783   6.543   1.980   1.852
 3628SOL    HW211784   6.438   2.103   1.870
 3629SOL     OW11785   1.571   1.452   4.377
 3629SOL    HW111786   1.610   1.432   4.466
 3629SOL    HW211787   1.532   1.369   4.337
 3630SOL     OW11788   6.882   2.580   3.623
 3630SOL    HW111789   6.865   2.605   3.718
 3630SOL    HW211790   6.795   2.562   3.577
 3631SOL     OW11791   1.771   6.627   2.281
 3631SOL    HW111792   1.781   6.585   2.191
 3631SOL    HW211793   1.773   6.727   2.272
 3632SOL     OW11794   4.988   3.977   1.048
 3632SOL    HW111795   4.895   4.004   1.024
 3632SOL    HW211796   5.034   4.053   1.094
 3633SOL     OW11797   3.755   3.054   6.317
 3633SOL    HW111798   3.680   2.989   6.307
 3633SOL    HW211799   3.719   3.142   6.347
 3634SOL     OW11800   3.136   5.396   6.557
 3634SOL    HW111801   3.174   5.379   6.648
 3634SOL    HW211802   3.037   5.389   6.561
 3635SOL     OW11803   2.549   0.236   1.441
 3635SOL    HW111804   2.496   0.247   1.356
 3635SOL    HW211805   2.493   0.188   1.508
 3636SOL     OW11806   1.263   4.605   0.018
 3636SOL    HW111807   1.205   4.536   0.062
 3636SOL    HW211808   1.235   4.616   6.940
 3637SOL     OW11809   6.866   3.011   6.391
 3637SOL    HW111810   6.922   2.959   6.456
 3637SOL    HW211811   6.795   3.060   6.442
 3638SOL     OW11812   5.684   4.588   2.797
 3638SOL    HW111813   5.681   4.631   2.707
 3638SOL    HW211814   5.730   4.499   2.789
 3639SOL     OW11815   3.599   3.960   4.470
 3639SOL    HW111816   3.686   3.911   4.459
 3639SOL    HW211817   3.576   3.963   4.568
 3640SOL     OW11818   5.287   2.364   0.806
 3640SOL    HW111819   5.228   2.445   0.796
 3640SOL    HW211820   5.331   2.344   0.719
 3641SOL     OW11821   5.926   3.705   2.228
 3641SOL    HW111822   5.911   3.782   2.290
 3641SOL    HW211823   5.855   3.636   2.242
 3642SOL     OW11824   6.296   3.066   6.171
 3642SOL    HW111825   6.230   3.011   6.120
 3642SOL    HW211826   6.266   3.073   6.267
 3643SOL     OW11827   3.925   5.441   5.298
 3643SOL    HW111828   3.910   5.523   5.354
 3643SOL    HW211829   3.971   5.371   5.354
 3644SOL     OW11830   2.834   0.754   1.854
 3644SOL    HW111831   2.818   0.751   1.952
 3644SOL    HW211832   2.850   0.849   1.825
 3645SOL     OW11833   1.758   4.383   3.640
 3645SOL    HW111834   1.682   4.448   3.646
 3645SOL    HW211835   1.845   4.433   3.634
 3646SOL     OW11836   2.298   4.265   4.715
 3646SOL    HW111837   2.242   4.348   4.715
 3646SOL    HW211838   2.249   4.192   4.761
 3647SOL     OW11839   3.326   6.694   0.084
 3647SOL    HW111840   3.270   6.776   0.074
 3647SOL    HW211841   3.269   6.618   0.116
 3648SOL     OW11842   4.214   5.509   3.154
 3648SOL    HW111843   4.222   5.598   3.109
 3648SOL    HW211844   4.301   5.460   3.148
 3649SOL     OW11845   5.957   2.851   0.188
 3649SOL    HW111846   6.018   2.772   0.191
 3649SOL    HW211847   5.972   2.908   0.268
 3650SOL     OW11848   5.627   5.482   0.361
 3650SOL    HW111849   5.623   5.396   0.309
 3650SOL    HW211850   5.536   5.523   0.364
 3651SOL     OW11851   0.934   2.151   5.833
 3651SOL    HW111852   0.961   2.190   5.746
 3651SOL    HW211853   0.892   2.062   5.818
 3652SOL     OW11854   4.389   1.498   2.153
 3652SOL    HW111855   4.428   1.410   2.179
 3652SOL    HW211856   4.357   1.495   2.059
 3653SOL     OW11857   0.673   1.503   1.268
 3653SOL    HW111858   0.598   1.436   1.267
 3653SOL    HW211859   0.645   1.583   1.322
 3654SOL     OW11860   5.381   0.683   0.900
 3654SOL    HW111861   5.296   0.653   0.943
 3654SOL    HW211862   5.381   0.655   0.804
 3655SOL     OW11863   1.701   2.364   4.264
 3655SOL    HW111864   1.626   2.316   4.309
 3655SOL    HW211865   1.691   2.463   4.280
 3656SOL     OW11866   0.012   6.884   1.626
 3656SOL    HW111867   6.952   6.823   1.644
 3656SOL    HW211868   0.079   6.876   1.700
 3657SOL     OW11869   5.028   6.069   4.874
 3657SOL    HW111870   5.051   5.976   4.903
 3657SOL    HW211871   5.026   6.073   4.774
 3658SOL     OW11872   1.743   4.695   5.978
 3658SOL    HW111873   1.739   4.603   5.940
 3658SOL    HW211874   1.734   4.762   5.904
 3659SOL     OW11875   6.764   1.543   6.454
 3659SOL    HW111876   6.669   1.572   6.471
 3659SOL    HW211877   6.784   1.554   6.357
 3660SOL     OW11878   5.748   5.537   6.442
 3660SOL    HW111879   5.719   5.515   6.349
 3660SOL    HW211880   5.689   5.609   6.479
 3661SOL     OW11881   0.272   2.328   4.812
 3661SOL    HW111882   0.185   2.341   4.860
 3661SOL    HW211883   0.293   2.409   4.759
 3662SOL     OW11884   2.686   1.673   5.713
 3662SOL    HW111885   2.664   1.758   5.665
 3662SOL    HW211886   2.641   1.596   5.668
 3663SOL     OW11887   2.578   2.115   6.544
 3663SOL    HW111888   2.587   2.208   6.508
 3663SOL    HW211889   2.663   2.065   6.526
 3664SOL     OW11890   3.920   1.210   2.123
 3664SOL    HW111891   3.935   1.238   2.029
 3664SOL    HW211892   3.830   1.240   2.154
 3665SOL     OW11893   0.919   5.743   6.083
 3665SOL    HW111894   0.846   5.676   6.071
 3665SOL    HW211895   0.879   5.834   6.092
 3666SOL     OW11896   2.191   2.575   4.674
 3666SOL    HW111897   2.175   2.652   4.737
 3666SOL    HW211898   2.124   2.579   4.600
 3667SOL     OW11899   1.424   0.736   2.133
 3667SOL    HW111900   1.362   0.677   2.082
 3667SOL    HW211901   1.497   0.768   2.072
 3668SOL     OW11902   0.429   0.992   1.785
 3668SOL    HW111903   0.454   1.051   1.708
 3668SOL    HW211904   0.480   1.020   1.866
 3669SOL     OW11905   0.307   1.292   3.776
 3669SOL    HW111906   0.221   1.265   3.821
 3669SOL    HW211907   0.293   1.296   3.677
 3670SOL     OW11908   3.121   5.533   1.742
 3670SOL    HW111909   3.040   5.588   1.763
 3670SOL    HW211910   3.096   5.437   1.736
 3671SOL     OW11911   6.465   0.200   3.516
 3671SOL    HW111912   6.417   0.189   3.603
 3671SOL    HW211913   6.521   0.283   3.519
 3672SOL     OW11914   4.160   6.839   2.697
 3672SOL    HW111915   4.145   6.922   2.751
 3672SOL    HW211916   4.094   6.835   2.623
 3673SOL     OW11917   3.947   5.892   1.304
 3673SOL    HW111918   3.976   5.901   1.399
 3673SOL    HW211919   3.882   5.965   1.282
 3674SOL     OW11920   1.281   4.557   6.275
 3674SOL    HW111921   1.356   4.542   6.211
 3674SOL    HW211922   1.241   4.647   6.259
 3675SOL     OW11923   1.408   0.815   4.100
 3675SOL    HW111924   1.419   0.907   4.062
 3675SOL    HW211925   1.433   0.816   4.197
 3676SOL     OW11926   3.917   1.786   3.922
 3676SOL    HW111927   3.913   1.785   3.822
 3676SOL    HW211928   3.842   1.840   3.958
 3677SOL     OW11929   2.407   0.459   4.155
 3677SOL    HW111930   2.449   0.406   4.228
 3677SOL    HW211931   2.462   0.541   4.137
 3678SOL     OW11932   1.229   0.620   3.509
 3678SOL    HW111933   1.154   0.685   3.523
 3678SOL    HW211934   1.271   0.637   3.420
 3679SOL     OW11935   4.481   0.695   2.418
 3679SOL    HW111936   4.385   0.719   2.423
 3679SOL    HW211937   4.498   0.612   2.471
 3680SOL     OW11938   3.920   1.274   4.582
 3680SOL    HW111939   4.012   1.273   4.544
 3680SOL    HW211940   3.861   1.333   4.526
 3681SOL     OW11941   1.809   6.131   4.674
 3681SOL    HW111942   1.909   6.121   4.681
 3681SOL    HW211943   1.774   6.064   4.609
 3682SOL     OW11944   5.455   1.617   1.815
 3682SOL    HW111945   5.387   1.573   1.874
 3682SOL    HW211946   5.416   1.701   1.776
 3683SOL     OW11947   5.894   1.415   5.975
 3683SOL    HW111948   5.928   1.492   5.921
 3683SOL    HW211949   5.835   1.450   6.048
 3684SOL     OW11950   2.236   6.811   5.637
 3684SOL    HW111951   2.219   6.907   5.613
 3684SOL    HW211952   2.256   6.804   5.735
 3685SOL     OW11953   2.005   6.518   5.594
 3685SOL    HW111954   1.988   6.604   5.640
 3685SOL    HW211955   1.949   6.512   5.512
 3686SOL     OW11956   0.732   3.940   3.654
 3686SOL    HW111957   0.690   3.863   3.607
 3686SOL    HW211958   0.822   3.913   3.688
 3687SOL     OW11959   5.746   5.455   4.453
 3687SOL    HW111960   5.755   5.477   4.550
 3687SOL    HW211961   5.738   5.539   4.400
 3688SOL     OW11962   6.319   2.522   0.632
 3688SOL    HW111963   6.364   2.546   0.546
 3688SOL    HW211964   6.347   2.430   0.659
 3689SOL     OW11965   1.698   6.604   5.788
 3689SOL    HW111966   1.772   6.671   5.791
 3689SOL    HW211967   1.646   6.615   5.703
 3690SOL     OW11968   5.085   5.481   1.289
 3690SOL    HW111969   4.998   5.529   1.297
 3690SOL    HW211970   5.123   5.464   1.380
 3691SOL     OW11971   1.638   2.538   0.658
 3691SOL    HW111972   1.688   2.484   0.590
 3691SOL    HW211973   1.572   2.597   0.612
 3692SOL     OW11974   1.013   3.604   5.940
 3692SOL    HW111975   1.018   3.644   6.032
 3692SOL    HW211976   0.927   3.554   5.930
 3693SOL     OW11977   6.339   1.306   2.275
 3693SOL    HW111978   6.271   1.345   2.338
 3693SOL    HW211979   6.298   1.297   2.184
 3694SOL     OW11980   6.357   0.770   2.192
 3694SOL    HW111981   6.344   0.862   2.228
 3694SOL    HW211982   6.269   0.724   2.187
 3695SOL     OW11983   6.060   3.307   2.868
 3695SOL    HW111984   6.051   3.224   2.813
 3695SOL    HW211985   6.078   3.282   2.963
 3696SOL     OW11986   4.428   0.758   4.455
 3696SOL    HW111987   4.512   0.812   4.452
 3696SOL    HW211988   4.366   0.790   4.384
 3697SOL     OW11989   0.306   6.405   3.073
 3697SOL    HW111990   0.337   6.366   3.160
 3697SOL    HW211991   0.231   6.349   3.036
 3698SOL     OW11992   1.498   0.319   3.041
 3698SOL    HW111993   1.405   0.280   3.045
 3698SOL    HW211994   1.492   0.418   3.033
 3699SOL     OW11995   2.530   2.577   3.849
 3699SOL    HW111996   2.476   2.516   3.906
 3699SOL    HW211997   2.627   2.566   3.870
 3700SOL     OW11998   1.137   4.913   3.911
 3700SOL    HW111999   1.097   5.003   3.894
 3700SOL    HW212000   1.065   4.849   3.937
 3701SOL     OW12001   1.521   0.681   2.393
 3701SOL    HW112002   1.495   0.703   2.299
 3701SOL    HW212003   1.459   0.612   2.430
 3702SOL     OW12004   5.235   4.382   3.320
 3702SOL    HW112005   5.157   4.321   3.331
 3702SOL    HW212006   5.313   4.330   3.284
 3703SOL     OW12007   1.268   1.651   4.418
 3703SOL    HW112008   1.258   1.552   4.426
 3703SOL    HW212009   1.351   1.681   4.466
 3704SOL     OW12010   6.680   2.179   0.812
 3704SOL    HW112011   6.720   2.252   0.755
 3704SOL    HW212012   6.710   2.090   0.778
 3705SOL     OW12013   4.997   4.694   2.803
 3705SOL    HW112014   4.965   4.662   2.715
 3705SOL    HW212015   4.940   4.655   2.876
 3706SOL     OW12016   0.632   3.657   0.334
 3706SOL    HW112017   0.540   3.682   0.304
 3706SOL    HW212018   0.699   3.691   0.267
 3707SOL     OW12019   1.429   4.943   3.664
 3707SOL    HW112020   1.396   4.899   3.747
 3707SOL    HW212021   1.516   4.903   3.636
 3708SOL     OW12022   2.912   6.575   0.697
 3708SOL    HW112023   2.961   6.660   0.715
 3708SOL    HW212024   2.814   6.591   0.704
 3709SOL     OW12025   1.602   1.614   2.539
 3709SOL    HW112026   1.528   1.680   2.553
 3709SOL    HW212027   1.662   1.646   2.465
 3710SOL     OW12028   0.187   4.747   5.293
 3710SOL    HW112029   0.265   4.791   5.337
 3710SOL    HW212030   0.131   4.816   5.248
 3711SOL     OW12031   1.299   5.907   4.358
 3711SOL    HW112032   1.334   5.912   4.265
 3711SOL    HW212033   1.350   5.837   4.409
 3712SOL     OW12034   1.932   5.183   4.683
 3712SOL    HW112035   1.839   5.185   4.719
 3712SOL    HW212036   1.943   5.104   4.623
 3713SOL     OW12037   5.590   6.874   4.283
 3713SOL    HW112038   5.641   6.887   4.197
 3713SOL    HW212039   5.637   6.806   4.339
 3714SOL     OW12040   0.602   4.362   0.729
 3714SOL    HW112041   0.679   4.326   0.781
 3714SOL    HW212042   0.587   4.305   0.648
 3715SOL     OW12043   5.579   5.465   3.455
 3715SOL    HW112044   5.667   5.421   3.440
 3715SOL    HW212045   5.546   5.505   3.369
 3716SOL     OW12046   4.897   5.653   3.996
 3716SOL    HW112047   4.962   5.578   4.011
 3716SOL    HW212048   4.922   5.703   3.913
 3717SOL     OW12049   4.276   1.346   1.061
 3717SOL    HW112050   4.374   1.327   1.055
 3717SOL    HW212051   4.246   1.392   0.978
 3718SOL     OW12052   6.956   0.200   5.617
 3718SOL    HW112053   6.950   0.286   5.568
 3718SOL    HW212054   6.892   0.200   5.694
 3719SOL     OW12055   3.435   4.097   6.976
 3719SOL    HW112056   3.519   4.075   6.927
 3719SOL    HW212057   3.360   4.040   6.942
 3720SOL     OW12058   0.107   2.853   1.469
 3720SOL    HW112059   0.133   2.757   1.472
 3720SOL    HW212060   0.189   2.910   1.461
 3721SOL     OW12061   6.313   5.512   6.037
 3721SOL    HW112062   6.348   5.589   6.090
 3721SOL    HW212063   6.235   5.472   6.084
 3722SOL     OW12064   4.937   6.062   3.184
 3722SOL    HW112065   4.973   6.155   3.192
 3722SOL    HW212066   4.886   6.038   3.266
 3723SOL     OW12067   4.756   3.459   0.240
 3723SOL    HW112068   4.823   3.389   0.264
 3723SOL    HW212069   4.793   3.516   0.166
 3724SOL     OW12070   1.376   4.814   4.712
 3724SOL    HW112071   1.284   4.825   4.750
 3724SOL    HW212072   1.431   4.760   4.776
 3725SOL     OW12073   0.804   5.485   6.930
 3725SOL    HW112074   0.711   5.509   6.903
 3725SOL    HW212075   0.869   5.547   6.887
 3726SOL     OW12076   6.232   3.730   4.683
 3726SOL    HW112077   6.160   3.749   4.749
 3726SOL    HW212078   6.277   3.643   4.706
 3727SOL     OW12079   6.331   3.788   3.834
 3727SOL    HW112080   6.365   3.871   3.790
 3727SOL    HW212081   6.242   3.807   3.877
 3728SOL     OW12082   3.497   2.599   0.184
 3728SOL    HW112083   3.413   2.555   0.151
 3728SOL    HW212084   3.547   2.536   0.242
 3729SOL     OW12085   0.770   0.307   5.424
 3729SOL    HW112086   0.788   0.277   5.330
 3729SOL    HW212087   0.745   0.229   5.480
 3730SOL     OW12088   3.922   6.053   4.259
 3730SOL    HW112089   3.930   6.131   4.321
 3730SOL    HW212090   3.842   6.067   4.200
 3731SOL     OW12091   0.409   1.904   6.721
 3731SOL    HW112092   0.444   1.996   6.738
 3731SOL    HW212093   0.468   1.837   6.766
 3732SOL     OW12094   3.244   1.870   6.483
 3732SOL    HW112095   3.313   1.807   6.447
 3732SOL    HW212096   3.276   1.909   6.569
 3733SOL     OW12097   2.242   1.660   3.647
 3733SOL    HW112098   2.148   1.638   3.621
 3733SOL    HW212099   2.260   1.627   3.739
 3734SOL     OW12100   4.068   6.559   0.785
 3734SOL    HW112101   4.081   6.563   0.884
 3734SOL    HW212102   4.149   6.594   0.739
 3735SOL     OW12103   4.047   0.076   2.321
 3735SOL    HW112104   4.011   0.163   2.285
 3735SOL    HW212105   3.984   0.002   2.298
 3736SOL     OW12106   6.633   0.972   1.234
 3736SOL    HW112107   6.578   0.925   1.304
 3736SOL    HW212108   6.606   0.940   1.143
 3737SOL     OW12109   6.999   2.589   2.874
 3737SOL    HW112110   7.004   2.548   2.966
 3737SOL    HW212111   0.023   2.680   2.876
 3738SOL     OW12112   6.950   6.925   1.261
 3738SOL    HW112113   0.025   6.933   1.299
 3738SOL    HW212114   6.888   6.986   1.312
 3739SOL     OW12115   3.000   3.821   0.679
 3739SOL    HW112116   3.039   3.731   0.697
 3739SOL    HW212117   3.027   3.851   0.587
 3740SOL     OW12118   5.205   5.597   6.430
 3740SOL    HW112119   5.211   5.524   6.362
 3740SOL    HW212120   5.118   5.646   6.418
 3741SOL     OW12121   5.356   3.537   0.316
 3741SOL    HW112122   5.397   3.491   0.395
 3741SOL    HW212123   5.257   3.522   0.315
 3742SOL     OW12124   3.542   5.647   6.852
 3742SOL    HW112125   3.473   5.606   6.791
 3742SOL    HW212126   3.618   5.583   6.863
 3743SOL     OW12127   4.287   3.338   1.684
 3743SOL    HW112128   4.194   3.335   1.720
 3743SOL    HW212129   4.320   3.433   1.683
 3744SOL     OW12130   0.712   0.251   2.275
 3744SOL    HW112131   0.805   0.218   2.259
 3744SOL    HW212132   0.686   0.314   2.203
 3745SOL     OW12133   5.150   3.646   2.425
 3745SOL    HW112134   5.093   3.728   2.422
 3745SOL    HW212135   5.199   3.637   2.338
 3746SOL     OW12136   6.368   0.518   4.704
 3746SOL    HW112137   6.297   0.495   4.771
 3746SOL    HW212138   6.325   0.554   4.621
 3747SOL     OW12139   3.459   6.606   5.643
 3747SOL    HW112140   3.537   6.546   5.659
 3747SOL    HW212141   3.487   6.701   5.652
 3748SOL     OW12142   5.153   1.806   2.857
 3748SOL    HW112143   5.231   1.869   2.851
 3748SOL    HW212144   5.094   1.834   2.932
 3749SOL     OW12145   0.103   6.338   2.539
 3749SOL    HW112146   0.191   6.366   2.502
 3749SOL    HW212147   0.041   6.313   2.464
 3750SOL     OW12148   5.882   4.158   0.509
 3750SOL    HW112149   5.906   4.245   0.552
 3750SOL    HW212150   5.871   4.172   0.411
 3751SOL     OW12151   2.049   3.750   2.365
 3751SOL    HW112152   1.957   3.756   2.327
 3751SOL    HW212153   2.087   3.659   2.346
 3752SOL     OW12154   0.802   6.361   6.742
 3752SOL    HW112155   0.846   6.373   6.653
 3752SOL    HW212156   0.805   6.265   6.768
 3753SOL     OW12157   6.495   6.598   4.502
 3753SOL    HW112158   6.432   6.564   4.432
 3753SOL    HW212159   6.559   6.526   4.528
 3754SOL     OW12160   6.845   6.662   1.209
 3754SOL    HW112161   6.883   6.578   1.248
 3754SOL    HW212162   6.898   6.741   1.240
 3755SOL     OW12163   5.160   3.872   3.324
 3755SOL    HW112164   5.184   3.961   3.285
 3755SOL    HW212165   5.208   3.799   3.274
 3756SOL     OW12166   2.992   0.612   6.951
 3756SOL    HW112167   3.047   0.582   0.012
 3756SOL    HW212168   3.039   0.589   6.866
 3757SOL     OW12169   2.871   5.356   6.608
 3757SOL    HW112170   2.845   5.434   6.552
 3757SOL    HW212171   2.824   5.362   6.696
 3758SOL     OW12172   2.250   1.548   3.889
 3758SOL    HW112173   2.272   1.572   3.983
 3758SOL    HW212174   2.154   1.522   3.882
 3759SOL     OW12175   4.777   4.693   6.239
 3759SOL    HW112176   4.813   4.649   6.157
 3759SOL    HW212177   4.727   4.775   6.214
 3760SOL     OW12178   1.502   2.660   4.768
 3760SOL    HW112179   1.500   2.755   4.797
 3760SOL    HW212180   1.537   2.603   4.842
 3761SOL     OW12181   0.197   6.176   4.122
 3761SOL    HW112182   0.101   6.164   4.148
 3761SOL    HW212183   0.255   6.127   4.188
 3762SOL     OW12184   0.141   4.055   0.203
 3762SOL    HW112185   0.177   3.996   0.131
 3762SOL    HW212186   0.113   3.998   0.281
 3763SOL     OW12187   0.042   3.474   6.301
 3763SOL    HW112188   0.008   3.383   6.277
 3763SOL    HW212189   7.008   3.509   6.379
 3764SOL     OW12190   2.396   6.752   3.345
 3764SOL    HW112191   2.378   6.744   3.247
 3764SOL    HW212192   2.352   6.677   3.394
 3765SOL     OW12193   6.029   0.440   4.481
 3765SOL    HW112194   6.028   0.357   4.537
 3765SOL    HW212195   5.934   0.471   4.466
 3766SOL     OW12196   1.524   0.777   4.794
 3766SOL    HW112197   1.434   0.743   4.821
 3766SOL    HW212198   1.593   0.705   4.808
 3767SOL     OW12199   1.557   5.130   1.040
 3767SOL    HW112200   1.473   5.140   0.987
 3767SOL    HW212201   1.549   5.052   1.102
 3768SOL     OW12202   4.495   6.843   0.495
 3768SOL    HW112203   4.411   6.858   0.442
 3768SOL    HW212204   4.547   6.928   0.501
 3769SOL     OW12205   4.439   6.504   5.326
 3769SOL    HW112206   4.447   6.411   5.290
 3769SOL    HW212207   4.524   6.554   5.309
 3770SOL     OW12208   1.839   1.957   6.800
 3770SOL    HW112209   1.794   1.966   6.711
 3770SOL    HW212210   1.937   1.941   6.786
 3771SOL     OW12211   5.506   2.543   6.155
 3771SOL    HW112212   5.464   2.515   6.068
 3771SOL    HW212213   5.605   2.533   6.149
 3772SOL     OW12214   5.454   1.126   2.030
 3772SOL    HW112215   5.356   1.145   2.032
 3772SOL    HW212216   5.499   1.191   1.969
 3773SOL     OW12217   6.435   3.042   6.460
 3773SOL    HW112218   6.403   3.067   6.551
 3773SOL    HW212219   6.479   3.121   6.417
 3774SOL     OW12220   0.477   0.807   1.467
 3774SOL    HW112221   0.438   0.894   1.437
 3774SOL    HW212222   0.424   0.771   1.544
 3775SOL     OW12223   5.734   3.880   3.993
 3775SOL    HW112224   5.802   3.943   4.030
 3775SOL    HW212225   5.695   3.826   4.067
 3776SOL     OW12226   2.636   3.646   1.072
 3776SOL    HW112227   2.561   3.649   1.006
 3776SOL    HW212228   2.700   3.575   1.045
 3777SOL     OW12229   2.238   4.446   4.017
 3777SOL    HW112230   2.333   4.476   4.005
 3777SOL    HW212231   2.177   4.510   3.971
 3778SOL     OW12232   2.942   5.920   1.913
 3778SOL    HW112233   2.956   5.826   1.879
 3778SOL    HW212234   2.869   5.963   1.860
 3779SOL     OW12235   2.591   5.123   6.396
 3779SOL    HW112236   2.680   5.096   6.433
 3779SOL    HW212237   2.598   5.213   6.353
 3780SOL     OW12238   3.208   6.567   5.248
 3780SOL    HW112239   3.120   6.548   5.206
 3780SOL    HW212240   3.279   6.511   5.205
 3781SOL     OW12241   2.748   5.574   4.863
 3781SOL    HW112242   2.711   5.482   4.849
 3781SOL    HW212243   2.733   5.629   4.781
 3782SOL     OW12244   2.393   1.881   3.455
 3782SOL    HW112245   2.310   1.924   3.490
 3782SOL    HW212246   2.410   1.796   3.504
 3783SOL     OW12247   5.221   6.178   5.336
 3783SOL    HW112248   5.133   6.157   5.378
 3783SOL    HW212249   5.207   6.217   5.245
 3784SOL     OW12250   5.295   1.566   3.384
 3784SOL    HW112251   5.289   1.584   3.482
 3784SOL    HW212252   5.389   1.577   3.353
 3785SOL     OW12253   2.066   1.646   1.097
 3785SOL    HW112254   2.074   1.592   1.181
 3785SOL    HW212255   2.139   1.714   1.094
 3786SOL     OW12256   3.088   5.295   3.108
 3786SOL    HW112257   3.000   5.255   3.130
 3786SOL    HW212258   3.126   5.251   3.027
 3787SOL     OW12259   3.800   1.303   3.827
 3787SOL    HW112260   3.802   1.387   3.882
 3787SOL    HW212261   3.841   1.321   3.737
 3788SOL     OW12262   5.505   3.063   2.153
 3788SOL    HW112263   5.447   3.018   2.221
 3788SOL    HW212264   5.600   3.036   2.168
 3789SOL     OW12265   1.885   5.085   3.465
 3789SOL    HW112266   1.882   5.108   3.563
 3789SOL    HW212267   1.965   5.029   3.446
 3790SOL     OW12268   1.858   3.329   3.467
 3790SOL    HW112269   1.786   3.390   3.499
 3790SOL    HW212270   1.943   3.349   3.516
 3791SOL     OW12271   4.679   0.050   1.356
 3791SOL    HW112272   4.712   6.973   1.348
 3791SOL    HW212273   4.580   0.049   1.368
 3792SOL     OW12274   6.507   6.422   5.290
 3792SOL    HW112275   6.578   6.423   5.361
 3792SOL    HW212276   6.434   6.359   5.317
 3793SOL     OW12277   1.933   0.902   2.591
 3793SOL    HW112278   1.878   0.831   2.547
 3793SOL    HW212279   1.872   0.971   2.630
 3794SOL     OW12280   4.607   6.140   1.796
 3794SOL    HW112281   4.547   6.063   1.775
 3794SOL    HW212282   4.551   6.218   1.823
 3795SOL     OW12283   5.697   6.896   6.200
 3795SOL    HW112284   5.759   6.936   6.267
 3795SOL    HW212285   5.749   6.855   6.125
 3796SOL     OW12286   1.372   2.764   2.207
 3796SOL    HW112287   1.289   2.766   2.262
 3796SOL    HW212288   1.351   2.790   2.113
 3797SOL     OW12289   0.408   5.074   2.940
 3797SOL    HW112290   0.489   5.131   2.925
 3797SOL    HW212291   0.435   4.980   2.956
 3798SOL     OW12292   1.848   4.900   2.237
 3798SOL    HW112293   1.940   4.934   2.257
 3798SOL    HW212294   1.850   4.801   2.230
 3799SOL     OW12295   2.195   0.454   5.773
 3799SOL    HW112296   2.228   0.360   5.783
 3799SOL    HW212297   2.266   0.511   5.733
 3800SOL     OW12298   4.588   2.442   4.456
 3800SOL    HW112299   4.635   2.360   4.486
 3800SOL    HW212300   4.586   2.509   4.530
 3801SOL     OW12301   0.092   6.795   6.032
 3801SOL    HW112302   0.158   6.867   6.053
 3801SOL    HW212303   0.106   6.718   6.095
 3802SOL     OW12304   1.584   1.549   5.358
 3802SOL    HW112305   1.572   1.466   5.305
 3802SOL    HW212306   1.651   1.533   5.430
 3803SOL     OW12307   3.896   1.015   1.461
 3803SOL    HW112308   3.882   1.046   1.367
 3803SOL    HW212309   3.933   1.090   1.515
 3804SOL     OW12310   4.553   1.864   4.228
 3804SOL    HW112311   4.602   1.925   4.290
 3804SOL    HW212312   4.602   1.777   4.222
 3805SOL     OW12313   2.724   4.429   1.662
 3805SOL    HW112314   2.806   4.438   1.718
 3805SOL    HW212315   2.659   4.501   1.687
 3806SOL     OW12316   2.777   1.772   0.182
 3806SOL    HW112317   2.794   1.700   0.115
 3806SOL    HW212318   2.722   1.734   0.257
 3807SOL     OW12319   1.505   6.494   3.399
 3807SOL    HW112320   1.476   6.504   3.304
 3807SOL    HW212321   1.425   6.476   3.457
 3808SOL     OW12322   3.044   0.213   1.560
 3808SOL    HW112323   2.970   0.275   1.537
 3808SOL    HW212324   3.114   0.217   1.489
 3809SOL     OW12325   5.473   1.237   6.732
 3809SOL    HW112326   5.559   1.221   6.781
 3809SOL    HW212327   5.490   1.233   6.633
 3810SOL     OW12328   3.038   2.961   5.219
 3810SOL    HW112329   3.056   3.058   5.205
 3810SOL    HW212330   3.074   2.909   5.142
 3811SOL     OW12331   0.751   5.566   4.974
 3811SOL    HW112332   0.722   5.580   5.069
 3811SOL    HW212333   0.774   5.654   4.933
 3812SOL     OW12334   5.553   1.668   5.231
 3812SOL    HW112335   5.604   1.710   5.156
 3812SOL    HW212336   5.514   1.581   5.200
 3813SOL     OW12337   3.424   5.051   0.751
 3813SOL    HW112338   3.455   5.137   0.791
 3813SOL    HW212339   3.362   5.006   0.815
 3814SOL     OW12340   0.282   6.163   2.283
 3814SOL    HW112341   0.189   6.143   2.250
 3814SOL    HW212342   0.348   6.114   2.228
 3815SOL     OW12343   5.152   2.273   1.958
 3815SOL    HW112344   5.092   2.330   2.015
 3815SOL    HW212345   5.139   2.177   1.982
 3816SOL     OW12346   1.568   0.051   1.053
 3816SOL    HW112347   1.641   7.001   1.051
 3816SOL    HW212348   1.481   0.008   1.027
 3817SOL     OW12349   5.383   2.169   5.498
 3817SOL    HW112350   5.442   2.171   5.579
 3817SOL    HW212351   5.371   2.074   5.468
 3818SOL     OW12352   4.675   5.175   1.530
 3818SOL    HW112353   4.683   5.242   1.456
 3818SOL    HW212354   4.763   5.130   1.544
 3819SOL     OW12355   5.477   4.837   0.387
 3819SOL    HW112356   5.454   4.740   0.394
 3819SOL    HW212357   5.518   4.868   0.472
 3820SOL     OW12358   5.177   6.421   4.595
 3820SOL    HW112359   5.151   6.371   4.512
 3820SOL    HW212360   5.234   6.363   4.653
 3821SOL     OW12361   1.113   4.083   2.149
 3821SOL    HW112362   1.197   4.080   2.202
 3821SOL    HW212363   1.135   4.092   2.052
 3822SOL     OW12364   2.674   5.731   1.176
 3822SOL    HW112365   2.670   5.829   1.198
 3822SOL    HW212366   2.756   5.712   1.121
 3823SOL     OW12367   3.428   2.678   5.645
 3823SOL    HW112368   3.337   2.686   5.603
 3823SOL    HW212369   3.474   2.596   5.609
 3824SOL     OW12370   0.025   2.230   5.911
 3824SOL    HW112371   0.107   2.192   5.866
 3824SOL    HW212372   0.010   2.323   5.879
 3825SOL     OW12373   6.775   6.756   6.607
 3825SOL    HW112374   6.805   6.832   6.664
 3825SOL    HW212375   6.825   6.674   6.632
 3826SOL     OW12376   6.802   3.066   1.822
 3826SOL    HW112377   6.763   2.979   1.791
 3826SOL    HW212378   6.878   3.048   1.885
 3827SOL     OW12379   4.201   3.242   1.156
 3827SOL    HW112380   4.124   3.291   1.195
 3827SOL    HW212381   4.243   3.296   1.083
 3828SOL     OW12382   4.524   0.965   2.714
 3828SOL    HW112383   4.427   0.941   2.705
 3828SOL    HW212384   4.580   0.887   2.686
 3829SOL     OW12385   2.196   4.997   4.188
 3829SOL    HW112386   2.256   4.938   4.242
 3829SOL    HW212387   2.198   4.968   4.092
 3830SOL     OW12388   2.630   0.903   5.520
 3830SOL    HW112389   2.664   0.816   5.485
 3830SOL    HW212390   2.585   0.954   5.447
 3831SOL     OW12391   3.554   1.235   2.023
 3831SOL    HW112392   3.519   1.147   1.990
 3831SOL    HW212393   3.506   1.309   1.978
 3832SOL     OW12394   6.591   0.662   2.243
 3832SOL    HW112395   6.501   0.690   2.209
 3832SOL    HW212396   6.644   0.743   2.269
 3833SOL     OW12397   1.725   4.556   0.206
 3833SOL    HW112398   1.650   4.551   0.140
 3833SOL    HW212399   1.719   4.478   0.268
 3834SOL     OW12400   2.574   1.819   6.927
 3834SOL    HW112401   2.512   1.767   6.986
 3834SOL    HW212402   2.652   1.850   6.980
 3835SOL     OW12403   3.863   5.237   5.126
 3835SOL    HW112404   3.887   5.323   5.172
 3835SOL    HW212405   3.829   5.257   5.034
 3836SOL     OW12406   0.840   3.841   6.073
 3836SOL    HW112407   0.866   3.895   5.992
 3836SOL    HW212408   0.800   3.902   6.142
 3837SOL     OW12409   3.564   2.849   0.580
 3837SOL    HW112410   3.535   2.802   0.497
 3837SOL    HW212411   3.658   2.882   0.568
 3838SOL     OW12412   6.030   3.122   5.401
 3838SOL    HW112413   5.983   3.204   5.433
 3838SOL    HW212414   5.962   3.055   5.370
 3839SOL     OW12415   6.242   6.778   5.859
 3839SOL    HW112416   6.340   6.796   5.867
 3839SOL    HW212417   6.222   6.689   5.899
 3840SOL     OW12418   1.859   1.067   4.195
 3840SOL    HW112419   1.801   0.986   4.200
 3840SOL    HW212420   1.884   1.086   4.100
 3841SOL     OW12421   0.592   3.816   4.728
 3841SOL    HW112422   0.614   3.908   4.761
 3841SOL    HW212423   0.648   3.794   4.649
 3842SOL     OW12424   0.763   5.291   6.696
 3842SOL    HW112425   0.738   5.352   6.772
 3842SOL    HW212426   0.805   5.344   6.623
 3843SOL     OW12427   5.633   2.969   1.326
 3843SOL    HW112428   5.573   3.044   1.354
 3843SOL    HW212429   5.668   2.987   1.234
 3844SOL     OW12430   2.050   4.794   6.303
 3844SOL    HW112431   2.076   4.719   6.363
 3844SOL    HW212432   2.126   4.815   6.241
 3845SOL     OW12433   3.555   3.934   3.885
 3845SOL    HW112434   3.505   3.848   3.889
 3845SOL    HW212435   3.533   3.982   3.801
 3846SOL     OW12436   6.876   4.467   3.945
 3846SOL    HW112437   6.905   4.478   3.850
 3846SOL    HW212438   6.784   4.429   3.949
 3847SOL     OW12439   0.640   0.255   0.503
 3847SOL    HW112440   0.604   0.244   0.410
 3847SOL    HW212441   0.738   0.273   0.499
 3848SOL     OW12442   2.734   5.505   0.928
 3848SOL    HW112443   2.665   5.437   0.906
 3848SOL    HW212444   2.799   5.467   0.994
 3849SOL     OW12445   1.300   2.283   5.968
 3849SOL    HW112446   1.275   2.379   5.961
 3849SOL    HW212447   1.390   2.275   6.011
 3850SOL     OW12448   2.680   3.950   1.637
 3850SOL    HW112449   2.733   3.869   1.661
 3850SOL    HW212450   2.742   4.026   1.616
 3851SOL     OW12451   2.530   2.506   1.855
 3851SOL    HW112452   2.609   2.552   1.814
 3851SOL    HW212453   2.558   2.462   1.940
 3852SOL     OW12454   3.788   0.952   4.870
 3852SOL    HW112455   3.754   1.039   4.905
 3852SOL    HW212456   3.714   0.885   4.871
 3853SOL     OW12457   1.464   3.079   1.800
 3853SOL    HW112458   1.563   3.075   1.817
 3853SOL    HW212459   1.445   3.047   1.707
 3854SOL     OW12460   1.117   3.135   3.892
 3854SOL    HW112461   1.207   3.128   3.849
 3854SOL    HW212462   1.119   3.090   3.981
 3855SOL     OW12463   6.782   2.160   5.606
 3855SOL    HW112464   6.879   2.161   5.579
 3855SOL    HW212465   6.725   2.172   5.525
 3856SOL     OW12466   0.574   6.589   5.919
 3856SOL    HW112467   0.643   6.560   5.986
 3856SOL    HW212468   0.487   6.605   5.964
 3857SOL     OW12469   0.497   6.798   5.714
 3857SOL    HW112470   0.547   6.723   5.758
 3857SOL    HW212471   0.442   6.762   5.640
 3858SOL     OW12472   2.279   5.356   7.003
 3858SOL    HW112473   2.305   5.336   0.081
 3858SOL    HW212474   2.295   5.276   6.947
 3859SOL     OW12475   0.008   2.441   2.031
 3859SOL    HW112476   0.096   2.449   1.985
 3859SOL    HW212477   0.005   2.503   2.110
 3860SOL     OW12478   2.241   6.416   5.594
 3860SOL    HW112479   2.266   6.382   5.504
 3860SOL    HW212480   2.145   6.445   5.593
 3861SOL     OW12481   4.351   4.663   0.477
 3861SOL    HW112482   4.260   4.654   0.519
 3861SOL    HW212483   4.350   4.738   0.412
 3862SOL     OW12484   1.374   5.544   5.949
 3862SOL    HW112485   1.462   5.591   5.957
 3862SOL    HW212486   1.306   5.591   6.006
 3863SOL     OW12487   3.436   2.822   1.027
 3863SOL    HW112488   3.358   2.786   1.078
 3863SOL    HW212489   3.501   2.864   1.090
 3864SOL     OW12490   3.659   1.990   0.070
 3864SOL    HW112491   3.660   2.001   6.988
 3864SOL    HW212492   3.612   1.905   0.094
 3865SOL     OW12493   4.567   0.517   2.589
 3865SOL    HW112494   4.600   0.425   2.609
 3865SOL    HW212495   4.547   0.564   2.675
 3866SOL     OW12496   3.940   6.408   6.467
 3866SOL    HW112497   3.995   6.434   6.387
 3866SOL    HW212498   4.000   6.395   6.546
 3867SOL     OW12499   1.889   3.197   3.842
 3867SOL    HW112500   1.975   3.213   3.793
 3867SOL    HW212501   1.897   3.229   3.936
 3868SOL     OW12502   1.599   6.036   2.706
 3868SOL    HW112503   1.645   5.950   2.728
 3868SOL    HW212504   1.511   6.017   2.664
 3869SOL     OW12505   1.426   2.292   3.400
 3869SOL    HW112506   1.443   2.307   3.303
 3869SOL    HW212507   1.493   2.343   3.454
 3870SOL     OW12508   3.243   4.692   0.650
 3870SOL    HW112509   3.287   4.610   0.613
 3870SOL    HW212510   3.164   4.715   0.595
 3871SOL     OW12511   2.717   0.909   4.246
 3871SOL    HW112512   2.755   0.994   4.208
 3871SOL    HW212513   2.621   0.923   4.269
 3872SOL     OW12514   4.278   3.457   0.017
 3872SOL    HW112515   4.305   3.411   6.949
 3872SOL    HW212516   4.359   3.469   0.075
 3873SOL     OW12517   4.989   4.824   1.999
 3873SOL    HW112518   4.996   4.752   1.930
 3873SOL    HW212519   5.036   4.796   2.083
 3874SOL     OW12520   4.163   6.581   5.993
 3874SOL    HW112521   4.193   6.673   5.968
 3874SOL    HW212522   4.230   6.514   5.963
 3875SOL     OW12523   2.460   4.217   0.739
 3875SOL    HW112524   2.552   4.191   0.711
 3875SOL    HW212525   2.398   4.211   0.660
 3876SOL     OW12526   5.313   3.773   2.903
 3876SOL    HW112527   5.406   3.794   2.874
 3876SOL    HW212528   5.255   3.853   2.889
 3877SOL     OW12529   5.170   1.123   2.271
 3877SOL    HW112530   5.201   1.155   2.181
 3877SOL    HW212531   5.096   1.182   2.304
 3878SOL     OW12532   3.298   5.819   4.792
 3878SOL    HW112533   3.339   5.736   4.754
 3878SOL    HW212534   3.295   5.890   4.721
 3879SOL     OW12535   3.500   6.269   0.847
 3879SOL    HW112536   3.472   6.273   0.751
 3879SOL    HW212537   3.525   6.360   0.879
 3880SOL     OW12538   5.347   2.602   3.951
 3880SOL    HW112539   5.314   2.569   4.039
 3880SOL    HW212540   5.269   2.632   3.896
 3881SOL     OW12541   0.577   4.664   0.850
 3881SOL    HW112542   0.517   4.585   0.841
 3881SOL    HW212543   0.543   4.725   0.922
 3882SOL     OW12544   0.376   0.091   6.745
 3882SOL    HW112545   0.443   0.018   6.762
 3882SOL    HW212546   0.327   0.072   6.660
 3883SOL     OW12547   3.137   1.034   5.919
 3883SOL    HW112548   3.064   1.081   5.869
 3883SOL    HW212549   3.223   1.041   5.868
 3884SOL     OW12550   1.320   4.862   5.718
 3884SOL    HW112551   1.299   4.783   5.775
 3884SOL    HW212552   1.419   4.871   5.708
 3885SOL     OW12553   0.436   1.911   4.979
 3885SOL    HW112554   0.478   1.923   4.889
 3885SOL    HW212555   0.392   1.821   4.983
 3886SOL     OW12556   0.025   5.742   4.726
 3886SOL    HW112557   0.099   5.775   4.784
 3886SOL    HW212558   0.023   5.796   4.642
 3887SOL     OW12559   5.289   2.234   5.214
 3887SOL    HW112560   5.386   2.228   5.191
 3887SOL    HW212561   5.278   2.277   5.304
 3888SOL     OW12562   5.617   1.897   1.758
 3888SOL    HW112563   5.540   1.895   1.822
 3888SOL    HW212564   5.622   1.987   1.715
 3889SOL     OW12565   0.306   5.403   0.196
 3889SOL    HW112566   0.361   5.392   0.113
 3889SOL    HW212567   0.367   5.407   0.275
 3890SOL     OW12568   6.255   3.527   1.119
 3890SOL    HW112569   6.304   3.590   1.179
 3890SOL    HW212570   6.194   3.469   1.174
 3891SOL     OW12571   5.792   5.184   5.856
 3891SOL    HW112572   5.767   5.139   5.942
 3891SOL    HW212573   5.862   5.253   5.874
 3892SOL     OW12574   5.339   6.337   3.960
 3892SOL    HW112575   5.254   6.389   3.949
 3892SOL    HW212576   5.388   6.335   3.873
 3893SOL     OW12577   2.914   6.090   4.268
 3893SOL    HW112578   2.979   6.051   4.202
 3893SOL    HW212579   2.922   6.189   4.269
 3894SOL     OW12580   5.336   5.191   6.575
 3894SOL    HW112581   5.244   5.152   6.587
 3894SOL    HW212582   5.373   5.163   6.487
 3895SOL     OW12583   1.547   1.621   6.056
 3895SOL    HW112584   1.627   1.666   6.097
 3895SOL    HW212585   1.523   1.669   5.971
 3896SOL     OW12586   6.790   2.474   5.695
 3896SOL    HW112587   6.795   2.566   5.733
 3896SOL    HW212588   6.874   2.424   5.718
 3897SOL     OW12589   3.569   6.597   2.689
 3897SOL    HW112590   3.505   6.553   2.626
 3897SOL    HW212591   3.623   6.665   2.639
 3898SOL     OW12592   3.544   4.190   4.699
 3898SOL    HW112593   3.535   4.266   4.763
 3898SOL    HW212594   3.477   4.201   4.625
 3899SOL     OW12595   5.420   1.493   5.057
 3899SOL    HW112596   5.423   1.577   5.002
 3899SOL    HW212597   5.329   1.484   5.098
 3900SOL     OW12598   6.873   2.570   4.244
 3900SOL    HW112599   6.781   2.562   4.204
 3900SOL    HW212600   6.884   2.501   4.315
 3901SOL     OW12601   2.428   5.561   4.739
 3901SOL    HW112602   2.336   5.552   4.701
 3901SOL    HW212603   2.446   5.484   4.801
 3902SOL     OW12604   3.904   4.863   2.146
 3902SOL    HW112605   3.826   4.819   2.101
 3902SOL    HW212606   3.985   4.855   2.088
 3903SOL     OW12607   4.119   2.437   6.203
 3903SOL    HW112608   4.082   2.402   6.289
 3903SOL    HW212609   4.201   2.386   6.178
 3904SOL     OW12610   2.402   5.717   0.647
 3904SOL    HW112611   2.459   5.685   0.723
 3904SOL    HW212612   2.455   5.711   0.562
 3905SOL     OW12613   0.809   0.368   5.889
 3905SOL    HW112614   0.834   0.367   5.792
 3905SOL    HW212615   0.780   0.460   5.915
 3906SOL     OW12616   0.828   6.208   4.999
 3906SOL    HW112617   0.759   6.163   5.056
 3906SOL    HW212618   0.789   6.291   4.959
 3907SOL     OW12619   1.026   1.310   4.750
 3907SOL    HW112620   0.961   1.262   4.809
 3907SOL    HW212621   1.111   1.325   4.800
 3908SOL     OW12622   2.410   1.170   4.527
 3908SOL    HW112623   2.439   1.112   4.450
 3908SOL    HW212624   2.398   1.113   4.608
 3909SOL     OW12625   5.155   2.451   1.583
 3909SOL    HW112626   5.198   2.421   1.668
 3909SOL    HW212627   5.225   2.464   1.512
 3910SOL     OW12628   3.522   2.253   1.239
 3910SOL    HW112629   3.602   2.309   1.221
 3910SOL    HW212630   3.462   2.255   1.159
 3911SOL     OW12631   6.730   1.158   1.424
 3911SOL    HW112632   6.705   1.109   1.341
 3911SOL    HW212633   6.733   1.094   1.501
 3912SOL     OW12634   3.937   3.187   6.890
 3912SOL    HW112635   3.956   3.162   6.984
 3912SOL    HW212636   3.925   3.286   6.883
 3913SOL     OW12637   4.103   5.655   1.685
 3913SOL    HW112638   4.082   5.728   1.620
 3913SOL    HW212639   4.182   5.603   1.652
 3914SOL     OW12640   6.628   1.695   6.963
 3914SOL    HW112641   6.640   1.620   6.898
 3914SOL    HW212642   6.718   1.731   6.990
 3915SOL     OW12643   5.439   6.440   5.172
 3915SOL    HW112644   5.439   6.505   5.248
 3915SOL    HW212645   5.533   6.428   5.138
 3916SOL     OW12646   2.081   1.991   2.334
 3916SOL    HW112647   2.150   2.058   2.305
 3916SOL    HW212648   2.126   1.906   2.360
 3917SOL     OW12649   3.462   4.874   1.421
 3917SOL    HW112650   3.514   4.789   1.413
 3917SOL    HW212651   3.520   4.945   1.461
 3918SOL     OW12652   4.819   1.161   6.764
 3918SOL    HW112653   4.764   1.240   6.792
 3918SOL    HW212654   4.784   1.126   6.677
 3919SOL     OW12655   4.377   6.111   2.569
 3919SOL    HW112656   4.472   6.123   2.540
 3919SOL    HW212657   4.374   6.054   2.651
 3920SOL     OW12658   3.198   1.639   5.433
 3920SOL    HW112659   3.233   1.573   5.366
 3920SOL    HW212660   3.112   1.604   5.472
 3921SOL     OW12661   0.466   2.810   6.464
 3921SOL    HW112662   0.507   2.881   6.521
 3921SOL    HW212663   0.382   2.777   6.508
 3922SOL     OW12664   5.205   4.084   3.151
 3922SOL    HW112665   5.165   4.060   3.062
 3922SOL    HW212666   5.135   4.126   3.209
 3923SOL     OW12667   4.822   1.358   1.870
 3923SOL    HW112668   4.765   1.433   1.835
 3923SOL    HW212669   4.917   1.387   1.871
 3924SOL     OW12670   5.468   5.344   3.820
 3924SOL    HW112671   5.460   5.342   3.720
 3924SOL    HW212672   5.434   5.257   3.858
 3925SOL     OW12673   5.232   5.439   1.062
 3925SOL    HW112674   5.191   5.455   1.152
 3925SOL    HW212675   5.330   5.425   1.073
 3926SOL     OW12676   0.804   5.526   4.374
 3926SOL    HW112677   0.787   5.430   4.397
 3926SOL    HW212678   0.727   5.582   4.405
 3927SOL     OW12679   5.910   1.893   5.743
 3927SOL    HW112680   5.847   1.941   5.681
 3927SOL    HW212681   5.875   1.899   5.837
 3928SOL     OW12682   3.565   5.506   1.931
 3928SOL    HW112683   3.630   5.577   1.957
 3928SOL    HW212684   3.472   5.543   1.933
 3929SOL     OW12685   0.601   1.499   5.707
 3929SOL    HW112686   0.513   1.520   5.665
 3929SOL    HW212687   0.675   1.537   5.651
 3930SOL     OW12688   1.939   4.457   3.935
 3930SOL    HW112689   1.866   4.472   4.001
 3930SOL    HW212690   1.925   4.516   3.855
 3931SOL     OW12691   1.229   2.227   0.428
 3931SOL    HW112692   1.303   2.175   0.468
 3931SOL    HW212693   1.231   2.321   0.464
 3932SOL     OW12694   2.488   4.468   3.697
 3932SOL    HW112695   2.556   4.496   3.629
 3932SOL    HW212696   2.397   4.495   3.668
 3933SOL     OW12697   1.695   6.095   1.471
 3933SOL    HW112698   1.680   6.018   1.409
 3933SOL    HW212699   1.656   6.178   1.430
 3934SOL     OW12700   1.278   0.027   0.995
 3934SOL    HW112701   1.256   0.054   0.902
 3934SOL    HW212702   1.244   6.951   1.012
 3935SOL     OW12703   0.223   4.046   5.405
 3935SOL    HW112704   0.278   3.963   5.407
 3935SOL    HW212705   0.179   4.054   5.315
 3936SOL     OW12706   0.355   4.188   5.019
 3936SOL    HW112707   0.423   4.228   5.081
 3936SOL    HW212708   0.343   4.091   5.040
 3937SOL     OW12709   0.369   6.009   1.309
 3937SOL    HW112710   0.450   5.954   1.288
 3937SOL    HW212711   0.395   6.104   1.320
 3938SOL     OW12712   0.656   3.191   1.369
 3938SOL    HW112713   0.561   3.192   1.400
 3938SOL    HW212714   0.710   3.131   1.429
 3939SOL     OW12715   0.585   0.587   3.267
 3939SOL    HW112716   0.509   0.524   3.253
 3939SOL    HW212717   0.566   0.645   3.347
 3940SOL     OW12718   2.717   6.097   0.063
 3940SOL    HW112719   2.770   6.133   7.004
 3940SOL    HW212720   2.774   6.091   0.144
 3941SOL     OW12721   4.999   5.912   2.267
 3941SOL    HW112722   5.056   5.947   2.342
 3941SOL    HW212723   4.903   5.917   2.294
 3942SOL     OW12724   6.938   6.077   5.830
 3942SOL    HW112725   6.979   6.117   5.748
 3942SOL    HW212726   6.999   6.005   5.866
 3943SOL     OW12727   1.809   3.392   0.388
 3943SOL    HW112728   1.898   3.433   0.370
 3943SOL    HW212729   1.784   3.332   0.311
 3944SOL     OW12730   4.848   2.766   6.963
 3944SOL    HW112731   4.767   2.737   7.013
 3944SOL    HW212732   4.842   2.864   6.944
 3945SOL     OW12733   5.755   0.326   4.183
 3945SOL    HW112734   5.709   0.261   4.243
 3945SOL    HW212735   5.688   0.388   4.143
 3946SOL     OW12736   0.015   4.125   0.593
 3946SOL    HW112737   0.084   4.162   0.655
 3946SOL    HW212738   6.945   4.117   0.641
 3947SOL     OW12739   6.061   5.834   2.019
 3947SOL    HW112740   5.987   5.802   2.077
 3947SOL    HW212741   6.139   5.861   2.077
 3948SOL     OW12742   1.432   2.933   5.749
 3948SOL    HW112743   1.520   2.900   5.716
 3948SOL    HW212744   1.362   2.863   5.735
 3949SOL     OW12745   5.906   0.300   2.383
 3949SOL    HW112746   5.937   0.277   2.290
 3949SOL    HW212747   5.835   0.236   2.411
 3950SOL     OW12748   3.003   4.593   1.633
 3950SOL    HW112749   3.051   4.664   1.685
 3950SOL    HW212750   2.970   4.522   1.696
 3951SOL     OW12751   0.561   2.936   4.865
 3951SOL    HW112752   0.496   2.862   4.882
 3951SOL    HW212753   0.638   2.900   4.812
 3952SOL     OW12754   5.403   3.973   0.438
 3952SOL    HW112755   5.478   4.022   0.393
 3952SOL    HW212756   5.324   3.970   0.378
 3953SOL     OW12757   3.189   3.756   6.601
 3953SOL    HW112758   3.278   3.800   6.609
 3953SOL    HW212759   3.196   3.661   6.631
 3954SOL     OW12760   0.923   3.419   5.141
 3954SOL    HW112761   0.926   3.346   5.209
 3954SOL    HW212762   0.983   3.494   5.170
 3955SOL     OW12763   6.471   3.923   0.638
 3955SOL    HW112764   6.501   3.848   0.697
 3955SOL    HW212765   6.385   3.898   0.593
 3956SOL     OW12766   6.757   2.815   5.498
 3956SOL    HW112767   6.847   2.793   5.535
 3956SOL    HW212768   6.711   2.878   5.560
 3957SOL     OW12769   0.761   1.801   2.867
 3957SOL    HW112770   0.752   1.808   2.966
 3957SOL    HW212771   0.700   1.867   2.823
 3958SOL     OW12772   5.240   0.255   0.302
 3958SOL    HW112773   5.208   0.236   0.209
 3958SOL    HW212774   5.337   0.277   0.299
 3959SOL     OW12775   2.075   6.252   1.261
 3959SOL    HW112776   2.069   6.156   1.234
 3959SOL    HW212777   2.170   6.282   1.257
 3960SOL     OW12778   5.329   3.383   1.220
 3960SOL    HW112779   5.246   3.417   1.264
 3960SOL    HW212780   5.333   3.418   1.127
 3961SOL     OW12781   5.473   0.521   1.131
 3961SOL    HW112782   5.532   0.579   1.187
 3961SOL    HW212783   5.446   0.570   1.048
 3962SOL     OW12784   0.494   6.440   5.705
 3962SOL    HW112785   0.432   6.500   5.655
 3962SOL    HW212786   0.502   6.471   5.800
 3963SOL     OW12787   4.398   4.528   2.778
 3963SOL    HW112788   4.352   4.575   2.703
 3963SOL    HW212789   4.430   4.596   2.845
 3964SOL     OW12790   6.082   5.892   6.868
 3964SOL    HW112791   6.001   5.833   6.866
 3964SOL    HW212792   6.065   5.973   6.812
 3965SOL     OW12793   3.835   3.631   0.922
 3965SOL    HW112794   3.737   3.647   0.939
 3965SOL    HW212795   3.873   3.709   0.871
 3966SOL     OW12796   6.530   3.713   5.424
 3966SOL    HW112797   6.446   3.675   5.464
 3966SOL    HW212798   6.584   3.757   5.496
 3967SOL     OW12799   1.765   0.041   6.948
 3967SOL    HW112800   1.756   0.134   6.983
 3967SOL    HW212801   1.845   7.014   6.989
 3968SOL     OW12802   4.754   1.054   1.471
 3968SOL    HW112803   4.793   1.093   1.388
 3968SOL    HW212804   4.788   1.104   1.551
 3969SOL     OW12805   0.666   6.015   1.448
 3969SOL    HW112806   0.669   5.982   1.354
 3969SOL    HW212807   0.700   5.943   1.509
 3970SOL     OW12808   4.980   3.743   4.371
 3970SOL    HW112809   4.982   3.702   4.280
 3970SOL    HW212810   5.017   3.679   4.438
 3971SOL     OW12811   1.010   5.921   3.672
 3971SOL    HW112812   0.947   5.994   3.698
 3971SOL    HW212813   0.976   5.877   3.588
 3972SOL     OW12814   0.839   0.574   6.830
 3972SOL    HW112815   0.763   0.541   6.886
 3972SOL    HW212816   0.879   0.655   6.873
 3973SOL     OW12817   3.116   3.057   4.036
 3973SOL    HW112818   3.141   3.154   4.041
 3973SOL    HW212819   3.179   3.011   3.972
 3974SOL     OW12820   5.474   0.572   6.592
 3974SOL    HW112821   5.474   0.499   6.523
 3974SOL    HW212822   5.560   0.570   6.642
 3975SOL     OW12823   6.892   6.213   5.180
 3975SOL    HW112824   6.815   6.168   5.135
 3975SOL    HW212825   6.871   6.310   5.193
 3976SOL     OW12826   0.805   2.959   6.979
 3976SOL    HW112827   0.773   3.042   0.007
 3976SOL    HW212828   0.889   2.927   0.006
 3977SOL     OW12829   3.536   5.273   5.538
 3977SOL    HW112830   3.607   5.261   5.468
 3977SOL    HW212831   3.566   5.230   5.623
 3978SOL     OW12832   6.296   4.073   6.250
 3978SOL    HW112833   6.371   4.135   6.273
 3978SOL    HW212834   6.260   4.032   6.333
 3979SOL     OW12835   1.132   6.654   3.220
 3979SOL    HW112836   1.069   6.721   3.179
 3979SOL    HW212837   1.090   6.616   3.303
 3980SOL     OW12838   4.872   3.450   4.739
 3980SOL    HW112839   4.894   3.359   4.703
 3980SOL    HW212840   4.886   3.450   4.838
 3981SOL     OW12841   6.719   1.789   5.314
 3981SOL    HW112842   6.655   1.713   5.327
 3981SOL    HW212843   6.727   1.840   5.400
 3982SOL     OW12844   2.277   2.879   4.195
 3982SOL    HW112845   2.323   2.900   4.281
 3982SOL    HW212846   2.180   2.864   4.211
 3983SOL     OW12847   3.399   0.329   3.462
 3983SOL    HW112848   3.421   0.391   3.387
 3983SOL    HW212849   3.307   0.292   3.449
 3984SOL     OW12850   1.916   6.752   1.810
 3984SOL    HW112851   1.973   6.814   1.864
 3984SOL    HW212852   1.908   6.664   1.858
 3985SOL     OW12853   1.824   3.458   1.674
 3985SOL    HW112854   1.789   3.400   1.601
 3985SOL    HW212855   1.920   3.436   1.691
 3986SOL     OW12856   1.625   2.105   1.909
 3986SOL    HW112857   1.605   2.118   1.812
 3986SOL    HW212858   1.724   2.107   1.924
 3987SOL     OW12859   1.609   4.147   5.077
 3987SOL    HW112860   1.619   4.246   5.073
 3987SOL    HW212861   1.646   4.106   4.994
 3988SOL     OW12862   4.880   1.011   0.242
 3988SOL    HW112863   4.938   1.040   0.318
 3988SOL    HW212864   4.874   1.085   0.175
 3989SOL     OW12865   4.334   0.814   6.000
 3989SOL    HW112866   4.312   0.798   5.904
 3989SOL    HW212867   4.376   0.903   6.011
 3990SOL     OW12868   0.864   2.600   3.918
 3990SOL    HW112869   0.879   2.503   3.898
 3990SOL    HW212870   0.922   2.627   3.995
 3991SOL     OW12871   0.597   1.261   4.075
 3991SOL    HW112872   0.554   1.221   3.993
 3991SOL    HW212873   0.596   1.361   4.067
 3992SOL     OW12874   5.836   3.805   6.333
 3992SOL    HW112875   5.819   3.873   6.262
 3992SOL    HW212876   5.810   3.842   6.422
 3993SOL     OW12877   1.711   0.527   4.261
 3993SOL    HW112878   1.701   0.428   4.250
 3993SOL    HW212879   1.655   0.557   4.338
 3994SOL     OW12880   2.712   2.312   2.908
 3994SOL    HW112881   2.743   2.330   2.815
 3994SOL    HW212882   2.612   2.315   2.912
 3995SOL     OW12883   1.256   3.663   2.510
 3995SOL    HW112884   1.260   3.577   2.561
 3995SOL    HW212885   1.247   3.644   2.412
 3996SOL     OW12886   5.860   6.571   4.167
 3996SOL    HW112887   5.782   6.517   4.198
 3996SOL    HW212888   5.833   6.628   4.090
 3997SOL     OW12889   4.883   3.573   2.749
 3997SOL    HW112890   4.968   3.614   2.717
 3997SOL    HW212891   4.867   3.600   2.844
 3998SOL     OW12892   5.297   2.491   3.110
 3998SOL    HW112893   5.241   2.562   3.153
 3998SOL    HW212894   5.295   2.502   3.011
 3999SOL     OW12895   4.659   2.800   1.172
 3999SOL    HW112896   4.588   2.740   1.134
 3999SOL    HW212897   4.650   2.804   1.272
 4000SOL     OW12898   2.814   5.225   2.500
 4000SOL    HW112899   2.903   5.181   2.486
 4000SOL    HW212900   2.802   5.297   2.432
 4001SOL     OW12901   1.260   5.021   4.190
 4001SOL    HW112902   1.260   5.024   4.090
 4001SOL    HW212903   1.176   5.064   4.224
 4002SOL     OW12904   3.429   4.120   3.623
 4002SOL    HW112905   3.401   4.215   3.613
 4002SOL    HW212906   3.351   4.061   3.602
 4003SOL     OW12907   2.026   0.625   5.626
 4003SOL    HW112908   2.054   0.718   5.649
 4003SOL    HW212909   2.090   0.560   5.666
 4004SOL     OW12910   0.847   3.589   3.674
 4004SOL    HW112911   0.846   3.513   3.739
 4004SOL    HW212912   0.753   3.615   3.651
 4005SOL     OW12913   5.188   3.128   7.014
 4005SOL    HW112914   5.216   3.224   0.002
 4005SOL    HW212915   5.243   3.074   0.061
 4006SOL     OW12916   5.501   5.408   2.864
 4006SOL    HW112917   5.580   5.462   2.895
 4006SOL    HW212918   5.508   5.393   2.766
 4007SOL     OW12919   0.037   0.658   2.889
 4007SOL    HW112920   0.083   0.740   2.922
 4007SOL    HW212921   6.963   0.683   2.856
 4008SOL     OW12922   3.218   0.633   0.553
 4008SOL    HW112923   3.282   0.563   0.520
 4008SOL    HW212924   3.265   0.692   0.619
 4009SOL     OW12925   4.863   2.059   0.845
 4009SOL    HW112926   4.946   2.090   0.891
 4009SOL    HW212927   4.869   2.080   0.748
 4010SOL     OW12928   2.604   5.017   1.669
 4010SOL    HW112929   2.536   4.957   1.627
 4010SOL    HW212930   2.690   5.009   1.619
 4011SOL     OW12931   5.063   6.436   6.613
 4011SOL    HW112932   5.126   6.513   6.614
 4011SOL    HW212933   5.104   6.357   6.658
 4012SOL     OW12934   4.710   0.066   2.757
 4012SOL    HW112935   4.660   0.091   2.840
 4012SOL    HW212936   4.672   6.999   2.719
 4013SOL     OW12937   6.987   0.987   5.556
 4013SOL    HW112938   6.912   0.960   5.616
 4013SOL    HW212939   0.047   1.019   5.611
 4014SOL     OW12940   3.367   4.958   2.607
 4014SOL    HW112941   3.341   5.049   2.639
 4014SOL    HW212942   3.319   4.937   2.522
 4015SOL     OW12943   4.094   4.688   5.872
 4015SOL    HW112944   4.032   4.717   5.799
 4015SOL    HW212945   4.099   4.588   5.873
 4016SOL     OW12946   4.363   5.113   5.296
 4016SOL    HW112947   4.371   5.113   5.396
 4016SOL    HW212948   4.283   5.167   5.270
 4017SOL     OW12949   0.709   4.586   5.502
 4017SOL    HW112950   0.793   4.544   5.467
 4017SOL    HW212951   0.679   4.538   5.584
 4018SOL     OW12952   4.220   5.800   1.252
 4018SOL    HW112953   4.266   5.864   1.314
 4018SOL    HW212954   4.121   5.817   1.254
 4019SOL     OW12955   5.558   3.828   2.768
 4019SOL    HW112956   5.643   3.785   2.738
 4019SOL    HW212957   5.544   3.913   2.717
 4020SOL     OW12958   0.117   5.503   4.615
 4020SOL    HW112959   0.066   5.561   4.679
 4020SOL    HW212960   0.156   5.559   4.543
 4021SOL     OW12961   4.212   3.786   6.500
 4021SOL    HW112962   4.153   3.839   6.438
 4021SOL    HW212963   4.195   3.689   6.487
 4022SOL     OW12964   2.120   0.338   1.199
 4022SOL    HW112965   2.095   0.385   1.283
 4022SOL    HW212966   2.095   0.241   1.206
 4023SOL     OW12967   0.389   1.425   4.727
 4023SOL    HW112968   0.484   1.438   4.756
 4023SOL    HW212969   0.388   1.386   4.635
 4024SOL     OW12970   0.894   6.356   4.223
 4024SOL    HW112971   0.906   6.276   4.164
 4024SOL    HW212972   0.966   6.423   4.204
 4025SOL     OW12973   6.965   5.302   3.428
 4025SOL    HW112974   6.876   5.311   3.474
 4025SOL    HW212975   7.004   5.393   3.413
 4026SOL     OW12976   6.972   0.270   3.932
 4026SOL    HW112977   6.955   0.349   3.990
 4026SOL    HW212978   6.938   0.187   3.977
 4027SOL     OW12979   2.961   4.396   6.019
 4027SOL    HW112980   2.901   4.331   5.972
 4027SOL    HW212981   2.924   4.417   6.109
 4028SOL     OW12982   4.675   1.684   3.309
 4028SOL    HW112983   4.587   1.663   3.350
 4028SOL    HW212984   4.749   1.656   3.371
 4029SOL     OW12985   1.646   5.605   0.125
 4029SOL    HW112986   1.631   5.691   0.077
 4029SOL    HW212987   1.741   5.576   0.113
 4030SOL     OW12988   0.155   1.020   2.614
 4030SOL    HW112989   0.198   1.090   2.671
 4030SOL    HW212990   0.071   0.989   2.658
 4031SOL     OW12991   6.165   6.278   0.396
 4031SOL    HW112992   6.264   6.292   0.406
 4031SOL    HW212993   6.145   6.180   0.402
 4032SOL     OW12994   5.403   0.615   2.099
 4032SOL    HW112995   5.317   0.564   2.089
 4032SOL    HW212996   5.393   0.704   2.055
 4033SOL     OW12997   2.331   2.735   2.856
 4033SOL    HW112998   2.391   2.689   2.791
 4033SOL    HW212999   2.371   2.728   2.948
 4034SOL     OW13000   7.015   3.014   5.265
 4034SOL    HW113001   0.021   3.083   5.196
 4034SOL    HW213002   6.918   2.989   5.257
 4035SOL     OW13003   4.362   1.582   1.737
 4035SOL    HW113004   4.316   1.512   1.792
 4035SOL    HW213005   4.322   1.671   1.756
 4036SOL     OW13006   2.841   5.729   2.781
 4036SOL    HW113007   2.907   5.763   2.847
 4036SOL    HW213008   2.758   5.785   2.783
 4037SOL     OW13009   2.811   1.701   5.950
 4037SOL    HW113010   2.818   1.616   6.002
 4037SOL    HW213011   2.761   1.684   5.865
 4038SOL     OW13012   3.309   3.721   5.994
 4038SOL    HW113013   3.247   3.647   5.968
 4038SOL    HW213014   3.391   3.716   5.938
 4039SOL     OW13015   5.933   4.993   1.896
 4039SOL    HW113016   5.925   4.980   1.797
 4039SOL    HW213017   5.910   5.087   1.919
 4040SOL     OW13018   3.114   6.325   5.033
 4040SOL    HW113019   3.182   6.265   5.076
 4040SOL    HW213020   3.112   6.309   4.935
 4041SOL     OW13021   2.385   6.530   0.733
 4041SOL    HW113022   2.389   6.430   0.725
 4041SOL    HW213023   2.300   6.563   0.692
 4042SOL     OW13024   6.585   0.860   3.096
 4042SOL    HW113025   6.563   0.788   3.163
 4042SOL    HW213026   6.511   0.867   3.030
 4043SOL     OW13027   5.658   3.434   6.970
 4043SOL    HW113028   5.735   3.452   0.013
 4043SOL    HW213029   5.573   3.457   7.016
 4044SOL     OW13030   4.868   5.279   3.447
 4044SOL    HW113031   4.892   5.241   3.358
 4044SOL    HW213032   4.769   5.295   3.451
 4045SOL     OW13033   4.998   0.599   5.429
 4045SOL    HW113034   5.032   0.527   5.369
 4045SOL    HW213035   4.964   0.675   5.374
 4046SOL     OW13036   6.031   1.883   2.681
 4046SOL    HW113037   6.018   1.810   2.615
 4046SOL    HW213038   6.095   1.854   2.752
 4047SOL     OW13039   2.979   3.323   0.129
 4047SOL    HW113040   2.926   3.334   0.044
 4047SOL    HW213041   2.934   3.255   0.187
 4048SOL     OW13042   4.379   1.723   2.305
 4048SOL    HW113043   4.368   1.815   2.269
 4048SOL    HW213044   4.385   1.658   2.228
 4049SOL     OW13045   3.842   4.655   6.775
 4049SOL    HW113046   3.797   4.655   6.864
 4049SOL    HW213047   3.774   4.644   6.703
 4050SOL     OW13048   0.356   5.443   2.251
 4050SOL    HW113049   0.433   5.380   2.257
 4050SOL    HW213050   0.389   5.534   2.226
 4051SOL     OW13051   5.489   0.965   5.100
 4051SOL    HW113052   5.573   0.999   5.142
 4051SOL    HW213053   5.427   1.041   5.081
 4052SOL     OW13054   6.319   2.109   3.674
 4052SOL    HW113055   6.398   2.162   3.643
 4052SOL    HW213056   6.316   2.107   3.774
 4053SOL     OW13057   1.445   5.184   4.330
 4053SOL    HW113058   1.439   5.266   4.274
 4053SOL    HW213059   1.387   5.112   4.291
 4054SOL     OW13060   4.072   3.725   0.463
 4054SOL    HW113061   4.167   3.749   0.484
 4054SOL    HW213062   4.070   3.638   0.413
 4055SOL     OW13063   0.463   4.810   1.415
 4055SOL    HW113064   0.462   4.735   1.350
 4055SOL    HW213065   0.464   4.897   1.365
 4056SOL     OW13066   5.327   3.466   0.971
 4056SOL    HW113067   5.305   3.561   0.991
 4056SOL    HW213068   5.277   3.436   0.890
 4057SOL     OW13069   0.154   3.440   0.121
 4057SOL    HW113070   0.140   3.447   0.220
 4057SOL    HW213071   0.088   3.499   0.074
 4058SOL     OW13072   3.210   6.889   5.882
 4058SOL    HW113073   3.207   6.819   5.954
 4058SOL    HW213074   3.121   6.934   5.877
 4059SOL     OW13075   0.553   1.669   3.733
 4059SOL    HW113076   0.560   1.682   3.634
 4059SOL    HW213077   0.604   1.741   3.779
 4060SOL     OW13078   5.945   5.677   5.456
 4060SOL    HW113079   6.012   5.740   5.495
 4060SOL    HW213080   5.904   5.717   5.375
 4061SOL     OW13081   1.921   5.582   0.907
 4061SOL    HW113082   1.880   5.507   0.854
 4061SOL    HW213083   2.011   5.603   0.870
 4062SOL     OW13084   1.365   2.447   1.614
 4062SOL    HW113085   1.435   2.428   1.546
 4062SOL    HW213086   1.303   2.369   1.622
 4063SOL     OW13087   4.620   1.006   0.329
 4063SOL    HW113088   4.571   0.932   0.282
 4063SOL    HW213089   4.712   1.014   0.290
 4064SOL     OW13090   2.077   1.846   5.258
 4064SOL    HW113091   2.071   1.913   5.332
 4064SOL    HW213092   2.162   1.795   5.266
 4065SOL     OW13093   2.591   6.768   1.057
 4065SOL    HW113094   2.551   6.847   1.104
 4065SOL    HW213095   2.519   6.704   1.031
 4066SOL     OW13096   0.452   4.308   3.403
 4066SOL    HW113097   0.490   4.383   3.349
 4066SOL    HW213098   0.519   4.278   3.471
 4067SOL     OW13099   4.588   4.709   0.856
 4067SOL    HW113100   4.524   4.648   0.901
 4067SOL    HW213101   4.630   4.661   0.778
 4068SOL     OW13102   2.118   2.528   5.356
 4068SOL    HW113103   2.161   2.612   5.387
 4068SOL    HW213104   2.018   2.540   5.355
 4069SOL     OW13105   4.126   0.238   6.651
 4069SOL    HW113106   4.149   0.184   6.732
 4069SOL    HW213107   4.159   0.331   6.662
 4070SOL     OW13108   1.343   3.070   3.764
 4070SOL    HW113109   1.393   3.152   3.736
 4070SOL    HW213110   1.405   2.991   3.762
 4071SOL     OW13111   0.928   0.385   3.963
 4071SOL    HW113112   0.967   0.404   4.053
 4071SOL    HW213113   0.988   0.422   3.892
 4072SOL     OW13114   2.405   5.974   3.074
 4072SOL    HW113115   2.385   6.072   3.074
 4072SOL    HW213116   2.344   5.928   3.139
 4073SOL     OW13117   2.989   4.859   0.350
 4073SOL    HW113118   3.075   4.905   0.327
 4073SOL    HW213119   2.925   4.869   0.274
 4074SOL     OW13120   1.726   5.799   2.752
 4074SOL    HW113121   1.820   5.785   2.723
 4074SOL    HW213122   1.667   5.730   2.710
 4075SOL     OW13123   6.015   0.584   0.926
 4075SOL    HW113124   6.110   0.608   0.906
 4075SOL    HW213125   6.005   0.485   0.928
 4076SOL     OW13126   2.832   4.000   5.273
 4076SOL    HW113127   2.782   4.078   5.310
 4076SOL    HW213128   2.774   3.919   5.278
 4077SOL     OW13129   2.497   1.119   1.353
 4077SOL    HW113130   2.566   1.150   1.418
 4077SOL    HW213131   2.408   1.113   1.398
 4078SOL     OW13132   2.681   4.612   2.989
 4078SOL    HW113133   2.596   4.564   3.011
 4078SOL    HW213134   2.758   4.549   2.998
 4079SOL     OW13135   0.660   2.519   4.777
 4079SOL    HW113136   0.596   2.457   4.822
 4079SOL    HW213137   0.673   2.601   4.833
 4080SOL     OW13138   6.190   1.591   5.018
 4080SOL    HW113139   6.130   1.671   5.016
 4080SOL    HW213140   6.149   1.518   4.964
 4081SOL     OW13141   2.052   3.345   3.663
 4081SOL    HW113142   2.110   3.403   3.607
 4081SOL    HW213143   1.994   3.402   3.722
 4082SOL     OW13144   1.224   3.341   1.058
 4082SOL    HW113145   1.246   3.251   1.020
 4082SOL    HW213146   1.135   3.337   1.103
 4083SOL     OW13147   5.293   2.511   5.059
 4083SOL    HW113148   5.295   2.412   5.069
 4083SOL    HW213149   5.337   2.553   5.139
 4084SOL     OW13150   0.837   1.158   4.109
 4084SOL    HW113151   0.748   1.203   4.100
 4084SOL    HW213152   0.831   1.085   4.176
 4085SOL     OW13153   3.514   6.484   0.170
 4085SOL    HW113154   3.513   6.573   0.218
 4085SOL    HW213155   3.439   6.427   0.204
 4086SOL     OW13156   1.751   4.600   0.754
 4086SOL    HW113157   1.782   4.588   0.848
 4086SOL    HW213158   1.735   4.698   0.737
 4087SOL     OW13159   1.530   1.246   3.232
 4087SOL    HW113160   1.476   1.268   3.151
 4087SOL    HW213161   1.506   1.155   3.265
 4088SOL     OW13162   6.779   1.612   1.374
 4088SOL    HW113163   6.798   1.586   1.469
 4088SOL    HW213164   6.749   1.708   1.372
 4089SOL     OW13165   1.181   0.703   4.193
 4089SOL    HW113166   1.096   0.741   4.155
 4089SOL    HW213167   1.258   0.739   4.141
 4090SOL     OW13168   1.975   4.270   5.472
 4090SOL    HW113169   1.893   4.312   5.432
 4090SOL    HW213170   1.951   4.232   5.561
 4091SOL     OW13171   4.338   5.804   0.217
 4091SOL    HW113172   4.333   5.870   0.292
 4091SOL    HW213173   4.308   5.848   0.133
 4092SOL     OW13174   7.017   2.861   4.975
 4092SOL    HW113175   6.917   2.861   4.964
 4092SOL    HW213176   0.025   2.925   5.048
 4093SOL     OW13177   5.536   0.476   4.037
 4093SOL    HW113178   5.564   0.498   3.944
 4093SOL    HW213179   5.516   0.379   4.044
 4094SOL     OW13180   2.181   4.234   5.112
 4094SOL    HW113181   2.234   4.151   5.093
 4094SOL    HW213182   2.179   4.251   5.210
 4095SOL     OW13183   1.038   3.706   6.194
 4095SOL    HW113184   0.987   3.670   6.272
 4095SOL    HW213185   0.982   3.772   6.145
 4096SOL     OW13186   3.387   4.218   0.212
 4096SOL    HW113187   3.408   4.187   0.119
 4096SOL    HW213188   3.300   4.267   0.212
 4097SOL     OW13189   3.317   3.417   5.690
 4097SOL    HW113190   3.282   3.329   5.659
 4097SOL    HW213191   3.412   3.406   5.720
 4098SOL     OW13192   0.751   1.993   3.124
 4098SOL    HW113193   0.705   2.058   3.185
 4098SOL    HW213194   0.716   1.901   3.139
 4099SOL     OW13195   4.161   5.744   1.936
 4099SOL    HW113196   4.085   5.789   1.983
 4099SOL    HW213197   4.130   5.707   1.849
 4100SOL     OW13198   3.691   5.866   3.565
 4100SOL    HW113199   3.694   5.901   3.659
 4100SOL    HW213200   3.730   5.933   3.503
 4101SOL     OW13201   5.971   1.539   6.430
 4101SOL    HW113202   6.042   1.607   6.414
 4101SOL    HW213203   5.982   1.501   6.522
 4102SOL     OW13204   6.099   1.347   0.273
 4102SOL    HW113205   6.047   1.355   0.358
 4102SOL    HW213206   6.079   1.425   0.214
 4103SOL     OW13207   0.631   0.455   2.070
 4103SOL    HW113208   0.607   0.524   2.002
 4103SOL    HW213209   0.629   0.496   2.161
 4104SOL     OW13210   1.101   4.853   2.646
 4104SOL    HW113211   1.011   4.843   2.689
 4104SOL    HW213212   1.146   4.764   2.642
 4105SOL     OW13213   3.941   5.106   0.079
 4105SOL    HW113214   3.932   5.157   0.165
 4105SOL    HW213215   3.946   5.169   0.002
 4106SOL     OW13216   0.002   3.474   4.659
 4106SOL    HW113217   0.006   3.569   4.628
 4106SOL    HW213218   0.070   3.460   4.731
 4107SOL     OW13219   6.757   0.587   1.594
 4107SOL    HW113220   6.674   0.546   1.556
 4107SOL    HW213221   6.833   0.524   1.585
 4108SOL     OW13222   6.439   3.585   6.222
 4108SOL    HW113223   6.381   3.661   6.191
 4108SOL    HW213224   6.535   3.609   6.210
 4109SOL     OW13225   3.110   6.265   3.846
 4109SOL    HW113226   3.184   6.198   3.852
 4109SOL    HW213227   3.057   6.266   3.931
 4110SOL     OW13228   4.979   3.560   6.044
 4110SOL    HW113229   4.882   3.562   6.069
 4110SOL    HW213230   5.001   3.471   6.004
 4111SOL     OW13231   4.469   2.839   6.839
 4111SOL    HW113232   4.390   2.900   6.834
 4111SOL    HW213233   4.475   2.800   6.931
 4112SOL     OW13234   3.339   1.266   3.928
 4112SOL    HW113235   3.378   1.349   3.888
 4112SOL    HW213236   3.315   1.283   4.024
 4113SOL     OW13237   3.448   4.935   5.023
 4113SOL    HW113238   3.400   4.952   4.937
 4113SOL    HW213239   3.547   4.940   5.008
 4114SOL     OW13240   2.845   1.857   2.895
 4114SOL    HW113241   2.776   1.901   2.953
 4114SOL    HW213242   2.869   1.768   2.934
 4115SOL     OW13243   5.137   4.917   1.630
 4115SOL    HW113244   5.093   4.883   1.547
 4115SOL    HW213245   5.197   4.846   1.668
 4116SOL     OW13246   3.558   1.653   1.410
 4116SOL    HW113247   3.638   1.710   1.390
 4116SOL    HW213248   3.529   1.667   1.505
 4117SOL     OW13249   1.428   5.471   1.342
 4117SOL    HW113250   1.400   5.409   1.416
 4117SOL    HW213251   1.527   5.467   1.331
 4118SOL     OW13252   1.539   6.103   0.566
 4118SOL    HW113253   1.579   6.190   0.596
 4118SOL    HW213254   1.611   6.044   0.529
 4119SOL     OW13255   3.374   0.546   4.233
 4119SOL    HW113256   3.279   0.566   4.209
 4119SOL    HW213257   3.405   0.611   4.302
 4120SOL     OW13258   3.217   0.471   1.668
 4120SOL    HW113259   3.293   0.535   1.658
 4120SOL    HW213260   3.201   0.423   1.581
 4121SOL     OW13261   6.812   3.038   4.726
 4121SOL    HW113262   6.860   3.124   4.740
 4121SOL    HW213263   6.780   3.002   4.814
 4122SOL     OW13264   1.577   5.700   5.838
 4122SOL    HW113265   1.579   5.635   5.763
 4122SOL    HW213266   1.670   5.715   5.873
 4123SOL     OW13267   4.723   4.120   6.508
 4123SOL    HW113268   4.805   4.173   6.486
 4123SOL    HW213269   4.657   4.179   6.555
 4124SOL     OW13270   5.794   6.836   4.058
 4124SOL    HW113271   5.880   6.821   4.010
 4124SOL    HW213272   5.719   6.799   4.003
 4125SOL     OW13273   4.283   0.851   1.006
 4125SOL    HW113274   4.342   0.932   1.010
 4125SOL    HW213275   4.260   0.830   0.911
 4126SOL     OW13276   2.154   4.033   4.859
 4126SOL    HW113277   2.235   4.013   4.914
 4126SOL    HW213278   2.077   4.053   4.919
 4127SOL     OW13279   5.483   3.454   5.588
 4127SOL    HW113280   5.413   3.444   5.517
 4127SOL    HW213281   5.553   3.383   5.576
 4128SOL     OW13282   1.066   3.010   2.249
 4128SOL    HW113283   0.990   2.944   2.255
 4128SOL    HW213284   1.077   3.039   2.154
 4129SOL     OW13285   5.711   2.721   6.005
 4129SOL    HW113286   5.731   2.816   6.028
 4129SOL    HW213287   5.785   2.683   5.949
 4130SOL     OW13288   6.231   3.932   0.079
 4130SOL    HW113289   6.227   3.873   0.160
 4130SOL    HW213290   6.277   4.018   0.102
 4131SOL     OW13291   6.297   4.829   4.228
 4131SOL    HW113292   6.301   4.923   4.194
 4131SOL    HW213293   6.363   4.773   4.178
 4132SOL     OW13294   5.248   2.725   3.249
 4132SOL    HW113295   5.190   2.787   3.196
 4132SOL    HW213296   5.297   2.777   3.319
 4133SOL     OW13297   3.114   0.979   1.158
 4133SOL    HW113298   3.181   0.908   1.181
 4133SOL    HW213299   3.116   1.050   1.228
 4134SOL     OW13300   1.422   1.960   0.134
 4134SOL    HW113301   1.519   1.984   0.142
 4134SOL    HW213302   1.391   1.918   0.220
 4135SOL     OW13303   2.088   1.313   1.824
 4135SOL    HW113304   2.050   1.283   1.912
 4135SOL    HW213305   2.128   1.404   1.834
 4136SOL     OW13306   0.286   1.996   4.097
 4136SOL    HW113307   0.223   1.985   4.020
 4136SOL    HW213308   0.380   1.984   4.064
 4137SOL     OW13309   3.023   3.962   6.586
 4137SOL    HW113310   3.068   3.873   6.587
 4137SOL    HW213311   3.089   4.033   6.609
 4138SOL     OW13312   4.236   4.713   3.586
 4138SOL    HW113313   4.180   4.680   3.662
 4138SOL    HW213314   4.220   4.811   3.573
 4139SOL     OW13315   1.792   2.150   6.138
 4139SOL    HW113316   1.747   2.115   6.056
 4139SOL    HW213317   1.807   2.248   6.128
 4140SOL     OW13318   4.403   1.358   4.995
 4140SOL    HW113319   4.472   1.314   4.937
 4140SOL    HW213320   4.430   1.452   5.014
 4141SOL     OW13321   5.445   6.070   0.454
 4141SOL    HW113322   5.365   6.079   0.514
 4141SOL    HW213323   5.519   6.025   0.504
 4142SOL     OW13324   0.086   4.320   1.465
 4142SOL    HW113325   0.033   4.238   1.485
 4142SOL    HW213326   0.089   4.335   1.366
 4143SOL     OW13327   0.082   2.905   0.769
 4143SOL    HW113328   0.079   2.912   0.669
 4143SOL    HW213329   0.173   2.931   0.801
 4144SOL     OW13330   4.954   1.247   2.364
 4144SOL    HW113331   4.887   1.291   2.305
 4144SOL    HW213332   4.939   1.275   2.458
 4145SOL     OW13333   2.151   6.563   1.653
 4145SOL    HW113334   2.093   6.595   1.578
 4145SOL    HW213335   2.245   6.592   1.637
 4146SOL     OW13336   4.590   0.096   0.006
 4146SOL    HW113337   4.635   0.157   0.071
 4146SOL    HW213338   4.552   0.150   6.948
 4147SOL     OW13339   3.354   1.361   4.986
 4147SOL    HW113340   3.404   1.443   5.015
 4147SOL    HW213341   3.400   1.320   4.908
 4148SOL     OW13342   6.659   0.530   3.246
 4148SOL    HW113343   6.691   0.520   3.340
 4148SOL    HW213344   6.738   0.536   3.185
 4149SOL     OW13345   5.898   4.127   1.910
 4149SOL    HW113346   5.823   4.193   1.908
 4149SOL    HW213347   5.899   4.082   1.999
 4150SOL     OW13348   5.607   0.157   6.739
 4150SOL    HW113349   5.564   0.074   6.774
 4150SOL    HW213350   5.537   0.223   6.712
 4151SOL     OW13351   0.180   5.656   0.784
 4151SOL    HW113352   0.087   5.618   0.788
 4151SOL    HW213353   0.176   5.754   0.768
 4152SOL     OW13354   4.004   4.618   1.702
 4152SOL    HW113355   3.912   4.585   1.680
 4152SOL    HW213356   4.062   4.612   1.621
 4153SOL     OW13357   6.264   4.687   6.311
 4153SOL    HW113358   6.210   4.694   6.395
 4153SOL    HW213359   6.305   4.775   6.290
 4154SOL     OW13360   5.894   3.115   5.723
 4154SOL    HW113361   5.987   3.122   5.685
 4154SOL    HW213362   5.846   3.039   5.679
 4155SOL     OW13363   1.278   3.270   1.742
 4155SOL    HW113364   1.337   3.347   1.716
 4155SOL    HW213365   1.334   3.190   1.761
 4156SOL     OW13366   5.792   6.852   5.555
 4156SOL    HW113367   5.746   6.912   5.620
 4156SOL    HW213368   5.883   6.887   5.536
 4157SOL     OW13369   3.892   0.578   4.694
 4157SOL    HW113370   3.963   0.512   4.717
 4157SOL    HW213371   3.923   0.637   4.620
 4158SOL     OW13372   0.834   6.112   3.562
 4158SOL    HW113373   0.892   6.138   3.484
 4158SOL    HW213374   0.802   6.193   3.609
 4159SOL     OW13375   1.189   2.666   4.776
 4159SOL    HW113376   1.167   2.741   4.714
 4159SOL    HW213377   1.283   2.674   4.808
 4160SOL     OW13378   0.397   0.520   1.439
 4160SOL    HW113379   0.391   0.576   1.521
 4160SOL    HW213380   0.339   0.559   1.368
 4161SOL     OW13381   6.912   1.767   0.449
 4161SOL    HW113382   6.841   1.777   0.379
 4161SOL    HW213383   6.977   1.843   0.442
 4162SOL     OW13384   6.096   6.821   5.071
 4162SOL    HW113385   6.162   6.894   5.087
 4162SOL    HW213386   6.019   6.831   5.135
 4163SOL     OW13387   5.806   1.469   4.189
 4163SOL    HW113388   5.865   1.505   4.261
 4163SOL    HW213389   5.862   1.441   4.111
 4164SOL     OW13390   1.828   0.537   7.010
 4164SOL    HW113391   1.730   0.534   6.991
 4164SOL    HW213392   1.854   0.630   0.018
 4165SOL     OW13393   3.970   6.664   1.551
 4165SOL    HW113394   3.978   6.624   1.643
 4165SOL    HW213395   3.878   6.701   1.539
 4166SOL     OW13396   4.989   3.077   0.693
 4166SOL    HW113397   4.920   3.112   0.757
 4166SOL    HW213398   5.063   3.033   0.745
 4167SOL     OW13399   2.689   2.780   1.363
 4167SOL    HW113400   2.672   2.726   1.281
 4167SOL    HW213401   2.713   2.874   1.337
 4168SOL     OW13402   1.318   5.488   1.685
 4168SOL    HW113403   1.285   5.499   1.591
 4168SOL    HW213404   1.348   5.393   1.698
 4169SOL     OW13405   5.418   3.120   4.120
 4169SOL    HW113406   5.374   3.078   4.041
 4169SOL    HW213407   5.355   3.119   4.197
 4170SOL     OW13408   3.726   2.685   5.603
 4170SOL    HW113409   3.685   2.710   5.515
 4170SOL    HW213410   3.720   2.762   5.666
 4171SOL     OW13411   5.091   3.514   1.303
 4171SOL    HW113412   5.027   3.481   1.372
 4171SOL    HW213413   5.055   3.599   1.263
 4172SOL     OW13414   0.877   2.097   0.867
 4172SOL    HW113415   0.804   2.095   0.799
 4172SOL    HW213416   0.841   2.128   0.955
 4173SOL     OW13417   5.086   3.049   5.392
 4173SOL    HW113418   5.153   2.981   5.363
 4173SOL    HW213419   5.118   3.095   5.475
 4174SOL     OW13420   4.819   0.627   4.310
 4174SOL    HW113421   4.801   0.650   4.214
 4174SOL    HW213422   4.917   0.610   4.322
 4175SOL     OW13423   2.890   0.672   2.935
 4175SOL    HW113424   2.900   0.729   2.853
 4175SOL    HW213425   2.802   0.691   2.979
 4176SOL     OW13426   4.736   6.419   3.194
 4176SOL    HW113427   4.814   6.476   3.220
 4176SOL    HW213428   4.656   6.476   3.177
 4177SOL     OW13429   0.488   6.254   2.658
 4177SOL    HW113430   0.546   6.295   2.729
 4177SOL    HW213431   0.402   6.224   2.698
 4178SOL     OW13432   3.709   2.131   5.622
 4178SOL    HW113433   3.715   2.059   5.691
 4178SOL    HW213434   3.655   2.207   5.657
 4179SOL     OW13435   5.548   4.023   5.548
 4179SOL    HW113436   5.541   3.936   5.499
 4179SOL    HW213437   5.621   4.078   5.509
 4180SOL     OW13438   4.613   3.927   1.339
 4180SOL    HW113439   4.535   3.955   1.283
 4180SOL    HW213440   4.656   3.847   1.298
 4181SOL     OW13441   0.963   1.180   0.460
 4181SOL    HW113442   0.884   1.130   0.494
 4181SOL    HW213443   0.985   1.254   0.524
 4182SOL     OW13444   5.681   0.793   2.571
 4182SOL    HW113445   5.684   0.716   2.507
 4182SOL    HW213446   5.587   0.806   2.603
 4183SOL     OW13447   1.568   2.065   1.589
 4183SOL    HW113448   1.483   2.023   1.621
 4183SOL    HW213449   1.601   2.015   1.509
 4184SOL     OW13450   3.993   5.312   0.502
 4184SOL    HW113451   3.960   5.406   0.499
 4184SOL    HW213452   3.927   5.255   0.551
 4185SOL     OW13453   0.190   0.116   3.793
 4185SOL    HW113454   0.245   0.197   3.775
 4185SOL    HW213455   0.095   0.143   3.807
 4186SOL     OW13456   2.692   4.005   1.275
 4186SOL    HW113457   2.598   4.018   1.244
 4186SOL    HW213458   2.708   3.907   1.293
 4187SOL     OW13459   4.131   3.387   6.595
 4187SOL    HW113460   4.192   3.435   6.532
 4187SOL    HW213461   4.082   3.453   6.651
 4188SOL     OW13462   4.673   6.961   4.772
 4188SOL    HW113463   4.639   0.036   4.749
 4188SOL    HW213464   4.658   6.900   4.695
 4189SOL     OW13465   2.265   1.903   4.252
 4189SOL    HW113466   2.193   1.925   4.319
 4189SOL    HW213467   2.327   1.981   4.243
 4190SOL     OW13468   3.002   0.989   0.613
 4190SOL    HW113469   2.937   0.950   0.679
 4190SOL    HW213470   2.978   0.959   0.521
 4191SOL     OW13471   6.561   2.005   2.332
 4191SOL    HW113472   6.475   1.956   2.321
 4191SOL    HW213473   6.589   2.044   2.243
 4192SOL     OW13474   6.414   1.211   3.259
 4192SOL    HW113475   6.475   1.288   3.278
 4192SOL    HW213476   6.393   1.209   3.161
 4193SOL     OW13477   2.075   6.948   1.931
 4193SOL    HW113478   2.161   6.932   1.978
 4193SOL    HW213479   2.069   0.027   1.904
 4194SOL     OW13480   0.541   0.819   3.811
 4194SOL    HW113481   0.623   0.816   3.755
 4194SOL    HW213482   0.541   0.742   3.875
 4195SOL     OW13483   5.133   0.326   1.401
 4195SOL    HW113484   5.186   0.328   1.486
 4195SOL    HW213485   5.038   0.349   1.421
 4196SOL     OW13486   4.879   2.443   3.553
 4196SOL    HW113487   4.927   2.495   3.482
 4196SOL    HW213488   4.818   2.504   3.604
 4197SOL     OW13489   4.841   4.306   4.242
 4197SOL    HW113490   4.835   4.405   4.258
 4197SOL    HW213491   4.925   4.285   4.192
 4198SOL     OW13492   6.646   3.470   6.779
 4198SOL    HW113493   6.674   3.414   6.857
 4198SOL    HW213494   6.610   3.412   6.706
 4199SOL     OW13495   2.801   3.342   5.580
 4199SOL    HW113496   2.823   3.375   5.488
 4199SOL    HW213497   2.883   3.342   5.636
 4200SOL     OW13498   2.145   0.147   6.879
 4200SOL    HW113499   2.093   0.223   6.917
 4200SOL    HW213500   2.094   0.062   6.890
 4201SOL     OW13501   5.494   5.952   3.564
 4201SOL    HW113502   5.586   5.958   3.602
 4201SOL    HW213503   5.441   5.884   3.614
 4202SOL     OW13504   5.356   4.805   4.669
 4202SOL    HW113505   5.268   4.798   4.622
 4202SOL    HW213506   5.348   4.870   4.744
 4203SOL     OW13507   5.456   5.624   3.254
 4203SOL    HW113508   5.534   5.684   3.271
 4203SOL    HW213509   5.402   5.660   3.178
 4204SOL     OW13510   3.290   3.290   1.527
 4204SOL    HW113511   3.225   3.259   1.457
 4204SOL    HW213512   3.309   3.387   1.514
 4205SOL     OW13513   2.820   4.976   3.716
 4205SOL    HW113514   2.786   5.070   3.708
 4205SOL    HW213515   2.909   4.969   3.672
 4206SOL     OW13516   5.335   0.283   4.499
 4206SOL    HW113517   5.355   0.253   4.406
 4206SOL    HW213518   5.239   0.312   4.505
 4207SOL     OW13519   1.348   1.298   1.763
 4207SOL    HW113520   1.413   1.338   1.828
 4207SOL    HW213521   1.325   1.366   1.693
 4208SOL     OW13522   0.712   3.588   1.120
 4208SOL    HW113523   0.711   3.594   1.020
 4208SOL    HW213524   0.627   3.627   1.157
 4209SOL     OW13525   2.970   0.331   4.890
 4209SOL    HW113526   3.051   0.335   4.831
 4209SOL    HW213527   2.888   0.333   4.834
 4210SOL     OW13528   5.258   3.100   0.464
 4210SOL    HW113529   5.248   3.003   0.443
 4210SOL    HW213530   5.168   3.143   0.470
 4211SOL     OW13531   4.602   4.894   3.472
 4211SOL    HW113532   4.675   4.887   3.404
 4211SOL    HW213533   4.580   4.803   3.507
 4212SOL     OW13534   6.047   0.948   2.792
 4212SOL    HW113535   5.952   0.917   2.803
 4212SOL    HW213536   6.100   0.920   2.872
 4213SOL     OW13537   1.055   0.926   2.359
 4213SOL    HW113538   1.128   0.927   2.290
 4213SOL    HW213539   1.089   0.963   2.445
 4214SOL     OW13540   1.298   2.891   4.354
 4214SOL    HW113541   1.348   2.805   4.353
 4214SOL    HW213542   1.293   2.928   4.261
 4215SOL     OW13543   1.085   5.202   4.039
 4215SOL    HW113544   1.006   5.189   4.098
 4215SOL    HW213545   1.078   5.291   3.993
 4216SOL     OW13546   1.458   3.186   5.120
 4216SOL    HW113547   1.465   3.286   5.119
 4216SOL    HW213548   1.410   3.157   5.203
 4217SOL     OW13549   0.068   0.185   3.100
 4217SOL    HW113550   0.079   0.257   3.032
 4217SOL    HW213551   6.992   0.187   3.136
 4218SOL     OW13552   4.680   7.009   2.083
 4218SOL    HW113553   4.632   6.961   2.010
 4218SOL    HW213554   4.731   0.070   2.044
 4219SOL     OW13555   4.381   6.325   3.103
 4219SOL    HW113556   4.293   6.313   3.149
 4219SOL    HW213557   4.450   6.269   3.148
 4220SOL     OW13558   6.198   2.719   3.299
 4220SOL    HW113559   6.278   2.774   3.320
 4220SOL    HW213560   6.224   2.645   3.236
 4221SOL     OW13561   5.618   5.680   5.957
 4221SOL    HW113562   5.628   5.606   5.891
 4221SOL    HW213563   5.707   5.697   6.001
 4222SOL     OW13564   4.521   2.305   0.801
 4222SOL    HW113565   4.426   2.334   0.787
 4222SOL    HW213566   4.523   2.229   0.866
 4223SOL     OW13567   3.946   3.962   2.536
 4223SOL    HW113568   4.010   4.038   2.539
 4223SOL    HW213569   3.854   3.995   2.555
 4224SOL     OW13570   4.476   2.371   4.946
 4224SOL    HW113571   4.514   2.460   4.971
 4224SOL    HW213572   4.376   2.376   4.946
 4225SOL     OW13573   5.681   0.271   4.643
 4225SOL    HW113574   5.765   0.217   4.654
 4225SOL    HW213575   5.641   0.290   4.733
 4226SOL     OW13576   1.204   1.383   4.172
 4226SOL    HW113577   1.228   1.478   4.152
 4226SOL    HW213578   1.110   1.378   4.205
 4227SOL     OW13579   5.610   3.866   6.964
 4227SOL    HW113580   5.532   3.840   0.004
 4227SOL    HW213581   5.612   3.966   6.953
 4228SOL     OW13582   5.983   5.526   2.493
 4228SOL    HW113583   6.076   5.562   2.504
 4228SOL    HW213584   5.965   5.510   2.396
 4229SOL     OW13585   5.350   4.683   5.642
 4229SOL    HW113586   5.355   4.759   5.578
 4229SOL    HW213587   5.322   4.600   5.593
 4230SOL     OW13588   2.935   6.749   4.639
 4230SOL    HW113589   2.890   6.674   4.687
 4230SOL    HW213590   2.982   6.808   4.705
 4231SOL     OW13591   4.265   6.710   5.633
 4231SOL    HW113592   4.298   6.617   5.618
 4231SOL    HW213593   4.332   6.775   5.598
 4232SOL     OW13594   2.132   4.493   2.087
 4232SOL    HW113595   2.078   4.410   2.102
 4232SOL    HW213596   2.203   4.499   2.158
 4233SOL     OW13597   6.434   6.728   0.881
 4233SOL    HW113598   6.403   6.661   0.813
 4233SOL    HW213599   6.532   6.744   0.870
 4234SOL     OW13600   2.798   4.517   5.607
 4234SOL    HW113601   2.808   4.534   5.509
 4234SOL    HW213602   2.860   4.443   5.634
 4235SOL     OW13603   6.463   3.760   5.799
 4235SOL    HW113604   6.393   3.765   5.728
 4235SOL    HW213605   6.434   3.694   5.869
 4236SOL     OW13606   1.321   3.292   4.079
 4236SOL    HW113607   1.261   3.363   4.041
 4236SOL    HW213608   1.415   3.324   4.078
 4237SOL     OW13609   5.230   3.407   4.756
 4237SOL    HW113610   5.135   3.375   4.750
 4237SOL    HW213611   5.273   3.369   4.838
 4238SOL     OW13612   4.707   5.137   4.502
 4238SOL    HW113613   4.701   5.110   4.598
 4238SOL    HW213614   4.619   5.121   4.458
 4239SOL     OW13615   4.810   5.341   5.756
 4239SOL    HW113616   4.841   5.248   5.733
 4239SOL    HW213617   4.881   5.407   5.729
 4240SOL     OW13618   2.416   4.765   6.645
 4240SOL    HW113619   2.487   4.695   6.652
 4240SOL    HW213620   2.450   4.842   6.590
 4241SOL     OW13621   3.783   0.814   6.613
 4241SOL    HW113622   3.764   0.911   6.628
 4241SOL    HW213623   3.746   0.786   6.524
 4242SOL     OW13624   1.782   0.680   2.539
 4242SOL    HW113625   1.718   0.678   2.616
 4242SOL    HW213626   1.731   0.688   2.453
 4243SOL     OW13627   1.725   2.773   3.362
 4243SOL    HW113628   1.671   2.842   3.409
 4243SOL    HW213629   1.721   2.788   3.263
 4244SOL     OW13630   3.512   6.332   1.721
 4244SOL    HW113631   3.421   6.373   1.730
 4244SOL    HW213632   3.526   6.302   1.627
 4245SOL     OW13633   6.265   3.663   0.881
 4245SOL    HW113634   6.206   3.742   0.895
 4245SOL    HW213635   6.265   3.606   0.963
 4246SOL     OW13636   4.827   1.583   3.686
 4246SOL    HW113637   4.860   1.569   3.592
 4246SOL    HW213638   4.903   1.612   3.744
 4247SOL     OW13639   1.459   5.264   5.909
 4247SOL    HW113640   1.392   5.232   5.842
 4247SOL    HW213641   1.432   5.355   5.942
 4248SOL     OW13642   1.681   0.731   3.577
 4248SOL    HW113643   1.716   0.800   3.640
 4248SOL    HW213644   1.663   0.646   3.628
 4249SOL     OW13645   6.471   6.690   4.900
 4249SOL    HW113646   6.566   6.707   4.874
 4249SOL    HW213647   6.442   6.601   4.864
 4250SOL     OW13648   0.056   5.464   4.099
 4250SOL    HW113649   0.142   5.479   4.050
 4250SOL    HW213650   0.076   5.423   4.188
 4251SOL     OW13651   6.533   2.335   5.744
 4251SOL    HW113652   6.503   2.279   5.668
 4251SOL    HW213653   6.618   2.382   5.720
 4252SOL     OW13654   0.030   6.726   0.095
 4252SOL    HW113655   0.103   6.739   0.027
 4252SOL    HW213656   0.066   6.747   0.186
 4253SOL     OW13657   4.856   5.466   2.692
 4253SOL    HW113658   4.945   5.501   2.662
 4253SOL    HW213659   4.870   5.386   2.751
 4254SOL     OW13660   1.747   3.268   0.153
 4254SOL    HW113661   1.750   3.205   0.076
 4254SOL    HW213662   1.653   3.298   0.168
 4255SOL     OW13663   1.271   3.449   3.156
 4255SOL    HW113664   1.248   3.467   3.061
 4255SOL    HW213665   1.262   3.534   3.209
 4256SOL     OW13666   0.761   5.847   1.658
 4256SOL    HW113667   0.802   5.933   1.687
 4256SOL    HW213668   0.832   5.777   1.647
 4257SOL     OW13669   6.429   0.277   4.545
 4257SOL    HW113670   6.496   0.319   4.483
 4257SOL    HW213671   6.384   0.349   4.598
 4258SOL     OW13672   3.333   6.232   0.588
 4258SOL    HW113673   3.339   6.329   0.610
 4258SOL    HW213674   3.423   6.200   0.557
 4259SOL     OW13675   1.284   0.283   1.550
 4259SOL    HW113676   1.379   0.268   1.522
 4259SOL    HW213677   1.275   0.374   1.590
 4260SOL     OW13678   5.790   1.301   4.656
 4260SOL    HW113679   5.703   1.262   4.627
 4260SOL    HW213680   5.804   1.389   4.611
 4261SOL     OW13681   1.981   6.447   4.120
 4261SOL    HW113682   1.984   6.451   4.220
 4261SOL    HW213683   2.063   6.402   4.085
 4262SOL     OW13684   2.101   4.198   6.535
 4262SOL    HW113685   2.153   4.124   6.577
 4262SOL    HW213686   2.006   4.194   6.567
 4263SOL     OW13687   2.309   1.643   4.161
 4263SOL    HW113688   2.289   1.560   4.212
 4263SOL    HW213689   2.258   1.720   4.200
 4264SOL     OW13690   5.160   1.542   5.138
 4264SOL    HW113691   5.129   1.479   5.209
 4264SOL    HW213692   5.084   1.599   5.108
 4265SOL     OW13693   3.120   0.172   6.856
 4265SOL    HW113694   3.140   0.176   6.758
 4265SOL    HW213695   3.144   0.259   6.899
 4266SOL     OW13696   1.104   5.426   1.052
 4266SOL    HW113697   1.162   5.504   1.076
 4266SOL    HW213698   1.011   5.442   1.086
 4267SOL     OW13699   1.765   4.654   4.569
 4267SOL    HW113700   1.856   4.671   4.534
 4267SOL    HW213701   1.770   4.625   4.665
 4268SOL     OW13702   1.186   4.189   0.070
 4268SOL    HW113703   1.202   4.122   0.143
 4268SOL    HW213704   1.088   4.200   0.056
 4269SOL     OW13705   2.802   1.303   5.069
 4269SOL    HW113706   2.890   1.325   5.029
 4269SOL    HW213707   2.813   1.283   5.167
 4270SOL     OW13708   3.802   2.990   0.893
 4270SOL    HW113709   3.777   3.048   0.971
 4270SOL    HW213710   3.733   2.920   0.880
 4271SOL     OW13711   0.087   1.044   1.545
 4271SOL    HW113712   0.034   0.966   1.512
 4271SOL    HW213713   0.082   1.049   1.644
 4272SOL     OW13714   0.152   1.247   6.759
 4272SOL    HW113715   0.106   1.165   6.727
 4272SOL    HW213716   0.216   1.223   6.832
 4273SOL     OW13717   3.023   6.004   4.708
 4273SOL    HW113718   2.938   6.046   4.676
 4273SOL    HW213719   3.067   5.956   4.632
 4274SOL     OW13720   6.572   1.492   2.121
 4274SOL    HW113721   6.589   1.404   2.164
 4274SOL    HW213722   6.659   1.530   2.087
 4275SOL     OW13723   6.867   3.252   3.322
 4275SOL    HW113724   6.830   3.215   3.407
 4275SOL    HW213725   6.832   3.344   3.308
 4276SOL     OW13726   2.316   5.819   3.283
 4276SOL    HW113727   2.400   5.770   3.306
 4276SOL    HW213728   2.238   5.756   3.287
 4277SOL     OW13729   5.670   5.916   2.586
 4277SOL    HW113730   5.730   5.836   2.591
 4277SOL    HW213731   5.631   5.933   2.676
 4278SOL     OW13732   1.489   6.781   2.185
 4278SOL    HW113733   1.444   6.719   2.249
 4278SOL    HW213734   1.468   6.754   2.091
 4279SOL     OW13735   1.002   1.446   3.449
 4279SOL    HW113736   1.096   1.462   3.421
 4279SOL    HW213737   0.982   1.348   3.444
 4280SOL     OW13738   0.932   6.934   6.536
 4280SOL    HW113739   0.997   6.863   6.564
 4280SOL    HW213740   0.850   6.927   6.591
 4281SOL     OW13741   5.277   5.721   3.049
 4281SOL    HW113742   5.245   5.632   3.016
 4281SOL    HW213743   5.203   5.787   3.041
 4282SOL     OW13744   3.694   4.114   0.918
 4282SOL    HW113745   3.596   4.095   0.918
 4282SOL    HW213746   3.740   4.048   0.978
 4283SOL     OW13747   5.084   1.062   4.853
 4283SOL    HW113748   5.161   1.094   4.909
 4283SOL    HW213749   5.070   1.125   4.777
 4284SOL     OW13750   4.524   5.631   6.085
 4284SOL    HW113751   4.428   5.659   6.087
 4284SOL    HW213752   4.540   5.574   6.005
 4285SOL     OW13753   3.571   0.688   5.448
 4285SOL    HW113754   3.585   0.748   5.527
 4285SOL    HW213755   3.563   0.744   5.366
 4286SOL     OW13756   5.895   0.503   6.344
 4286SOL    HW113757   5.831   0.438   6.304
 4286SOL    HW213758   5.892   0.589   6.292
 4287SOL     OW13759   4.088   0.060   0.633
 4287SOL    HW113760   4.079   0.139   0.573
 4287SOL    HW213761   4.120   6.998   0.581
 4288SOL     OW13762   6.749   6.573   2.870
 4288SOL    HW113763   6.814   6.568   2.795
 4288SOL    HW213764   6.680   6.500   2.860
 4289SOL     OW13765   0.432   3.962   4.190
 4289SOL    HW113766   0.530   3.978   4.191
 4289SOL    HW213767   0.413   3.867   4.213
 4290SOL     OW13768   0.710   1.181   3.695
 4290SOL    HW113769   0.702   1.278   3.673
 4290SOL    HW213770   0.647   1.158   3.769
 4291SOL     OW13771   4.781   3.438   6.343
 4291SOL    HW113772   4.873   3.407   6.370
 4291SOL    HW213773   4.743   3.376   6.275
 4292SOL     OW13774   6.332   2.319   1.423
 4292SOL    HW113775   6.394   2.341   1.348
 4292SOL    HW213776   6.238   2.316   1.389
 4293SOL     OW13777   4.092   3.964   0.005
 4293SOL    HW113778   4.095   4.003   6.931
 4293SOL    HW213779   4.010   3.996   0.053
 4294SOL     OW13780   1.764   2.216   6.410
 4294SOL    HW113781   1.768   2.175   6.318
 4294SOL    HW213782   1.734   2.311   6.402
 4295SOL     OW13783   3.960   6.082   3.010
 4295SOL    HW113784   3.955   6.080   2.910
 4295SOL    HW213785   4.016   6.160   3.038
 4296SOL     OW13786   2.898   6.411   3.008
 4296SOL    HW113787   2.922   6.323   2.967
 4296SOL    HW213788   2.958   6.483   2.972
 4297SOL     OW13789   5.633   5.255   0.184
 4297SOL    HW113790   5.647   5.157   0.198
 4297SOL    HW213791   5.709   5.292   0.131
 4298SOL     OW13792   2.016   6.570   0.862
 4298SOL    HW113793   1.975   6.653   0.826
 4298SOL    HW213794   2.093   6.543   0.804
 4299SOL     OW13795   0.604   2.792   0.033
 4299SOL    HW113796   0.676   2.853   0.002
 4299SOL    HW213797   0.641   2.727   0.100
 4300SOL     OW13798   2.901   0.800   1.096
 4300SOL    HW113799   2.971   0.859   1.136
 4300SOL    HW213800   2.861   0.742   1.167
 4301SOL     OW13801   2.670   6.348   0.577
 4301SOL    HW113802   2.653   6.417   0.648
 4301SOL    HW213803   2.587   6.336   0.522
 4302SOL     OW13804   2.304   5.751   6.200
 4302SOL    HW113805   2.309   5.812   6.121
 4302SOL    HW213806   2.220   5.696   6.194
 4303SOL     OW13807   5.927   5.344   2.932
 4303SOL    HW113808   5.931   5.278   2.857
 4303SOL    HW213809   6.010   5.399   2.933
 4304SOL     OW13810   3.747   3.655   1.526
 4304SOL    HW113811   3.736   3.754   1.519
 4304SOL    HW213812   3.843   3.631   1.513
 4305SOL     OW13813   1.284   6.617   5.505
 4305SOL    HW113814   1.286   6.523   5.540
 4305SOL    HW213815   1.265   6.614   5.406
 4306SOL     OW13816   6.100   4.121   4.992
 4306SOL    HW113817   6.094   4.139   4.893
 4306SOL    HW213818   6.051   4.192   5.041
 4307SOL     OW13819   0.324   1.400   5.981
 4307SOL    HW113820   0.377   1.351   6.050
 4307SOL    HW213821   0.360   1.492   5.970
 4308SOL     OW13822   4.902   5.945   6.746
 4308SOL    HW113823   4.804   5.928   6.757
 4308SOL    HW213824   4.954   5.887   6.809
 4309SOL     OW13825   1.052   1.908   0.789
 4309SOL    HW113826   0.984   1.972   0.824
 4309SOL    HW213827   1.009   1.845   0.725
 4310SOL     OW13828   0.086   1.943   2.957
 4310SOL    HW113829   0.098   1.848   2.928
 4310SOL    HW213830   0.167   1.974   3.005
 4311SOL     OW13831   0.400   0.364   1.822
 4311SOL    HW113832   0.456   0.447   1.826
 4311SOL    HW213833   0.419   0.315   1.737
 4312SOL     OW13834   0.098   4.604   2.509
 4312SOL    HW113835   0.058   4.672   2.570
 4312SOL    HW213836   0.173   4.645   2.456
 4313SOL     OW13837   6.949   2.832   6.583
 4313SOL    HW113838   6.897   2.884   6.651
 4313SOL    HW213839   6.911   2.740   6.575
 4314SOL     OW13840   0.214   1.372   5.695
 4314SOL    HW113841   0.159   1.345   5.774
 4314SOL    HW213842   0.309   1.384   5.723
 4315SOL     OW13843   2.764   1.147   4.591
 4315SOL    HW113844   2.673   1.145   4.550
 4315SOL    HW213845   2.768   1.082   4.667
 4316SOL     OW13846   5.233   6.456   1.586
 4316SOL    HW113847   5.242   6.406   1.500
 4316SOL    HW213848   5.154   6.517   1.580
 4317SOL     OW13849   4.812   0.901   5.696
 4317SOL    HW113850   4.808   0.909   5.796
 4317SOL    HW213851   4.834   0.806   5.672
 4318SOL     OW13852   0.889   0.266   4.510
 4318SOL    HW113853   0.853   0.320   4.586
 4318SOL    HW213854   0.988   0.253   4.523
 4319SOL     OW13855   1.490   5.230   2.972
 4319SOL    HW113856   1.580   5.187   2.976
 4319SOL    HW213857   1.420   5.160   2.957
 4320SOL     OW13858   2.979   6.848   1.209
 4320SOL    HW113859   2.902   6.787   1.188
 4320SOL    HW213860   3.063   6.811   1.170
 4321SOL     OW13861   6.095   6.777   2.799
 4321SOL    HW113862   6.014   6.835   2.807
 4321SOL    HW213863   6.147   6.782   2.885
 4322SOL     OW13864   1.152   3.233   4.879
 4322SOL    HW113865   1.059   3.229   4.843
 4322SOL    HW213866   1.149   3.240   4.979
 4323SOL     OW13867   3.600   4.853   6.908
 4323SOL    HW113868   3.634   4.886   6.820
 4323SOL    HW213869   3.669   4.872   6.979
 4324SOL     OW13870   0.344   4.461   5.840
 4324SOL    HW113871   0.435   4.500   5.825
 4324SOL    HW213872   0.345   4.364   5.814
 4325SOL     OW13873   2.321   0.843   2.650
 4325SOL    HW113874   2.276   0.764   2.692
 4325SOL    HW213875   2.260   0.922   2.655
 4326SOL     OW13876   5.281   2.366   2.742
 4326SOL    HW113877   5.215   2.428   2.783
 4326SOL    HW213878   5.260   2.272   2.770
 4327SOL     OW13879   2.836   6.167   3.549
 4327SOL    HW113880   2.861   6.177   3.453
 4327SOL    HW213881   2.803   6.255   3.584
 4328SOL     OW13882   6.138   6.937   4.455
 4328SOL    HW113883   6.074   6.890   4.394
 4328SOL    HW213884   6.137   6.892   4.544
 4329SOL     OW13885   0.171   1.770   6.237
 4329SOL    HW113886   0.179   1.869   6.226
 4329SOL    HW213887   0.261   1.731   6.254
 4330SOL     OW13888   3.149   4.921   4.623
 4330SOL    HW113889   3.159   4.931   4.722
 4330SOL    HW213890   3.157   5.011   4.580
 4331SOL     OW13891   5.785   1.161   2.079
 4331SOL    HW113892   5.708   1.103   2.052
 4331SOL    HW213893   5.790   1.240   2.018
 4332SOL     OW13894   0.419   5.135   2.419
 4332SOL    HW113895   0.485   5.126   2.345
 4332SOL    HW213896   0.414   5.050   2.470
 4333SOL     OW13897   3.852   2.288   5.932
 4333SOL    HW113898   3.813   2.223   5.867
 4333SOL    HW213899   3.803   2.280   6.019
 4334SOL     OW13900   0.209   3.199   4.412
 4334SOL    HW113901   0.295   3.247   4.425
 4334SOL    HW213902   0.174   3.170   4.502
 4335SOL     OW13903   2.498   3.704   1.529
 4335SOL    HW113904   2.411   3.720   1.577
 4335SOL    HW213905   2.573   3.742   1.584
 4336SOL     OW13906   2.696   5.281   5.820
 4336SOL    HW113907   2.631   5.333   5.876
 4336SOL    HW213908   2.777   5.259   5.874
 4337SOL     OW13909   1.392   5.213   3.976
 4337SOL    HW113910   1.366   5.232   3.881
 4337SOL    HW213911   1.312   5.223   4.035
 4338SOL     OW13912   3.584   1.415   5.629
 4338SOL    HW113913   3.613   1.325   5.594
 4338SOL    HW213914   3.486   1.428   5.611
 4339SOL     OW13915   4.127   3.902   6.252
 4339SOL    HW113916   4.040   3.856   6.230
 4339SOL    HW213917   4.120   3.999   6.227
 4340SOL     OW13918   6.342   4.066   0.885
 4340SOL    HW113919   6.265   4.070   0.822
 4340SOL    HW213920   6.310   4.030   0.973
 4341SOL     OW13921   6.860   0.204   2.344
 4341SOL    HW113922   6.906   0.281   2.300
 4341SOL    HW213923   6.879   0.121   2.293
 4342SOL     OW13924   5.131   3.659   2.715
 4342SOL    HW113925   5.199   3.683   2.784
 4342SOL    HW213926   5.175   3.651   2.626
 4343SOL     OW13927   3.973   6.743   5.577
 4343SOL    HW113928   3.956   6.696   5.664
 4343SOL    HW213929   4.065   6.783   5.579
 4344SOL     OW13930   6.852   3.397   3.627
 4344SOL    HW113931   6.938   3.366   3.666
 4344SOL    HW213932   6.807   3.321   3.579
 4345SOL     OW13933   3.112   3.233   2.670
 4345SOL    HW113934   3.200   3.202   2.634
 4345SOL    HW213935   3.073   3.303   2.609
 4346SOL     OW13936   1.288   3.403   2.646
 4346SOL    HW113937   1.206   3.356   2.676
 4346SOL    HW213938   1.344   3.343   2.589
 4347SOL     OW13939   6.418   6.032   0.487
 4347SOL    HW113940   6.319   6.019   0.495
 4347SOL    HW213941   6.443   6.034   0.390
 4348SOL     OW13942   5.710   5.498   3.884
 4348SOL    HW113943   5.635   5.443   3.848
 4348SOL    HW213944   5.780   5.509   3.814
 4349SOL     OW13945   6.951   3.731   4.049
 4349SOL    HW113946   6.898   3.807   4.012
 4349SOL    HW213947   6.889   3.665   4.092
 4350SOL     OW13948   4.080   1.517   4.817
 4350SOL    HW113949   4.155   1.580   4.838
 4350SOL    HW213950   4.019   1.558   4.750
 4351SOL     OW13951   1.341   6.525   0.323
 4351SOL    HW113952   1.291   6.469   0.390
 4351SOL    HW213953   1.300   6.512   0.232
 4352SOL     OW13954   3.839   3.873   0.768
 4352SOL    HW113955   3.750   3.880   0.724
 4352SOL    HW213956   3.902   3.938   0.727
 4353SOL     OW13957   3.102   2.918   1.409
 4353SOL    HW113958   3.141   2.826   1.400
 4353SOL    HW213959   3.032   2.918   1.480
 4354SOL     OW13960   5.816   0.107   3.520
 4354SOL    HW113961   5.768   0.125   3.434
 4354SOL    HW213962   5.912   0.087   3.502
 4355SOL     OW13963   1.851   6.056   2.553
 4355SOL    HW113964   1.878   5.967   2.515
 4355SOL    HW213965   1.758   6.050   2.588
 4356SOL     OW13966   5.413   2.538   5.894
 4356SOL    HW113967   5.352   2.459   5.893
 4356SOL    HW213968   5.441   2.559   5.800
 4357SOL     OW13969   5.612   0.592   2.248
 4357SOL    HW113970   5.530   0.605   2.192
 4357SOL    HW213971   5.611   0.500   2.288
 4358SOL     OW13972   2.427   0.142   6.857
 4358SOL    HW113973   2.327   0.146   6.857
 4358SOL    HW213974   2.460   0.138   6.762
 4359SOL     OW13975   2.403   2.129   0.016
 4359SOL    HW113976   2.494   2.139   6.993
 4359SOL    HW213977   2.393   2.194   0.092
 4360SOL     OW13978   1.677   3.849   3.770
 4360SOL    HW113979   1.645   3.937   3.733
 4360SOL    HW213980   1.611   3.815   3.837
 4361SOL     OW13981   6.529   1.954   0.926
 4361SOL    HW113982   6.621   1.935   0.892
 4361SOL    HW213983   6.517   2.053   0.936
 4362SOL     OW13984   1.139   5.687   3.193
 4362SOL    HW113985   1.224   5.739   3.196
 4362SOL    HW213986   1.147   5.607   3.253
 4363SOL     OW13987   4.685   1.214   2.720
 4363SOL    HW113988   4.687   1.217   2.820
 4363SOL    HW213989   4.612   1.152   2.691
 4364SOL     OW13990   4.099   3.332   2.524
 4364SOL    HW113991   4.086   3.402   2.594
 4364SOL    HW213992   4.154   3.257   2.562
 4365SOL     OW13993   2.405   2.160   1.524
 4365SOL    HW113994   2.455   2.204   1.598
 4365SOL    HW213995   2.317   2.127   1.557
 4366SOL     OW13996   4.486   5.917   4.794
 4366SOL    HW113997   4.533   5.929   4.707
 4366SOL    HW213998   4.476   5.820   4.814
 4367SOL     OW13999   2.717   5.575   3.172
 4367SOL    HW114000   2.699   5.476   3.176
 4367SOL    HW214001   2.816   5.591   3.179
 4368SOL     OW14002   4.754   4.199   3.332
 4368SOL    HW114003   4.725   4.242   3.418
 4368SOL    HW214004   4.685   4.215   3.262
 4369SOL     OW14005   4.543   4.498   3.325
 4369SOL    HW114006   4.546   4.549   3.411
 4369SOL    HW214007   4.587   4.552   3.253
 4370SOL     OW14008   3.735   4.572   1.646
 4370SOL    HW114009   3.690   4.589   1.558
 4370SOL    HW214010   3.683   4.617   1.719
 4371SOL     OW14011   2.910   1.977   0.833
 4371SOL    HW114012   2.850   1.920   0.776
 4371SOL    HW214013   2.859   2.011   0.912
 4372SOL     OW14014   1.832   3.452   4.692
 4372SOL    HW114015   1.923   3.411   4.697
 4372SOL    HW214016   1.833   3.528   4.627
 4373SOL     OW14017   3.962   1.336   6.091
 4373SOL    HW114018   3.888   1.292   6.039
 4373SOL    HW214019   4.044   1.277   6.087
 4374SOL     OW14020   2.182   0.786   1.483
 4374SOL    HW114021   2.147   0.819   1.396
 4374SOL    HW214022   2.124   0.712   1.517
 4375SOL     OW14023   4.534   1.379   4.149
 4375SOL    HW114024   4.564   1.329   4.230
 4375SOL    HW214025   4.534   1.318   4.069
 4376SOL     OW14026   1.782   6.020   6.893
 4376SOL    HW114027   1.698   5.974   6.921
 4376SOL    HW214028   1.761   6.091   6.826
 4377SOL     OW14029   5.931   0.077   6.494
 4377SOL    HW114030   5.883   7.007   6.485
 4377SOL    HW214031   6.019   0.071   6.447
 4378SOL     OW14032   2.768   5.696   2.534
 4378SOL    HW114033   2.671   5.716   2.518
 4378SOL    HW214034   2.792   5.714   2.629
 4379SOL     OW14035   1.092   0.637   1.812
 4379SOL    HW114036   1.004   0.605   1.846
 4379SOL    HW214037   1.166   0.583   1.852
 4380SOL     OW14038   2.152   5.310   4.743
 4380SOL    HW114039   2.163   5.389   4.682
 4380SOL    HW214040   2.064   5.266   4.723
 4381SOL     OW14041   4.158   6.148   5.705
 4381SOL    HW114042   4.113   6.117   5.621
 4381SOL    HW214043   4.144   6.247   5.716
 4382SOL     OW14044   4.841   3.648   3.397
 4382SOL    HW114045   4.751   3.636   3.440
 4382SOL    HW214046   4.856   3.746   3.380
 4383SOL     OW14047   1.136   2.555   6.862
 4383SOL    HW114048   1.175   2.464   6.875
 4383SOL    HW214049   1.205   2.616   6.823
 4384SOL     OW14050   3.768   6.090   1.210
 4384SOL    HW114051   3.789   6.178   1.168
 4384SOL    HW214052   3.739   6.104   1.305
 4385SOL     OW14053   6.776   1.609   2.658
 4385SOL    HW114054   6.851   1.641   2.600
 4385SOL    HW214055   6.802   1.617   2.754
 4386SOL     OW14056   1.066   3.501   0.152
 4386SOL    HW114057   1.074   3.588   0.201
 4386SOL    HW214058   1.002   3.441   0.200
 4387SOL     OW14059   6.795   3.336   1.735
 4387SOL    HW114060   6.806   3.236   1.736
 4387SOL    HW214061   6.717   3.360   1.678
 4388SOL     OW14062   3.425   1.649   5.059
 4388SOL    HW114063   3.476   1.664   5.144
 4388SOL    HW214064   3.328   1.643   5.080
 4389SOL     OW14065   4.592   2.659   2.764
 4389SOL    HW114066   4.523   2.587   2.761
 4389SOL    HW214067   4.640   2.663   2.677
 4390SOL     OW14068   4.621   2.597   2.126
 4390SOL    HW114069   4.714   2.628   2.109
 4390SOL    HW214070   4.560   2.676   2.131
 4391SOL     OW14071   0.508   5.853   0.966
 4391SOL    HW114072   0.451   5.932   0.942
 4391SOL    HW214073   0.450   5.782   1.005
 4392SOL     OW14074   5.407   3.295   4.522
 4392SOL    HW114075   5.475   3.368   4.528
 4392SOL    HW214076   5.381   3.266   4.615
 4393SOL     OW14077   4.424   6.534   3.307
 4393SOL    HW114078   4.337   6.577   3.330
 4393SOL    HW214079   4.447   6.554   3.212
 4394SOL     OW14080   4.971   0.911   2.234
 4394SOL    HW114081   5.052   0.914   2.292
 4394SOL    HW214082   4.924   1.000   2.237
 4395SOL     OW14083   4.787   1.666   1.864
 4395SOL    HW114084   4.792   1.742   1.928
 4395SOL    HW214085   4.692   1.650   1.838
 4396SOL     OW14086   1.626   0.644   4.036
 4396SOL    HW114087   1.528   0.627   4.027
 4396SOL    HW214088   1.653   0.630   4.131
 4397SOL     OW14089   6.655   0.402   5.931
 4397SOL    HW114090   6.590   0.416   6.005
 4397SOL    HW214091   6.664   0.486   5.878
 4398SOL     OW14092   6.385   4.833   4.585
 4398SOL    HW114093   6.349   4.746   4.620
 4398SOL    HW214094   6.311   4.901   4.585
 4399SOL     OW14095   2.255   1.533   1.771
 4399SOL    HW114096   2.232   1.518   1.675
 4399SOL    HW214097   2.317   1.611   1.779
 4400SOL     OW14098   3.386   6.182   4.741
 4400SOL    HW114099   3.311   6.247   4.741
 4400SOL    HW214100   3.360   6.101   4.688
 4401SOL     OW14101   5.326   6.281   4.781
 4401SOL    HW114102   5.392   6.356   4.781
 4401SOL    HW214103   5.291   6.267   4.874
 4402SOL     OW14104   6.856   0.103   3.235
 4402SOL    HW114105   6.831   0.128   3.329
 4402SOL    HW214106   6.786   0.135   3.172
 4403SOL     OW14107   0.863   6.910   2.724
 4403SOL    HW114108   0.800   6.980   2.758
 4403SOL    HW214109   0.845   6.894   2.627
 4404SOL     OW14110   1.441   4.173   3.452
 4404SOL    HW114111   1.379   4.233   3.503
 4404SOL    HW214112   1.495   4.227   3.387
 4405SOL     OW14113   3.579   4.368   5.879
 4405SOL    HW114114   3.527   4.335   5.800
 4405SOL    HW214115   3.517   4.385   5.955
 4406SOL     OW14116   5.284   3.858   1.248
 4406SOL    HW114117   5.214   3.913   1.293
 4406SOL    HW214118   5.292   3.770   1.294
 4407SOL     OW14119   6.498   6.830   6.955
 4407SOL    HW114120   6.532   6.738   6.972
 4407SOL    HW214121   6.496   6.849   6.857
 4408SOL     OW14122   4.661   5.863   6.822
 4408SOL    HW114123   4.679   5.772   6.858
 4408SOL    HW214124   4.666   5.862   6.722
 4409SOL     OW14125   3.185   1.632   1.996
 4409SOL    HW114126   3.201   1.662   1.902
 4409SOL    HW214127   3.087   1.627   2.013
 4410SOL     OW14128   2.522   5.379   1.723
 4410SOL    HW114129   2.557   5.473   1.719
 4410SOL    HW214130   2.565   5.324   1.652
 4411SOL     OW14131   3.760   3.092   2.425
 4411SOL    HW114132   3.736   3.006   2.379
 4411SOL    HW214133   3.812   3.072   2.508
 4412SOL     OW14134   3.594   2.342   6.542
 4412SOL    HW114135   3.671   2.337   6.606
 4412SOL    HW214136   3.587   2.435   6.506
 4413SOL     OW14137   3.990   5.785   4.505
 4413SOL    HW114138   3.906   5.825   4.468
 4413SOL    HW214139   4.000   5.813   4.601
 4414SOL     OW14140   3.506   5.029   1.931
 4414SOL    HW114141   3.435   5.045   1.862
 4414SOL    HW214142   3.562   4.950   1.903
 4415SOL     OW14143   5.264   2.660   0.029
 4415SOL    HW114144   5.276   2.560   0.023
 4415SOL    HW214145   5.192   2.689   6.984
 4416SOL     OW14146   3.882   0.691   3.404
 4416SOL    HW114147   3.977   0.663   3.386
 4416SOL    HW214148   3.878   0.737   3.493
 4417SOL     OW14149   0.330   0.073   1.674
 4417SOL    HW114150   0.247   0.118   1.708
 4417SOL    HW214151   0.394   0.141   1.639
 4418SOL     OW14152   3.893   6.847   3.271
 4418SOL    HW114153   3.956   6.825   3.345
 4418SOL    HW214154   3.826   6.914   3.302
 4419SOL     OW14155   0.491   5.034   6.391
 4419SOL    HW114156   0.548   4.956   6.416
 4419SOL    HW214157   0.480   5.093   6.470
 4420SOL     OW14158   5.148   1.508   6.498
 4420SOL    HW114159   5.103   1.419   6.504
 4420SOL    HW214160   5.243   1.496   6.468
 4421SOL     OW14161   2.116   1.933   3.591
 4421SOL    HW114162   2.150   1.867   3.658
 4421SOL    HW214163   2.087   1.885   3.509
 4422SOL     OW14164   2.864   3.616   5.900
 4422SOL    HW114165   2.854   3.715   5.909
 4422SOL    HW214166   2.960   3.594   5.882
 4423SOL     OW14167   0.954   2.062   6.594
 4423SOL    HW114168   0.895   2.121   6.539
 4423SOL    HW214169   1.038   2.111   6.617
 4424SOL     OW14170   0.307   0.037   3.085
 4424SOL    HW114171   0.311   6.983   3.155
 4424SOL    HW214172   0.213   0.070   3.074
 4425SOL     OW14173   4.609   4.406   6.946
 4425SOL    HW114174   4.515   4.374   6.952
 4425SOL    HW214175   4.626   4.445   6.856
 4426SOL     OW14176   0.959   0.462   5.673
 4426SOL    HW114177   1.016   0.492   5.596
 4426SOL    HW214178   0.983   0.516   5.755
 4427SOL     OW14179   1.014   0.023   3.877
 4427SOL    HW114180   1.070   0.017   3.795
 4427SOL    HW214181   0.931   6.986   3.864
 4428SOL     OW14182   2.624   5.840   2.928
 4428SOL    HW114183   2.605   5.769   2.995
 4428SOL    HW214184   2.551   5.909   2.930
 4429SOL     OW14185   4.138   6.935   3.182
 4429SOL    HW114186   4.176   6.848   3.149
 4429SOL    HW214187   4.041   6.924   3.201
 4430SOL     OW14188   1.440   0.854   1.824
 4430SOL    HW114189   1.399   0.766   1.846
 4430SOL    HW214190   1.411   0.881   1.732
 4431SOL     OW14191   1.730   2.258   2.997
 4431SOL    HW114192   1.798   2.244   3.069
 4431SOL    HW214193   1.744   2.348   2.956
 4432SOL     OW14194   2.971   3.660   2.863
 4432SOL    HW114195   2.899   3.660   2.933
 4432SOL    HW214196   3.036   3.586   2.881
 4433SOL     OW14197   6.254   0.243   3.072
 4433SOL    HW114198   6.229   0.208   2.982
 4433SOL    HW214199   6.352   0.263   3.074
 4434SOL     OW14200   5.380   2.140   4.642
 4434SOL    HW114201   5.477   2.163   4.628
 4434SOL    HW214202   5.366   2.113   4.737
 4435SOL     OW14203   3.716   2.727   1.751
 4435SOL    HW114204   3.746   2.807   1.699
 4435SOL    HW214205   3.621   2.706   1.728
 4436SOL     OW14206   5.055   1.028   0.006
 4436SOL    HW114207   5.048   1.116   6.976
 4436SOL    HW214208   5.045   0.954   6.956
 4437SOL     OW14209   3.226   7.009   4.664
 4437SOL    HW114210   3.237   0.003   4.565
 4437SOL    HW214211   3.301   0.038   4.711
 4438SOL     OW14212   4.195   3.264   6.235
 4438SOL    HW114213   4.282   3.215   6.236
 4438SOL    HW214214   4.127   3.210   6.185
 4439SOL     OW14215   2.622   5.733   2.031
 4439SOL    HW114216   2.526   5.760   2.039
 4439SOL    HW214217   2.656   5.756   1.940
 4440SOL     OW14218   0.179   0.750   6.124
 4440SOL    HW114219   0.271   0.733   6.161
 4440SOL    HW214220   0.111   0.731   6.196
 4441SOL     OW14221   6.278   2.578   2.849
 4441SOL    HW114222   6.282   2.478   2.854
 4441SOL    HW214223   6.217   2.605   2.774
 4442SOL     OW14224   3.030   6.787   2.767
 4442SOL    HW114225   2.956   6.792   2.700
 4442SOL    HW214226   3.064   6.693   2.773
 4443SOL     OW14227   2.575   1.765   5.243
 4443SOL    HW114228   2.595   1.857   5.210
 4443SOL    HW214229   2.483   1.737   5.213
 4444SOL     OW14230   5.134   0.461   2.105
 4444SOL    HW114231   5.131   0.433   2.201
 4444SOL    HW214232   5.093   0.552   2.095
 4445SOL     OW14233   1.651   1.054   6.227
 4445SOL    HW114234   1.751   1.056   6.230
 4445SOL    HW214235   1.614   1.129   6.282
 4446SOL     OW14236   6.717   6.130   3.630
 4446SOL    HW114237   6.789   6.116   3.562
 4446SOL    HW214238   6.741   6.206   3.690
 4447SOL     OW14239   5.226   2.831   5.459
 4447SOL    HW114240   5.244   2.861   5.552
 4447SOL    HW214241   5.147   2.770   5.458
 4448SOL     OW14242   2.728   2.883   6.411
 4448SOL    HW114243   2.688   2.974   6.423
 4448SOL    HW214244   2.724   2.857   6.315
 4449SOL     OW14245   0.870   1.366   4.971
 4449SOL    HW114246   0.942   1.434   4.966
 4449SOL    HW214247   0.790   1.405   5.017
 4450SOL     OW14248   3.664   4.065   3.529
 4450SOL    HW114249   3.585   4.085   3.588
 4450SOL    HW214250   3.648   4.104   3.438
 4451SOL     OW14251   6.212   4.299   2.186
 4451SOL    HW114252   6.195   4.387   2.230
 4451SOL    HW214253   6.132   4.272   2.132
 4452SOL     OW14254   6.273   5.794   6.408
 4452SOL    HW114255   6.321   5.805   6.495
 4452SOL    HW214256   6.224   5.878   6.386
 4453SOL     OW14257   5.660   1.925   1.384
 4453SOL    HW114258   5.730   1.986   1.347
 4453SOL    HW214259   5.603   1.890   1.309
 4454SOL     OW14260   5.053   3.255   1.737
 4454SOL    HW114261   5.027   3.254   1.833
 4454SOL    HW214262   5.070   3.161   1.706
 4455SOL     OW14263   4.246   1.395   1.921
 4455SOL    HW114264   4.305   1.315   1.914
 4455SOL    HW214265   4.157   1.375   1.881
 4456SOL     OW14266   0.851   5.700   3.157
 4456SOL    HW114267   0.850   5.795   3.125
 4456SOL    HW214268   0.945   5.671   3.173
 4457SOL     OW14269   5.523   2.140   6.492
 4457SOL    HW114270   5.464   2.218   6.471
 4457SOL    HW214271   5.468   2.068   6.535
 4458SOL     OW14272   3.906   2.032   5.803
 4458SOL    HW114273   3.968   2.035   5.881
 4458SOL    HW214274   3.839   1.958   5.817
 4459SOL     OW14275   4.883   5.873   5.058
 4459SOL    HW114276   4.924   5.841   4.973
 4459SOL    HW214277   4.856   5.969   5.049
 4460SOL     OW14278   1.769   1.732   6.112
 4460SOL    HW114279   1.817   1.678   6.043
 4460SOL    HW214280   1.832   1.797   6.153
 4461SOL     OW14281   2.402   0.205   1.985
 4461SOL    HW114282   2.327   0.214   1.920
 4461SOL    HW214283   2.479   0.263   1.956
 4462SOL     OW14284   7.002   5.475   1.851
 4462SOL    HW114285   6.912   5.518   1.860
 4462SOL    HW214286   0.053   5.546   1.830
 4463SOL     OW14287   1.316   3.641   6.093
 4463SOL    HW114288   1.354   3.729   6.065
 4463SOL    HW214289   1.217   3.648   6.100
 4464SOL     OW14290   5.792   3.332   6.629
 4464SOL    HW114291   5.785   3.273   6.549
 4464SOL    HW214292   5.702   3.341   6.672
 4465SOL     OW14293   1.366   6.093   2.283
 4465SOL    HW114294   1.357   6.003   2.239
 4465SOL    HW214295   1.435   6.146   2.234
 4466SOL     OW14296   0.808   2.116   3.722
 4466SOL    HW114297   0.711   2.134   3.740
 4466SOL    HW214298   0.829   2.137   3.627
 4467SOL     OW14299   0.927   6.856   3.129
 4467SOL    HW114300   0.949   6.951   3.103
 4467SOL    HW214301   0.914   6.801   3.047
 4468SOL     OW14302   1.268   2.502   0.481
 4468SOL    HW114303   1.356   2.543   0.457
 4468SOL    HW214304   1.207   2.571   0.519
 4469SOL     OW14305   4.249   0.550   0.170
 4469SOL    HW114306   4.186   0.552   0.093
 4469SOL    HW214307   4.197   0.559   0.255
 4470SOL     OW14308   4.514   4.488   1.444
 4470SOL    HW114309   4.576   4.487   1.522
 4470SOL    HW214310   4.480   4.395   1.426
 4471SOL     OW14311   6.519   3.343   0.839
 4471SOL    HW114312   6.554   3.401   0.766
 4471SOL    HW214313   6.486   3.256   0.801
 4472SOL     OW14314   1.774   4.645   1.933
 4472SOL    HW114315   1.807   4.676   2.023
 4472SOL    HW214316   1.697   4.583   1.946
 4473SOL     OW14317   0.385   6.699   5.271
 4473SOL    HW114318   0.335   6.785   5.254
 4473SOL    HW214319   0.455   6.687   5.201
 4474SOL     OW14320   4.904   0.451   3.690
 4474SOL    HW114321   4.981   0.512   3.711
 4474SOL    HW214322   4.819   0.496   3.717
 4475SOL     OW14323   1.837   4.023   0.404
 4475SOL    HW114324   1.815   3.974   0.320
 4475SOL    HW214325   1.812   3.967   0.483
 4476SOL     OW14326   4.755   6.533   1.944
 4476SOL    HW114327   4.764   6.611   2.006
 4476SOL    HW214328   4.833   6.531   1.881
 4477SOL     OW14329   1.362   1.496   0.768
 4477SOL    HW114330   1.446   1.527   0.813
 4477SOL    HW214331   1.346   1.551   0.686
 4478SOL     OW14332   2.107   5.898   1.720
 4478SOL    HW114333   2.197   5.866   1.690
 4478SOL    HW214334   2.098   5.885   1.818
 4479SOL     OW14335   0.682   6.974   5.062
 4479SOL    HW114336   0.654   6.984   4.967
 4479SOL    HW214337   0.601   6.963   5.120
 4480SOL     OW14338   0.722   4.556   3.566
 4480SOL    HW114339   0.642   4.548   3.506
 4480SOL    HW214340   0.803   4.519   3.519
 4481SOL     OW14341   1.216   0.015   4.609
 4481SOL    HW114342   1.246   7.000   4.519
 4481SOL    HW214343   1.182   0.109   4.601
 4482SOL     OW14344   6.977   4.117   4.052
 4482SOL    HW114345   6.972   4.050   4.126
 4482SOL    HW214346   7.011   4.204   4.088
 4483SOL     OW14347   5.623   2.633   2.111
 4483SOL    HW114348   5.563   2.554   2.124
 4483SOL    HW214349   5.636   2.680   2.198
 4484SOL     OW14350   4.103   2.691   5.572
 4484SOL    HW114351   4.101   2.713   5.474
 4484SOL    HW214352   4.036   2.747   5.620
 4485SOL     OW14353   5.110   1.587   6.223
 4485SOL    HW114354   5.128   1.592   6.321
 4485SOL    HW214355   5.103   1.492   6.195
 4486SOL     OW14356   6.151   2.801   4.107
 4486SOL    HW114357   6.222   2.865   4.137
 4486SOL    HW214358   6.124   2.824   4.013
 4487SOL     OW14359   3.444   3.073   6.439
 4487SOL    HW114360   3.372   3.004   6.435
 4487SOL    HW214361   3.434   3.137   6.363
 4488SOL     OW14362   0.401   1.426   5.213
 4488SOL    HW114363   0.327   1.422   5.146
 4488SOL    HW214364   0.386   1.356   5.283
 4489SOL     OW14365   6.287   0.011   4.165
 4489SOL    HW114366   6.243   6.941   4.144
 4489SOL    HW214367   6.316   0.012   4.260
 4490SOL     OW14368   6.911   2.201   3.634
 4490SOL    HW114369   6.906   2.255   3.718
 4490SOL    HW214370   6.945   2.109   3.656
 4491SOL     OW14371   1.244   3.143   2.918
 4491SOL    HW114372   1.337   3.162   2.952
 4491SOL    HW214373   1.188   3.110   2.994
 4492SOL     OW14374   4.553   3.340   6.659
 4492SOL    HW114375   4.628   3.351   6.724
 4492SOL    HW214376   4.564   3.254   6.609
 4493SOL     OW14377   5.967   5.276   4.124
 4493SOL    HW114378   6.023   5.321   4.053
 4493SOL    HW214379   6.026   5.250   4.201
 4494SOL     OW14380   6.277   4.062   4.173
 4494SOL    HW114381   6.256   3.965   4.183
 4494SOL    HW214382   6.210   4.116   4.224
 4495SOL     OW14383   5.048   6.492   1.034
 4495SOL    HW114384   4.967   6.438   1.013
 4495SOL    HW214385   5.030   6.550   1.113
 4496SOL     OW14386   5.133   3.881   5.337
 4496SOL    HW114387   5.150   3.927   5.424
 4496SOL    HW214388   5.057   3.926   5.291
 4497SOL     OW14389   6.077   5.014   0.376
 4497SOL    HW114390   6.028   4.933   0.344
 4497SOL    HW214391   6.012   5.087   0.394
 4498SOL     OW14392   0.237   3.883   0.016
 4498SOL    HW114393   0.299   3.820   0.063
 4498SOL    HW214394   0.265   3.893   6.938
 4499SOL     OW14395   0.004   3.020   6.028
 4499SOL    HW114396   0.002   2.927   6.065
 4499SOL    HW214397   7.000   3.085   6.101
 4500SOL     OW14398   3.358   4.176   4.462
 4500SOL    HW114399   3.290   4.118   4.416
 4500SOL    HW214400   3.437   4.189   4.401
 4501SOL     OW14401   0.750   4.060   4.745
 4501SOL    HW114402   0.665   4.102   4.714
 4501SOL    HW214403   0.801   4.025   4.666
 4502SOL     OW14404   0.397   3.236   0.255
 4502SOL    HW114405   0.354   3.313   0.302
 4502SOL    HW214406   0.393   3.252   0.156
 4503SOL     OW14407   1.755   1.712   3.532
 4503SOL    HW114408   1.680   1.707   3.467
 4503SOL    HW214409   1.738   1.787   3.596
 4504SOL     OW14410   5.145   1.833   4.954
 4504SOL    HW114411   5.143   1.838   4.854
 4504SOL    HW214412   5.065   1.783   4.987
 4505SOL     OW14413   1.812   5.504   5.916
 4505SOL    HW114414   1.894   5.553   5.886
 4505SOL    HW214415   1.801   5.516   6.015
 4506SOL     OW14416   4.013   0.181   5.623
 4506SOL    HW114417   3.924   0.216   5.591
 4506SOL    HW214418   4.086   0.240   5.588
 4507SOL     OW14419   6.285   4.438   0.571
 4507SOL    HW114420   6.375   4.482   0.567
 4507SOL    HW214421   6.236   4.469   0.652
 4508SOL     OW14422   1.492   3.763   0.470
 4508SOL    HW114423   1.416   3.742   0.409
 4508SOL    HW214424   1.571   3.707   0.445
 4509SOL     OW14425   1.755   1.592   3.979
 4509SOL    HW114426   1.776   1.689   3.970
 4509SOL    HW214427   1.688   1.565   3.910
 4510SOL     OW14428   3.899   6.613   5.078
 4510SOL    HW114429   3.953   6.594   5.160
 4510SOL    HW214430   3.867   6.527   5.038
 4511SOL     OW14431   5.982   2.418   0.376
 4511SOL    HW114432   6.011   2.327   0.406
 4511SOL    HW214433   5.987   2.481   0.453
 4512SOL     OW14434   2.523   5.134   0.078
 4512SOL    HW114435   2.489   5.161   7.005
 4512SOL    HW214436   2.455   5.157   0.147
 4513SOL     OW14437   4.973   0.874   1.836
 4513SOL    HW114438   5.012   0.858   1.927
 4513SOL    HW214439   4.907   0.949   1.841
 4514SOL     OW14440   3.655   1.644   4.824
 4514SOL    HW114441   3.644   1.672   4.920
 4514SOL    HW214442   3.753   1.633   4.804
 4515SOL     OW14443   0.451   5.031   1.240
 4515SOL    HW114444   0.358   5.055   1.213
 4515SOL    HW214445   0.475   5.079   1.325
 4516SOL     OW14446   1.103   0.651   5.041
 4516SOL    HW114447   1.083   0.749   5.048
 4516SOL    HW214448   1.060   0.603   5.117
 4517SOL     OW14449   3.378   6.775   5.287
 4517SOL    HW114450   3.455   6.728   5.331
 4517SOL    HW214451   3.306   6.709   5.267
 4518SOL     OW14452   1.073   1.998   4.567
 4518SOL    HW114453   1.158   2.047   4.551
 4518SOL    HW214454   1.045   1.950   4.484
 4519SOL     OW14455   6.413   3.015   3.883
 4519SOL    HW114456   6.409   3.028   3.982
 4519SOL    HW214457   6.387   3.100   3.837
 4520SOL     OW14458   6.794   3.843   2.758
 4520SOL    HW114459   6.869   3.900   2.725
 4520SOL    HW214460   6.708   3.876   2.719
 4521SOL     OW14461   6.171   2.140   6.681
 4521SOL    HW114462   6.237   2.067   6.699
 4521SOL    HW214463   6.078   2.107   6.700
 4522SOL     OW14464   5.854   0.471   3.909
 4522SOL    HW114465   5.770   0.521   3.892
 4522SOL    HW214466   5.853   0.435   4.003
 4523SOL     OW14467   3.957   3.451   6.910
 4523SOL    HW114468   3.994   3.531   6.864
 4523SOL    HW214469   4.015   3.426   6.987
 4524SOL     OW14470   6.048   6.692   4.830
 4524SOL    HW114471   6.135   6.710   4.783
 4524SOL    HW214472   6.050   6.730   4.922
 4525SOL     OW14473   6.779   1.574   4.889
 4525SOL    HW114474   6.700   1.535   4.840
 4525SOL    HW214475   6.768   1.673   4.895
 4526SOL     OW14476   4.619   0.473   0.859
 4526SOL    HW114477   4.524   0.495   0.878
 4526SOL    HW214478   4.677   0.552   0.877
 4527SOL     OW14479   4.948   0.704   2.846
 4527SOL    HW114480   4.879   0.637   2.816
 4527SOL    HW214481   4.906   0.794   2.854
 4528SOL     OW14482   6.078   0.168   6.710
 4528SOL    HW114483   6.021   0.230   6.763
 4528SOL    HW214484   6.022   0.123   6.640
 4529SOL     OW14485   3.646   6.220   2.825
 4529SOL    HW114486   3.728   6.171   2.794
 4529SOL    HW214487   3.567   6.159   2.819
 4530SOL     OW14488   0.560   3.316   5.389
 4530SOL    HW114489   0.609   3.287   5.307
 4530SOL    HW214490   0.614   3.291   5.470
 4531SOL     OW14491   0.200   3.824   4.012
 4531SOL    HW114492   0.244   3.877   4.084
 4531SOL    HW214493   0.113   3.787   4.045
 4532SOL     OW14494   5.999   1.599   0.811
 4532SOL    HW114495   5.994   1.591   0.910
 4532SOL    HW214496   6.017   1.694   0.786
 4533SOL     OW14497   2.753   6.192   2.783
 4533SOL    HW114498   2.671   6.249   2.781
 4533SOL    HW214499   2.832   6.246   2.753
 4534SOL     OW14500   6.212   3.931   5.230
 4534SOL    HW114501   6.219   3.978   5.142
 4534SOL    HW214502   6.186   3.836   5.215
 4535SOL     OW14503   4.885   2.902   1.848
 4535SOL    HW114504   4.821   2.938   1.916
 4535SOL    HW214505   4.871   2.804   1.838
 4536SOL     OW14506   6.679   1.006   4.485
 4536SOL    HW114507   6.691   0.998   4.386
 4536SOL    HW214508   6.594   0.961   4.512
 4537SOL     OW14509   3.576   2.861   6.215
 4537SOL    HW114510   3.542   2.795   6.283
 4537SOL    HW214511   3.648   2.819   6.161
 4538SOL     OW14512   2.934   1.117   2.906
 4538SOL    HW114513   2.896   1.210   2.909
 4538SOL    HW214514   3.029   1.120   2.876
 4539SOL     OW14515   1.870   1.324   2.844
 4539SOL    HW114516   1.945   1.278   2.797
 4539SOL    HW214517   1.829   1.392   2.783
 4540SOL     OW14518   3.351   3.017   4.397
 4540SOL    HW114519   3.443   3.031   4.361
 4540SOL    HW214520   3.342   3.062   4.486
 4541SOL     OW14521   5.055   1.505   1.417
 4541SOL    HW114522   5.155   1.494   1.421
 4541SOL    HW214523   5.013   1.414   1.415
 4542SOL     OW14524   4.542   0.478   3.016
 4542SOL    HW114525   4.524   0.498   3.112
 4542SOL    HW214526   4.506   0.388   2.992
 4543SOL     OW14527   5.699   1.564   1.753
 4543SOL    HW114528   5.742   1.626   1.688
 4543SOL    HW214529   5.613   1.605   1.785
 4544SOL     OW14530   3.591   4.915   6.158
 4544SOL    HW114531   3.690   4.929   6.152
 4544SOL    HW214532   3.555   4.893   6.067
 4545SOL     OW14533   4.021   2.150   5.573
 4545SOL    HW114534   3.954   2.122   5.641
 4545SOL    HW214535   4.098   2.085   5.574
 4546SOL     OW14536   1.366   6.226   6.174
 4546SOL    HW114537   1.309   6.217   6.256
 4546SOL    HW214538   1.307   6.237   6.094
 4547SOL     OW14539   4.717   1.893   2.097
 4547SOL    HW114540   4.655   1.902   2.019
 4547SOL    HW214541   4.668   1.914   2.181
 4548SOL     OW14542   1.123   3.524   3.678
 4548SOL    HW114543   1.041   3.580   3.667
 4548SOL    HW214544   1.103   3.430   3.652
 4549SOL     OW14545   6.415   2.943   2.639
 4549SOL    HW114546   6.477   2.874   2.678
 4549SOL    HW214547   6.394   2.918   2.545
 4550SOL     OW14548   1.290   6.143   4.149
 4550SOL    HW114549   1.231   6.168   4.226
 4550SOL    HW214550   1.374   6.101   4.184
 4551SOL     OW14551   0.960   2.863   5.589
 4551SOL    HW114552   0.883   2.829   5.536
 4551SOL    HW214553   0.928   2.899   5.676
 4552SOL     OW14554   0.176   3.478   4.852
 4552SOL    HW114555   0.179   3.423   4.935
 4552SOL    HW214556   0.248   3.547   4.855
 4553SOL     OW14557   5.045   4.980   0.209
 4553SOL    HW114558   5.106   4.929   0.270
 4553SOL    HW214559   5.041   5.075   0.237
 4554SOL     OW14560   5.176   6.721   2.794
 4554SOL    HW114561   5.152   6.780   2.717
 4554SOL    HW214562   5.109   6.647   2.801
 4555SOL     OW14563   5.411   1.941   6.869
 4555SOL    HW114564   5.471   1.963   6.946
 4555SOL    HW214565   5.322   1.912   6.903
 4556SOL     OW14566   4.921   0.941   4.129
 4556SOL    HW114567   4.917   0.859   4.071
 4556SOL    HW214568   4.905   1.022   4.072
 4557SOL     OW14569   5.114   0.028   5.517
 4557SOL    HW114570   5.072   0.030   5.607
 4557SOL    HW214571   5.152   6.954   5.499
 4558SOL     OW14572   6.492   3.345   6.585
 4558SOL    HW114573   6.532   3.349   6.494
 4558SOL    HW214574   6.392   3.346   6.578
 4559SOL     OW14575   1.057   6.732   1.279
 4559SOL    HW114576   1.029   6.776   1.194
 4559SOL    HW214577   0.996   6.759   1.353
 4560SOL     OW14578   5.093   3.452   3.031
 4560SOL    HW114579   5.027   3.526   3.016
 4560SOL    HW214580   5.059   3.392   3.104
 4561SOL     OW14581   3.186   0.175   6.596
 4561SOL    HW114582   3.277   0.200   6.630
 4561SOL    HW214583   3.195   0.111   6.520
 4562SOL     OW14584   2.740   4.801   6.556
 4562SOL    HW114585   2.789   4.823   6.472
 4562SOL    HW214586   2.709   4.886   6.600
 4563SOL     OW14587   6.456   2.592   6.836
 4563SOL    HW114588   6.470   2.495   6.856
 4563SOL    HW214589   6.483   2.611   6.741
 4564SOL     OW14590   1.838   5.792   0.328
 4564SOL    HW114591   1.887   5.811   0.243
 4564SOL    HW214592   1.851   5.696   0.353
 4565SOL     OW14593   2.331   0.455   5.316
 4565SOL    HW114594   2.396   0.381   5.330
 4565SOL    HW214595   2.328   0.513   5.397
 4566SOL     OW14596   0.198   1.718   6.783
 4566SOL    HW114597   0.142   1.694   6.704
 4566SOL    HW214598   0.254   1.798   6.761
 4567SOL     OW14599   0.222   1.121   0.921
 4567SOL    HW114600   0.279   1.040   0.935
 4567SOL    HW214601   0.269   1.184   0.859
 4568SOL     OW14602   3.688   4.302   5.257
 4568SOL    HW114603   3.588   4.302   5.261
 4568SOL    HW214604   3.718   4.251   5.176
 4569SOL     OW14605   0.504   2.224   4.938
 4569SOL    HW114606   0.410   2.236   4.908
 4569SOL    HW214607   0.549   2.155   4.881
 4570SOL     OW14608   0.909   5.132   3.805
 4570SOL    HW114609   0.838   5.197   3.780
 4570SOL    HW214610   0.953   5.161   3.890
 4571SOL     OW14611   3.479   2.886   4.823
 4571SOL    HW114612   3.427   2.869   4.906
 4571SOL    HW214613   3.483   2.984   4.805
 4572SOL     OW14614   1.695   6.151   1.090
 4572SOL    HW114615   1.609   6.179   1.047
 4572SOL    HW214616   1.684   6.060   1.131
 4573SOL     OW14617   5.217   6.962   1.014
 4573SOL    HW114618   5.153   6.928   0.946
 4573SOL    HW214619   5.309   6.929   0.994
 4574SOL     OW14620   0.475   4.638   2.188
 4574SOL    HW114621   0.530   4.706   2.237
 4574SOL    HW214622   0.528   4.555   2.175
 4575SOL     OW14623   5.956   0.475   2.768
 4575SOL    HW114624   5.956   0.381   2.736
 4575SOL    HW214625   5.998   0.534   2.699
 4576SOL     OW14626   2.928   5.918   5.508
 4576SOL    HW114627   2.985   5.911   5.589
 4576SOL    HW214628   2.847   5.974   5.529
 4577SOL     OW14629   0.959   2.775   3.384
 4577SOL    HW114630   0.985   2.761   3.480
 4577SOL    HW214631   1.029   2.737   3.325
 4578SOL     OW14632   6.702   4.208   3.998
 4578SOL    HW114633   6.799   4.183   3.993
 4578SOL    HW214634   6.653   4.139   4.051
 4579SOL     OW14635   5.981   1.685   3.749
 4579SOL    HW114636   5.947   1.593   3.726
 4579SOL    HW214637   5.910   1.735   3.799
 4580SOL     OW14638   6.906   5.754   0.598
 4580SOL    HW114639   6.831   5.730   0.659
 4580SOL    HW214640   6.933   5.673   0.545
 4581SOL     OW14641   3.421   6.047   2.842
 4581SOL    HW114642   3.433   6.006   2.751
 4581SOL    HW214643   3.323   6.051   2.864
 4582SOL     OW14644   4.909   6.361   2.240
 4582SOL    HW114645   4.891   6.307   2.323
 4582SOL    HW214646   4.835   6.428   2.228
 4583SOL     OW14647   4.365   1.765   5.890
 4583SOL    HW114648   4.317   1.853   5.888
 4583SOL    HW214649   4.308   1.696   5.934
 4584SOL     OW14650   0.552   5.562   5.489
 4584SOL    HW114651   0.528   5.501   5.565
 4584SOL    HW214652   0.603   5.640   5.523
 4585SOL     OW14653   3.822   6.377   2.543
 4585SOL    HW114654   3.730   6.393   2.509
 4585SOL    HW214655   3.872   6.319   2.479
 4586SOL     OW14656   3.523   5.334   2.305
 4586SOL    HW114657   3.437   5.283   2.298
 4586SOL    HW214658   3.570   5.332   2.217
 4587SOL     OW14659   2.102   4.264   1.885
 4587SOL    HW114660   2.183   4.253   1.942
 4587SOL    HW214661   2.129   4.280   1.790
 4588SOL     OW14662   4.303   3.699   5.239
 4588SOL    HW114663   4.296   3.680   5.141
 4588SOL    HW214664   4.224   3.752   5.269
 4589SOL     OW14665   6.560   2.472   4.796
 4589SOL    HW114666   6.463   2.496   4.795
 4589SOL    HW214667   6.574   2.393   4.855
 4590SOL     OW14668   4.790   5.642   2.304
 4590SOL    HW114669   4.886   5.630   2.328
 4590SOL    HW214670   4.783   5.693   2.218
 4591SOL     OW14671   5.523   6.063   5.629
 4591SOL    HW114672   5.493   6.136   5.691
 4591SOL    HW214673   5.525   6.098   5.535
 4592SOL     OW14674   3.745   2.098   6.439
 4592SOL    HW114675   3.751   2.007   6.479
 4592SOL    HW214676   3.673   2.150   6.484
 4593SOL     OW14677   3.949   5.850   2.645
 4593SOL    HW114678   3.872   5.844   2.709
 4593SOL    HW214679   3.984   5.944   2.644
 4594SOL     OW14680   2.493   1.044   1.718
 4594SOL    HW114681   2.573   0.993   1.686
 4594SOL    HW214682   2.514   1.142   1.717
 4595SOL     OW14683   3.766   2.744   6.042
 4595SOL    HW114684   3.779   2.806   5.965
 4595SOL    HW214685   3.837   2.674   6.041
 4596SOL     OW14686   5.680   0.036   1.678
 4596SOL    HW114687   5.636   0.097   1.745
 4596SOL    HW214688   5.686   0.083   1.590
 4597SOL     OW14689   6.281   4.921   6.754
 4597SOL    HW114690   6.200   4.930   6.813
 4597SOL    HW214691   6.363   4.941   6.808
 4598SOL     OW14692   2.801   4.665   6.979
 4598SOL    HW114693   2.753   4.697   6.898
 4598SOL    HW214694   2.751   4.588   0.003
 4599SOL     OW14695   1.334   4.562   0.470
 4599SOL    HW114696   1.332   4.492   0.399
 4599SOL    HW214697   1.385   4.642   0.437
 4600SOL     OW14698   3.139   5.802   1.163
 4600SOL    HW114699   3.183   5.773   1.078
 4600SOL    HW214700   3.195   5.873   1.207
 4601SOL     OW14701   2.122   5.957   5.224
 4601SOL    HW114702   2.169   5.879   5.183
 4601SOL    HW214703   2.142   6.040   5.171
 4602SOL     OW14704   1.806   0.522   1.225
 4602SOL    HW114705   1.825   0.426   1.203
 4602SOL    HW214706   1.865   0.581   1.170
 4603SOL     OW14707   3.692   6.739   1.646
 4603SOL    HW114708   3.761   6.776   1.708
 4603SOL    HW214709   3.606   6.789   1.658
 4604SOL     OW14710   3.562   6.963   2.504
 4604SOL    HW114711   3.621   6.924   2.575
 4604SOL    HW214712   3.476   6.912   2.501
 4605SOL     OW14713   5.211   6.926   4.641
 4605SOL    HW114714   5.233   6.975   4.726
 4605SOL    HW214715   5.249   6.976   4.563
 4606SOL     OW14716   0.078   6.197   5.607
 4606SOL    HW114717   0.026   6.277   5.578
 4606SOL    HW214718   0.173   6.223   5.622
 4607SOL     OW14719   3.125   2.085   1.167
 4607SOL    HW114720   3.091   2.084   1.261
 4607SOL    HW214721   3.205   2.025   1.160
 4608SOL     OW14722   1.660   3.998   5.296
 4608SOL    HW114723   1.616   4.026   5.381
 4608SOL    HW214724   1.619   4.047   5.219
 4609SOL     OW14725   4.420   6.704   6.607
 4609SOL    HW114726   4.355   6.681   6.679
 4609SOL    HW214727   4.504   6.740   6.648
 4610SOL     OW14728   0.499   3.230   6.708
 4610SOL    HW114729   0.466   3.147   6.753
 4610SOL    HW214730   0.441   3.250   6.629
 4611SOL     OW14731   0.727   4.053   0.393
 4611SOL    HW114732   0.772   4.117   0.331
 4611SOL    HW214733   0.794   3.991   0.433
 4612SOL     OW14734   2.262   6.883   6.805
 4612SOL    HW114735   2.305   6.882   6.896
 4612SOL    HW214736   2.304   6.812   6.748
 4613SOL     OW14737   3.268   5.183   2.221
 4613SOL    HW114738   3.279   5.085   2.205
 4613SOL    HW214739   3.236   5.228   2.138
 4614SOL     OW14740   1.631   5.518   0.390
 4614SOL    HW114741   1.542   5.501   0.432
 4614SOL    HW214742   1.619   5.535   0.292
 4615SOL     OW14743   0.419   2.238   0.418
 4615SOL    HW114744   0.414   2.303   0.342
 4615SOL    HW214745   0.500   2.181   0.408
 4616SOL     OW14746   5.500   0.938   6.664
 4616SOL    HW114747   5.425   0.934   6.598
 4616SOL    HW214748   5.463   0.958   6.755
 4617SOL     OW14749   0.282   2.977   2.257
 4617SOL    HW114750   0.194   2.930   2.257
 4617SOL    HW214751   0.276   3.057   2.197
 4618SOL     OW14752   1.021   2.351   6.027
 4618SOL    HW114753   0.979   2.288   5.962
 4618SOL    HW214754   0.998   2.324   6.120
 4619SOL     OW14755   3.514   0.868   3.796
 4619SOL    HW114756   3.548   0.774   3.799
 4619SOL    HW214757   3.424   0.872   3.841
 4620SOL     OW14758   2.241   3.982   6.618
 4620SOL    HW114759   2.334   4.018   6.629
 4620SOL    HW214760   2.226   3.909   6.684
 4621SOL     OW14761   0.007   5.924   6.292
 4621SOL    HW114762   6.952   5.875   6.244
 4621SOL    HW214763   7.000   6.020   6.300
 4622SOL     OW14764   2.321   3.812   1.297
 4622SOL    HW114765   2.394   3.846   1.357
 4622SOL    HW214766   2.255   3.761   1.351
 4623SOL     OW14767   6.075   4.551   2.009
 4623SOL    HW114768   6.142   4.580   2.077
 4623SOL    HW214769   6.025   4.631   1.975
 4624SOL     OW14770   4.898   6.832   4.870
 4624SOL    HW114771   4.960   6.782   4.809
 4624SOL    HW214772   4.814   6.855   4.820
 4625SOL     OW14773   0.908   3.426   6.927
 4625SOL    HW114774   0.938   3.419   6.832
 4625SOL    HW214775   0.986   3.420   6.988
 4626SOL     OW14776   6.441   5.254   1.424
 4626SOL    HW114777   6.374   5.259   1.498
 4626SOL    HW214778   6.531   5.281   1.457
 4627SOL     OW14779   3.215   6.773   6.195
 4627SOL    HW114780   3.282   6.779   6.268
 4627SOL    HW214781   3.245   6.706   6.127
 4628SOL     OW14782   0.202   3.770   1.814
 4628SOL    HW114783   0.192   3.696   1.880
 4628SOL    HW214784   0.202   3.858   1.862
 4629SOL     OW14785   2.511   4.947   5.513
 4629SOL    HW114786   2.536   4.864   5.464
 4629SOL    HW214787   2.594   4.990   5.549
 4630SOL     OW14788   1.659   6.758   2.556
 4630SOL    HW114789   1.659   6.674   2.611
 4630SOL    HW214790   1.701   6.832   2.609
 4631SOL     OW14791   3.301   6.898   2.570
 4631SOL    HW114792   3.300   6.835   2.648
 4631SOL    HW214793   3.207   6.915   2.540
 4632SOL     OW14794   5.133   5.532   4.011
 4632SOL    HW114795   5.113   5.503   3.917
 4632SOL    HW214796   5.229   5.555   4.019
 4633SOL     OW14797   6.137   2.358   4.871
 4633SOL    HW114798   6.193   2.314   4.941
 4633SOL    HW214799   6.068   2.415   4.915
 4634SOL     OW14800   3.246   4.056   0.701
 4634SOL    HW114801   3.175   3.986   0.690
 4634SOL    HW214802   3.240   4.122   0.626
 4635SOL     OW14803   5.499   3.980   1.564
 4635SOL    HW114804   5.569   3.939   1.504
 4635SOL    HW214805   5.430   3.911   1.585
 4636SOL     OW14806   2.402   5.371   0.559
 4636SOL    HW114807   2.422   5.284   0.514
 4636SOL    HW214808   2.487   5.420   0.577
 4637SOL     OW14809   1.531   1.317   5.224
 4637SOL    HW114810   1.521   1.284   5.130
 4637SOL    HW214811   1.542   1.239   5.286
 4638SOL     OW14812   5.319   3.379   5.379
 4638SOL    HW114813   5.331   3.478   5.367
 4638SOL    HW214814   5.225   3.354   5.357
 4639SOL     OW14815   0.098   4.025   5.163
 4639SOL    HW114816   0.122   3.961   5.090
 4639SOL    HW214817   0.009   4.066   5.145
 4640SOL     OW14818   5.902   3.909   2.947
 4640SOL    HW114819   5.854   3.824   2.925
 4640SOL    HW214820   5.839   3.986   2.940
 4641SOL     OW14821   2.246   4.863   5.074
 4641SOL    HW114822   2.209   4.864   4.982
 4641SOL    HW214823   2.268   4.956   5.102
 4642SOL     OW14824   5.577   6.181   4.136
 4642SOL    HW114825   5.509   6.218   4.073
 4642SOL    HW214826   5.661   6.236   4.131
 4643SOL     OW14827   4.130   1.999   1.521
 4643SOL    HW114828   4.171   1.967   1.435
 4643SOL    HW214829   4.040   1.957   1.533
 4644SOL     OW14830   2.073   5.699   5.016
 4644SOL    HW114831   2.047   5.605   5.041
 4644SOL    HW214832   2.167   5.716   5.047
 4645SOL     OW14833   2.030   5.895   4.640
 4645SOL    HW114834   2.005   5.806   4.678
 4645SOL    HW214835   1.968   5.918   4.566
 4646SOL     OW14836   4.138   0.335   1.497
 4646SOL    HW114837   4.207   0.299   1.559
 4646SOL    HW214838   4.048   0.329   1.540
 4647SOL     OW14839   6.739   0.342   4.592
 4647SOL    HW114840   6.727   0.282   4.671
 4647SOL    HW214841   6.827   0.389   4.599
 4648SOL     OW14842   2.274   6.061   2.808
 4648SOL    HW114843   2.336   6.122   2.856
 4648SOL    HW214844   2.262   6.092   2.714
 4649SOL     OW14845   5.786   0.086   5.836
 4649SOL    HW114846   5.797   0.080   5.935
 4649SOL    HW214847   5.868   0.125   5.795
 4650SOL     OW14848   6.463   4.461   2.301
 4650SOL    HW114849   6.511   4.402   2.235
 4650SOL    HW214850   6.513   4.547   2.312
 4651SOL     OW14851   0.207   2.440   1.828
 4651SOL    HW114852   0.145   2.383   1.773
 4651SOL    HW214853   0.245   2.512   1.770
 4652SOL     OW14854   6.910   6.162   6.342
 4652SOL    HW114855   6.916   6.255   6.307
 4652SOL    HW214856   6.814   6.135   6.346
 4653SOL     OW14857   0.681   5.878   6.911
 4653SOL    HW114858   0.681   5.978   6.919
 4653SOL    HW214859   0.775   5.844   6.917
 4654SOL     OW14860   1.192   0.970   6.903
 4654SOL    HW114861   1.281   0.985   6.861
 4654SOL    HW214862   1.174   1.042   6.970
 4655SOL     OW14863   0.314   4.743   3.395
 4655SOL    HW114864   0.234   4.747   3.455
 4655SOL    HW214865   0.355   4.834   3.387
 4656SOL     OW14866   1.772   6.568   3.419
 4656SOL    HW114867   1.680   6.547   3.454
 4656SOL    HW214868   1.835   6.579   3.496
 4657SOL     OW14869   5.907   0.401   0.252
 4657SOL    HW114870   5.864   0.366   0.168
 4657SOL    HW214871   5.990   0.451   0.228
 4658SOL     OW14872   5.495   0.460   3.562
 4658SOL    HW114873   5.593   0.446   3.578
 4658SOL    HW214874   5.450   0.371   3.553
 4659SOL     OW14875   1.557   2.559   5.044
 4659SOL    HW114876   1.528   2.465   5.063
 4659SOL    HW214877   1.500   2.623   5.096
 4660SOL     OW14878   0.260   0.469   5.885
 4660SOL    HW114879   0.251   0.374   5.856
 4660SOL    HW214880   0.182   0.495   5.941
 4661SOL     OW14881   4.074   3.722   3.659
 4661SOL    HW114882   4.163   3.755   3.626
 4661SOL    HW214883   4.019   3.800   3.690
 4662SOL     OW14884   4.942   0.351   5.208
 4662SOL    HW114885   4.858   0.309   5.242
 4662SOL    HW214886   4.972   0.304   5.125
 4663SOL     OW14887   0.171   2.146   2.748
 4663SOL    HW114888   0.238   2.220   2.737
 4663SOL    HW214889   0.199   2.087   2.823
 4664SOL     OW14890   3.041   2.215   6.750
 4664SOL    HW114891   3.089   2.302   6.737
 4664SOL    HW214892   3.000   2.186   6.663
 4665SOL     OW14893   5.563   0.625   0.439
 4665SOL    HW114894   5.588   0.689   0.512
 4665SOL    HW214895   5.465   0.631   0.421
 4666SOL     OW14896   2.193   1.272   0.702
 4666SOL    HW114897   2.156   1.364   0.688
 4666SOL    HW214898   2.199   1.253   0.800
 4667SOL     OW14899   0.664   5.193   5.832
 4667SOL    HW114900   0.673   5.101   5.870
 4667SOL    HW214901   0.581   5.236   5.868
 4668SOL     OW14902   6.662   1.916   3.811
 4668SOL    HW114903   6.601   1.877   3.880
 4668SOL    HW214904   6.657   1.861   3.728
 4669SOL     OW14905   2.255   0.278   0.581
 4669SOL    HW114906   2.209   0.319   0.502
 4669SOL    HW214907   2.224   0.321   0.665
 4670SOL     OW14908   2.116   1.838   3.842
 4670SOL    HW114909   2.057   1.868   3.917
 4670SOL    HW214910   2.116   1.739   3.837
 4671SOL     OW14911   5.761   3.975   0.662
 4671SOL    HW114912   5.798   4.054   0.615
 4671SOL    HW214913   5.718   3.913   0.596
 4672SOL     OW14914   1.907   3.797   5.949
 4672SOL    HW114915   1.978   3.735   5.917
 4672SOL    HW214916   1.947   3.867   6.008
 4673SOL     OW14917   4.053   0.808   2.853
 4673SOL    HW114918   4.121   0.871   2.816
 4673SOL    HW214919   4.007   0.850   2.930
 4674SOL     OW14920   4.708   6.027   6.197
 4674SOL    HW114921   4.786   6.062   6.249
 4674SOL    HW214922   4.741   5.963   6.127
 4675SOL     OW14923   0.938   4.227   7.011
 4675SOL    HW114924   0.887   4.242   0.079
 4675SOL    HW214925   0.928   4.307   6.951
 4676SOL     OW14926   0.979   5.849   4.031
 4676SOL    HW114927   0.990   5.754   4.002
 4676SOL    HW214928   1.045   5.907   3.983
 4677SOL     OW14929   1.496   3.045   0.547
 4677SOL    HW114930   1.456   3.135   0.560
 4677SOL    HW214931   1.423   2.978   0.531
 4678SOL     OW14932   2.445   4.634   2.458
 4678SOL    HW114933   2.473   4.658   2.552
 4678SOL    HW214934   2.509   4.675   2.393
 4679SOL     OW14935   5.143   6.884   1.682
 4679SOL    HW114936   5.190   6.970   1.701
 4679SOL    HW214937   5.169   6.816   1.750
 4680SOL     OW14938   2.225   1.181   1.278
 4680SOL    HW114939   2.139   1.156   1.233
 4680SOL    HW214940   2.227   1.143   1.370
 4681SOL     OW14941   5.001   4.622   1.077
 4681SOL    HW114942   5.006   4.553   1.149
 4681SOL    HW214943   5.046   4.706   1.108
 4682SOL     OW14944   3.879   3.641   6.640
 4682SOL    HW114945   3.811   3.698   6.593
 4682SOL    HW214946   3.925   3.695   6.710
 4683SOL     OW14947   6.275   4.475   3.448
 4683SOL    HW114948   6.179   4.476   3.475
 4683SOL    HW214949   6.310   4.569   3.445
 4684SOL     OW14950   5.111   6.701   0.179
 4684SOL    HW114951   5.153   6.670   0.264
 4684SOL    HW214952   5.182   6.718   0.110
 4685SOL     OW14953   3.043   3.364   6.050
 4685SOL    HW114954   2.997   3.304   5.985
 4685SOL    HW214955   2.986   3.377   6.131
 4686SOL     OW14956   2.730   5.236   0.258
 4686SOL    HW114957   2.641   5.199   0.229
 4686SOL    HW214958   2.748   5.210   0.352
 4687SOL     OW14959   3.006   1.006   3.139
 4687SOL    HW114960   2.923   0.949   3.135
 4687SOL    HW214961   3.012   1.060   3.055
 4688SOL     OW14962   5.696   3.270   5.630
 4688SOL    HW114963   5.763   3.217   5.682
 4688SOL    HW214964   5.648   3.209   5.567
 4689SOL     OW14965   5.784   1.363   1.550
 4689SOL    HW114966   5.773   1.441   1.612
 4689SOL    HW214967   5.845   1.296   1.593
 4690SOL     OW14968   2.752   1.788   0.705
 4690SOL    HW114969   2.657   1.779   0.676
 4690SOL    HW214970   2.800   1.702   0.687
 4691SOL     OW14971   6.974   4.301   1.935
 4691SOL    HW114972   6.922   4.217   1.955
 4691SOL    HW214973   0.016   4.286   1.856
 4692SOL     OW14974   5.531   3.931   2.353
 4692SOL    HW114975   5.555   4.024   2.324
 4692SOL    HW214976   5.508   3.876   2.273
 4693SOL     OW14977   2.111   0.920   3.797
 4693SOL    HW114978   2.041   0.906   3.868
 4693SOL    HW214979   2.189   0.861   3.816
 4694SOL     OW14980   1.911   1.151   0.247
 4694SOL    HW114981   1.938   1.190   0.335
 4694SOL    HW214982   1.811   1.151   0.240
 4695SOL     OW14983   1.053   6.229   1.610
 4695SOL    HW114984   1.107   6.305   1.645
 4695SOL    HW214985   1.113   6.151   1.590
 4696SOL     OW14986   1.217   5.325   5.561
 4696SOL    HW114987   1.142   5.389   5.580
 4696SOL    HW214988   1.190   5.263   5.488
 4697SOL     OW14989   3.654   4.810   0.870
 4697SOL    HW114990   3.587   4.835   0.799
 4697SOL    HW214991   3.720   4.885   0.881
 4698SOL     OW14992   5.465   1.313   3.222
 4698SOL    HW114993   5.501   1.262   3.144
 4698SOL    HW214994   5.483   1.410   3.209
 4699SOL     OW14995   1.095   6.999   2.865
 4699SOL    HW114996   1.019   6.974   2.805
 4699SOL    HW214997   1.179   7.009   2.810
 4700SOL     OW14998   6.282   2.043   2.803
 4700SOL    HW114999   6.381   2.036   2.796
 4700SOL    HW215000   6.240   2.010   2.718
 4701SOL     OW15001   3.406   2.096   1.835
 4701SOL    HW115002   3.478   2.138   1.890
 4701SOL    HW215003   3.330   2.069   1.895
 4702SOL     OW15004   5.622   4.466   6.521
 4702SOL    HW115005   5.700   4.406   6.535
 4702SOL    HW215006   5.550   4.416   6.472
 4703SOL     OW15007   0.875   5.104   3.488
 4703SOL    HW115008   0.813   5.082   3.413
 4703SOL    HW215009   0.887   5.023   3.546
 4704SOL     OW15010   1.256   4.858   5.197
 4704SOL    HW115011   1.246   4.759   5.187
 4704SOL    HW215012   1.172   4.903   5.169
 4705SOL     OW15013   3.433   2.421   1.708
 4705SOL    HW115014   3.524   2.399   1.744
 4705SOL    HW215015   3.419   2.373   1.622
 4706SOL     OW15016   2.136   0.394   0.346
 4706SOL    HW115017   2.196   0.375   0.268
 4706SOL    HW215018   2.050   0.345   0.335
 4707SOL     OW15019   1.928   5.917   1.474
 4707SOL    HW115020   2.026   5.918   1.493
 4707SOL    HW215021   1.880   5.969   1.545
 4708SOL     OW15022   0.568   2.960   4.119
 4708SOL    HW115023   0.510   2.902   4.061
 4708SOL    HW215024   0.524   3.049   4.132
 4709SOL     OW15025   4.705   3.901   5.301
 4709SOL    HW115026   4.793   3.914   5.256
 4709SOL    HW215027   4.635   3.883   5.232
 4710SOL     OW15028   6.170   6.233   4.428
 4710SOL    HW115029   6.175   6.141   4.391
 4710SOL    HW215030   6.158   6.228   4.527
 4711SOL     OW15031   5.757   3.337   3.427
 4711SOL    HW115032   5.762   3.289   3.515
 4711SOL    HW215033   5.828   3.302   3.366
 4712SOL     OW15034   4.469   4.060   5.284
 4712SOL    HW115035   4.520   4.089   5.365
 4712SOL    HW215036   4.373   4.087   5.294
 4713SOL     OW15037   6.165   4.220   1.233
 4713SOL    HW115038   6.088   4.199   1.173
 4713SOL    HW215039   6.198   4.135   1.276
 4714SOL     OW15040   5.519   1.389   6.084
 4714SOL    HW115041   5.531   1.410   5.988
 4714SOL    HW215042   5.574   1.452   6.140
 4715SOL     OW15043   6.121   1.439   1.905
 4715SOL    HW115044   6.155   1.366   1.965
 4715SOL    HW215045   6.197   1.476   1.852
 4716SOL     OW15046   3.836   4.227   6.140
 4716SOL    HW115047   3.759   4.277   6.180
 4716SOL    HW215048   3.807   4.183   6.055
 4717SOL     OW15049   2.629   5.310   4.827
 4717SOL    HW115050   2.532   5.310   4.849
 4717SOL    HW215051   2.677   5.243   4.884
 4718SOL     OW15052   4.781   4.534   0.365
 4718SOL    HW115053   4.792   4.507   0.269
 4718SOL    HW215054   4.737   4.460   0.416
 4719SOL     OW15055   0.138   3.883   3.764
 4719SOL    HW115056   0.165   3.859   3.857
 4719SOL    HW215057   0.091   3.971   3.764
 4720SOL     OW15058   2.684   3.954   0.188
 4720SOL    HW115059   2.758   3.923   0.129
 4720SOL    HW215060   2.708   3.938   0.284
 4721SOL     OW15061   6.207   3.219   3.394
 4721SOL    HW115062   6.288   3.269   3.426
 4721SOL    HW215063   6.199   3.133   3.446
 4722SOL     OW15064   1.654   4.329   6.899
 4722SOL    HW115065   1.745   4.322   6.940
 4722SOL    HW215066   1.639   4.250   6.840
 4723SOL     OW15067   3.703   4.062   6.869
 4723SOL    HW115068   3.758   4.041   6.788
 4723SOL    HW215069   3.737   4.008   6.947
 4724SOL     OW15070   1.463   6.759   4.651
 4724SOL    HW115071   1.441   6.830   4.584
 4724SOL    HW215072   1.433   6.788   4.742
 4725SOL     OW15073   5.108   5.995   0.217
 4725SOL    HW115074   5.070   6.061   0.152
 4725SOL    HW215075   5.046   5.986   0.295
 4726SOL     OW15076   0.988   3.229   5.437
 4726SOL    HW115077   0.902   3.262   5.476
 4726SOL    HW215078   0.994   3.130   5.451
 4727SOL     OW15079   0.615   5.577   0.780
 4727SOL    HW115080   0.613   5.673   0.807
 4727SOL    HW215081   0.690   5.562   0.716
 4728SOL     OW15082   6.219   1.927   4.499
 4728SOL    HW115083   6.281   2.004   4.517
 4728SOL    HW215084   6.249   1.848   4.552
 4729SOL     OW15085   6.144   1.090   1.535
 4729SOL    HW115086   6.118   0.994   1.527
 4729SOL    HW215087   6.223   1.108   1.476
 4730SOL     OW15088   3.045   6.747   5.070
 4730SOL    HW115089   3.108   6.679   5.033
 4730SOL    HW215090   3.096   6.813   5.126
 4731SOL     OW15091   3.643   0.130   0.463
 4731SOL    HW115092   3.628   0.037   0.497
 4731SOL    HW215093   3.614   0.136   0.368
 4732SOL     OW15094   0.418   4.471   3.824
 4732SOL    HW115095   0.356   4.440   3.752
 4732SOL    HW215096   0.393   4.428   3.911
 4733SOL     OW15097   1.998   3.772   3.279
 4733SOL    HW115098   1.967   3.866   3.266
 4733SOL    HW215099   1.989   3.721   3.193
 4734SOL     OW15100   4.944   3.277   6.880
 4734SOL    HW115101   4.966   3.288   6.783
 4734SOL    HW215102   4.861   3.328   6.901
 4735SOL     OW15103   6.911   0.037   5.033
 4735SOL    HW115104   6.932   6.999   5.115
 4735SOL    HW215105   6.988   0.033   4.970
 4736SOL     OW15106   6.876   2.327   3.393
 4736SOL    HW115107   6.838   2.246   3.347
 4736SOL    HW215108   6.913   2.300   3.482
 4737SOL     OW15109   2.527   4.187   1.164
 4737SOL    HW115110   2.480   4.195   1.252
 4737SOL    HW215111   2.536   4.278   1.123
 4738SOL     OW15112   1.697   6.505   3.710
 4738SOL    HW115113   1.702   6.452   3.795
 4738SOL    HW215114   1.698   6.603   3.732
 4739SOL     OW15115   5.791   3.187   3.694
 4739SOL    HW115116   5.768   3.265   3.753
 4739SOL    HW215117   5.709   3.135   3.673
 4740SOL     OW15118   0.720   1.162   1.442
 4740SOL    HW115119   0.793   1.229   1.453
 4740SOL    HW215120   0.692   1.158   1.346
 4741SOL     OW15121   4.307   4.362   1.688
 4741SOL    HW115122   4.355   4.284   1.727
 4741SOL    HW215123   4.251   4.406   1.759
 4742SOL     OW15124   2.668   6.410   1.788
 4742SOL    HW115125   2.754   6.360   1.803
 4742SOL    HW215126   2.633   6.390   1.697
 4743SOL     OW15127   2.073   2.260   0.398
 4743SOL    HW115128   2.045   2.204   0.320
 4743SOL    HW215129   2.102   2.201   0.473
 4744SOL     OW15130   1.793   3.350   5.422
 4744SOL    HW115131   1.823   3.416   5.354
 4744SOL    HW215132   1.844   3.264   5.410
 4745SOL     OW15133   2.724   5.692   5.111
 4745SOL    HW115134   2.727   5.602   5.154
 4745SOL    HW215135   2.703   5.682   5.014
 4746SOL     OW15136   6.597   0.628   0.777
 4746SOL    HW115137   6.616   0.560   0.848
 4746SOL    HW215138   6.519   0.597   0.722
 4747SOL     OW15139   6.545   2.537   0.927
 4747SOL    HW115140   6.574   2.599   1.000
 4747SOL    HW215141   6.448   2.516   0.937
 4748SOL     OW15142   1.534   1.089   2.011
 4748SOL    HW115143   1.483   1.037   1.943
 4748SOL    HW215144   1.475   1.158   2.052
 4749SOL     OW15145   1.487   6.733   6.785
 4749SOL    HW115146   1.443   6.788   6.715
 4749SOL    HW215147   1.492   6.785   6.870
 4750SOL     OW15148   0.158   1.005   4.672
 4750SOL    HW115149   0.065   1.006   4.708
 4750SOL    HW215150   0.165   0.936   4.600
 4751SOL     OW15151   1.156   3.734   6.713
 4751SOL    HW115152   1.200   3.689   6.635
 4751SOL    HW215153   1.170   3.833   6.706
 4752SOL     OW15154   2.892   5.910   1.145
 4752SOL    HW115155   2.870   5.884   1.051
 4752SOL    HW215156   2.973   5.860   1.176
 4753SOL     OW15157   6.135   6.577   5.247
 4753SOL    HW115158   6.169   6.625   5.329
 4753SOL    HW215159   6.142   6.639   5.168
 4754SOL     OW15160   0.988   0.158   5.667
 4754SOL    HW115161   0.979   0.257   5.667
 4754SOL    HW215162   1.023   0.128   5.756
 4755SOL     OW15163   2.594   1.647   6.682
 4755SOL    HW115164   2.592   1.720   6.751
 4755SOL    HW215165   2.568   1.560   6.725
 4756SOL     OW15166   4.938   2.895   1.121
 4756SOL    HW115167   4.848   2.852   1.119
 4756SOL    HW215168   4.989   2.862   1.200
 4757SOL     OW15169   2.139   1.927   1.061
 4757SOL    HW115170   2.107   1.957   0.971
 4757SOL    HW215171   2.234   1.895   1.054
 4758SOL     OW15172   5.291   4.859   5.448
 4758SOL    HW115173   5.338   4.944   5.473
 4758SOL    HW215174   5.288   4.851   5.348
 4759SOL     OW15175   5.536   5.541   5.681
 4759SOL    HW115176   5.632   5.515   5.671
 4759SOL    HW215177   5.501   5.574   5.593
 4760SOL     OW15178   1.671   2.004   1.309
 4760SOL    HW115179   1.756   1.954   1.295
 4760SOL    HW215180   1.607   1.982   1.236
 4761SOL     OW15181   0.541   6.349   6.223
 4761SOL    HW115182   0.488   6.429   6.254
 4761SOL    HW215183   0.613   6.380   6.161
 4762SOL     OW15184   2.581   6.009   2.633
 4762SOL    HW115185   2.667   6.044   2.671
 4762SOL    HW215186   2.578   6.027   2.535
 4763SOL     OW15187   6.365   5.688   3.675
 4763SOL    HW115188   6.379   5.590   3.684
 4763SOL    HW215189   6.436   5.727   3.618
 4764SOL     OW15190   3.573   3.689   4.069
 4764SOL    HW115191   3.544   3.638   4.150
 4764SOL    HW215192   3.498   3.694   4.003
 4765SOL     OW15193   5.545   5.736   5.033
 4765SOL    HW115194   5.499   5.763   4.949
 4765SOL    HW215195   5.588   5.647   5.020
 4766SOL     OW15196   3.142   0.753   2.404
 4766SOL    HW115197   3.137   0.852   2.389
 4766SOL    HW215198   3.107   0.705   2.324
 4767SOL     OW15199   4.184   5.789   6.583
 4767SOL    HW115200   4.099   5.826   6.545
 4767SOL    HW215201   4.234   5.863   6.628
 4768SOL     OW15202   7.003   0.654   5.229
 4768SOL    HW115203   6.906   0.676   5.218
 4768SOL    HW215204   0.011   0.580   5.167
 4769SOL     OW15205   3.820   0.042   1.548
 4769SOL    HW115206   3.732   0.029   1.503
 4769SOL    HW215207   3.894   0.019   1.484
 4770SOL     OW15208   2.489   0.740   3.251
 4770SOL    HW115209   2.459   0.682   3.175
 4770SOL    HW215210   2.443   0.828   3.245
 4771SOL     OW15211   3.982   4.210   5.310
 4771SOL    HW115212   3.928   4.285   5.349
 4771SOL    HW215213   3.937   4.177   5.228
 4772SOL     OW15214   2.556   2.276   1.707
 4772SOL    HW115215   2.653   2.273   1.732
 4772SOL    HW215216   2.517   2.365   1.734
 4773SOL     OW15217   0.039   5.894   3.695
 4773SOL    HW115218   0.097   5.812   3.697
 4773SOL    HW215219   0.068   5.957   3.768
 4774SOL     OW15220   0.504   3.982   1.347
 4774SOL    HW115221   0.592   4.002   1.305
 4774SOL    HW215222   0.438   4.053   1.321
 4775SOL     OW15223   4.027   0.737   1.989
 4775SOL    HW115224   3.990   0.829   2.004
 4775SOL    HW215225   4.105   0.722   2.050
 4776SOL     OW15226   3.083   5.488   2.065
 4776SOL    HW115227   3.147   5.564   2.057
 4776SOL    HW215228   2.999   5.520   2.109
 4777SOL     OW15229   3.254   4.296   1.185
 4777SOL    HW115230   3.194   4.335   1.254
 4777SOL    HW215231   3.223   4.325   1.094
 4778SOL     OW15232   5.028   3.914   2.376
 4778SOL    HW115233   5.082   3.974   2.317
 4778SOL    HW215234   4.946   3.883   2.326
 4779SOL     OW15235   5.155   0.693   3.067
 4779SOL    HW115236   5.201   0.607   3.043
 4779SOL    HW215237   5.085   0.713   2.999
 4780SOL     OW15238   1.012   6.099   6.217
 4780SOL    HW115239   1.092   6.049   6.183
 4780SOL    HW215240   1.038   6.156   6.295
 4781SOL     OW15241   2.066   5.287   1.570
 4781SOL    HW115242   2.144   5.327   1.617
 4781SOL    HW215243   2.083   5.189   1.554
 4782SOL     OW15244   5.663   6.350   6.252
 4782SOL    HW115245   5.662   6.447   6.229
 4782SOL    HW215246   5.571   6.311   6.241
 4783SOL     OW15247   5.723   4.533   1.314
 4783SOL    HW115248   5.694   4.619   1.354
 4783SOL    HW215249   5.814   4.544   1.273
 4784SOL     OW15250   6.148   5.284   4.682
 4784SOL    HW115251   6.166   5.342   4.762
 4784SOL    HW215252   6.086   5.331   4.620
 4785SOL     OW15253   6.477   0.621   1.439
 4785SOL    HW115254   6.471   0.718   1.464
 4785SOL    HW215255   6.534   0.610   1.358
 4786SOL     OW15256   1.795   2.856   2.027
 4786SOL    HW115257   1.733   2.789   2.067
 4786SOL    HW215258   1.799   2.842   1.928
 4787SOL     OW15259   3.819   2.082   3.015
 4787SOL    HW115260   3.838   2.113   2.922
 4787SOL    HW215261   3.846   1.986   3.024
 4788SOL     OW15262   1.604   5.357   4.086
 4788SOL    HW115263   1.679   5.291   4.093
 4788SOL    HW215264   1.523   5.311   4.049
 4789SOL     OW15265   5.802   0.694   0.748
 4789SOL    HW115266   5.766   0.644   0.669
 4789SOL    HW215267   5.890   0.655   0.775
 4790SOL     OW15268   5.667   1.820   6.590
 4790SOL    HW115269   5.586   1.857   6.634
 4790SOL    HW215270   5.647   1.802   6.493
 4791SOL     OW15271   5.392   6.899   2.160
 4791SOL    HW115272   5.488   6.906   2.188
 4791SOL    HW215273   5.361   6.805   2.170
 4792SOL     OW15274   2.263   2.501   1.943
 4792SOL    HW115275   2.204   2.429   1.907
 4792SOL    HW215276   2.354   2.492   1.904
 4793SOL     OW15277   1.245   6.755   6.027
 4793SOL    HW115278   1.151   6.749   6.062
 4793SOL    HW215279   1.244   6.747   5.928
 4794SOL     OW15280   2.813   0.933   2.380
 4794SOL    HW115281   2.770   1.023   2.387
 4794SOL    HW215282   2.763   0.867   2.436
 4795SOL     OW15283   6.092   3.200   4.277
 4795SOL    HW115284   6.048   3.125   4.326
 4795SOL    HW215285   6.037   3.225   4.198
 4796SOL     OW15286   5.646   4.554   0.992
 4796SOL    HW115287   5.603   4.612   0.923
 4796SOL    HW215288   5.597   4.467   0.997
 4797SOL     OW15289   0.377   4.985   5.061
 4797SOL    HW115290   0.362   4.892   5.027
 4797SOL    HW215291   0.301   5.013   5.118
 4798SOL     OW15292   6.793   4.535   4.180
 4798SOL    HW115293   6.849   4.526   4.098
 4798SOL    HW215294   6.850   4.565   4.257
 4799SOL     OW15295   4.260   1.734   4.879
 4799SOL    HW115296   4.225   1.799   4.947
 4799SOL    HW215297   4.359   1.745   4.870
 4800SOL     OW15298   2.072   2.410   4.941
 4800SOL    HW115299   1.999   2.342   4.947
 4800SOL    HW215300   2.032   2.499   4.919
 4801SOL     OW15301   0.607   2.223   0.988
 4801SOL    HW115302   0.630   2.316   0.962
 4801SOL    HW215303   0.685   2.180   1.033
 4802SOL     OW15304   2.746   0.514   1.732
 4802SOL    HW115305   2.795   0.586   1.782
 4802SOL    HW215306   2.658   0.550   1.700
 4803SOL     OW15307   1.146   6.823   0.448
 4803SOL    HW115308   1.137   6.906   0.503
 4803SOL    HW215309   1.198   6.843   0.365
 4804SOL     OW15310   4.005   5.111   6.739
 4804SOL    HW115311   4.095   5.150   6.721
 4804SOL    HW215312   4.010   5.011   6.732
 4805SOL     OW15313   6.812   1.829   1.071
 4805SOL    HW115314   6.909   1.826   1.046
 4805SOL    HW215315   6.760   1.771   1.008
 4806SOL     OW15316   0.813   2.934   2.918
 4806SOL    HW115317   0.744   2.880   2.967
 4806SOL    HW215318   0.874   2.978   2.984
 4807SOL     OW15319   0.179   6.940   1.370
 4807SOL    HW115320   0.178   6.984   1.460
 4807SOL    HW215321   0.271   6.947   1.331
 4808SOL     OW15322   4.830   3.153   1.248
 4808SOL    HW115323   4.778   3.124   1.329
 4808SOL    HW215324   4.833   3.078   1.182
 4809SOL     OW15325   3.815   5.434   6.589
 4809SOL    HW115326   3.915   5.433   6.598
 4809SOL    HW215327   3.775   5.378   6.662
 4810SOL     OW15328   1.101   0.298   1.306
 4810SOL    HW115329   1.195   0.312   1.276
 4810SOL    HW215330   1.100   0.240   1.388
 4811SOL     OW15331   4.158   5.587   2.264
 4811SOL    HW115332   4.146   5.537   2.350
 4811SOL    HW215333   4.255   5.606   2.250
 4812SOL     OW15334   6.871   6.054   4.337
 4812SOL    HW115335   6.862   6.152   4.353
 4812SOL    HW215336   6.913   6.038   4.248
 4813SOL     OW15337   5.648   2.604   3.396
 4813SOL    HW115338   5.689   2.529   3.344
 4813SOL    HW215339   5.721   2.663   3.432
 4814SOL     OW15340   6.859   3.621   1.613
 4814SOL    HW115341   6.833   3.684   1.685
 4814SOL    HW215342   6.862   3.528   1.649
 4815SOL     OW15343   4.621   6.451   1.267
 4815SOL    HW115344   4.631   6.351   1.263
 4815SOL    HW215345   4.640   6.490   1.177
 4816SOL     OW15346   5.162   4.939   3.586
 4816SOL    HW115347   5.203   4.859   3.543
 4816SOL    HW215348   5.194   5.022   3.541
 4817SOL     OW15349   0.542   1.774   6.472
 4817SOL    HW115350   0.472   1.831   6.515
 4817SOL    HW215351   0.622   1.770   6.532
 4818SOL     OW15352   0.770   0.340   4.252
 4818SOL    HW115353   0.843   0.290   4.204
 4818SOL    HW215354   0.782   0.329   4.350
 4819SOL     OW15355   1.720   3.666   0.377
 4819SOL    HW115356   1.703   3.689   0.282
 4819SOL    HW215357   1.737   3.568   0.385
 4820SOL     OW15358   6.659   3.227   2.024
 4820SOL    HW115359   6.590   3.289   1.986
 4820SOL    HW215360   6.698   3.172   1.951
 4821SOL     OW15361   6.867   5.502   2.321
 4821SOL    HW115362   6.884   5.417   2.271
 4821SOL    HW215363   6.769   5.512   2.338
 4822SOL     OW15364   1.163   3.482   3.944
 4822SOL    HW115365   1.149   3.498   3.846
 4822SOL    HW215366   1.150   3.568   3.994
 4823SOL     OW15367   1.879   3.106   1.611
 4823SOL    HW115368   1.945   3.102   1.536
 4823SOL    HW215369   1.922   3.145   1.692
 4824SOL     OW15370   5.976   1.513   5.591
 4824SOL    HW115371   5.951   1.416   5.588
 4824SOL    HW215372   6.018   1.534   5.679
 4825SOL     OW15373   1.828   0.111   3.751
 4825SOL    HW115374   1.764   0.062   3.811
 4825SOL    HW215375   1.844   0.203   3.787
 4826SOL     OW15376   4.139   0.557   1.330
 4826SOL    HW115377   4.231   0.592   1.311
 4826SOL    HW215378   4.146   0.476   1.388
 4827SOL     OW15379   6.557   1.790   1.615
 4827SOL    HW115380   6.563   1.888   1.593
 4827SOL    HW215381   6.472   1.773   1.665
 4828SOL     OW15382   5.117   0.727   4.010
 4828SOL    HW115383   5.165   0.813   4.028
 4828SOL    HW215384   5.064   0.701   4.090
 4829SOL     OW15385   3.923   6.852   4.873
 4829SOL    HW115386   3.982   6.837   4.952
 4829SOL    HW215387   3.947   6.938   4.829
 4830SOL     OW15388   3.080   5.758   2.934
 4830SOL    HW115389   3.043   5.832   2.991
 4830SOL    HW215390   3.108   5.682   2.993
 4831SOL     OW15391   3.104   4.699   5.323
 4831SOL    HW115392   3.031   4.660   5.268
 4831SOL    HW215393   3.067   4.768   5.386
 4832SOL     OW15394   3.848   3.093   4.646
 4832SOL    HW115395   3.766   3.037   4.641
 4832SOL    HW215396   3.867   3.133   4.556
 4833SOL     OW15397   6.767   3.399   4.265
 4833SOL    HW115398   6.770   3.331   4.192
 4833SOL    HW215399   6.847   3.387   4.325
 4834SOL     OW15400   1.010   5.164   1.088
 4834SOL    HW115401   1.058   5.251   1.077
 4834SOL    HW215402   0.971   5.136   1.000
 4835SOL     OW15403   6.751   2.240   5.343
 4835SOL    HW115404   6.777   2.336   5.341
 4835SOL    HW215405   6.668   2.225   5.289
 4836SOL     OW15406   4.860   1.092   5.258
 4836SOL    HW115407   4.831   1.043   5.176
 4836SOL    HW215408   4.959   1.107   5.255
 4837SOL     OW15409   0.294   4.230   3.931
 4837SOL    HW115410   0.368   4.173   3.897
 4837SOL    HW215411   0.278   4.210   4.028
 4838SOL     OW15412   2.194   4.297   6.305
 4838SOL    HW115413   2.140   4.262   6.228
 4838SOL    HW215414   2.155   4.265   6.391
 4839SOL     OW15415   2.558   1.449   0.405
 4839SOL    HW115416   2.601   1.392   0.474
 4839SOL    HW215417   2.458   1.437   0.409
 4840SOL     OW15418   5.995   4.006   4.579
 4840SOL    HW115419   5.924   4.003   4.508
 4840SOL    HW215420   6.077   3.959   4.546
 4841SOL     OW15421   3.289   6.374   2.822
 4841SOL    HW115422   3.367   6.359   2.883
 4841SOL    HW215423   3.231   6.447   2.859
 4842SOL     OW15424   3.357   5.497   3.117
 4842SOL    HW115425   3.426   5.433   3.082
 4842SOL    HW215426   3.266   5.466   3.091
 4843SOL     OW15427   0.422   1.756   1.230
 4843SOL    HW115428   0.479   1.760   1.312
 4843SOL    HW215429   0.331   1.723   1.254
 4844SOL     OW15430   1.319   5.292   4.991
 4844SOL    HW115431   1.365   5.364   4.938
 4844SOL    HW215432   1.306   5.324   5.085
 4845SOL     OW15433   4.886   3.797   4.738
 4845SOL    HW115434   4.916   3.761   4.650
 4845SOL    HW215435   4.822   3.733   4.780
 4846SOL     OW15436   6.701   3.658   4.551
 4846SOL    HW115437   6.779   3.698   4.598
 4846SOL    HW215438   6.661   3.726   4.489
 4847SOL     OW15439   2.458   5.859   6.511
 4847SOL    HW115440   2.474   5.952   6.477
 4847SOL    HW215441   2.397   5.863   6.590
 4848SOL     OW15442   3.273   0.818   4.366
 4848SOL    HW115443   3.187   0.819   4.315
 4848SOL    HW215444   3.329   0.895   4.336
 4849SOL     OW15445   2.013   6.787   1.329
 4849SOL    HW115446   1.943   6.812   1.396
 4849SOL    HW215447   1.973   6.728   1.259
 4850SOL     OW15448   4.307   0.277   0.364
 4850SOL    HW115449   4.380   0.310   0.425
 4850SOL    HW215450   4.239   0.348   0.352
 4851SOL     OW15451   3.637   4.326   6.375
 4851SOL    HW115452   3.711   4.265   6.403
 4851SOL    HW215453   3.553   4.273   6.359
 4852SOL     OW15454   5.313   5.508   4.659
 4852SOL    HW115455   5.266   5.545   4.579
 4852SOL    HW215456   5.307   5.409   4.659
 4853SOL     OW15457   4.404   6.715   2.067
 4853SOL    HW115458   4.345   6.758   2.136
 4853SOL    HW215459   4.470   6.782   2.034
 4854SOL     OW15460   5.295   6.387   1.828
 4854SOL    HW115461   5.264   6.402   1.734
 4854SOL    HW215462   5.239   6.315   1.870
 4855SOL     OW15463   5.283   4.900   5.850
 4855SOL    HW115464   5.335   4.884   5.934
 4855SOL    HW215465   5.334   4.862   5.772
 4856SOL     OW15466   7.009   4.010   2.665
 4856SOL    HW115467   6.976   4.104   2.657
 4856SOL    HW215468   0.045   3.986   2.584
 4857SOL     OW15469   2.554   2.073   4.915
 4857SOL    HW115470   2.573   2.144   4.847
 4857SOL    HW215471   2.467   2.092   4.960
 4858SOL     OW15472   0.905   5.973   4.594
 4858SOL    HW115473   0.949   6.030   4.663
 4858SOL    HW215474   0.958   5.889   4.580
 4859SOL     OW15475   0.571   6.448   2.459
 4859SOL    HW115476   0.511   6.379   2.500
 4859SOL    HW215477   0.581   6.525   2.521
 4860SOL     OW15478   4.419   4.912   0.972
 4860SOL    HW115479   4.472   4.991   1.002
 4860SOL    HW215480   4.478   4.846   0.926
 4861SOL     OW15481   0.161   4.221   6.802
 4861SOL    HW115482   0.062   4.221   6.812
 4861SOL    HW215483   0.195   4.315   6.804
 4862SOL     OW15484   2.237   5.542   5.316
 4862SOL    HW115485   2.244   5.473   5.388
 4862SOL    HW215486   2.249   5.633   5.355
 4863SOL     OW15487   4.719   2.064   2.971
 4863SOL    HW115488   4.740   2.016   3.057
 4863SOL    HW215489   4.638   2.121   2.985
 4864SOL     OW15490   1.992   1.158   1.158
 4864SOL    HW115491   2.020   1.211   1.078
 4864SOL    HW215492   1.896   1.132   1.148
 4865SOL     OW15493   3.661   6.101   5.726
 4865SOL    HW115494   3.584   6.113   5.663
 4865SOL    HW215495   3.694   6.007   5.720
 4866SOL     OW15496   0.093   4.341   2.164
 4866SOL    HW115497   0.032   4.321   2.088
 4866SOL    HW215498   0.168   4.276   2.166
 4867SOL     OW15499   4.841   5.936   3.406
 4867SOL    HW115500   4.804   5.854   3.451
 4867SOL    HW215501   4.813   6.017   3.457
 4868SOL     OW15502   0.795   6.212   0.968
 4868SOL    HW115503   0.855   6.135   0.992
 4868SOL    HW215504   0.723   6.180   0.907
 4869SOL     OW15505   6.276   0.636   1.020
 4869SOL    HW115506   6.322   0.552   0.991
 4869SOL    HW215507   6.236   0.622   1.111
 4870SOL     OW15508   6.465   6.886   1.511
 4870SOL    HW115509   6.490   6.858   1.603
 4870SOL    HW215510   6.407   6.968   1.516
 4871SOL     OW15511   0.586   3.361   4.180
 4871SOL    HW115512   0.530   3.294   4.230
 4871SOL    HW215513   0.600   3.328   4.086
 4872SOL     OW15514   1.032   0.794   3.504
 4872SOL    HW115515   1.014   0.874   3.560
 4872SOL    HW215516   1.023   0.819   3.407
 4873SOL     OW15517   0.660   6.211   5.244
 4873SOL    HW115518   0.745   6.233   5.292
 4873SOL    HW215519   0.606   6.147   5.298
 4874SOL     OW15520   5.284   3.464   3.345
 4874SOL    HW115521   5.290   3.528   3.268
 4874SOL    HW215522   5.188   3.444   3.364
 4875SOL     OW15523   6.096   2.855   6.763
 4875SOL    HW115524   6.135   2.764   6.777
 4875SOL    HW215525   6.019   2.868   6.825
 4876SOL     OW15526   0.580   1.221   6.633
 4876SOL    HW115527   0.643   1.294   6.609
 4876SOL    HW215528   0.547   1.234   6.726
 4877SOL     OW15529   6.668   1.652   0.906
 4877SOL    HW115530   6.708   1.675   0.817
 4877SOL    HW215531   6.569   1.661   0.902
 4878SOL     OW15532   6.592   2.080   1.611
 4878SOL    HW115533   6.641   2.084   1.698
 4878SOL    HW215534   6.593   2.170   1.569
 4879SOL     OW15535   4.191   5.823   3.149
 4879SOL    HW115536   4.216   5.775   3.233
 4879SOL    HW215537   4.135   5.903   3.171
 4880SOL     OW15538   5.768   2.230   6.023
 4880SOL    HW115539   5.760   2.306   6.087
 4880SOL    HW215540   5.864   2.214   6.002
 4881SOL     OW15541   3.189   5.995   6.502
 4881SOL    HW115542   3.155   6.013   6.595
 4881SOL    HW215543   3.286   5.974   6.505
 4882SOL     OW15544   5.173   0.725   5.751
 4882SOL    HW115545   5.163   0.805   5.693
 4882SOL    HW215546   5.267   0.721   5.787
 4883SOL     OW15547   0.256   6.022   0.939
 4883SOL    HW115548   0.237   5.990   0.846
 4883SOL    HW215549   0.201   5.970   1.004
 4884SOL     OW15550   3.214   6.574   2.035
 4884SOL    HW115551   3.274   6.512   2.084
 4884SOL    HW215552   3.119   6.547   2.048
 4885SOL     OW15553   2.060   0.214   1.944
 4885SOL    HW115554   2.108   0.289   1.990
 4885SOL    HW215555   1.984   0.251   1.890
 4886SOL     OW15556   6.224   0.740   5.997
 4886SOL    HW115557   6.130   0.770   5.986
 4886SOL    HW215558   6.229   0.640   5.990
 4887SOL     OW15559   0.684   1.860   5.104
 4887SOL    HW115560   0.724   1.886   5.193
 4887SOL    HW215561   0.587   1.885   5.102
 4888SOL     OW15562   2.793   5.405   1.826
 4888SOL    HW115563   2.871   5.385   1.885
 4888SOL    HW215564   2.718   5.342   1.847
 4889SOL     OW15565   1.436   2.522   6.810
 4889SOL    HW115566   1.441   2.603   6.869
 4889SOL    HW215567   1.527   2.500   6.776
 4890SOL     OW15568   1.485   0.375   4.626
 4890SOL    HW115569   1.388   0.400   4.633
 4890SOL    HW215570   1.519   0.347   4.716
 4891SOL     OW15571   1.247   3.988   0.783
 4891SOL    HW115572   1.332   3.985   0.731
 4891SOL    HW215573   1.237   3.903   0.836
 4892SOL     OW15574   1.385   5.965   1.234
 4892SOL    HW115575   1.343   6.045   1.277
 4892SOL    HW215576   1.377   5.887   1.296
 4893SOL     OW15577   0.855   3.526   6.415
 4893SOL    HW115578   0.794   3.591   6.461
 4893SOL    HW215579   0.801   3.462   6.361
 4894SOL     OW15580   2.253   1.190   3.736
 4894SOL    HW115581   2.205   1.128   3.797
 4894SOL    HW215582   2.330   1.232   3.785
 4895SOL     OW15583   6.939   3.642   0.123
 4895SOL    HW115584   6.887   3.687   0.051
 4895SOL    HW215585   6.878   3.587   0.180
 4896SOL     OW15586   4.160   5.634   3.394
 4896SOL    HW115587   4.082   5.594   3.442
 4896SOL    HW215588   4.181   5.579   3.314
 4897SOL     OW15589   3.285   5.550   5.681
 4897SOL    HW115590   3.276   5.514   5.588
 4897SOL    HW215591   3.320   5.643   5.678
 4898SOL     OW15592   5.414   2.653   5.631
 4898SOL    HW115593   5.373   2.737   5.665
 4898SOL    HW215594   5.438   2.665   5.534
 4899SOL     OW15595   5.432   4.273   4.933
 4899SOL    HW115596   5.456   4.242   4.841
 4899SOL    HW215597   5.457   4.369   4.944
 4900SOL     OW15598   1.296   6.611   5.219
 4900SOL    HW115599   1.276   6.706   5.196
 4900SOL    HW215600   1.253   6.550   5.153
 4901SOL     OW15601   1.368   6.503   3.166
 4901SOL    HW115602   1.396   6.549   3.082
 4901SOL    HW215603   1.278   6.535   3.193
 4902SOL     OW15604   2.936   4.809   1.908
 4902SOL    HW115605   3.004   4.815   1.834
 4902SOL    HW215606   2.904   4.715   1.916
 4903SOL     OW15607   4.931   6.296   6.410
 4903SOL    HW115608   4.969   6.348   6.486
 4903SOL    HW215609   4.841   6.334   6.385
 4904SOL     OW15610   3.213   6.201   3.580
 4904SOL    HW115611   3.140   6.209   3.648
 4904SOL    HW215612   3.274   6.126   3.606
 4905SOL     OW15613   6.107   3.198   3.123
 4905SOL    HW115614   6.036   3.148   3.172
 4905SOL    HW215615   6.183   3.218   3.185
 4906SOL     OW15616   5.970   1.227   1.711
 4906SOL    HW115617   6.034   1.193   1.643
 4906SOL    HW215618   6.017   1.287   1.776
 4907SOL     OW15619   2.646   1.160   2.373
 4907SOL    HW115620   2.548   1.150   2.386
 4907SOL    HW215621   2.681   1.229   2.437
 4908SOL     OW15622   3.342   5.601   6.629
 4908SOL    HW115623   3.307   5.667   6.695
 4908SOL    HW215624   3.273   5.585   6.558
 4909SOL     OW15625   6.629   0.452   5.179
 4909SOL    HW115626   6.669   0.532   5.134
 4909SOL    HW215627   6.533   0.444   5.152
 4910SOL     OW15628   6.318   0.251   5.306
 4910SOL    HW115629   6.396   0.225   5.363
 4910SOL    HW215630   6.343   0.330   5.249
 4911SOL     OW15631   0.350   3.310   5.960
 4911SOL    HW115632   0.344   3.318   6.060
 4911SOL    HW215633   0.258   3.306   5.921
 4912SOL     OW15634   2.618   2.379   2.073
 4912SOL    HW115635   2.715   2.362   2.059
 4912SOL    HW215636   2.605   2.431   2.158
 4913SOL     OW15637   2.892   3.563   2.265
 4913SOL    HW115638   2.879   3.595   2.359
 4913SOL    HW215639   2.840   3.479   2.250
 4914SOL     OW15640   1.654   6.236   3.468
 4914SOL    HW115641   1.576   6.233   3.406
 4914SOL    HW215642   1.677   6.331   3.487
 4915SOL     OW15643   3.409   5.540   3.405
 4915SOL    HW115644   3.384   5.512   3.312
 4915SOL    HW215645   3.506   5.567   3.406
 4916SOL     OW15646   2.194   1.449   2.368
 4916SOL    HW115647   2.114   1.415   2.417
 4916SOL    HW215648   2.180   1.435   2.269
 4917SOL     OW15649   1.292   5.554   0.258
 4917SOL    HW115650   1.359   5.494   0.215
 4917SOL    HW215651   1.232   5.592   0.187
 4918SOL     OW15652   2.466   0.481   2.514
 4918SOL    HW115653   2.544   0.518   2.565
 4918SOL    HW215654   2.461   0.382   2.530
 4919SOL     OW15655   2.675   2.826   1.676
 4919SOL    HW115656   2.654   2.855   1.583
 4919SOL    HW215657   2.717   2.735   1.674
 4920SOL     OW15658   4.343   0.753   6.976
 4920SOL    HW115659   4.336   0.682   0.029
 4920SOL    HW215660   4.318   0.842   7.015
 4921SOL     OW15661   1.410   4.703   1.956
 4921SOL    HW115662   1.403   4.786   1.901
 4921SOL    HW215663   1.373   4.626   1.904
 4922SOL     OW15664   0.831   2.897   5.832
 4922SOL    HW115665   0.852   2.952   5.913
 4922SOL    HW215666   0.867   2.805   5.845
 4923SOL     OW15667   3.744   1.481   1.143
 4923SOL    HW115668   3.829   1.531   1.159
 4923SOL    HW215669   3.710   1.446   1.230
 4924SOL     OW15670   0.746   4.231   4.436
 4924SOL    HW115671   0.786   4.287   4.364
 4924SOL    HW215672   0.772   4.135   4.422
 4925SOL     OW15673   4.464   6.148   6.254
 4925SOL    HW115674   4.417   6.177   6.170
 4925SOL    HW215675   4.537   6.085   6.232
 4926SOL     OW15676   4.670   2.314   2.024
 4926SOL    HW115677   4.670   2.414   2.032
 4926SOL    HW215678   4.686   2.273   2.114
 4927SOL     OW15679   3.749   3.775   3.032
 4927SOL    HW115680   3.726   3.763   3.129
 4927SOL    HW215681   3.685   3.838   2.989
 4928SOL     OW15682   0.791   6.221   0.646
 4928SOL    HW115683   0.734   6.236   0.726
 4928SOL    HW215684   0.878   6.269   0.657
 4929SOL     OW15685   0.758   4.808   4.159
 4929SOL    HW115686   0.796   4.871   4.228
 4929SOL    HW215687   0.666   4.838   4.134
 4930SOL     OW15688   6.788   1.925   0.728
 4930SOL    HW115689   6.875   1.968   0.707
 4930SOL    HW215690   6.802   1.827   0.744
 4931SOL     OW15691   6.953   0.760   1.232
 4931SOL    HW115692   0.030   0.792   1.219
 4931SOL    HW215693   6.895   0.797   1.160
 4932SOL     OW15694   3.455   2.239   0.973
 4932SOL    HW115695   3.551   2.267   0.970
 4932SOL    HW215696   3.445   2.148   0.933
 4933SOL     OW15697   2.331   1.007   4.734
 4933SOL    HW115698   2.232   1.002   4.746
 4933SOL    HW215699   2.373   1.037   4.820
 4934SOL     OW15700   1.327   6.305   5.061
 4934SOL    HW115701   1.262   6.370   5.021
 4934SOL    HW215702   1.410   6.302   5.005
 4935SOL     OW15703   1.504   1.184   0.635
 4935SOL    HW115704   1.412   1.222   0.640
 4935SOL    HW215705   1.571   1.254   0.658
 4936SOL     OW15706   3.770   5.764   0.584
 4936SOL    HW115707   3.704   5.783   0.656
 4936SOL    HW215708   3.818   5.678   0.605
 4937SOL     OW15709   0.683   3.092   6.251
 4937SOL    HW115710   0.650   3.064   6.341
 4937SOL    HW215711   0.730   3.180   6.258
 4938SOL     OW15712   3.538   4.589   1.457
 4938SOL    HW115713   3.457   4.551   1.501
 4938SOL    HW215714   3.588   4.516   1.411
 4939SOL     OW15715   1.280   2.058   2.496
 4939SOL    HW115716   1.195   2.037   2.447
 4939SOL    HW215717   1.269   2.146   2.543
 4940SOL     OW15718   6.970   2.206   5.107
 4940SOL    HW115719   0.045   2.201   5.145
 4940SOL    HW215720   6.903   2.196   5.180
 4941SOL     OW15721   4.093   1.947   5.377
 4941SOL    HW115722   4.146   1.939   5.293
 4941SOL    HW215723   4.012   2.002   5.360
 4942SOL     OW15724   0.011   1.562   3.464
 4942SOL    HW115725   0.099   1.576   3.508
 4942SOL    HW215726   6.962   1.524   3.529
 4943SOL     OW15727   5.101   2.966   6.491
 4943SOL    HW115728   5.009   2.957   6.530
 4943SOL    HW215729   5.151   3.037   6.539
 4944SOL     OW15730   1.223   4.976   0.577
 4944SOL    HW115731   1.187   4.979   0.670
 4944SOL    HW215732   1.179   4.902   0.527
 4945SOL     OW15733   2.267   0.609   5.065
 4945SOL    HW115734   2.228   0.544   4.999
 4945SOL    HW215735   2.306   0.558   5.142
 4946SOL     OW15736   2.540   4.882   0.175
 4946SOL    HW115737   2.552   4.963   0.119
 4946SOL    HW215738   2.442   4.862   0.183
 4947SOL     OW15739   1.176   0.991   1.937
 4947SOL    HW115740   1.120   1.004   1.855
 4947SOL    HW215741   1.268   0.964   1.910
 4948SOL     OW15742   1.653   2.467   1.719
 4948SOL    HW115743   1.626   2.401   1.648
 4948SOL    HW215744   1.718   2.532   1.680
 4949SOL     OW15745   0.290   4.598   6.923
 4949SOL    HW115746   0.223   4.554   6.863
 4949SOL    HW215747   0.242   4.655   6.989
 4950SOL     OW15748   2.993   4.034   5.622
 4950SOL    HW115749   2.895   4.051   5.615
 4950SOL    HW215750   3.010   3.948   5.670
 4951SOL     OW15751   5.297   5.405   3.357
 4951SOL    HW115752   5.222   5.398   3.291
 4951SOL    HW215753   5.365   5.470   3.324
 4952SOL     OW15754   0.608   6.855   6.468
 4952SOL    HW115755   0.618   6.898   6.558
 4952SOL    HW215756   0.617   6.756   6.477
 4953SOL     OW15757   0.804   1.722   4.894
 4953SOL    HW115758   0.776   1.754   4.985
 4953SOL    HW215759   0.748   1.767   4.825
 4954SOL     OW15760   3.340   3.905   5.209
 4954SOL    HW115761   3.296   3.961   5.138
 4954SOL    HW215762   3.293   3.919   5.296
 4955SOL     OW15763   3.498   5.050   6.385
 4955SOL    HW115764   3.515   4.998   6.302
 4955SOL    HW215765   3.581   5.099   6.412
 4956SOL     OW15766   2.970   0.147   4.633
 4956SOL    HW115767   2.993   0.212   4.704
 4956SOL    HW215768   3.010   0.058   4.655
 4957SOL     OW15769   5.838   4.307   6.583
 4957SOL    HW115770   5.912   4.279   6.522
 4957SOL    HW215771   5.876   4.340   6.669
 4958SOL     OW15772   3.558   6.100   0.444
 4958SOL    HW115773   3.522   6.009   0.422
 4958SOL    HW215774   3.626   6.126   0.375
 4959SOL     OW15775   0.598   2.270   2.848
 4959SOL    HW115776   0.650   2.233   2.925
 4959SOL    HW215777   0.650   2.344   2.805
 4960SOL     OW15778   4.217   4.740   4.171
 4960SOL    HW115779   4.218   4.695   4.260
 4960SOL    HW215780   4.292   4.807   4.168
 4961SOL     OW15781   3.794   0.928   0.515
 4961SOL    HW115782   3.865   0.983   0.558
 4961SOL    HW215783   3.710   0.982   0.507
 4962SOL     OW15784   1.490   3.967   1.031
 4962SOL    HW115785   1.406   3.999   1.074
 4962SOL    HW215786   1.544   4.046   1.001
 4963SOL     OW15787   1.275   3.829   6.335
 4963SOL    HW115788   1.192   3.836   6.389
 4963SOL    HW215789   1.287   3.735   6.305
 4964SOL     OW15790   2.452   6.746   4.569
 4964SOL    HW115791   2.510   6.755   4.488
 4964SOL    HW215792   2.503   6.776   4.650
 4965SOL     OW15793   1.872   6.073   3.432
 4965SOL    HW115794   1.774   6.068   3.414
 4965SOL    HW215795   1.895   6.164   3.467
 4966SOL     OW15796   2.783   6.909   4.479
 4966SOL    HW115797   2.744   6.869   4.396
 4966SOL    HW215798   2.823   6.837   4.535
 4967SOL     OW15799   4.459   4.733   4.845
 4967SOL    HW115800   4.458   4.806   4.914
 4967SOL    HW215801   4.433   4.647   4.888
 4968SOL     OW15802   6.375   2.530   3.206
 4968SOL    HW115803   6.466   2.526   3.165
 4968SOL    HW215804   6.345   2.437   3.229
 4969SOL     OW15805   0.770   6.343   3.126
 4969SOL    HW115806   0.721   6.423   3.159
 4969SOL    HW215807   0.867   6.366   3.115
 4970SOL     OW15808   0.672   1.730   1.475
 4970SOL    HW115809   0.592   1.746   1.532
 4970SOL    HW215810   0.747   1.697   1.532
 4971SOL     OW15811   6.591   6.127   2.733
 4971SOL    HW115812   6.675   6.073   2.723
 4971SOL    HW215813   6.535   6.118   2.651
 4972SOL     OW15814   0.901   4.201   1.197
 4972SOL    HW115815   0.898   4.290   1.152
 4972SOL    HW215816   0.996   4.168   1.199
 4973SOL     OW15817   6.538   0.834   1.024
 4973SOL    HW115818   6.445   0.870   1.022
 4973SOL    HW215819   6.541   0.748   0.973
 4974SOL     OW15820   3.440   5.834   5.086
 4974SOL    HW115821   3.414   5.777   5.164
 4974SOL    HW215822   3.434   5.780   5.002
 4975SOL     OW15823   5.862   4.536   0.837
 4975SOL    HW115824   5.882   4.632   0.815
 4975SOL    HW215825   5.785   4.531   0.900
 4976SOL     OW15826   1.915   6.725   3.254
 4976SOL    HW115827   1.871   6.689   3.336
 4976SOL    HW215828   1.913   6.657   3.181
 4977SOL     OW15829   1.966   4.530   6.178
 4977SOL    HW115830   1.985   4.559   6.084
 4977SOL    HW215831   1.971   4.609   6.238
 4978SOL     OW15832   4.903   4.451   4.616
 4978SOL    HW115833   4.826   4.388   4.609
 4978SOL    HW215834   4.966   4.436   4.540
 4979SOL     OW15835   2.527   6.953   6.092
 4979SOL    HW115836   2.596   0.002   6.124
 4979SOL    HW215837   2.467   6.928   6.168
 4980SOL     OW15838   5.344   3.439   3.647
 4980SOL    HW115839   5.401   3.518   3.672
 4980SOL    HW215840   5.351   3.424   3.549
 4981SOL     OW15841   3.309   4.900   2.354
 4981SOL    HW115842   3.286   4.807   2.325
 4981SOL    HW215843   3.398   4.925   2.315
 4982SOL     OW15844   3.927   1.582   5.960
 4982SOL    HW115845   3.950   1.666   6.009
 4982SOL    HW215846   3.919   1.506   6.025
 4983SOL     OW15847   5.746   5.538   2.865
 4983SOL    HW115848   5.809   5.466   2.896
 4983SOL    HW215849   5.765   5.623   2.914
 4984SOL     OW15850   5.016   4.327   2.984
 4984SOL    HW115851   4.991   4.236   2.951
 4984SOL    HW215852   4.944   4.392   2.960
 4985SOL     OW15853   5.328   6.661   2.483
 4985SOL    HW115854   5.338   6.620   2.393
 4985SOL    HW215855   5.242   6.630   2.525
 4986SOL     OW15856   0.101   4.930   2.566
 4986SOL    HW115857   0.023   4.910   2.506
 4986SOL    HW215858   0.084   5.015   2.615
 4987SOL     OW15859   0.789   1.324   2.356
 4987SOL    HW115860   0.694   1.325   2.386
 4987SOL    HW215861   0.803   1.251   2.289
 4988SOL     OW15862   5.888   6.497   3.332
 4988SOL    HW115863   5.937   6.549   3.401
 4988SOL    HW215864   5.877   6.402   3.363
 4989SOL     OW15865   4.324   0.267   2.724
 4989SOL    HW115866   4.268   0.195   2.764
 4989SOL    HW215867   4.266   0.337   2.683
 4990SOL     OW15868   4.427   2.144   5.110
 4990SOL    HW115869   4.459   2.201   5.186
 4990SOL    HW215870   4.365   2.196   5.052
 4991SOL     OW15871   1.057   5.151   4.899
 4991SOL    HW115872   1.144   5.200   4.900
 4991SOL    HW215873   0.990   5.200   4.955
 4992SOL     OW15874   0.463   2.715   3.970
 4992SOL    HW115875   0.447   2.676   4.061
 4992SOL    HW215876   0.522   2.654   3.917
 4993SOL     OW15877   3.323   6.097   3.872
 4993SOL    HW115878   3.359   6.058   3.956
 4993SOL    HW215879   3.343   6.035   3.795
 4994SOL     OW15880   3.328   4.462   5.359
 4994SOL    HW115881   3.337   4.522   5.439
 4994SOL    HW215882   3.326   4.518   5.276
 4995SOL     OW15883   0.735   0.081   5.570
 4995SOL    HW115884   0.754   7.015   5.518
 4995SOL    HW215885   0.813   0.103   5.628
 4996SOL     OW15886   6.881   1.456   4.510
 4996SOL    HW115887   6.914   1.442   4.603
 4996SOL    HW215888   6.953   1.498   4.455
 4997SOL     OW15889   3.706   1.817   1.710
 4997SOL    HW115890   3.792   1.780   1.746
 4997SOL    HW215891   3.713   1.917   1.705
 4998SOL     OW15892   0.373   3.818   3.661
 4998SOL    HW115893   0.282   3.801   3.698
 4998SOL    HW215894   0.367   3.830   3.562
 4999SOL     OW15895   0.798   3.450   4.308
 4999SOL    HW115896   0.704   3.431   4.277
 4999SOL    HW215897   0.852   3.366   4.302
 5000SOL     OW15898   3.104   5.465   2.575
 5000SOL    HW115899   3.151   5.481   2.661
 5000SOL    HW215900   3.009   5.496   2.582
 5001SOL     OW15901   0.492   5.403   3.187
 5001SOL    HW115902   0.464   5.497   3.168
 5001SOL    HW215903   0.444   5.370   3.268
 5002SOL     OW15904   0.583   2.904   3.246
 5002SOL    HW115905   0.601   3.001   3.261
 5002SOL    HW215906   0.484   2.888   3.240
 5003SOL     OW15907   4.230   0.029   3.977
 5003SOL    HW115908   4.295   6.976   3.948
 5003SOL    HW215909   4.137   7.015   3.958
 5004SOL     OW15910   2.256   5.848   6.709
 5004SOL    HW115911   2.248   5.780   6.782
 5004SOL    HW215912   2.218   5.935   6.741
 5005SOL     OW15913   3.399   2.206   0.215
 5005SOL    HW115914   3.379   2.298   0.181
 5005SOL    HW215915   3.318   2.168   0.260
 5006SOL     OW15916   5.264   1.754   2.063
 5006SOL    HW115917   5.252   1.655   2.062
 5006SOL    HW215918   5.176   1.798   2.083
 5007SOL     OW15919   6.053   6.769   2.020
 5007SOL    HW115920   6.125   6.783   2.088
 5007SOL    HW215921   5.977   6.830   2.040
 5008SOL     OW15922   5.637   6.435   2.214
 5008SOL    HW115923   5.694   6.394   2.142
 5008SOL    HW215924   5.603   6.362   2.274
 5009SOL     OW15925   6.947   2.626   0.843
 5009SOL    HW115926   6.850   2.647   0.854
 5009SOL    HW215927   6.996   2.708   0.813
 5010SOL     OW15928   4.152   3.596   0.744
 5010SOL    HW115929   4.097   3.651   0.681
 5010SOL    HW215930   4.093   3.558   0.815
 5011SOL     OW15931   2.095   3.387   6.864
 5011SOL    HW115932   2.031   3.461   6.842
 5011SOL    HW215933   2.182   3.403   6.818
 5012SOL     OW15934   5.805   2.192   4.937
 5012SOL    HW115935   5.790   2.124   4.866
 5012SOL    HW215936   5.868   2.156   5.006
 5013SOL     OW15937   5.963   0.552   5.735
 5013SOL    HW115938   5.940   0.458   5.759
 5013SOL    HW215939   6.062   0.563   5.732
 5014SOL     OW15940   6.577   3.544   1.378
 5014SOL    HW115941   6.501   3.597   1.340
 5014SOL    HW215942   6.601   3.470   1.315
 5015SOL     OW15943   5.643   6.520   4.015
 5015SOL    HW115944   5.593   6.539   3.930
 5015SOL    HW215945   5.577   6.503   4.088
 5016SOL     OW15946   1.749   3.750   5.390
 5016SOL    HW115947   1.714   3.829   5.340
 5016SOL    HW215948   1.676   3.682   5.400
 5017SOL     OW15949   0.552   2.776   1.720
 5017SOL    HW115950   0.565   2.875   1.722
 5017SOL    HW215951   0.454   2.755   1.711
 5018SOL     OW15952   0.628   6.806   0.756
 5018SOL    HW115953   0.547   6.852   0.720
 5018SOL    HW215954   0.604   6.756   0.839
 5019SOL     OW15955   1.309   5.395   5.248
 5019SOL    HW115956   1.227   5.421   5.298
 5019SOL    HW215957   1.388   5.444   5.285
 5020SOL     OW15958   1.815   0.163   4.437
 5020SOL    HW115959   1.870   0.246   4.446
 5020SOL    HW215960   1.857   0.103   4.369
 5021SOL     OW15961   1.387   1.511   1.229
 5021SOL    HW115962   1.339   1.449   1.167
 5021SOL    HW215963   1.331   1.528   1.311
 5022SOL     OW15964   0.447   3.440   1.364
 5022SOL    HW115965   0.467   3.362   1.305
 5022SOL    HW215966   0.389   3.505   1.314
 5023SOL     OW15967   6.869   4.405   2.710
 5023SOL    HW115968   6.937   4.353   2.658
 5023SOL    HW215969   6.842   4.353   2.791
 5024SOL     OW15970   4.723   3.674   1.376
 5024SOL    HW115971   4.736   3.669   1.475
 5024SOL    HW215972   4.656   3.607   1.347
 5025SOL     OW15973   3.951   0.872   3.690
 5025SOL    HW115974   4.015   0.949   3.697
 5025SOL    HW215975   3.859   0.906   3.672
 5026SOL     OW15976   4.388   7.012   4.956
 5026SOL    HW115977   4.438   0.058   5.015
 5026SOL    HW215978   4.393   0.026   4.861
 5027SOL     OW15979   5.057   0.533   0.039
 5027SOL    HW115980   5.156   0.547   0.048
 5027SOL    HW215981   5.012   0.622   0.034
 5028SOL     OW15982   0.349   2.054   2.975
 5028SOL    HW115983   0.402   2.066   2.891
 5028SOL    HW215984   0.341   2.142   3.023
 5029SOL     OW15985   5.931   1.727   3.076
 5029SOL    HW115986   5.864   1.796   3.049
 5029SOL    HW215987   5.921   1.707   3.174
 5030SOL     OW15988   0.214   4.701   6.533
 5030SOL    HW115989   0.164   4.764   6.473
 5030SOL    HW215990   0.238   4.618   6.482
 5031SOL     OW15991   6.823   0.341   6.140
 5031SOL    HW115992   6.803   0.328   6.237
 5031SOL    HW215993   6.737   0.353   6.089
 5032SOL     OW15994   3.108   3.228   5.243
 5032SOL    HW115995   3.171   3.287   5.193
 5032SOL    HW215996   3.154   3.191   5.324
 5033SOL     OW15997   1.591   1.368   0.061
 5033SOL    HW115998   1.516   1.376   7.013
 5033SOL    HW215999   1.598   1.274   0.093
 5034SOL     OW16000   4.285   6.521   3.917
 5034SOL    HW116001   4.302   6.617   3.939
 5034SOL    HW216002   4.208   6.514   3.853
 5035SOL     OW16003   1.073   4.541   3.679
 5035SOL    HW116004   1.039   4.600   3.605
 5035SOL    HW216005   1.142   4.591   3.731
 5036SOL     OW16006   6.136   2.781   5.353
 5036SOL    HW116007   6.181   2.711   5.298
 5036SOL    HW216008   6.153   2.871   5.312
 5037SOL     OW16009   4.482   4.486   0.673
 5037SOL    HW116010   4.567   4.452   0.632
 5037SOL    HW216011   4.442   4.556   0.613
 5038SOL     OW16012   3.354   3.709   3.873
 5038SOL    HW116013   3.266   3.746   3.902
 5038SOL    HW216014   3.348   3.610   3.867
 5039SOL     OW16015   0.654   3.442   6.684
 5039SOL    HW116016   0.599   3.358   6.688
 5039SOL    HW216017   0.751   3.419   6.686
 5040SOL     OW16018   0.847   6.092   6.696
 5040SOL    HW116019   0.789   6.016   6.669
 5040SOL    HW216020   0.940   6.059   6.712
 5041SOL     OW16021   0.147   3.395   2.276
 5041SOL    HW116022   0.219   3.416   2.342
 5041SOL    HW216023   0.076   3.465   2.281
 5042SOL     OW16024   0.746   3.519   5.884
 5042SOL    HW116025   0.748   3.421   5.862
 5042SOL    HW216026   0.701   3.532   5.972
 5043SOL     OW16027   3.711   6.936   0.910
 5043SOL    HW116028   3.771   7.011   0.880
 5043SOL    HW216029   3.759   6.849   0.900
 5044SOL     OW16030   5.723   5.419   0.609
 5044SOL    HW116031   5.663   5.446   0.534
 5044SOL    HW216032   5.725   5.492   0.678
 5045SOL     OW16033   6.316   3.347   6.055
 5045SOL    HW116034   6.328   3.259   6.102
 5045SOL    HW216035   6.304   3.419   6.123
 5046SOL     OW16036   3.428   3.152   3.572
 5046SOL    HW116037   3.422   3.182   3.667
 5046SOL    HW216038   3.488   3.071   3.566
 5047SOL     OW16039   1.753   4.107   3.144
 5047SOL    HW116040   1.834   4.102   3.203
 5047SOL    HW216041   1.747   4.199   3.104
 5048SOL     OW16042   1.330   1.047   5.933
 5048SOL    HW116043   1.345   1.125   5.995
 5048SOL    HW216044   1.247   0.999   5.960
 5049SOL     OW16045   5.574   0.907   6.196
 5049SOL    HW116046   5.584   1.003   6.219
 5049SOL    HW216047   5.582   0.852   6.279
 5050SOL     OW16048   1.864   0.961   1.456
 5050SOL    HW116049   1.855   0.978   1.357
 5050SOL    HW216050   1.960   0.948   1.479
 5051SOL     OW16051   3.904   4.753   1.436
 5051SOL    HW116052   3.855   4.732   1.521
 5051SOL    HW216053   3.938   4.847   1.439
 5052SOL     OW16054   2.853   1.232   5.750
 5052SOL    HW116055   2.915   1.262   5.823
 5052SOL    HW216056   2.805   1.149   5.778
 5053SOL     OW16057   0.314   6.413   2.336
 5053SOL    HW116058   0.406   6.441   2.365
 5053SOL    HW216059   0.311   6.314   2.326
 5054SOL     OW16060   4.089   4.940   4.326
 5054SOL    HW116061   4.143   4.948   4.410
 5054SOL    HW216062   4.113   4.855   4.279
 5055SOL     OW16063   6.370   2.980   6.780
 5055SOL    HW116064   6.447   2.924   6.811
 5055SOL    HW216065   6.298   2.920   6.745
 5056SOL     OW16066   5.495   4.133   5.152
 5056SOL    HW116067   5.427   4.146   5.223
 5056SOL    HW216068   5.466   4.181   5.069
 5057SOL     OW16069   1.169   6.617   2.821
 5057SOL    HW116070   1.144   6.646   2.913
 5057SOL    HW216071   1.088   6.618   2.762
 5058SOL     OW16072   2.876   4.615   6.224
 5058SOL    HW116073   2.885   4.713   6.238
 5058SOL    HW216074   2.780   4.589   6.231
 5059SOL     OW16075   0.539   0.990   2.493
 5059SOL    HW116076   0.635   0.976   2.516
 5059SOL    HW216077   0.532   1.034   2.403
 5060SOL     OW16078   6.283   1.878   5.694
 5060SOL    HW116079   6.368   1.922   5.724
 5060SOL    HW216080   6.280   1.785   5.729
 5061SOL     OW16081   5.055   3.821   0.177
 5061SOL    HW116082   5.076   3.742   0.119
 5061SOL    HW216083   5.034   3.900   0.119
 5062SOL     OW16084   0.429   7.001   1.272
 5062SOL    HW116085   0.492   0.045   1.320
 5062SOL    HW216086   0.419   0.014   1.177
 5063SOL     OW16087   1.173   6.792   1.947
 5063SOL    HW116088   1.268   6.822   1.937
 5063SOL    HW216089   1.149   6.789   2.044
 5064SOL     OW16090   4.604   2.936   0.365
 5064SOL    HW116091   4.547   3.010   0.328
 5064SOL    HW216092   4.631   2.875   0.291
 5065SOL     OW16093   2.303   6.472   6.215
 5065SOL    HW116094   2.259   6.492   6.302
 5065SOL    HW216095   2.267   6.387   6.178
 5066SOL     OW16096   5.763   5.286   1.135
 5066SOL    HW116097   5.812   5.340   1.204
 5066SOL    HW216098   5.828   5.230   1.084
 5067SOL     OW16099   4.737   1.576   0.325
 5067SOL    HW116100   4.742   1.640   0.401
 5067SOL    HW216101   4.784   1.491   0.350
 5068SOL     OW16102   2.609   5.147   0.768
 5068SOL    HW116103   2.670   5.120   0.842
 5068SOL    HW216104   2.543   5.074   0.750
 5069SOL     OW16105   0.461   4.703   2.708
 5069SOL    HW116106   0.454   4.659   2.619
 5069SOL    HW216107   0.372   4.741   2.734
 5070SOL     OW16108   5.216   2.810   4.107
 5070SOL    HW116109   5.286   2.749   4.144
 5070SOL    HW216110   5.183   2.773   4.020
 5071SOL     OW16111   4.894   1.814   6.866
 5071SOL    HW116112   4.978   1.861   6.837
 5071SOL    HW216113   4.868   1.845   6.957
 5072SOL     OW16114   0.998   4.448   1.419
 5072SOL    HW116115   0.960   4.378   1.478
 5072SOL    HW216116   0.925   4.504   1.380
 5073SOL     OW16117   4.535   0.842   3.211
 5073SOL    HW116118   4.487   0.875   3.129
 5073SOL    HW216119   4.491   0.759   3.244
 5074SOL     OW16120   2.630   3.818   6.281
 5074SOL    HW116121   2.589   3.825   6.372
 5074SOL    HW216122   2.587   3.885   6.219
 5075SOL     OW16123   0.297   5.886   4.792
 5075SOL    HW116124   0.392   5.919   4.798
 5075SOL    HW216125   0.268   5.886   4.697
 5076SOL     OW16126   3.279   0.334   1.399
 5076SOL    HW116127   3.229   0.298   1.320
 5076SOL    HW216128   3.374   0.353   1.372
 5077SOL     OW16129   0.633   2.232   3.317
 5077SOL    HW116130   0.580   2.191   3.391
 5077SOL    HW216131   0.633   2.332   3.327
 5078SOL     OW16132   1.274   1.929   4.054
 5078SOL    HW116133   1.177   1.951   4.050
 5078SOL    HW216134   1.308   1.946   4.147
 5079SOL     OW16135   3.910   5.154   5.766
 5079SOL    HW116136   3.925   5.118   5.674
 5079SOL    HW216137   3.812   5.161   5.783
 5080SOL     OW16138   6.018   6.886   5.760
 5080SOL    HW116139   6.041   6.958   5.695
 5080SOL    HW216140   6.102   6.850   5.801
 5081SOL     OW16141   3.565   3.470   3.857
 5081SOL    HW116142   3.597   3.443   3.948
 5081SOL    HW216143   3.609   3.556   3.830
 5082SOL     OW16144   5.424   5.832   4.787
 5082SOL    HW116145   5.425   5.920   4.738
 5082SOL    HW216146   5.346   5.831   4.851
 5083SOL     OW16147   2.039   6.283   1.584
 5083SOL    HW116148   2.132   6.275   1.618
 5083SOL    HW216149   2.040   6.279   1.484
 5084SOL     OW16150   1.633   5.936   3.322
 5084SOL    HW116151   1.563   5.998   3.285
 5084SOL    HW216152   1.652   5.864   3.255
 5085SOL     OW16153   6.374   2.559   6.390
 5085SOL    HW116154   6.314   2.493   6.435
 5085SOL    HW216155   6.442   2.592   6.455
 5086SOL     OW16156   6.613   4.899   3.361
 5086SOL    HW116157   6.566   4.972   3.410
 5086SOL    HW216158   6.621   4.924   3.265
 5087SOL     OW16159   6.804   5.386   5.756
 5087SOL    HW116160   6.800   5.441   5.673
 5087SOL    HW216161   6.900   5.373   5.782
 5088SOL     OW16162   5.672   0.362   6.185
 5088SOL    HW116163   5.615   0.304   6.127
 5088SOL    HW216164   5.700   0.443   6.133
 5089SOL     OW16165   5.762   3.764   3.617
 5089SOL    HW116166   5.759   3.676   3.665
 5089SOL    HW216167   5.678   3.775   3.563
 5090SOL     OW16168   1.777   5.250   1.136
 5090SOL    HW116169   1.780   5.196   1.220
 5090SOL    HW216170   1.692   5.229   1.087
 5091SOL     OW16171   1.308   6.046   2.723
 5091SOL    HW116172   1.306   6.143   2.747
 5091SOL    HW216173   1.257   5.994   2.791
 5092SOL     OW16174   4.348   2.314   1.310
 5092SOL    HW116175   4.414   2.267   1.369
 5092SOL    HW216176   4.271   2.347   1.364
 5093SOL     OW16177   0.778   2.033   2.049
 5093SOL    HW116178   0.796   1.951   2.104
 5093SOL    HW216179   0.836   2.033   1.968
 5094SOL     OW16180   0.839   6.864   5.469
 5094SOL    HW116181   0.928   6.862   5.515
 5094SOL    HW216182   0.787   6.782   5.495
 5095SOL     OW16183   2.753   7.007   4.843
 5095SOL    HW116184   2.852   6.995   4.850
 5095SOL    HW216185   2.730   0.023   4.752
 5096SOL     OW16186   4.103   4.241   0.905
 5096SOL    HW116187   4.026   4.266   0.964
 5096SOL    HW216188   4.099   4.143   0.884
 5097SOL     OW16189   1.584   6.866   6.366
 5097SOL    HW116190   1.651   6.864   6.292
 5097SOL    HW216191   1.609   6.936   6.433
 5098SOL     OW16192   0.278   1.707   2.461
 5098SOL    HW116193   0.265   1.624   2.407
 5098SOL    HW216194   0.356   1.758   2.425
 5099SOL     OW16195   1.328   0.381   5.261
 5099SOL    HW116196   1.349   0.289   5.294
 5099SOL    HW216197   1.400   0.411   5.199
 5100SOL     OW16198   5.320   0.134   6.432
 5100SOL    HW116199   5.375   0.100   6.356
 5100SOL    HW216200   5.228   0.158   6.399
 5101SOL     OW16201   4.151   6.361   0.233
 5101SOL    HW116202   4.212   6.434   0.263
 5101SOL    HW216203   4.081   6.344   0.303
 5102SOL     OW16204   3.457   5.961   5.376
 5102SOL    HW116205   3.415   5.870   5.373
 5102SOL    HW216206   3.442   6.007   5.289
 5103SOL     OW16207   0.387   0.574   4.106
 5103SOL    HW116208   0.404   0.501   4.040
 5103SOL    HW216209   0.352   0.535   4.191
 5104SOL     OW16210   1.527   0.419   1.247
 5104SOL    HW116211   1.520   0.518   1.237
 5104SOL    HW216212   1.436   0.378   1.240
 5105SOL     OW16213   2.993   3.955   6.299
 5105SOL    HW116214   3.007   3.958   6.398
 5105SOL    HW216215   2.953   3.866   6.274
 5106SOL     OW16216   3.513   0.706   2.317
 5106SOL    HW116217   3.472   0.710   2.408
 5106SOL    HW216218   3.455   0.653   2.256
 5107SOL     OW16219   1.938   6.795   5.646
 5107SOL    HW116220   2.022   6.834   5.609
 5107SOL    HW216221   1.911   6.844   5.729
 5108SOL     OW16222   3.437   3.553   4.275
 5108SOL    HW116223   3.400   3.638   4.310
 5108SOL    HW216224   3.405   3.476   4.330
 5109SOL     OW16225   0.267   1.359   1.492
 5109SOL    HW116226   0.240   1.447   1.530
 5109SOL    HW216227   0.185   1.308   1.465
 5110SOL     OW16228   2.315   5.705   5.545
 5110SOL    HW116229   2.299   5.633   5.613
 5110SOL    HW216230   2.412   5.729   5.544
 5111SOL     OW16231   1.576   0.992   1.042
 5111SOL    HW116232   1.512   0.984   0.965
 5111SOL    HW216233   1.525   1.020   1.124
 5112SOL     OW16234   0.358   5.926   3.725
 5112SOL    HW116235   0.285   5.866   3.694
 5112SOL    HW216236   0.389   5.897   3.815
 5113SOL     OW16237   1.298   0.074   6.864
 5113SOL    HW116238   1.282   0.125   6.949
 5113SOL    HW216239   1.246   7.006   6.867
 5114SOL     OW16240   3.811   4.872   0.101
 5114SOL    HW116241   3.852   4.962   0.088
 5114SOL    HW216242   3.865   4.820   0.168
 5115SOL     OW16243   1.841   3.509   5.671
 5115SOL    HW116244   1.935   3.540   5.690
 5115SOL    HW216245   1.842   3.447   5.593
 5116SOL     OW16246   6.870   4.496   0.532
 5116SOL    HW116247   6.798   4.488   0.602
 5116SOL    HW216248   6.868   4.415   0.473
 5117SOL     OW16249   2.383   4.446   4.503
 5117SOL    HW116250   2.388   4.404   4.412
 5117SOL    HW216251   2.391   4.374   4.572
 5118SOL     OW16252   4.384   6.604   1.056
 5118SOL    HW116253   4.465   6.555   1.022
 5118SOL    HW216254   4.356   6.565   1.144
 5119SOL     OW16255   5.764   6.816   2.005
 5119SOL    HW116256   5.773   6.884   1.933
 5119SOL    HW216257   5.764   6.725   1.965
 5120SOL     OW16258   4.965   1.739   2.432
 5120SOL    HW116259   4.882   1.722   2.486
 5120SOL    HW216260   5.032   1.667   2.450
 5121SOL     OW16261   0.603   3.649   5.387
 5121SOL    HW116262   0.573   3.555   5.403
 5121SOL    HW216263   0.652   3.655   5.301
 5122SOL     OW16264   1.907   6.342   3.619
 5122SOL    HW116265   1.837   6.406   3.652
 5122SOL    HW216266   1.980   6.393   3.573
 5123SOL     OW16267   5.760   4.646   2.236
 5123SOL    HW116268   5.754   4.731   2.183
 5123SOL    HW216269   5.700   4.577   2.196
 5124SOL     OW16270   2.707   6.794   0.035
 5124SOL    HW116271   2.800   6.826   0.051
 5124SOL    HW216272   2.688   6.796   6.954
 5125SOL     OW16273   0.052   3.170   5.045
 5125SOL    HW116274   0.139   3.163   4.996
 5125SOL    HW216275   0.030   3.266   5.061
 5126SOL     OW16276   5.462   3.671   6.274
 5126SOL    HW116277   5.450   3.755   6.328
 5126SOL    HW216278   5.532   3.613   6.318
 5127SOL     OW16279   6.121   3.140   6.838
 5127SOL    HW116280   6.025   3.163   6.852
 5127SOL    HW216281   6.128   3.064   6.772
 5128SOL     OW16282   0.276   0.779   6.934
 5128SOL    HW116283   0.213   0.856   6.940
 5128SOL    HW216284   0.236   0.707   6.878
 5129SOL     OW16285   4.271   2.058   2.549
 5129SOL    HW116286   4.291   1.986   2.616
 5129SOL    HW216287   4.185   2.036   2.502
 5130SOL     OW16288   1.219   6.099   4.543
 5130SOL    HW116289   1.250   6.014   4.502
 5130SOL    HW216290   1.212   6.088   4.642
 5131SOL     OW16291   3.153   4.873   3.566
 5131SOL    HW116292   3.131   4.970   3.560
 5131SOL    HW216293   3.185   4.851   3.658
 5132SOL     OW16294   3.661   1.183   0.007
 5132SOL    HW116295   3.716   1.220   6.949
 5132SOL    HW216296   3.647   1.253   0.076
 5133SOL     OW16297   4.902   4.449   6.716
 5133SOL    HW116298   4.916   4.538   6.759
 5133SOL    HW216299   4.818   4.451   6.662
 5134SOL     OW16300   6.565   6.437   1.059
 5134SOL    HW116301   6.493   6.475   1.116
 5134SOL    HW216302   6.598   6.508   0.995
 5135SOL     OW16303   6.442   3.378   1.935
 5135SOL    HW116304   6.404   3.439   1.865
 5135SOL    HW216305   6.413   3.284   1.918
 5136SOL     OW16306   1.092   0.906   5.953
 5136SOL    HW116307   1.000   0.903   5.913
 5136SOL    HW216308   1.105   0.825   6.011
 5137SOL     OW16309   6.264   1.128   4.400
 5137SOL    HW116310   6.172   1.160   4.380
 5137SOL    HW216311   6.295   1.167   4.487
 5138SOL     OW16312   2.916   3.386   4.187
 5138SOL    HW116313   2.982   3.444   4.140
 5138SOL    HW216314   2.845   3.358   4.122
 5139SOL     OW16315   2.659   0.374   5.585
 5139SOL    HW116316   2.653   0.320   5.501
 5139SOL    HW216317   2.711   0.322   5.653
 5140SOL     OW16318   4.238   2.599   6.869
 5140SOL    HW116319   4.282   2.635   6.951
 5140SOL    HW216320   4.163   2.539   6.895
 5141SOL     OW16321   6.746   2.797   1.798
 5141SOL    HW116322   6.652   2.763   1.803
 5141SOL    HW216323   6.798   2.744   1.731
 5142SOL     OW16324   0.169   0.201   2.422
 5142SOL    HW116325   0.253   0.148   2.428
 5142SOL    HW216326   0.183   0.282   2.366
 5143SOL     OW16327   0.109   6.358   2.898
 5143SOL    HW116328   0.067   6.435   2.850
 5143SOL    HW216329   0.155   6.299   2.832
 5144SOL     OW16330   2.317   2.998   5.370
 5144SOL    HW116331   2.389   3.011   5.302
 5144SOL    HW216332   2.317   3.074   5.435
 5145SOL     OW16333   2.082   5.612   6.910
 5145SOL    HW116334   2.018   5.577   6.843
 5145SOL    HW216335   2.156   5.546   6.924
 5146SOL     OW16336   5.627   5.511   6.192
 5146SOL    HW116337   5.617   5.543   6.098
 5146SOL    HW216338   5.640   5.412   6.192
 5147SOL     OW16339   4.666   2.581   3.700
 5147SOL    HW116340   4.586   2.522   3.690
 5147SOL    HW216341   4.699   2.578   3.795
 5148SOL     OW16342   0.875   0.515   6.291
 5148SOL    HW116343   0.935   0.580   6.244
 5148SOL    HW216344   0.779   0.538   6.272
 5149SOL     OW16345   4.809   4.645   4.009
 5149SOL    HW116346   4.901   4.608   3.999
 5149SOL    HW216347   4.746   4.571   4.034
 5150SOL     OW16348   0.105   6.104   3.878
 5150SOL    HW116349   0.177   6.142   3.936
 5150SOL    HW216350   0.069   6.177   3.819
 5151SOL     OW16351   6.308   5.407   2.221
 5151SOL    HW116352   6.230   5.446   2.172
 5151SOL    HW216353   6.393   5.443   2.182
 5152SOL     OW16354   1.212   1.218   0.321
 5152SOL    HW116355   1.232   1.313   0.345
 5152SOL    HW216356   1.146   1.181   0.385
 5153SOL     OW16357   0.973   1.863   1.225
 5153SOL    HW116358   1.068   1.850   1.197
 5153SOL    HW216359   0.967   1.864   1.325
 5154SOL     OW16360   0.627   2.573   0.229
 5154SOL    HW116361   0.638   2.548   0.325
 5154SOL    HW216362   0.580   2.500   0.180
 5155SOL     OW16363   1.665   1.390   0.632
 5155SOL    HW116364   1.700   1.446   0.557
 5155SOL    HW216365   1.645   1.448   0.711
 5156SOL     OW16366   5.186   6.067   5.697
 5156SOL    HW116367   5.229   6.142   5.747
 5156SOL    HW216368   5.252   5.992   5.685
 5157SOL     OW16369   3.636   0.312   1.441
 5157SOL    HW116370   3.617   0.400   1.397
 5157SOL    HW216371   3.585   0.307   1.527
 5158SOL     OW16372   1.889   2.141   1.616
 5158SOL    HW116373   1.865   2.180   1.705
 5158SOL    HW216374   1.809   2.095   1.578
 5159SOL     OW16375   6.379   3.170   5.753
 5159SOL    HW116376   6.351   3.077   5.777
 5159SOL    HW216377   6.302   3.217   5.710
 5160SOL     OW16378   5.990   6.376   3.554
 5160SOL    HW116379   5.983   6.436   3.633
 5160SOL    HW216380   6.081   6.384   3.513
 5161SOL     OW16381   1.168   3.516   0.594
 5161SOL    HW116382   1.073   3.488   0.579
 5161SOL    HW216383   1.175   3.561   0.683
 5162SOL     OW16384   0.277   0.001   3.558
 5162SOL    HW116385   0.226   7.007   3.473
 5162SOL    HW216386   0.214   0.028   3.631
 5163SOL     OW16387   3.177   0.485   1.937
 5163SOL    HW116388   3.199   0.581   1.958
 5163SOL    HW216389   3.188   0.469   1.839
 5164SOL     OW16390   3.090   3.380   0.627
 5164SOL    HW116391   3.173   3.329   0.605
 5164SOL    HW216392   3.010   3.328   0.595
 5165SOL     OW16393   1.637   4.088   6.144
 5165SOL    HW116394   1.647   4.130   6.234
 5165SOL    HW216395   1.575   4.142   6.088
 5166SOL     OW16396   1.218   5.406   0.814
 5166SOL    HW116397   1.205   5.396   0.912
 5166SOL    HW216398   1.154   5.474   0.778
 5167SOL     OW16399   5.464   3.183   5.217
 5167SOL    HW116400   5.399   3.235   5.272
 5167SOL    HW216401   5.514   3.245   5.156
 5168SOL     OW16402   4.465   2.186   3.031
 5168SOL    HW116403   4.466   2.098   3.080
 5168SOL    HW216404   4.383   2.191   2.975
 5169SOL     OW16405   4.221   6.030   4.484
 5169SOL    HW116406   4.250   6.049   4.390
 5169SOL    HW216407   4.237   5.933   4.504
 5170SOL     OW16408   2.042   3.539   6.467
 5170SOL    HW116409   1.961   3.586   6.433
 5170SOL    HW216410   2.124   3.584   6.431
 5171SOL     OW16411   1.831   5.697   5.308
 5171SOL    HW116412   1.845   5.796   5.298
 5171SOL    HW216413   1.776   5.663   5.232
 5172SOL     OW16414   6.234   5.744   4.467
 5172SOL    HW116415   6.326   5.763   4.433
 5172SOL    HW216416   6.182   5.696   4.397
 5173SOL     OW16417   4.402   4.013   5.674
 5173SOL    HW116418   4.371   3.923   5.642
 5173SOL    HW216419   4.385   4.021   5.772
 5174SOL     OW16420   2.268   6.442   3.248
 5174SOL    HW116421   2.288   6.499   3.168
 5174SOL    HW216422   2.351   6.398   3.280
 5175SOL     OW16423   3.310   3.254   6.974
 5175SOL    HW116424   3.375   3.203   6.918
 5175SOL    HW216425   3.346   3.264   0.050
 5176SOL     OW16426   6.388   6.256   0.148
 5176SOL    HW116427   6.430   6.168   0.168
 5176SOL    HW216428   6.434   6.328   0.201
 5177SOL     OW16429   6.116   6.877   0.562
 5177SOL    HW116430   6.129   6.880   0.661
 5177SOL    HW216431   6.085   6.785   0.535
 5178SOL     OW16432   0.544   4.360   2.226
 5178SOL    HW116433   0.629   4.309   2.233
 5178SOL    HW216434   0.484   4.336   2.302
 5179SOL     OW16435   4.896   6.232   2.483
 5179SOL    HW116436   4.961   6.157   2.478
 5179SOL    HW216437   4.860   6.240   2.575
 5180SOL     OW16438   2.557   6.796   2.356
 5180SOL    HW116439   2.512   6.843   2.432
 5180SOL    HW216440   2.524   6.701   2.351
 5181SOL     OW16441   0.142   0.091   6.000
 5181SOL    HW116442   0.170   0.133   5.914
 5181SOL    HW216443   0.213   0.105   6.069
 5182SOL     OW16444   2.872   6.486   3.300
 5182SOL    HW116445   2.888   6.559   3.234
 5182SOL    HW216446   2.805   6.516   3.368
 5183SOL     OW16447   4.244   1.447   3.868
 5183SOL    HW116448   4.219   1.516   3.935
 5183SOL    HW216449   4.225   1.356   3.905
 5184SOL     OW16450   2.949   1.513   3.856
 5184SOL    HW116451   2.966   1.471   3.767
 5184SOL    HW216452   2.943   1.612   3.846
 5185SOL     OW16453   6.509   0.471   1.744
 5185SOL    HW116454   6.502   0.410   1.823
 5185SOL    HW216455   6.518   0.565   1.776
 5186SOL     OW16456   0.284   3.308   6.534
 5186SOL    HW116457   0.195   3.267   6.552
 5186SOL    HW216458   0.294   3.324   6.436
 5187SOL     OW16459   1.568   4.687   5.235
 5187SOL    HW116460   1.668   4.691   5.233
 5187SOL    HW216461   1.532   4.773   5.272
 5188SOL     OW16462   6.047   0.045   2.584
 5188SOL    HW116463   6.088   0.014   2.498
 5188SOL    HW216464   5.978   6.996   2.614
 5189SOL     OW16465   5.415   6.992   6.225
 5189SOL    HW116466   5.343   6.923   6.224
 5189SOL    HW216467   5.503   6.948   6.241
 5190SOL     OW16468   2.097   4.033   0.800
 5190SOL    HW116469   2.046   3.971   0.860
 5190SOL    HW216470   2.188   4.048   0.838
 5191SOL     OW16471   3.002   4.976   2.147
 5191SOL    HW116472   3.100   4.991   2.139
 5191SOL    HW216473   2.973   4.906   2.082
 5192SOL     OW16474   1.973   5.360   2.055
 5192SOL    HW116475   1.962   5.378   2.153
 5192SOL    HW216476   1.944   5.266   2.035
 5193SOL     OW16477   5.158   0.266   5.417
 5193SOL    HW116478   5.078   0.298   5.366
 5193SOL    HW216479   5.143   0.172   5.446
 5194SOL     OW16480   5.478   1.691   6.229
 5194SOL    HW116481   5.414   1.722   6.159
 5194SOL    HW216482   5.543   1.764   6.249
 5195SOL     OW16483   6.936   0.642   4.836
 5195SOL    HW116484   6.925   0.660   4.738
 5195SOL    HW216485   7.016   0.584   4.850
 5196SOL     OW16486   5.577   6.827   3.388
 5196SOL    HW116487   5.492   6.815   3.337
 5196SOL    HW216488   5.655   6.818   3.326
 5197SOL     OW16489   1.095   3.594   5.248
 5197SOL    HW116490   1.190   3.604   5.221
 5197SOL    HW216491   1.090   3.576   5.347
 5198SOL     OW16492   5.874   5.342   3.498
 5198SOL    HW116493   5.872   5.337   3.398
 5198SOL    HW216494   5.822   5.266   3.536
 5199SOL     OW16495   0.634   4.777   1.780
 5199SOL    HW116496   0.670   4.698   1.830
 5199SOL    HW216497   0.535   4.782   1.792
 5200SOL     OW16498   0.025   3.751   4.589
 5200SOL    HW116499   0.053   3.806   4.510
 5200SOL    HW216500   6.959   3.791   4.629
 5201SOL     OW16501   1.530   4.865   4.232
 5201SOL    HW116502   1.533   4.816   4.319
 5201SOL    HW216503   1.449   4.923   4.228
 5202SOL     OW16504   0.939   5.200   1.339
 5202SOL    HW116505   0.947   5.187   1.240
 5202SOL    HW216506   0.873   5.135   1.376
 5203SOL     OW16507   0.801   2.807   0.750
 5203SOL    HW116508   0.802   2.880   0.680
 5203SOL    HW216509   0.717   2.813   0.803
 5204SOL     OW16510   4.926   4.671   6.847
 5204SOL    HW116511   4.848   4.733   6.859
 5204SOL    HW216512   5.002   4.701   6.904
 5205SOL     OW16513   1.532   0.208   1.468
 5205SOL    HW116514   1.542   0.239   1.374
 5205SOL    HW216515   1.583   0.268   1.529
 5206SOL     OW16516   0.548   4.350   5.223
 5206SOL    HW116517   0.627   4.356   5.163
 5206SOL    HW216518   0.478   4.416   5.194
 5207SOL     OW16519   2.092   4.223   4.064
 5207SOL    HW116520   2.159   4.155   4.034
 5207SOL    HW216521   2.129   4.315   4.052
 5208SOL     OW16522   4.407   1.306   6.610
 5208SOL    HW116523   4.325   1.361   6.623
 5208SOL    HW216524   4.382   1.212   6.588
 5209SOL     OW16525   5.050   6.294   3.218
 5209SOL    HW116526   5.096   6.261   3.300
 5209SOL    HW216527   5.022   6.389   3.231
 5210SOL     OW16528   4.741   4.975   3.700
 5210SOL    HW116529   4.674   4.954   3.629
 5210SOL    HW216530   4.758   5.073   3.701
 5211SOL     OW16531   4.064   3.780   2.695
 5211SOL    HW116532   4.011   3.840   2.636
 5211SOL    HW216533   4.134   3.834   2.743
 5212SOL     OW16534   0.988   1.840   0.535
 5212SOL    HW116535   0.994   1.925   0.483
 5212SOL    HW216536   1.007   1.762   0.475
 5213SOL     OW16537   4.051   1.842   6.566
 5213SOL    HW116538   4.071   1.745   6.575
 5213SOL    HW216539   3.971   1.855   6.508
 5214SOL     OW16540   5.528   1.454   5.774
 5214SOL    HW116541   5.453   1.520   5.779
 5214SOL    HW216542   5.610   1.500   5.740
 5215SOL     OW16543   4.893   5.384   2.256
 5215SOL    HW116544   4.823   5.455   2.267
 5215SOL    HW216545   4.848   5.296   2.241
 5216SOL     OW16546   4.948   5.094   1.050
 5216SOL    HW116547   4.902   5.174   1.012
 5216SOL    HW216548   4.883   5.019   1.061
 5217SOL     OW16549   2.514   4.973   3.969
 5217SOL    HW116550   2.486   4.902   4.034
 5217SOL    HW216551   2.612   4.990   3.979
 5218SOL     OW16552   1.572   6.985   3.865
 5218SOL    HW116553   1.529   6.963   3.952
 5218SOL    HW216554   1.631   6.910   3.837
 5219SOL     OW16555   2.467   5.722   0.018
 5219SOL    HW116556   2.543   5.676   6.988
 5219SOL    HW216557   2.439   5.668   0.097
 5220SOL     OW16558   0.664   6.646   2.259
 5220SOL    HW116559   0.734   6.668   2.191
 5220SOL    HW216560   0.707   6.606   2.340
 5221SOL     OW16561   4.730   1.450   5.081
 5221SOL    HW116562   4.704   1.509   5.158
 5221SOL    HW216563   4.739   1.356   5.113
 5222SOL     OW16564   1.276   0.483   2.494
 5222SOL    HW116565   1.235   0.521   2.411
 5222SOL    HW216566   1.215   0.497   2.572
 5223SOL     OW16567   5.154   6.942   1.298
 5223SOL    HW116568   5.194   6.854   1.323
 5223SOL    HW216569   5.183   6.967   1.206
 5224SOL     OW16570   5.798   2.165   2.366
 5224SOL    HW116571   5.890   2.134   2.390
 5224SOL    HW216572   5.753   2.203   2.447
 5225SOL     OW16573   5.498   5.850   5.270
 5225SOL    HW116574   5.525   5.806   5.185
 5225SOL    HW216575   5.541   5.940   5.276
 5226SOL     OW16576   1.156   6.375   4.015
 5226SOL    HW116577   1.209   6.312   4.072
 5226SOL    HW216578   1.108   6.324   3.944
 5227SOL     OW16579   5.914   4.838   3.283
 5227SOL    HW116580   5.920   4.852   3.184
 5227SOL    HW216581   5.820   4.816   3.308
 5228SOL     OW16582   5.611   1.244   0.846
 5228SOL    HW116583   5.705   1.251   0.878
 5228SOL    HW216584   5.552   1.213   0.921
 5229SOL     OW16585   1.473   4.399   4.871
 5229SOL    HW116586   1.461   4.310   4.826
 5229SOL    HW216587   1.383   4.433   4.900
 5230SOL     OW16588   0.929   0.017   6.979
 5230SOL    HW116589   0.987   0.087   6.937
 5230SOL    HW216590   0.866   0.060   0.027
 5231SOL     OW16591   3.885   2.981   3.527
 5231SOL    HW116592   3.922   2.889   3.515
 5231SOL    HW216593   3.846   2.990   3.619
 5232SOL     OW16594   4.918   2.537   6.613
 5232SOL    HW116595   4.854   2.477   6.565
 5232SOL    HW216596   4.881   2.630   6.614
 5233SOL     OW16597   0.871   0.714   2.421
 5233SOL    HW116598   0.957   0.703   2.371
 5233SOL    HW216599   0.868   0.805   2.462
 5234SOL     OW16600   3.996   6.909   1.061
 5234SOL    HW116601   4.005   6.993   1.007
 5234SOL    HW216602   4.063   6.842   1.030
 5235SOL     OW16603   0.827   3.405   1.332
 5235SOL    HW116604   0.773   3.459   1.267
 5235SOL    HW216605   0.774   3.324   1.360
 5236SOL     OW16606   5.171   3.065   0.981
 5236SOL    HW116607   5.167   3.144   1.042
 5236SOL    HW216608   5.096   3.003   1.002
 5237SOL     OW16609   2.357   1.739   5.087
 5237SOL    HW116610   2.422   1.679   5.041
 5237SOL    HW216611   2.314   1.800   5.020
 5238SOL     OW16612   1.777   4.537   1.280
 5238SOL    HW116613   1.859   4.588   1.307
 5238SOL    HW216614   1.709   4.543   1.353
 5239SOL     OW16615   2.911   3.649   4.326
 5239SOL    HW116616   2.843   3.604   4.267
 5239SOL    HW216617   2.919   3.598   4.412
 5240SOL     OW16618   3.248   2.143   4.761
 5240SOL    HW116619   3.220   2.180   4.849
 5240SOL    HW216620   3.300   2.213   4.711
 5241SOL     OW16621   1.848   5.758   6.517
 5241SOL    HW116622   1.808   5.719   6.600
 5241SOL    HW216623   1.940   5.722   6.504
 5242SOL     OW16624   5.870   0.831   5.216
 5242SOL    HW116625   5.794   0.769   5.235
 5242SOL    HW216626   5.837   0.926   5.218
 5243SOL     OW16627   1.684   4.906   1.135
 5243SOL    HW116628   1.748   4.856   1.194
 5243SOL    HW216629   1.714   5.001   1.126
 5244SOL     OW16630   5.502   4.065   5.874
 5244SOL    HW116631   5.559   3.989   5.905
 5244SOL    HW216632   5.453   4.104   5.952
 5245SOL     OW16633   4.977   3.778   6.673
 5245SOL    HW116634   4.919   3.699   6.691
 5245SOL    HW216635   5.019   3.769   6.583
 5246SOL     OW16636   1.065   3.297   2.761
 5246SOL    HW116637   0.985   3.241   2.739
 5246SOL    HW216638   1.113   3.257   2.839
 5247SOL     OW16639   0.478   4.812   1.080
 5247SOL    HW116640   0.497   4.893   1.135
 5247SOL    HW216641   0.475   4.731   1.138
 5248SOL     OW16642   4.812   0.982   5.966
 5248SOL    HW116643   4.907   0.964   5.992
 5248SOL    HW216644   4.780   1.065   6.011
 5249SOL     OW16645   0.928   5.287   4.658
 5249SOL    HW116646   0.999   5.337   4.707
 5249SOL    HW216647   0.840   5.298   4.705
 5250SOL     OW16648   0.736   1.295   6.214
 5250SOL    HW116649   0.639   1.321   6.221
 5250SOL    HW216650   0.778   1.342   6.137
 5251SOL     OW16651   6.875   3.210   1.049
 5251SOL    HW116652   6.886   3.136   0.983
 5251SOL    HW216653   6.922   3.185   1.134
 5252SOL     OW16654   4.207   5.841   0.574
 5252SOL    HW116655   4.149   5.837   0.493
 5252SOL    HW216656   4.237   5.935   0.590
 5253SOL     OW16657   5.759   3.449   3.868
 5253SOL    HW116658   5.673   3.492   3.844
 5253SOL    HW216659   5.822   3.454   3.790
 5254SOL     OW16660   4.781   0.647   4.059
 5254SOL    HW116661   4.798   0.556   4.021
 5254SOL    HW216662   4.737   0.704   3.989
 5255SOL     OW16663   3.491   6.479   4.864
 5255SOL    HW116664   3.574   6.534   4.876
 5255SOL    HW216665   3.514   6.396   4.814
 5256SOL     OW16666   5.535   6.326   3.744
 5256SOL    HW116667   5.564   6.379   3.664
 5256SOL    HW216668   5.616   6.294   3.793
 5257SOL     OW16669   3.393   0.718   1.180
 5257SOL    HW116670   3.298   0.719   1.212
 5257SOL    HW216671   3.433   0.809   1.191
 5258SOL     OW16672   5.874   3.378   2.501
 5258SOL    HW116673   5.843   3.409   2.591
 5258SOL    HW216674   5.974   3.385   2.496
 5259SOL     OW16675   4.756   4.912   2.455
 5259SOL    HW116676   4.721   4.895   2.363
 5259SOL    HW216677   4.799   4.829   2.491
 5260SOL     OW16678   5.624   3.354   1.329
 5260SOL    HW116679   5.561   3.281   1.352
 5260SOL    HW216680   5.576   3.425   1.278
 5261SOL     OW16681   1.352   2.524   4.571
 5261SOL    HW116682   1.253   2.540   4.580
 5261SOL    HW216683   1.400   2.574   4.643
 5262SOL     OW16684   2.505   0.156   2.358
 5262SOL    HW116685   2.418   0.195   2.325
 5262SOL    HW216686   2.499   0.141   2.457
 5263SOL     OW16687   1.033   6.469   6.599
 5263SOL    HW116688   1.002   6.445   6.507
 5263SOL    HW216689   1.085   6.554   6.595
 5264SOL     OW16690   0.316   2.175   0.887
 5264SOL    HW116691   0.406   2.153   0.923
 5264SOL    HW216692   0.284   2.261   0.927
 5265SOL     OW16693   5.268   4.683   1.665
 5265SOL    HW116694   5.280   4.590   1.698
 5265SOL    HW216695   5.339   4.704   1.598
 5266SOL     OW16696   1.587   6.559   1.111
 5266SOL    HW116697   1.647   6.620   1.163
 5266SOL    HW216698   1.641   6.506   1.046
 5267SOL     OW16699   5.000   4.634   5.009
 5267SOL    HW116700   5.013   4.678   4.920
 5267SOL    HW216701   5.003   4.535   4.997
 5268SOL     OW16702   5.582   4.653   4.755
 5268SOL    HW116703   5.661   4.712   4.771
 5268SOL    HW216704   5.503   4.709   4.729
 5269SOL     OW16705   1.972   5.954   3.979
 5269SOL    HW116706   1.979   5.860   3.945
 5269SOL    HW216707   2.047   6.009   3.941
 5270SOL     OW16708   6.077   2.765   2.113
 5270SOL    HW116709   6.085   2.691   2.046
 5270SOL    HW216710   6.166   2.810   2.123
 5271SOL     OW16711   5.032   4.357   4.913
 5271SOL    HW116712   5.024   4.329   4.817
 5271SOL    HW216713   5.126   4.383   4.932
 5272SOL     OW16714   1.637   0.935   5.084
 5272SOL    HW116715   1.671   1.022   5.048
 5272SOL    HW216716   1.556   0.953   5.141
 5273SOL     OW16717   0.495   1.123   3.850
 5273SOL    HW116718   0.481   1.024   3.851
 5273SOL    HW216719   0.417   1.167   3.806
 5274SOL     OW16720   6.321   5.068   4.092
 5274SOL    HW116721   6.265   5.140   4.051
 5274SOL    HW216722   6.382   5.109   4.160
 5275SOL     OW16723   1.998   6.958   0.057
 5275SOL    HW116724   2.041   7.013   0.129
 5275SOL    HW216725   2.041   6.868   0.054
 5276SOL     OW16726   0.357   6.729   1.208
 5276SOL    HW116727   0.263   6.738   1.239
 5276SOL    HW216728   0.404   6.817   1.217
 5277SOL     OW16729   1.079   1.695   3.189
 5277SOL    HW116730   1.091   1.794   3.200
 5277SOL    HW216731   1.018   1.678   3.111
 5278SOL     OW16732   1.039   5.248   5.367
 5278SOL    HW116733   0.976   5.242   5.444
 5278SOL    HW216734   0.997   5.205   5.287
 5279SOL     OW16735   1.727   5.616   6.747
 5279SOL    HW116736   1.642   5.589   6.703
 5279SOL    HW216737   1.708   5.684   6.818
 5280SOL     OW16738   4.453   5.820   5.252
 5280SOL    HW116739   4.521   5.775   5.195
 5280SOL    HW216740   4.418   5.901   5.205
 5281SOL     OW16741   2.020   1.078   5.071
 5281SOL    HW116742   2.099   1.138   5.086
 5281SOL    HW216743   2.024   1.041   4.978
 5282SOL     OW16744   1.465   0.461   1.745
 5282SOL    HW116745   1.415   0.523   1.684
 5282SOL    HW216746   1.542   0.421   1.695
 5283SOL     OW16747   0.718   0.966   4.261
 5283SOL    HW116748   0.724   0.904   4.340
 5283SOL    HW216749   0.624   0.998   4.252
 5284SOL     OW16750   4.739   2.209   2.278
 5284SOL    HW116751   4.663   2.234   2.338
 5284SOL    HW216752   4.730   2.114   2.251
 5285SOL     OW16753   1.032   2.430   4.290
 5285SOL    HW116754   1.063   2.338   4.265
 5285SOL    HW216755   0.933   2.428   4.303
 5286SOL     OW16756   6.074   3.133   1.012
 5286SOL    HW116757   6.002   3.150   1.080
 5286SOL    HW216758   6.083   3.213   0.952
 5287SOL     OW16759   3.002   5.145   1.042
 5287SOL    HW116760   3.065   5.079   1.082
 5287SOL    HW216761   2.922   5.097   1.006
 5288SOL     OW16762   4.510   0.906   2.229
 5288SOL    HW116763   4.587   0.854   2.191
 5288SOL    HW216764   4.489   0.873   2.321
 5289SOL     OW16765   1.845   4.252   6.298
 5289SOL    HW116766   1.788   4.280   6.375
 5289SOL    HW216767   1.878   4.333   6.249
 5290SOL     OW16768   1.197   3.025   5.597
 5290SOL    HW116769   1.274   2.984   5.646
 5290SOL    HW216770   1.113   2.975   5.619
 5291SOL     OW16771   2.677   4.699   4.784
 5291SOL    HW116772   2.740   4.733   4.715
 5291SOL    HW216773   2.726   4.684   4.870
 5292SOL     OW16774   6.825   4.160   6.303
 5292SOL    HW116775   6.850   4.182   6.209
 5292SOL    HW216776   6.902   4.177   6.363
 5293SOL     OW16777   2.050   5.889   4.338
 5293SOL    HW116778   2.058   5.793   4.363
 5293SOL    HW216779   1.967   5.903   4.284
 5294SOL     OW16780   3.873   0.672   5.026
 5294SOL    HW116781   3.935   0.745   4.999
 5294SOL    HW216782   3.820   0.642   4.947
 5295SOL     OW16783   2.888   1.169   2.165
 5295SOL    HW116784   2.866   1.164   2.262
 5295SOL    HW216785   2.814   1.127   2.112
 5296SOL     OW16786   4.216   4.863   0.726
 5296SOL    HW116787   4.302   4.896   0.686
 5296SOL    HW216788   4.140   4.883   0.663
 5297SOL     OW16789   2.488   4.391   0.966
 5297SOL    HW116790   2.438   4.341   0.896
 5297SOL    HW216791   2.576   4.422   0.930
 5298SOL     OW16792   2.169   6.921   0.705
 5298SOL    HW116793   2.102   6.980   0.748
 5298SOL    HW216794   2.256   6.970   0.695
 5299SOL     OW16795   3.112   1.830   0.444
 5299SOL    HW116796   3.057   1.788   0.372
 5299SOL    HW216797   3.119   1.766   0.521
 5300SOL     OW16798   2.037   4.308   0.306
 5300SOL    HW116799   1.937   4.314   0.303
 5300SOL    HW216800   2.077   4.397   0.282
 5301SOL     OW16801   4.592   0.574   5.769
 5301SOL    HW116802   4.525   0.634   5.726
 5301SOL    HW216803   4.679   0.582   5.720
 5302SOL     OW16804   5.345   5.978   3.150
 5302SOL    HW116805   5.338   5.886   3.111
 5302SOL    HW216806   5.408   5.976   3.227
 5303SOL     OW16807   6.685   4.546   5.729
 5303SOL    HW116808   6.782   4.522   5.723
 5303SOL    HW216809   6.665   4.620   5.664
 5304SOL     OW16810   6.646   1.369   1.301
 5304SOL    HW116811   6.668   1.453   1.351
 5304SOL    HW216812   6.673   1.290   1.356
 5305SOL     OW16813   1.355   5.466   3.000
 5305SOL    HW116814   1.398   5.544   3.045
 5305SOL    HW216815   1.423   5.394   2.986
 5306SOL     OW16816   6.682   3.824   5.670
 5306SOL    HW116817   6.615   3.792   5.737
 5306SOL    HW216818   6.685   3.924   5.672
 5307SOL     OW16819   5.198   2.614   1.015
 5307SOL    HW116820   5.213   2.691   1.078
 5307SOL    HW216821   5.128   2.639   0.949
 5308SOL     OW16822   1.529   4.770   2.897
 5308SOL    HW116823   1.524   4.825   2.980
 5308SOL    HW216824   1.459   4.698   2.900
 5309SOL     OW16825   4.562   6.153   3.215
 5309SOL    HW116826   4.598   6.094   3.143
 5309SOL    HW216827   4.629   6.224   3.237
 5310SOL     OW16828   6.056   2.883   3.132
 5310SOL    HW116829   6.102   2.903   3.045
 5310SOL    HW216830   6.115   2.826   3.189
 5311SOL     OW16831   5.797   0.213   0.643
 5311SOL    HW116832   5.802   0.309   0.669
 5311SOL    HW216833   5.876   0.189   0.587
 5312SOL     OW16834   0.218   6.569   1.461
 5312SOL    HW116835   0.309   6.542   1.490
 5312SOL    HW216836   0.184   6.641   1.522
 5313SOL     OW16837   6.536   5.127   5.171
 5313SOL    HW116838   6.485   5.189   5.111
 5313SOL    HW216839   6.521   5.155   5.266
 5314SOL     OW16840   6.095   6.927   1.426
 5314SOL    HW116841   6.068   6.887   1.514
 5314SOL    HW216842   6.195   6.934   1.422
 5315SOL     OW16843   4.135   1.204   3.995
 5315SOL    HW116844   4.200   1.167   4.060
 5315SOL    HW216845   4.053   1.235   4.043
 5316SOL     OW16846   0.963   2.994   4.623
 5316SOL    HW116847   1.063   2.995   4.616
 5316SOL    HW216848   0.933   3.075   4.673
 5317SOL     OW16849   6.611   1.894   5.973
 5317SOL    HW116850   6.615   1.822   5.904
 5317SOL    HW216851   6.704   1.916   6.003
 5318SOL     OW16852   6.550   2.914   0.272
 5318SOL    HW116853   6.513   3.005   0.291
 5318SOL    HW216854   6.483   2.861   0.219
 5319SOL     OW16855   4.460   6.845   1.214
 5319SOL    HW116856   4.436   6.901   1.293
 5319SOL    HW216857   4.475   6.904   1.134
 5320SOL     OW16858   3.275   6.011   1.241
 5320SOL    HW116859   3.342   6.080   1.212
 5320SOL    HW216860   3.185   6.053   1.247
 5321SOL     OW16861   2.147   4.758   4.553
 5321SOL    HW116862   2.196   4.723   4.473
 5321SOL    HW216863   2.182   4.713   4.635
 5322SOL     OW16864   5.735   6.697   1.729
 5322SOL    HW116865   5.751   6.685   1.631
 5322SOL    HW216866   5.753   6.611   1.776
 5323SOL     OW16867   4.427   1.703   5.614
 5323SOL    HW116868   4.425   1.709   5.714
 5323SOL    HW216869   4.381   1.619   5.585
 5324SOL     OW16870   2.363   2.275   0.250
 5324SOL    HW116871   2.329   2.341   0.316
 5324SOL    HW216872   2.414   2.203   0.298
 5325SOL     OW16873   2.590   2.290   4.765
 5325SOL    HW116874   2.609   2.361   4.832
 5325SOL    HW216875   2.507   2.314   4.714
 5326SOL     OW16876   5.868   6.316   2.782
 5326SOL    HW116877   5.956   6.309   2.830
 5326SOL    HW216878   5.793   6.305   2.848
 5327SOL     OW16879   5.376   2.879   4.785
 5327SOL    HW116880   5.433   2.961   4.784
 5327SOL    HW216881   5.359   2.852   4.880
 5328SOL     OW16882   4.035   4.260   6.862
 5328SOL    HW116883   4.064   4.252   6.958
 5328SOL    HW216884   3.942   4.294   6.858
 5329SOL     OW16885   1.371   5.988   6.518
 5329SOL    HW116886   1.445   6.053   6.537
 5329SOL    HW216887   1.283   6.032   6.532
 5330SOL     OW16888   2.807   3.213   0.866
 5330SOL    HW116889   2.827   3.180   0.958
 5330SOL    HW216890   2.708   3.210   0.850
 5331SOL     OW16891   6.648   0.875   6.739
 5331SOL    HW116892   6.629   0.869   6.641
 5331SOL    HW216893   6.610   0.795   6.785
 5332SOL     OW16894   1.124   4.563   2.331
 5332SOL    HW116895   1.165   4.574   2.421
 5332SOL    HW216896   1.072   4.477   2.328
 5333SOL     OW16897   0.767   6.657   4.238
 5333SOL    HW116898   0.852   6.641   4.188
 5333SOL    HW216899   0.738   6.572   4.283
 5334SOL     OW16900   2.803   6.790   4.118
 5334SOL    HW116901   2.765   6.883   4.108
 5334SOL    HW216902   2.804   6.765   4.215
 5335SOL     OW16903   0.049   5.074   0.963
 5335SOL    HW116904   0.134   5.062   0.912
 5335SOL    HW216905   7.009   4.992   0.953
 5336SOL     OW16906   1.693   3.440   2.213
 5336SOL    HW116907   1.655   3.417   2.303
 5336SOL    HW216908   1.780   3.393   2.201
 5337SOL     OW16909   5.093   4.207   1.154
 5337SOL    HW116910   5.139   4.291   1.128
 5337SOL    HW216911   5.146   4.160   1.225
 5338SOL     OW16912   6.540   2.124   6.760
 5338SOL    HW116913   6.580   2.154   6.674
 5338SOL    HW216914   6.574   2.032   6.782
 5339SOL     OW16915   6.723   1.843   3.258
 5339SOL    HW116916   6.782   1.783   3.204
 5339SOL    HW216917   6.628   1.818   3.244
 5340SOL     OW16918   5.656   2.579   6.999
 5340SOL    HW116919   5.605   2.666   6.998
 5340SOL    HW216920   5.740   2.589   6.945
 5341SOL     OW16921   4.643   1.087   6.552
 5341SOL    HW116922   4.552   1.128   6.555
 5341SOL    HW216923   4.635   0.988   6.556
 5342SOL     OW16924   4.121   0.759   5.701
 5342SOL    HW116925   4.063   0.773   5.782
 5342SOL    HW216926   4.090   0.820   5.628
 5343SOL     OW16927   3.872   3.325   2.352
 5343SOL    HW116928   3.954   3.338   2.407
 5343SOL    HW216929   3.818   3.250   2.391
 5344SOL     OW16930   1.973   2.699   3.358
 5344SOL    HW116931   1.878   2.726   3.341
 5344SOL    HW216932   2.029   2.721   3.279
 5345SOL     OW16933   4.334   6.622   1.336
 5345SOL    HW116934   4.403   6.659   1.273
 5345SOL    HW216935   4.257   6.686   1.341
 5346SOL     OW16936   2.780   6.428   3.738
 5346SOL    HW116937   2.851   6.377   3.787
 5346SOL    HW216938   2.712   6.462   3.803
 5347SOL     OW16939   0.167   1.763   1.329
 5347SOL    HW116940   0.090   1.700   1.344
 5347SOL    HW216941   0.137   1.839   1.272
 5348SOL     OW16942   1.361   1.753   0.310
 5348SOL    HW116943   1.278   1.741   0.256
 5348SOL    HW216944   1.421   1.675   0.297
 5349SOL     OW16945   6.972   1.476   0.857
 5349SOL    HW116946   0.031   1.474   0.921
 5349SOL    HW216947   6.886   1.459   0.905
 5350SOL     OW16948   2.416   1.064   6.139
 5350SOL    HW116949   2.419   1.134   6.211
 5350SOL    HW216950   2.502   1.067   6.087
 5351SOL     OW16951   4.667   6.590   1.030
 5351SOL    HW116952   4.687   6.685   1.055
 5351SOL    HW216953   4.733   6.560   0.960
 5352SOL     OW16954   2.622   5.986   3.282
 5352SOL    HW116955   2.538   6.022   3.241
 5352SOL    HW216956   2.699   6.044   3.256
 5353SOL     OW16957   5.164   5.869   5.118
 5353SOL    HW116958   5.122   5.895   5.205
 5353SOL    HW216959   5.111   5.796   5.075
 5354SOL     OW16960   1.466   4.942   1.763
 5354SOL    HW116961   1.562   4.933   1.792
 5354SOL    HW216962   1.450   4.885   1.683
 5355SOL     OW16963   4.563   1.258   3.901
 5355SOL    HW116964   4.656   1.254   3.865
 5355SOL    HW216965   4.516   1.338   3.864
 5356SOL     OW16966   6.190   3.942   1.074
 5356SOL    HW116967   6.117   3.882   1.042
 5356SOL    HW216968   6.211   3.922   1.170
 5357SOL     OW16969   3.555   0.105   0.206
 5357SOL    HW116970   3.567   0.077   0.110
 5357SOL    HW216971   3.460   0.088   0.234
 5358SOL     OW16972   4.471   2.735   0.787
 5358SOL    HW116973   4.479   2.723   0.688
 5358SOL    HW216974   4.538   2.677   0.833
 5359SOL     OW16975   2.497   1.767   0.639
 5359SOL    HW116976   2.466   1.687   0.690
 5359SOL    HW216977   2.501   1.745   0.541
 5360SOL     OW16978   3.863   6.580   5.786
 5360SOL    HW116979   3.804   6.628   5.851
 5360SOL    HW216980   3.826   6.489   5.768
 5361SOL     OW16981   2.068   1.074   4.720
 5361SOL    HW116982   2.091   1.133   4.643
 5361SOL    HW216983   1.986   1.022   4.699
 5362SOL     OW16984   4.640   5.123   2.654
 5362SOL    HW116985   4.686   5.059   2.593
 5362SOL    HW216986   4.600   5.073   2.731
 5363SOL     OW16987   0.881   5.224   6.424
 5363SOL    HW116988   0.809   5.207   6.357
 5363SOL    HW216989   0.897   5.322   6.432
 5364SOL     OW16990   6.844   6.490   0.975
 5364SOL    HW116991   6.781   6.494   0.897
 5364SOL    HW216992   6.798   6.526   1.056
 5365SOL     OW16993   4.501   2.095   5.949
 5365SOL    HW116994   4.566   2.081   6.024
 5365SOL    HW216995   4.448   2.012   5.934
 5366SOL     OW16996   4.349   4.487   0.258
 5366SOL    HW116997   4.431   4.432   0.270
 5366SOL    HW216998   4.326   4.533   0.343
 5367SOL     OW16999   0.367   4.324   1.557
 5367SOL    HW117000   0.423   4.401   1.585
 5367SOL    HW217001   0.273   4.338   1.589
 5368SOL     OW17002   5.540   2.067   3.111
 5368SOL    HW117003   5.468   2.063   3.181
 5368SOL    HW217004   5.557   2.162   3.086
 5369SOL     OW17005   2.468   4.448   3.075
 5369SOL    HW117006   2.386   4.404   3.039
 5369SOL    HW217007   2.506   4.393   3.149
 5370SOL     OW17008   3.908   2.691   1.325
 5370SOL    HW117009   3.809   2.705   1.328
 5370SOL    HW217010   3.932   2.608   1.375
 5371SOL     OW17011   1.607   4.277   4.103
 5371SOL    HW117012   1.592   4.366   4.146
 5371SOL    HW217013   1.565   4.206   4.158
 5372SOL     OW17014   3.015   4.819   2.935
 5372SOL    HW117015   3.032   4.905   2.887
 5372SOL    HW217016   3.038   4.742   2.875
 5373SOL     OW17017   3.209   4.944   4.075
 5373SOL    HW117018   3.197   5.038   4.107
 5373SOL    HW217019   3.138   4.886   4.116
 5374SOL     OW17020   1.842   2.457   6.550
 5374SOL    HW117021   1.917   2.475   6.487
 5374SOL    HW217022   1.756   2.483   6.508
 5375SOL     OW17023   1.510   4.377   4.441
 5375SOL    HW117024   1.422   4.348   4.479
 5375SOL    HW217025   1.582   4.360   4.508
 5376SOL     OW17026   1.368   3.767   1.700
 5376SOL    HW117027   1.406   3.704   1.633
 5376SOL    HW217028   1.410   3.751   1.790
 5377SOL     OW17029   0.443   0.281   1.556
 5377SOL    HW117030   0.422   0.365   1.506
 5377SOL    HW217031   0.512   0.228   1.506
 5378SOL     OW17032   5.817   0.671   6.960
 5378SOL    HW117033   5.771   0.670   0.031
 5378SOL    HW217034   5.800   0.759   6.914
 5379SOL     OW17035   0.143   5.518   2.882
 5379SOL    HW117036   0.180   5.439   2.930
 5379SOL    HW217037   0.046   5.529   2.906
 5380SOL     OW17038   2.527   0.141   3.323
 5380SOL    HW117039   2.449   0.092   3.364
 5380SOL    HW217040   2.612   0.097   3.352
 5381SOL     OW17041   5.521   4.266   1.041
 5381SOL    HW117042   5.492   4.298   1.131
 5381SOL    HW217043   5.482   4.175   1.025
 5382SOL     OW17044   3.123   1.256   1.322
 5382SOL    HW117045   3.160   1.225   1.410
 5382SOL    HW217046   3.174   1.336   1.291
 5383SOL     OW17047   2.670   2.012   5.183
 5383SOL    HW117048   2.626   2.061   5.108
 5383SOL    HW217049   2.724   2.076   5.238
 5384SOL     OW17050   6.215   6.683   4.021
 5384SOL    HW117051   6.181   6.590   4.040
 5384SOL    HW217052   6.307   6.693   4.058
 5385SOL     OW17053   3.503   4.146   2.357
 5385SOL    HW117054   3.433   4.198   2.309
 5385SOL    HW217055   3.592   4.191   2.346
 5386SOL     OW17056   5.113   6.165   4.021
 5386SOL    HW117057   5.120   6.067   4.004
 5386SOL    HW217058   5.174   6.214   3.959
 5387SOL     OW17059   2.859   5.213   2.066
 5387SOL    HW117060   2.899   5.148   2.131
 5387SOL    HW217061   2.806   5.163   1.997
 5388SOL     OW17062   5.585   6.811   2.463
 5388SOL    HW117063   5.489   6.786   2.463
 5388SOL    HW217064   5.601   6.884   2.529
 5389SOL     OW17065   4.728   0.815   1.633
 5389SOL    HW117066   4.719   0.896   1.575
 5389SOL    HW217067   4.747   0.842   1.727
 5390SOL     OW17068   6.118   5.169   5.295
 5390SOL    HW117069   6.193   5.108   5.317
 5390SOL    HW217070   6.036   5.116   5.274
 5391SOL     OW17071   2.897   3.228   0.496
 5391SOL    HW117072   2.824   3.296   0.496
 5391SOL    HW217073   2.863   3.141   0.462
 5392SOL     OW17074   5.912   3.034   1.459
 5392SOL    HW117075   5.868   2.957   1.412
 5392SOL    HW217076   5.865   3.051   1.546
 5393SOL     OW17077   6.571   0.279   0.318
 5393SOL    HW117078   6.532   0.196   0.357
 5393SOL    HW217079   6.664   0.262   0.288
 5394SOL     OW17080   0.673   4.040   5.848
 5394SOL    HW117081   0.756   3.987   5.832
 5394SOL    HW217082   0.593   3.987   5.817
 5395SOL     OW17083   3.753   0.288   0.664
 5395SOL    HW117084   3.720   0.239   0.584
 5395SOL    HW217085   3.692   0.269   0.742
 5396SOL     OW17086   5.588   3.931   1.841
 5396SOL    HW117087   5.662   3.995   1.823
 5396SOL    HW217088   5.542   3.908   1.755
 5397SOL     OW17089   6.721   3.336   1.250
 5397SOL    HW117090   6.782   3.408   1.283
 5397SOL    HW217091   6.755   3.301   1.163
 5398SOL     OW17092   3.148   2.541   1.686
 5398SOL    HW117093   3.241   2.507   1.698
 5398SOL    HW217094   3.085   2.490   1.745
 5399SOL     OW17095   1.933   6.096   0.953
 5399SOL    HW117096   1.973   6.050   1.032
 5399SOL    HW217097   1.844   6.134   0.977
 5400SOL     OW17098   2.896   4.572   0.259
 5400SOL    HW117099   2.961   4.611   0.193
 5400SOL    HW217100   2.828   4.517   0.210
 5401SOL     OW17101   5.796   3.176   1.924
 5401SOL    HW117102   5.831   3.083   1.915
 5401SOL    HW217103   5.839   3.234   1.855
 5402SOL     OW17104   2.176   6.153   2.082
 5402SOL    HW117105   2.090   6.149   2.030
 5402SOL    HW217106   2.177   6.078   2.148
 5403SOL     OW17107   0.375   3.603   6.402
 5403SOL    HW117108   0.456   3.600   6.461
 5403SOL    HW217109   0.332   3.693   6.409
 5404SOL     OW17110   1.496   2.851   3.744
 5404SOL    HW117111   1.535   2.784   3.808
 5404SOL    HW217112   1.566   2.919   3.721
 5405SOL     OW17113   6.728   5.167   6.017
 5405SOL    HW117114   6.700   5.220   5.937
 5405SOL    HW217115   6.791   5.094   5.989
 5406SOL     OW17116   1.425   1.123   6.814
 5406SOL    HW117117   1.509   1.087   6.773
 5406SOL    HW217118   1.448   1.196   6.879
 5407SOL     OW17119   4.004   3.408   0.906
 5407SOL    HW117120   3.935   3.479   0.920
 5407SOL    HW217121   3.991   3.334   0.971
 5408SOL     OW17122   2.337   0.827   6.672
 5408SOL    HW117123   2.395   0.902   6.642
 5408SOL    HW217124   2.351   0.809   6.769
 5409SOL     OW17125   4.759   0.498   2.835
 5409SOL    HW117126   4.829   0.430   2.858
 5409SOL    HW217127   4.681   0.487   2.897
 5410SOL     OW17128   3.112   2.137   1.593
 5410SOL    HW117129   3.048   2.211   1.611
 5410SOL    HW217130   3.206   2.169   1.609
 5411SOL     OW17131   0.227   5.121   5.403
 5411SOL    HW117132   0.216   5.201   5.462
 5411SOL    HW217133   0.302   5.065   5.437
 5412SOL     OW17134   5.935   2.866   0.677
 5412SOL    HW117135   5.866   2.825   0.735
 5412SOL    HW217136   6.010   2.901   0.733
 5413SOL     OW17137   2.984   1.660   1.558
 5413SOL    HW117138   2.893   1.662   1.598
 5413SOL    HW217139   2.989   1.726   1.483
 5414SOL     OW17140   4.575   1.216   4.758
 5414SOL    HW117141   4.559   1.130   4.709
 5414SOL    HW217142   4.581   1.291   4.692
 5415SOL     OW17143   0.048   5.683   1.511
 5415SOL    HW117144   7.015   5.720   1.590
 5415SOL    HW217145   0.130   5.634   1.544
 5416SOL     OW17146   4.268   5.170   4.865
 5416SOL    HW117147   4.220   5.254   4.840
 5416SOL    HW217148   4.359   5.193   4.899
 5417SOL     OW17149   3.228   6.638   4.920
 5417SOL    HW117150   3.275   6.725   4.936
 5417SOL    HW217151   3.294   6.567   4.901
 5418SOL     OW17152   3.797   0.151   2.635
 5418SOL    HW117153   3.735   0.187   2.705
 5418SOL    HW217154   3.795   0.212   2.555
 5419SOL     OW17155   3.332   4.754   6.507
 5419SOL    HW117156   3.368   4.830   6.561
 5419SOL    HW217157   3.397   4.730   6.435
 5420SOL     OW17158   2.050   2.354   2.891
 5420SOL    HW117159   2.071   2.265   2.931
 5420SOL    HW217160   2.055   2.348   2.791
 5421SOL     OW17161   1.805   3.855   1.633
 5421SOL    HW117162   1.819   3.801   1.716
 5421SOL    HW217163   1.715   3.898   1.636
 5422SOL     OW17164   1.627   4.298   1.458
 5422SOL    HW117165   1.635   4.278   1.360
 5422SOL    HW217166   1.540   4.262   1.492
 5423SOL     OW17167   5.914   2.979   6.580
 5423SOL    HW117168   5.969   3.045   6.528
 5423SOL    HW217169   5.974   2.928   6.642
 5424SOL     OW17170   5.023   3.238   4.671
 5424SOL    HW117171   5.024   3.162   4.736
 5424SOL    HW217172   4.989   3.206   4.582
 5425SOL     OW17173   4.182   1.256   5.285
 5425SOL    HW117174   4.267   1.244   5.335
 5425SOL    HW217175   4.188   1.338   5.228
 5426SOL     OW17176   5.832   6.537   4.913
 5426SOL    HW117177   5.914   6.575   4.870
 5426SOL    HW217178   5.824   6.440   4.891
 5427SOL     OW17179   4.264   6.022   6.670
 5427SOL    HW117180   4.309   6.101   6.629
 5427SOL    HW217181   4.277   6.024   6.769
 5428SOL     OW17182   0.788   0.258   1.075
 5428SOL    HW117183   0.741   0.240   1.162
 5428SOL    HW217184   0.751   0.199   1.004
 5429SOL     OW17185   1.177   2.202   6.658
 5429SOL    HW117186   1.154   2.273   6.591
 5429SOL    HW217187   1.186   2.243   6.748
 5430SOL     OW17188   0.777   2.879   6.695
 5430SOL    HW117189   0.775   2.910   6.790
 5430SOL    HW217190   0.748   2.783   6.691
 5431SOL     OW17191   3.391   6.290   6.250
 5431SOL    HW117192   3.360   6.384   6.261
 5431SOL    HW217193   3.432   6.258   6.335
 5432SOL     OW17194   4.894   0.148   0.059
 5432SOL    HW117195   4.904   0.058   0.102
 5432SOL    HW217196   4.900   0.219   0.129
 5433SOL     OW17197   0.170   1.764   4.998
 5433SOL    HW117198   0.243   1.701   4.973
 5433SOL    HW217199   0.156   1.763   5.097
 5434SOL     OW17200   3.060   0.335   6.230
 5434SOL    HW117201   3.005   0.385   6.297
 5434SOL    HW217202   3.040   0.237   6.237
 5435SOL     OW17203   4.343   0.177   1.637
 5435SOL    HW117204   4.413   0.189   1.707
 5435SOL    HW217205   4.280   0.105   1.665
 5436SOL     OW17206   4.869   4.546   3.446
 5436SOL    HW117207   4.902   4.629   3.491
 5436SOL    HW217208   4.883   4.553   3.347
 5437SOL     OW17209   2.867   4.220   0.056
 5437SOL    HW117210   2.962   4.206   0.083
 5437SOL    HW217211   2.809   4.151   0.100
 5438SOL     OW17212   5.837   1.742   1.573
 5438SOL    HW117213   5.932   1.751   1.601
 5438SOL    HW217214   5.795   1.832   1.565
 5439SOL     OW17215   1.253   2.530   1.066
 5439SOL    HW117216   1.274   2.513   1.162
 5439SOL    HW217217   1.193   2.458   1.031
 5440SOL     OW17218   1.534   2.427   1.041
 5440SOL    HW117219   1.479   2.459   0.964
 5440SOL    HW217220   1.473   2.389   1.111
 5441SOL     OW17221   3.261   1.931   3.839
 5441SOL    HW117222   3.280   1.861   3.908
 5441SOL    HW217223   3.278   2.022   3.879
 5442SOL     OW17224   4.063   0.243   2.026
 5442SOL    HW117225   4.033   0.196   1.943
 5442SOL    HW217226   4.015   0.331   2.033
 5443SOL     OW17227   2.619   6.835   5.173
 5443SOL    HW117228   2.623   6.790   5.083
 5443SOL    HW217229   2.622   6.934   5.160
 5444SOL     OW17230   0.450   6.341   4.055
 5444SOL    HW117231   0.371   6.282   4.066
 5444SOL    HW217232   0.429   6.432   4.092
 5445SOL     OW17233   6.572   3.393   2.831
 5445SOL    HW117234   6.525   3.329   2.771
 5445SOL    HW217235   6.632   3.452   2.778
 5446SOL     OW17236   5.814   5.570   4.705
 5446SOL    HW117237   5.832   5.495   4.769
 5446SOL    HW217238   5.715   5.579   4.693
 5447SOL     OW17239   3.867   2.202   7.002
 5447SOL    HW117240   3.899   2.134   0.051
 5447SOL    HW217241   3.783   2.244   0.020
 5448SOL     OW17242   5.060   2.485   5.379
 5448SOL    HW117243   5.160   2.484   5.380
 5448SOL    HW217244   5.028   2.496   5.284
 5449SOL     OW17245   0.899   3.308   0.269
 5449SOL    HW117246   0.799   3.306   0.275
 5449SOL    HW217247   0.929   3.257   0.188
 5450SOL     OW17248   1.792   0.014   1.370
 5450SOL    HW117249   1.864   0.039   1.434
 5450SOL    HW217250   1.755   0.096   1.327
 5451SOL     OW17251   0.663   6.093   3.056
 5451SOL    HW117252   0.722   6.170   3.079
 5451SOL    HW217253   0.713   6.028   2.999
 5452SOL     OW17254   2.129   4.429   6.942
 5452SOL    HW117255   2.075   4.491   7.000
 5452SOL    HW217256   2.085   4.340   6.939
 5453SOL     OW17257   5.965   4.208   0.229
 5453SOL    HW117258   6.041   4.156   0.190
 5453SOL    HW217259   5.968   4.302   0.196
 5454SOL     OW17260   6.974   5.235   6.780
 5454SOL    HW117261   0.033   5.300   6.782
 5454SOL    HW217262   7.000   5.154   6.727
 5455SOL     OW17263   6.563   3.117   1.283
 5455SOL    HW117264   6.632   3.189   1.278
 5455SOL    HW217265   6.478   3.154   1.318
 5456SOL     OW17266   2.712   0.374   6.945
 5456SOL    HW117267   2.719   0.275   6.948
 5456SOL    HW217268   2.636   0.401   6.886
 5457SOL     OW17269   5.704   2.697   1.293
 5457SOL    HW117270   5.804   2.694   1.300
 5457SOL    HW217271   5.672   2.789   1.315
 5458SOL     OW17272   1.840   4.255   6.656
 5458SOL    HW117273   1.768   4.209   6.604
 5458SOL    HW217274   1.851   4.348   6.624
 5459SOL     OW17275   1.939   4.616   0.070
 5459SOL    HW117276   1.864   4.593   0.132
 5459SOL    HW217277   1.924   4.707   0.032
 5460SOL     OW17278   2.911   0.430   1.281
 5460SOL    HW117279   2.868   0.385   1.360
 5460SOL    HW217280   2.972   0.366   1.235
 5461SOL     OW17281   4.812   0.034   5.040
 5461SOL    HW117282   4.902   0.033   5.083
 5461SOL    HW217283   4.813   6.991   4.960
 5462SOL     OW17284   1.400   0.123   0.412
 5462SOL    HW117285   1.482   0.096   0.464
 5462SOL    HW217286   1.358   0.042   0.372
 5463SOL     OW17287   6.350   2.962   0.509
 5463SOL    HW117288   6.347   2.923   0.601
 5463SOL    HW217289   6.335   2.890   0.441
 5464SOL     OW17290   2.393   0.671   4.380
 5464SOL    HW117291   2.301   0.682   4.340
 5464SOL    HW217292   2.389   0.604   4.453
 5465SOL     OW17293   3.473   0.122   4.885
 5465SOL    HW117294   3.413   0.196   4.856
 5465SOL    HW217295   3.566   0.156   4.898
 5466SOL     OW17296   4.804   4.050   4.727
 5466SOL    HW117297   4.831   4.070   4.633
 5466SOL    HW217298   4.829   3.956   4.749
 5467SOL     OW17299   5.124   1.470   2.289
 5467SOL    HW117300   5.077   1.383   2.306
 5467SOL    HW217301   5.158   1.507   2.375
 5468SOL     OW17302   4.778   1.864   4.923
 5468SOL    HW117303   4.808   1.937   4.984
 5468SOL    HW217304   4.820   1.878   4.833
 5469SOL     OW17305   3.814   4.469   5.770
 5469SOL    HW117306   3.800   4.525   5.688
 5469SOL    HW217307   3.725   4.445   5.809
 5470SOL     OW17308   1.607   4.974   3.931
 5470SOL    HW117309   1.530   5.032   3.958
 5470SOL    HW217310   1.662   4.951   4.011
 5471SOL     OW17311   6.976   5.919   1.654
 5471SOL    HW117312   0.011   5.987   1.603
 5471SOL    HW217313   0.020   5.869   1.715
 5472SOL     OW17314   4.298   3.973   5.937
 5472SOL    HW117315   4.281   3.875   5.937
 5472SOL    HW217316   4.223   4.020   5.983
 5473SOL     OW17317   1.305   3.088   3.414
 5473SOL    HW117318   1.399   3.080   3.382
 5473SOL    HW217319   1.274   3.000   3.451
 5474SOL     OW17320   1.481   5.688   3.998
 5474SOL    HW117321   1.564   5.655   3.954
 5474SOL    HW217322   1.474   5.650   4.090
 5475SOL     OW17323   3.177   2.037   0.867
 5475SOL    HW117324   3.176   2.082   0.957
 5475SOL    HW217325   3.083   2.023   0.836
 5476SOL     OW17326   1.242   2.962   6.742
 5476SOL    HW117327   1.188   2.882   6.717
 5476SOL    HW217328   1.185   3.044   6.737
 5477SOL     OW17329   2.312   2.841   3.294
 5477SOL    HW117330   2.322   2.799   3.384
 5477SOL    HW217331   2.384   2.807   3.234
 5478SOL     OW17332   5.398   5.812   5.851
 5478SOL    HW117333   5.400   5.835   5.754
 5478SOL    HW217334   5.475   5.752   5.873
 5479SOL     OW17335   4.963   0.077   4.606
 5479SOL    HW117336   4.883   0.117   4.651
 5479SOL    HW217337   4.984   7.006   4.648
 5480SOL     OW17338   1.106   3.691   4.113
 5480SOL    HW117339   1.014   3.655   4.100
 5480SOL    HW217340   1.139   3.669   4.205
 5481SOL     OW17341   3.335   6.733   4.377
 5481SOL    HW117342   3.315   6.685   4.463
 5481SOL    HW217343   3.321   6.831   4.390
 5482SOL     OW17344   2.891   4.785   1.481
 5482SOL    HW117345   2.937   4.707   1.524
 5482SOL    HW217346   2.918   4.869   1.527
 5483SOL     OW17347   0.329   2.841   5.675
 5483SOL    HW117348   0.386   2.862   5.755
 5483SOL    HW217349   0.241   2.886   5.685
 5484SOL     OW17350   4.585   0.527   4.396
 5484SOL    HW117351   4.674   0.561   4.366
 5484SOL    HW217352   4.523   0.603   4.413
 5485SOL     OW17353   2.918   6.473   5.703
 5485SOL    HW117354   2.867   6.553   5.670
 5485SOL    HW217355   3.015   6.494   5.706
 5486SOL     OW17356   2.565   5.947   4.619
 5486SOL    HW117357   2.639   6.013   4.630
 5486SOL    HW217358   2.540   5.940   4.523
 5487SOL     OW17359   2.934   4.948   5.817
 5487SOL    HW117360   2.901   4.854   5.817
 5487SOL    HW217361   3.033   4.949   5.801
 5488SOL     OW17362   6.102   1.125   1.149
 5488SOL    HW117363   6.046   1.077   1.216
 5488SOL    HW217364   6.079   1.092   1.057
 5489SOL     OW17365   6.761   3.632   2.175
 5489SOL    HW117366   6.789   3.642   2.270
 5489SOL    HW217367   6.674   3.582   2.172
 5490SOL     OW17368   1.373   6.803   2.777
 5490SOL    HW117369   1.421   6.831   2.693
 5490SOL    HW217370   1.303   6.736   2.754
 5491SOL     OW17371   6.830   4.241   0.425
 5491SOL    HW117372   6.784   4.179   0.488
 5491SOL    HW217373   6.890   4.189   0.365
 5492SOL     OW17374   0.511   1.264   5.481
 5492SOL    HW117375   0.436   1.211   5.441
 5492SOL    HW217376   0.475   1.350   5.516
 5493SOL     OW17377   4.025   3.680   1.599
 5493SOL    HW117378   4.073   3.676   1.686
 5493SOL    HW217379   4.090   3.666   1.524
 5494SOL     OW17380   6.497   4.049   5.300
 5494SOL    HW117381   6.460   3.974   5.354
 5494SOL    HW217382   6.511   4.018   5.205
 5495SOL     OW17383   5.834   0.645   1.171
 5495SOL    HW117384   5.874   0.587   1.101
 5495SOL    HW217385   5.773   0.712   1.129
 5496SOL     OW17386   3.819   0.352   4.438
 5496SOL    HW117387   3.743   0.366   4.375
 5496SOL    HW217388   3.783   0.324   4.528
 5497SOL     OW17389   0.882   0.815   6.285
 5497SOL    HW117390   0.889   0.789   6.381
 5497SOL    HW217391   0.958   0.775   6.233
 5498SOL     OW17392   0.410   5.126   1.996
 5498SOL    HW117393   0.355   5.163   1.921
 5498SOL    HW217394   0.350   5.093   2.069
 5499SOL     OW17395   1.592   0.249   4.851
 5499SOL    HW117396   1.667   0.263   4.786
 5499SOL    HW217397   1.586   0.151   4.873
 5500SOL     OW17398   2.340   0.791   0.649
 5500SOL    HW117399   2.420   0.733   0.630
 5500SOL    HW217400   2.257   0.738   0.631
 5501SOL     OW17401   3.842   2.916   6.617
 5501SOL    HW117402   3.854   2.829   6.569
 5501SOL    HW217403   3.745   2.935   6.629
 5502SOL     OW17404   4.400   2.249   0.204
 5502SOL    HW117405   4.307   2.214   0.191
 5502SOL    HW217406   4.459   2.175   0.235
 5503SOL     OW17407   0.004   3.920   0.409
 5503SOL    HW117408   6.944   3.857   0.414
 5503SOL    HW217409   7.009   3.992   0.478
 5504SOL     OW17410   3.515   0.974   6.280
 5504SOL    HW117411   3.424   0.977   6.320
 5504SOL    HW217412   3.540   1.066   6.248
 5505SOL     OW17413   2.479   4.766   4.129
 5505SOL    HW117414   2.530   4.687   4.097
 5505SOL    HW217415   2.413   4.738   4.198
 5506SOL     OW17416   0.749   3.372   6.199
 5506SOL    HW117417   0.838   3.349   6.160
 5506SOL    HW217418   0.727   3.467   6.178
 5507SOL     OW17419   2.964   0.125   0.068
 5507SOL    HW117420   3.022   0.147   7.007
 5507SOL    HW217421   2.869   0.119   0.038
 5508SOL     OW17422   0.195   0.668   6.577
 5508SOL    HW117423   0.216   0.618   6.661
 5508SOL    HW217424   0.096   0.675   6.567
 5509SOL     OW17425   6.910   5.505   0.498
 5509SOL    HW117426   6.930   5.450   0.417
 5509SOL    HW217427   6.906   5.446   0.578
 5510SOL     OW17428   3.708   5.471   6.961
 5510SOL    HW117429   3.674   5.439   0.032
 5510SOL    HW217430   3.786   5.415   6.933
 5511SOL     OW17431   0.766   1.257   5.441
 5511SOL    HW117432   0.674   1.285   5.415
 5511SOL    HW217433   0.761   1.179   5.503
 5512SOL     OW17434   3.222   1.120   2.619
 5512SOL    HW117435   3.319   1.124   2.596
 5512SOL    HW217436   3.212   1.123   2.719
 5513SOL     OW17437   3.785   4.347   6.928
 5513SOL    HW117438   3.769   4.250   6.944
 5513SOL    HW217439   3.698   4.392   6.906
 5514SOL     OW17440   2.848   0.454   6.684
 5514SOL    HW117441   2.814   0.409   6.767
 5514SOL    HW217442   2.827   0.552   6.689
 5515SOL     OW17443   2.782   6.197   2.024
 5515SOL    HW117444   2.803   6.145   2.106
 5515SOL    HW217445   2.702   6.255   2.040
 5516SOL     OW17446   2.520   2.667   5.212
 5516SOL    HW117447   2.430   2.693   5.178
 5516SOL    HW217448   2.579   2.748   5.218
 5517SOL     OW17449   1.502   3.341   3.308
 5517SOL    HW117450   1.592   3.350   3.265
 5517SOL    HW217451   1.439   3.406   3.266
 5518SOL     OW17452   4.654   4.175   5.798
 5518SOL    HW117453   4.577   4.153   5.738
 5518SOL    HW217454   4.671   4.098   5.860
 5519SOL     OW17455   4.569   2.183   3.848
 5519SOL    HW117456   4.511   2.104   3.868
 5519SOL    HW217457   4.610   2.217   3.933
 5520SOL     OW17458   5.048   6.665   1.553
 5520SOL    HW117459   5.059   6.654   1.455
 5520SOL    HW217460   5.056   6.762   1.576
 5521SOL     OW17461   5.465   5.672   2.024
 5521SOL    HW117462   5.447   5.717   2.112
 5521SOL    HW217463   5.514   5.586   2.041
 5522SOL     OW17464   6.083   5.729   0.485
 5522SOL    HW117465   5.992   5.705   0.451
 5522SOL    HW217466   6.152   5.672   0.441
 5523SOL     OW17467   5.680   1.076   2.337
 5523SOL    HW117468   5.736   1.086   2.255
 5523SOL    HW217469   5.621   0.995   2.327
 5524SOL     OW17470   2.944   0.808   4.611
 5524SOL    HW117471   2.967   0.863   4.531
 5524SOL    HW217472   2.898   0.865   4.680
 5525SOL     OW17473   6.184   1.714   1.114
 5525SOL    HW117474   6.099   1.682   1.157
 5525SOL    HW217475   6.254   1.644   1.121
 5526SOL     OW17476   4.815   4.860   3.301
 5526SOL    HW117477   4.870   4.848   3.383
 5526SOL    HW217478   4.834   4.949   3.261
 5527SOL     OW17479   5.968   1.414   3.659
 5527SOL    HW117480   5.908   1.346   3.616
 5527SOL    HW217481   6.063   1.397   3.632
 5528SOL     OW17482   1.066   1.628   0.878
 5528SOL    HW117483   1.158   1.625   0.917
 5528SOL    HW217484   1.059   1.563   0.802
 5529SOL     OW17485   3.936   0.955   2.163
 5529SOL    HW117486   4.006   0.944   2.233
 5529SOL    HW217487   3.924   1.053   2.143
 5530SOL     OW17488   6.217   2.055   1.250
 5530SOL    HW117489   6.136   2.085   1.299
 5530SOL    HW217490   6.200   2.058   1.151
 5531SOL     OW17491   2.062   3.994   1.647
 5531SOL    HW117492   1.991   3.923   1.652
 5531SOL    HW217493   2.054   4.042   1.559
 5532SOL     OW17494   1.207   3.107   0.892
 5532SOL    HW117495   1.193   3.165   0.812
 5532SOL    HW217496   1.119   3.066   0.919
 5533SOL     OW17497   3.888   2.137   3.873
 5533SOL    HW117498   3.796   2.139   3.913
 5533SOL    HW217499   3.940   2.217   3.904
 5534SOL     OW17500   1.260   0.530   4.640
 5534SOL    HW117501   1.275   0.598   4.712
 5534SOL    HW217502   1.189   0.562   4.578
 5535SOL     OW17503   0.239   2.175   3.558
 5535SOL    HW117504   0.234   2.088   3.605
 5535SOL    HW217505   0.229   2.161   3.459
 5536SOL     OW17506   3.777   6.503   4.202
 5536SOL    HW117507   3.818   6.588   4.235
 5536SOL    HW217508   3.837   6.461   4.134
 5537SOL     OW17509   3.262   1.109   3.439
 5537SOL    HW117510   3.317   1.035   3.400
 5537SOL    HW217511   3.166   1.081   3.441
 5538SOL     OW17512   4.120   5.340   4.477
 5538SOL    HW117513   4.101   5.297   4.565
 5538SOL    HW217514   4.169   5.276   4.418
 5539SOL     OW17515   2.200   4.063   0.284
 5539SOL    HW117516   2.156   4.152   0.281
 5539SOL    HW217517   2.240   4.042   0.195
 5540SOL     OW17518   5.282   5.035   2.016
 5540SOL    HW117519   5.304   5.109   2.080
 5540SOL    HW217520   5.186   5.041   1.990
 5541SOL     OW17521   4.302   1.365   5.762
 5541SOL    HW117522   4.273   1.271   5.749
 5541SOL    HW217523   4.300   1.414   5.675
 5542SOL     OW17524   5.098   4.753   6.128
 5542SOL    HW117525   5.153   4.760   6.045
 5542SOL    HW217526   5.002   4.772   6.107
 5543SOL     OW17527   6.800   2.098   5.869
 5543SOL    HW117528   6.890   2.129   5.899
 5543SOL    HW217529   6.788   2.119   5.772
 5544SOL     OW17530   5.761   1.529   6.176
 5544SOL    HW117531   5.762   1.628   6.159
 5544SOL    HW217532   5.789   1.512   6.271
 5545SOL     OW17533   2.861   2.233   1.726
 5545SOL    HW117534   2.894   2.320   1.764
 5545SOL    HW217535   2.825   2.176   1.799
 5546SOL     OW17536   1.935   4.947   5.605
 5546SOL    HW117537   1.875   5.016   5.564
 5546SOL    HW217538   1.997   4.911   5.535
 5547SOL     OW17539   4.004   6.157   4.952
 5547SOL    HW117540   4.041   6.065   4.967
 5547SOL    HW217541   4.076   6.224   4.968
 5548SOL     OW17542   6.970   3.446   5.114
 5548SOL    HW117543   0.050   3.461   5.131
 5548SOL    HW217544   6.929   3.529   5.075
 5549SOL     OW17545   3.319   4.369   6.567
 5549SOL    HW117546   3.379   4.371   6.646
 5549SOL    HW217547   3.240   4.428   6.583
 5550SOL     OW17548   3.552   6.565   1.892
 5550SOL    HW117549   3.547   6.478   1.843
 5550SOL    HW217550   3.544   6.641   1.827
 5551SOL     OW17551   0.643   0.777   3.040
 5551SOL    HW117552   0.672   0.844   3.108
 5551SOL    HW217553   0.653   0.685   3.077
 5552SOL     OW17554   0.334   2.999   1.482
 5552SOL    HW117555   0.406   3.006   1.551
 5552SOL    HW217556   0.368   3.033   1.395
 5553SOL     OW17557   5.325   6.719   0.404
 5553SOL    HW117558   5.395   6.654   0.374
 5553SOL    HW217559   5.335   6.804   0.352
 5554SOL     OW17560   2.585   1.793   4.570
 5554SOL    HW117561   2.563   1.703   4.533
 5554SOL    HW217562   2.681   1.794   4.599
 5555SOL     OW17563   6.816   5.975   2.731
 5555SOL    HW117564   6.851   5.967   2.638
 5555SOL    HW217565   6.884   5.940   2.795
 5556SOL     OW17566   0.375   1.329   4.473
 5556SOL    HW117567   0.442   1.388   4.429
 5556SOL    HW217568   0.389   1.235   4.442
 5557SOL     OW17569   2.854   0.710   3.474
 5557SOL    HW117570   2.936   0.767   3.479
 5557SOL    HW217571   2.880   0.613   3.477
 5558SOL     OW17572   4.770   2.225   4.589
 5558SOL    HW117573   4.854   2.280   4.582
 5558SOL    HW217574   4.744   2.218   4.685
 5559SOL     OW17575   2.019   0.093   0.825
 5559SOL    HW117576   1.933   0.117   0.779
 5559SOL    HW217577   1.999   0.063   0.918
 5560SOL     OW17578   0.321   0.449   4.346
 5560SOL    HW117579   0.319   0.363   4.295
 5560SOL    HW217580   0.412   0.463   4.384
 5561SOL     OW17581   1.417   3.699   2.980
 5561SOL    HW117582   1.382   3.774   3.036
 5561SOL    HW217583   1.515   3.689   2.994
 5562SOL     OW17584   2.523   2.602   5.950
 5562SOL    HW117585   2.475   2.661   5.885
 5562SOL    HW217586   2.575   2.533   5.900
 5563SOL     OW17587   4.221   4.614   1.532
 5563SOL    HW117588   4.290   4.549   1.563
 5563SOL    HW217589   4.199   4.596   1.436
 5564SOL     OW17590   6.295   4.461   1.372
 5564SOL    HW117591   6.198   4.466   1.396
 5564SOL    HW217592   6.318   4.368   1.346
 5565SOL     OW17593   2.674   3.113   5.667
 5565SOL    HW117594   2.729   3.193   5.642
 5565SOL    HW217595   2.588   3.144   5.708
 5566SOL     OW17596   2.177   4.473   0.979
 5566SOL    HW117597   2.138   4.462   0.887
 5566SOL    HW217598   2.276   4.470   0.973
 5567SOL     OW17599   1.913   5.787   2.438
 5567SOL    HW117600   2.005   5.755   2.458
 5567SOL    HW217601   1.873   5.731   2.365
 5568SOL     OW17602   3.676   1.912   1.124
 5568SOL    HW117603   3.605   1.939   1.058
 5568SOL    HW217604   3.762   1.958   1.101
 5569SOL     OW17605   6.120   2.401   6.962
 5569SOL    HW117606   6.192   2.341   6.997
 5569SOL    HW217607   6.031   2.360   6.979
 5570SOL     OW17608   6.976   4.068   5.512
 5570SOL    HW117609   6.905   4.070   5.441
 5570SOL    HW217610   0.048   4.071   5.468
 5571SOL     OW17611   6.972   4.699   6.363
 5571SOL    HW117612   6.941   4.679   6.456
 5571SOL    HW217613   6.933   4.632   6.300
 5572SOL     OW17614   5.252   2.902   5.750
 5572SOL    HW117615   5.332   2.890   5.808
 5572SOL    HW217616   5.182   2.836   5.776
 5573SOL     OW17617   0.905   3.864   0.580
 5573SOL    HW117618   0.871   3.937   0.639
 5573SOL    HW217619   1.005   3.862   0.584
 5574SOL     OW17620   0.677   6.115   4.564
 5574SOL    HW117621   0.660   6.152   4.472
 5574SOL    HW217622   0.764   6.066   4.564
 5575SOL     OW17623   1.809   0.857   1.718
 5575SOL    HW117624   1.756   0.942   1.711
 5575SOL    HW217625   1.885   0.870   1.782
 5576SOL     OW17626   6.524   6.028   0.229
 5576SOL    HW117627   6.623   6.031   0.216
 5576SOL    HW217628   6.491   5.935   0.212
 5577SOL     OW17629   2.289   3.847   5.338
 5577SOL    HW117630   2.352   3.901   5.282
 5577SOL    HW217631   2.231   3.792   5.278
 5578SOL     OW17632   3.866   1.207   6.344
 5578SOL    HW117633   3.876   1.238   6.249
 5578SOL    HW217634   3.769   1.197   6.366
 5579SOL     OW17635   5.256   4.504   1.025
 5579SOL    HW117636   5.308   4.539   1.103
 5579SOL    HW217637   5.160   4.528   1.036
 5580SOL     OW17638   5.239   0.603   1.578
 5580SOL    HW117639   5.172   0.652   1.522
 5580SOL    HW217640   5.306   0.557   1.519
 5581SOL     OW17641   2.499   2.629   0.362
 5581SOL    HW117642   2.595   2.628   0.390
 5581SOL    HW217643   2.453   2.547   0.395
 5582SOL     OW17644   3.875   3.410   3.205
 5582SOL    HW117645   3.796   3.370   3.251
 5582SOL    HW217646   3.952   3.345   3.208
 5583SOL     OW17647   3.392   0.429   0.518
 5583SOL    HW117648   3.359   0.338   0.492
 5583SOL    HW217649   3.475   0.451   0.467
 5584SOL     OW17650   5.740   3.019   2.655
 5584SOL    HW117651   5.665   3.048   2.714
 5584SOL    HW217652   5.740   3.075   2.571
 5585SOL     OW17653   6.850   6.614   4.263
 5585SOL    HW117654   6.922   6.593   4.198
 5585SOL    HW217655   6.804   6.530   4.291
 5586SOL     OW17656   2.135   1.580   6.406
 5586SOL    HW117657   2.215   1.620   6.451
 5586SOL    HW217658   2.059   1.644   6.412
 5587SOL     OW17659   3.482   0.254   3.783
 5587SOL    HW117660   3.501   0.318   3.857
 5587SOL    HW217661   3.387   0.223   3.789
 5588SOL     OW17662   4.119   0.028   5.808
 5588SOL    HW117663   4.189   0.098   5.822
 5588SOL    HW217664   4.052   0.061   5.742
 5589SOL     OW17665   3.518   3.467   6.650
 5589SOL    HW117666   3.555   3.481   6.742
 5589SOL    HW217667   3.444   3.400   6.655
 5590SOL     OW17668   6.917   6.918   3.018
 5590SOL    HW117669   6.869   6.833   3.037
 5590SOL    HW217670   6.903   6.982   3.093
 5591SOL     OW17671   4.653   0.910   7.002
 5591SOL    HW117672   4.609   0.996   0.007
 5591SOL    HW217673   4.618   0.876   6.914
 5592SOL     OW17674   2.834   2.301   2.628
 5592SOL    HW117675   2.844   2.298   2.529
 5592SOL    HW217676   2.915   2.260   2.671
 5593SOL     OW17677   2.066   3.426   4.921
 5593SOL    HW117678   2.023   3.516   4.918
 5593SOL    HW217679   2.138   3.426   4.991
 5594SOL     OW17680   2.477   1.430   6.824
 5594SOL    HW117681   2.406   1.359   6.823
 5594SOL    HW217682   2.517   1.435   6.916
 5595SOL     OW17683   0.088   1.688   5.867
 5595SOL    HW117684   0.056   1.665   5.959
 5595SOL    HW217685   0.045   1.774   5.838
 5596SOL     OW17686   4.940   1.535   3.069
 5596SOL    HW117687   4.846   1.509   3.090
 5596SOL    HW217688   5.003   1.477   3.121
 5597SOL     OW17689   0.206   1.021   6.019
 5597SOL    HW117690   0.298   1.027   6.059
 5597SOL    HW217691   0.170   0.929   6.032
 5598SOL     OW17692   6.888   2.364   4.446
 5598SOL    HW117693   6.876   2.270   4.414
 5598SOL    HW217694   6.829   2.380   4.525
 5599SOL     OW17695   5.137   2.725   3.609
 5599SOL    HW117696   5.163   2.811   3.566
 5599SOL    HW217697   5.093   2.666   3.541
 5600SOL     OW17698   2.462   1.771   1.750
 5600SOL    HW117699   2.506   1.767   1.839
 5600SOL    HW217700   2.449   1.867   1.724
 5601SOL     OW17701   6.228   2.973   5.830
 5601SOL    HW117702   6.162   3.037   5.869
 5601SOL    HW217703   6.186   2.925   5.753
 5602SOL     OW17704   6.335   2.299   2.489
 5602SOL    HW117705   6.260   2.341   2.438
 5602SOL    HW217706   6.298   2.245   2.565
 5603SOL     OW17707   4.586   1.442   5.846
 5603SOL    HW117708   4.640   1.405   5.771
 5603SOL    HW217709   4.499   1.394   5.851
 5604SOL     OW17710   1.222   6.822   3.425
 5604SOL    HW117711   1.274   6.777   3.497
 5604SOL    HW217712   1.191   6.754   3.359
 5605SOL     OW17713   4.350   0.000   4.229
 5605SOL    HW117714   4.306   0.007   4.140
 5605SOL    HW217715   4.290   0.038   4.299
 5606SOL     OW17716   5.109   3.434   0.354
 5606SOL    HW117717   5.072   3.467   0.441
 5606SOL    HW217718   5.049   3.363   0.317
 5607SOL     OW17719   0.097   2.454   3.355
 5607SOL    HW117720   0.103   2.535   3.413
 5607SOL    HW217721   0.004   2.418   3.358
 5608SOL     OW17722   5.191   0.594   3.338
 5608SOL    HW117723   5.211   0.497   3.327
 5608SOL    HW217724   5.161   0.632   3.250
 5609SOL     OW17725   6.626   0.263   0.686
 5609SOL    HW117726   6.635   0.338   0.621
 5609SOL    HW217727   6.530   0.253   0.712
 5610SOL     OW17728   5.077   5.470   0.648
 5610SOL    HW117729   5.166   5.434   0.621
 5610SOL    HW217730   5.004   5.424   0.597
 5611SOL     OW17731   5.733   4.860   2.055
 5611SOL    HW117732   5.647   4.898   2.021
 5611SOL    HW217733   5.801   4.934   2.063
 5612SOL     OW17734   3.496   1.730   7.011
 5612SOL    HW117735   3.443   1.785   6.947
 5612SOL    HW217736   3.435   1.675   0.050
 5613SOL     OW17737   6.020   4.982   6.177
 5613SOL    HW117738   6.106   4.996   6.128
 5613SOL    HW217739   6.039   4.967   6.274
 5614SOL     OW17740   4.804   2.977   4.107
 5614SOL    HW117741   4.902   2.961   4.117
 5614SOL    HW217742   4.771   2.933   4.023
 5615SOL     OW17743   0.497   2.881   2.945
 5615SOL    HW117744   0.520   2.787   2.919
 5615SOL    HW217745   0.398   2.888   2.957
 5616SOL     OW17746   1.595   3.270   2.587
 5616SOL    HW117747   1.659   3.195   2.569
 5616SOL    HW217748   1.635   3.334   2.652
 5617SOL     OW17749   1.432   4.907   6.503
 5617SOL    HW117750   1.385   4.824   6.533
 5617SOL    HW217751   1.408   4.926   6.407
 5618SOL     OW17752   5.334   6.597   2.218
 5618SOL    HW117753   5.406   6.594   2.149
 5618SOL    HW217754   5.249   6.563   2.179
 5619SOL     OW17755   3.435   3.221   3.831
 5619SOL    HW117756   3.502   3.294   3.821
 5619SOL    HW217757   3.423   3.201   3.929
 5620SOL     OW17758   5.005   4.671   4.333
 5620SOL    HW117759   4.906   4.668   4.347
 5620SOL    HW217760   5.026   4.660   4.236
 5621SOL     OW17761   0.227   2.436   6.465
 5621SOL    HW117762   0.313   2.419   6.417
 5621SOL    HW217763   0.196   2.352   6.509
 5622SOL     OW17764   4.624   5.893   3.877
 5622SOL    HW117765   4.574   5.878   3.962
 5622SOL    HW217766   4.566   5.940   3.811
 5623SOL     OW17767   5.015   4.736   4.720
 5623SOL    HW117768   5.050   4.787   4.642
 5623SOL    HW217769   4.951   4.666   4.688
 5624SOL     OW17770   4.995   4.580   3.206
 5624SOL    HW117771   5.067   4.648   3.190
 5624SOL    HW217772   4.969   4.538   3.120
 5625SOL     OW17773   2.220   5.939   5.967
 5625SOL    HW117774   2.151   5.944   6.039
 5625SOL    HW217775   2.183   5.978   5.882
 5626SOL     OW17776   0.580   4.457   6.770
 5626SOL    HW117777   0.646   4.528   6.747
 5626SOL    HW217778   0.559   4.461   6.868
 5627SOL     OW17779   1.033   5.169   6.798
 5627SOL    HW117780   0.991   5.241   6.743
 5627SOL    HW217781   0.962   5.107   6.832
 5628SOL     OW17782   2.099   3.584   0.548
 5628SOL    HW117783   2.161   3.651   0.588
 5628SOL    HW217784   2.073   3.517   0.617
 5629SOL     OW17785   6.333   3.302   2.410
 5629SOL    HW117786   6.290   3.373   2.466
 5629SOL    HW217787   6.377   3.235   2.469
 5630SOL     OW17788   0.794   3.959   6.862
 5630SOL    HW117789   0.710   4.008   6.887
 5630SOL    HW217790   0.861   4.025   6.828
 5631SOL     OW17791   3.847   1.564   2.086
 5631SOL    HW117792   3.825   1.649   2.040
 5631SOL    HW217793   3.937   1.571   2.129
 5632SOL     OW17794   5.006   6.474   5.530
 5632SOL    HW117795   4.977   6.473   5.435
 5632SOL    HW217796   4.934   6.515   5.587
 5633SOL     OW17797   0.957   5.504   5.305
 5633SOL    HW117798   0.990   5.553   5.224
 5633SOL    HW217799   0.981   5.407   5.297
 5634SOL     OW17800   2.635   0.675   1.172
 5634SOL    HW117801   2.625   0.773   1.157
 5634SOL    HW217802   2.601   0.651   1.263
 5635SOL     OW17803   3.141   0.735   1.297
 5635SOL    HW117804   3.076   0.660   1.305
 5635SOL    HW217805   3.106   0.815   1.346
 5636SOL     OW17806   4.991   1.135   6.145
 5636SOL    HW117807   5.023   1.049   6.106
 5636SOL    HW217808   5.065   1.203   6.145
 5637SOL     OW17809   5.034   6.679   4.457
 5637SOL    HW117810   4.972   6.641   4.525
 5637SOL    HW217811   5.027   6.626   4.372
 5638SOL     OW17812   6.109   5.216   1.138
 5638SOL    HW117813   6.206   5.197   1.156
 5638SOL    HW217814   6.098   5.314   1.120
 5639SOL     OW17815   1.980   0.419   1.736
 5639SOL    HW117816   1.909   0.487   1.753
 5639SOL    HW217817   2.059   0.439   1.793
 5640SOL     OW17818   3.375   0.181   2.546
 5640SOL    HW117819   3.288   0.163   2.502
 5640SOL    HW217820   3.433   0.100   2.540
 5641SOL     OW17821   6.521   4.217   3.795
 5641SOL    HW117822   6.544   4.247   3.702
 5641SOL    HW217823   6.605   4.206   3.848
 5642SOL     OW17824   2.043   3.262   6.504
 5642SOL    HW117825   1.996   3.252   6.592
 5642SOL    HW217826   2.040   3.358   6.476
 5643SOL     OW17827   5.544   2.531   4.901
 5643SOL    HW117828   5.555   2.565   4.808
 5643SOL    HW217829   5.466   2.468   4.904
 5644SOL     OW17830   4.468   0.544   4.882
 5644SOL    HW117831   4.374   0.570   4.859
 5644SOL    HW217832   4.477   0.538   4.982
 5645SOL     OW17833   6.769   5.628   3.862
 5645SOL    HW117834   6.778   5.687   3.942
 5645SOL    HW217835   6.804   5.677   3.782
 5646SOL     OW17836   0.248   6.395   3.583
 5646SOL    HW117837   0.325   6.376   3.644
 5646SOL    HW217838   0.162   6.375   3.631
 5647SOL     OW17839   6.100   5.376   6.156
 5647SOL    HW117840   6.044   5.365   6.238
 5647SOL    HW217841   6.087   5.298   6.096
 5648SOL     OW17842   1.840   1.148   5.299
 5648SOL    HW117843   1.787   1.079   5.349
 5648SOL    HW217844   1.875   1.108   5.214
 5649SOL     OW17845   1.504   0.418   5.037
 5649SOL    HW117846   1.566   0.437   5.113
 5649SOL    HW217847   1.554   0.370   4.964
 5650SOL     OW17848   6.655   5.018   0.348
 5650SOL    HW117849   6.696   4.942   0.297
 5650SOL    HW217850   6.727   5.073   0.390
 5651SOL     OW17851   6.490   1.355   2.809
 5651SOL    HW117852   6.479   1.455   2.806
 5651SOL    HW217853   6.488   1.319   2.716
 5652SOL     OW17854   5.552   4.092   0.217
 5652SOL    HW117855   5.546   4.178   0.166
 5652SOL    HW217856   5.630   4.039   0.184
 5653SOL     OW17857   1.570   6.256   6.663
 5653SOL    HW117858   1.645   6.284   6.723
 5653SOL    HW217859   1.508   6.333   6.649
 5654SOL     OW17860   0.942   5.299   5.947
 5654SOL    HW117861   0.950   5.377   5.884
 5654SOL    HW217862   0.846   5.279   5.963
 5655SOL     OW17863   6.903   4.307   3.165
 5655SOL    HW117864   6.882   4.239   3.236
 5655SOL    HW217865   6.847   4.289   3.084
 5656SOL     OW17866   3.194   4.755   6.261
 5656SOL    HW117867   3.143   4.835   6.290
 5656SOL    HW217868   3.233   4.709   6.341
 5657SOL     OW17869   4.083   5.903   1.581
 5657SOL    HW117870   4.055   5.975   1.644
 5657SOL    HW217871   4.170   5.926   1.539
 5658SOL     OW17872   5.062   6.655   5.190
 5658SOL    HW117873   5.034   6.709   5.270
 5658SOL    HW217874   5.034   6.560   5.203
 5659SOL     OW17875   3.385   3.765   2.951
 5659SOL    HW117876   3.456   3.814   2.902
 5659SOL    HW217877   3.296   3.784   2.910
 5660SOL     OW17878   6.145   6.747   0.818
 5660SOL    HW117879   6.051   6.749   0.850
 5660SOL    HW217880   6.200   6.688   0.877
 5661SOL     OW17881   6.419   5.970   4.589
 5661SOL    HW117882   6.466   6.023   4.518
 5661SOL    HW217883   6.322   5.993   4.589
 5662SOL     OW17884   2.016   3.796   4.192
 5662SOL    HW117885   2.035   3.701   4.218
 5662SOL    HW217886   2.016   3.803   4.092
 5663SOL     OW17887   1.629   3.729   0.127
 5663SOL    HW117888   1.549   3.753   0.072
 5663SOL    HW217889   1.688   3.809   0.138
 5664SOL     OW17890   7.009   4.623   2.890
 5664SOL    HW117891   0.030   4.568   2.964
 5664SOL    HW217892   6.929   4.576   2.852
 5665SOL     OW17893   1.841   1.321   6.200
 5665SOL    HW117894   1.781   1.354   6.128
 5665SOL    HW217895   1.820   1.369   6.285
 5666SOL     OW17896   5.900   5.220   0.465
 5666SOL    HW117897   5.831   5.152   0.491
 5666SOL    HW217898   5.872   5.310   0.500
 5667SOL     OW17899   0.222   5.697   3.699
 5667SOL    HW117900   0.237   5.631   3.773
 5667SOL    HW217901   0.253   5.658   3.613
 5668SOL     OW17902   5.838   2.718   5.642
 5668SOL    HW117903   5.851   2.692   5.546
 5668SOL    HW217904   5.768   2.789   5.647
 5669SOL     OW17905   6.898   3.421   5.401
 5669SOL    HW117906   6.809   3.467   5.397
 5669SOL    HW217907   6.920   3.384   5.310
 5670SOL     OW17908   1.921   4.105   3.576
 5670SOL    HW117909   1.824   4.083   3.586
 5670SOL    HW217910   1.943   4.184   3.634
 5671SOL     OW17911   1.756   0.929   5.519
 5671SOL    HW117912   1.673   0.873   5.524
 5671SOL    HW217913   1.831   0.875   5.481
 5672SOL     OW17914   5.450   4.318   5.647
 5672SOL    HW117915   5.536   4.322   5.596
 5672SOL    HW217916   5.448   4.234   5.702
 5673SOL     OW17917   1.688   0.352   1.661
 5673SOL    HW117918   1.758   0.411   1.621
 5673SOL    HW217919   1.731   0.283   1.719
 5674SOL     OW17920   6.722   3.648   1.124
 5674SOL    HW117921   6.729   3.620   1.219
 5674SOL    HW217922   6.640   3.608   1.082
 5675SOL     OW17923   4.232   1.996   5.872
 5675SOL    HW117924   4.199   1.963   5.784
 5675SOL    HW217925   4.177   2.074   5.901
 5676SOL     OW17926   3.177   6.945   1.412
 5676SOL    HW117927   3.084   6.935   1.375
 5676SOL    HW217928   3.241   6.955   1.336
 5677SOL     OW17929   0.308   0.239   4.162
 5677SOL    HW117930   0.351   0.153   4.190
 5677SOL    HW217931   0.350   0.271   4.077
 5678SOL     OW17932   2.142   5.144   3.181
 5678SOL    HW117933   2.113   5.066   3.236
 5678SOL    HW217934   2.242   5.151   3.184
 5679SOL     OW17935   2.419   6.031   5.153
 5679SOL    HW117936   2.427   6.060   5.249
 5679SOL    HW217937   2.425   5.931   5.148
 5680SOL     OW17938   2.296   0.017   6.315
 5680SOL    HW117939   2.238   0.097   6.328
 5680SOL    HW217940   2.239   6.952   6.316
 5681SOL     OW17941   1.819   3.522   0.807
 5681SOL    HW117942   1.896   3.585   0.813
 5681SOL    HW217943   1.781   3.507   0.899
 5682SOL     OW17944   0.663   3.260   3.896
 5682SOL    HW117945   0.650   3.192   3.824
 5682SOL    HW217946   0.759   3.260   3.924
 5683SOL     OW17947   3.670   2.560   5.314
 5683SOL    HW117948   3.604   2.611   5.259
 5683SOL    HW217949   3.756   2.611   5.321
 5684SOL     OW17950   3.020   3.918   3.266
 5684SOL    HW117951   3.067   3.988   3.318
 5684SOL    HW217952   2.989   3.846   3.328
 5685SOL     OW17953   0.652   5.384   2.260
 5685SOL    HW117954   0.691   5.415   2.173
 5685SOL    HW217955   0.631   5.463   2.317
 5686SOL     OW17956   3.512   5.655   0.115
 5686SOL    HW117957   3.593   5.682   0.166
 5686SOL    HW217958   3.531   5.664   0.017
 5687SOL     OW17959   4.687   5.491   5.432
 5687SOL    HW117960   4.617   5.542   5.483
 5687SOL    HW217961   4.768   5.480   5.489
 5688SOL     OW17962   5.835   2.221   2.059
 5688SOL    HW117963   5.747   2.180   2.035
 5688SOL    HW217964   5.864   2.188   2.149
 5689SOL     OW17965   4.326   2.707   0.163
 5689SOL    HW117966   4.232   2.686   0.190
 5689SOL    HW217967   4.386   2.633   0.193
 5690SOL     OW17968   4.685   6.836   1.584
 5690SOL    HW117969   4.765   6.867   1.635
 5690SOL    HW217970   4.705   6.749   1.540
 5691SOL     OW17971   1.950   0.251   2.261
 5691SOL    HW117972   1.902   0.164   2.270
 5691SOL    HW217973   2.000   0.253   2.175
 5692SOL     OW17974   5.739   3.055   0.164
 5692SOL    HW117975   5.645   3.024   0.152
 5692SOL    HW217976   5.795   2.980   0.198
 5693SOL     OW17977   4.981   2.630   3.360
 5693SOL    HW117978   4.910   2.700   3.348
 5693SOL    HW217979   5.069   2.667   3.330
 5694SOL     OW17980   0.560   1.952   4.038
 5694SOL    HW117981   0.537   1.902   4.121
 5694SOL    HW217982   0.597   1.889   3.970
 5695SOL     OW17983   2.122   3.517   3.469
 5695SOL    HW117984   2.097   3.605   3.507
 5695SOL    HW217985   2.125   3.523   3.369
 5696SOL     OW17986   3.000   6.975   5.655
 5696SOL    HW117987   3.071   0.002   5.599
 5696SOL    HW217988   2.993   6.878   5.630
 5697SOL     OW17989   0.055   3.402   6.835
 5697SOL    HW117990   0.144   3.446   6.822
 5697SOL    HW217991   0.034   3.346   6.756
 5698SOL     OW17992   0.513   3.914   2.209
 5698SOL    HW117993   0.535   3.818   2.226
 5698SOL    HW217994   0.594   3.971   2.228
 5699SOL     OW17995   6.113   0.846   4.717
 5699SOL    HW117996   6.059   0.808   4.791
 5699SOL    HW217997   6.124   0.778   4.645
 5700SOL     OW17998   1.131   5.536   3.408
 5700SOL    HW117999   1.090   5.459   3.458
 5700SOL    HW218000   1.213   5.567   3.457
 5701SOL     OW18001   5.783   5.223   1.958
 5701SOL    HW118002   5.729   5.299   1.922
 5701SOL    HW218003   5.734   5.180   2.034
 5702SOL     OW18004   1.899   0.119   6.634
 5702SOL    HW118005   1.958   0.199   6.626
 5702SOL    HW218006   1.953   0.040   6.662
 5703SOL     OW18007   3.908   4.362   0.699
 5703SOL    HW118008   3.873   4.400   0.613
 5703SOL    HW218009   4.004   4.388   0.709
 5704SOL     OW18010   3.998   5.531   3.586
 5704SOL    HW118011   3.974   5.441   3.623
 5704SOL    HW218012   3.941   5.601   3.630
 5705SOL     OW18013   6.466   1.725   2.030
 5705SOL    HW118014   6.509   1.641   2.062
 5705SOL    HW218015   6.400   1.758   2.097
 5706SOL     OW18016   1.841   1.435   6.756
 5706SOL    HW118017   1.916   1.480   6.709
 5706SOL    HW218018   1.878   1.382   6.833
 5707SOL     OW18019   3.164   2.199   6.318
 5707SOL    HW118020   3.250   2.150   6.300
 5707SOL    HW218021   3.112   2.207   6.233
 5708SOL     OW18022   5.424   6.934   1.859
 5708SOL    HW118023   5.456   6.936   1.954
 5708SOL    HW218024   5.372   7.017   1.839
 5709SOL     OW18025   1.193   1.120   3.039
 5709SOL    HW118026   1.250   1.196   3.010
 5709SOL    HW218027   1.226   1.035   2.998
 5710SOL     OW18028   2.898   4.141   6.143
 5710SOL    HW118029   2.943   4.072   6.200
 5710SOL    HW218030   2.967   4.188   6.088
 5711SOL     OW18031   3.970   0.892   4.216
 5711SOL    HW118032   3.924   0.977   4.240
 5711SOL    HW218033   3.972   0.881   4.117
 5712SOL     OW18034   6.720   5.825   6.585
 5712SOL    HW118035   6.620   5.830   6.595
 5712SOL    HW218036   6.753   5.739   6.622
 5713SOL     OW18037   6.871   2.092   3.238
 5713SOL    HW118038   6.838   1.998   3.236
 5713SOL    HW218039   6.953   2.100   3.182
 5714SOL     OW18040   1.735   0.963   6.986
 5714SOL    HW118041   1.782   1.024   6.923
 5714SOL    HW218042   1.671   0.905   6.936
 5715SOL     OW18043   1.952   0.136   3.258
 5715SOL    HW118044   1.924   0.089   3.342
 5715SOL    HW218045   1.871   0.163   3.206
 5716SOL     OW18046   2.423   2.756   5.757
 5716SOL    HW118047   2.368   2.674   5.738
 5716SOL    HW218048   2.495   2.764   5.689
 5717SOL     OW18049   0.703   3.977   0.857
 5717SOL    HW118050   0.756   3.912   0.911
 5717SOL    HW218051   0.758   4.058   0.837
 5718SOL     OW18052   2.547   4.750   5.312
 5718SOL    HW118053   2.597   4.797   5.238
 5718SOL    HW218054   2.452   4.738   5.284
 5719SOL     OW18055   2.941   0.788   6.374
 5719SOL    HW118056   3.039   0.799   6.393
 5719SOL    HW218057   2.929   0.762   6.278
 5720SOL     OW18058   1.796   4.938   4.323
 5720SOL    HW118059   1.728   4.882   4.275
 5720SOL    HW218060   1.749   5.008   4.377
 5721SOL     OW18061   0.916   4.777   1.639
 5721SOL    HW118062   0.822   4.749   1.657
 5721SOL    HW218063   0.962   4.795   1.726
 5722SOL     OW18064   5.454   0.216   4.022
 5722SOL    HW118065   5.389   0.235   3.948
 5722SOL    HW218066   5.409   0.159   4.090
 5723SOL     OW18067   1.794   4.562   1.022
 5723SOL    HW118068   1.696   4.566   1.006
 5723SOL    HW218069   1.811   4.546   1.119
 5724SOL     OW18070   5.251   1.685   6.840
 5724SOL    HW118071   5.335   1.637   6.814
 5724SOL    HW218072   5.210   1.726   6.758
 5725SOL     OW18073   4.970   5.727   6.390
 5725SOL    HW118074   4.972   5.814   6.438
 5725SOL    HW218075   4.949   5.743   6.293
 5726SOL     OW18076   5.064   3.333   6.365
 5726SOL    HW118077   5.096   3.428   6.361
 5726SOL    HW218078   5.137   3.273   6.334
 5727SOL     OW18079   6.260   2.060   3.952
 5727SOL    HW118080   6.269   1.961   3.938
 5727SOL    HW218081   6.317   2.088   4.029
 5728SOL     OW18082   6.338   0.599   6.300
 5728SOL    HW118083   6.306   0.508   6.328
 5728SOL    HW218084   6.267   0.644   6.246
 5729SOL     OW18085   0.787   2.726   5.382
 5729SOL    HW118086   0.696   2.730   5.425
 5729SOL    HW218087   0.787   2.654   5.312
 5730SOL     OW18088   4.670   5.065   6.653
 5730SOL    HW118089   4.714   5.138   6.707
 5730SOL    HW218090   4.694   5.077   6.557
 5731SOL     OW18091   3.464   0.999   4.274
 5731SOL    HW118092   3.513   1.066   4.330
 5731SOL    HW218093   3.530   0.934   4.235
 5732SOL     OW18094   5.366   4.128   4.515
 5732SOL    HW118095   5.299   4.059   4.543
 5732SOL    HW218096   5.360   4.207   4.576
 5733SOL     OW18097   2.792   0.794   0.662
 5733SOL    HW118098   2.847   0.711   0.669
 5733SOL    HW218099   2.755   0.818   0.752
 5734SOL     OW18100   2.041   6.256   6.416
 5734SOL    HW118101   1.998   6.183   6.469
 5734SOL    HW218102   1.979   6.334   6.409
 5735SOL     OW18103   4.533   0.496   1.768
 5735SOL    HW118104   4.438   0.528   1.769
 5735SOL    HW218105   4.535   0.397   1.784
 5736SOL     OW18106   5.321   4.198   0.072
 5736SOL    HW118107   5.231   4.228   0.041
 5736SOL    HW218108   5.311   4.133   0.147
 5737SOL     OW18109   4.020   5.243   1.130
 5737SOL    HW118110   4.009   5.321   1.069
 5737SOL    HW218111   4.112   5.243   1.168
 5738SOL     OW18112   2.945   0.700   0.237
 5738SOL    HW118113   2.886   0.716   0.158
 5738SOL    HW218114   2.900   0.732   0.320
 5739SOL     OW18115   1.839   0.803   5.991
 5739SOL    HW118116   1.882   0.862   6.060
 5739SOL    HW218117   1.821   0.857   5.908
 5740SOL     OW18118   5.459   3.391   2.468
 5740SOL    HW118119   5.524   3.431   2.403
 5740SOL    HW218120   5.456   3.447   2.550
 5741SOL     OW18121   0.153   3.510   4.163
 5741SOL    HW118122   0.210   3.447   4.110
 5741SOL    HW218123   0.090   3.458   4.220
 5742SOL     OW18124   5.174   0.197   3.622
 5742SOL    HW118125   5.257   0.209   3.567
 5742SOL    HW218126   5.094   0.208   3.564
 5743SOL     OW18127   4.048   4.498   6.695
 5743SOL    HW118128   3.970   4.545   6.735
 5743SOL    HW218129   4.069   4.416   6.750
 5744SOL     OW18130   5.300   6.900   2.989
 5744SOL    HW118131   5.301   6.976   2.925
 5744SOL    HW218132   5.277   6.815   2.941
 5745SOL     OW18133   1.759   2.226   2.237
 5745SOL    HW118134   1.689   2.298   2.233
 5745SOL    HW218135   1.734   2.158   2.307
 5746SOL     OW18136   4.307   0.001   3.392
 5746SOL    HW118137   4.258   6.989   3.310
 5746SOL    HW218138   4.313   0.101   3.393
 5747SOL     OW18139   0.385   6.222   1.054
 5747SOL    HW118140   0.369   6.223   1.153
 5747SOL    HW218141   0.342   6.142   1.014
 5748SOL     OW18142   0.505   6.272   0.567
 5748SOL    HW118143   0.454   6.234   0.490
 5748SOL    HW218144   0.447   6.336   0.618
 5749SOL     OW18145   1.807   5.871   5.898
 5749SOL    HW118146   1.891   5.899   5.946
 5749SOL    HW218147   1.813   5.898   5.802
 5750SOL     OW18148   5.975   4.417   3.790
 5750SOL    HW118149   5.908   4.381   3.855
 5750SOL    HW218150   5.928   4.471   3.721
 5751SOL     OW18151   1.698   3.534   4.240
 5751SOL    HW118152   1.680   3.499   4.332
 5751SOL    HW218153   1.679   3.632   4.238
 5752SOL     OW18154   4.625   0.634   0.587
 5752SOL    HW118155   4.551   0.628   0.653
 5752SOL    HW218156   4.674   0.720   0.600
 5753SOL     OW18157   3.973   3.927   5.067
 5753SOL    HW118158   4.059   3.931   5.017
 5753SOL    HW218159   3.898   3.911   5.003
 5754SOL     OW18160   1.110   6.017   1.414
 5754SOL    HW118161   1.113   5.926   1.374
 5754SOL    HW218162   1.017   6.052   1.412
 5755SOL     OW18163   1.133   2.413   6.498
 5755SOL    HW118164   1.063   2.483   6.513
 5755SOL    HW218165   1.143   2.396   6.401
 5756SOL     OW18166   6.013   6.046   1.294
 5756SOL    HW118167   6.103   6.004   1.307
 5756SOL    HW218168   6.024   6.145   1.283
 5757SOL     OW18169   6.379   0.044   4.423
 5757SOL    HW118170   6.290   0.001   4.442
 5757SOL    HW218171   6.385   0.130   4.473
 5758SOL     OW18172   6.246   0.152   2.815
 5758SOL    HW118173   6.168   0.149   2.753
 5758SOL    HW218174   6.330   0.133   2.765
 5759SOL     OW18175   3.929   0.394   1.114
 5759SOL    HW118176   3.847   0.337   1.104
 5759SOL    HW218177   3.903   0.481   1.157
 5760SOL     OW18178   0.348   2.893   1.088
 5760SOL    HW118179   0.360   2.900   0.989
 5760SOL    HW218180   0.388   2.807   1.120
 5761SOL     OW18181   5.839   6.850   4.697
 5761SOL    HW118182   5.776   6.888   4.765
 5761SOL    HW218183   5.907   6.794   4.743
 5762SOL     OW18184   6.301   5.434   6.934
 5762SOL    HW118185   6.246   5.383   6.867
 5762SOL    HW218186   6.344   5.512   6.889
 5763SOL     OW18187   5.980   6.975   6.926
 5763SOL    HW118188   5.972   0.012   6.842
 5763SOL    HW218189   6.076   6.951   6.941
 5764SOL     OW18190   4.478   6.447   4.272
 5764SOL    HW118191   4.552   6.509   4.297
 5764SOL    HW218192   4.392   6.498   4.264
 5765SOL     OW18193   6.502   5.156   1.922
 5765SOL    HW118194   6.497   5.252   1.949
 5765SOL    HW218195   6.412   5.124   1.895
 5766SOL     OW18196   0.243   1.646   4.248
 5766SOL    HW118197   0.248   1.587   4.168
 5766SOL    HW218198   0.198   1.597   4.323
 5767SOL     OW18199   3.032   7.015   0.291
 5767SOL    HW118200   2.996   6.922   0.291
 5767SOL    HW218201   3.002   0.045   0.208
 5768SOL     OW18202   0.539   6.944   4.690
 5768SOL    HW118203   0.584   0.013   4.715
 5768SOL    HW218204   0.442   6.962   4.670
 5769SOL     OW18205   1.449   4.289   6.531
 5769SOL    HW118206   1.354   4.286   6.502
 5769SOL    HW218207   1.472   4.383   6.559
 5770SOL     OW18208   1.937   4.600   1.687
 5770SOL    HW118209   1.886   4.615   1.771
 5770SOL    HW218210   1.907   4.514   1.644
 5771SOL     OW18211   2.521   5.408   3.589
 5771SOL    HW118212   2.540   5.486   3.648
 5771SOL    HW218213   2.429   5.372   3.609
 5772SOL     OW18214   3.787   0.725   1.797
 5772SOL    HW118215   3.773   0.802   1.860
 5772SOL    HW218216   3.884   0.704   1.791
 5773SOL     OW18217   4.395   1.728   3.064
 5773SOL    HW118218   4.304   1.729   3.021
 5773SOL    HW218219   4.465   1.726   2.993
 5774SOL     OW18220   0.284   6.826   2.080
 5774SOL    HW118221   0.357   6.893   2.086
 5774SOL    HW218222   0.299   6.754   2.148
 5775SOL     OW18223   6.853   5.759   1.952
 5775SOL    HW118224   6.941   5.805   1.962
 5775SOL    HW218225   6.825   5.722   2.041
 5776SOL     OW18226   2.515   0.579   3.736
 5776SOL    HW118227   2.583   0.508   3.724
 5776SOL    HW218228   2.464   0.593   3.650
 5777SOL     OW18229   1.733   6.233   3.020
 5777SOL    HW118230   1.785   6.236   2.935
 5777SOL    HW218231   1.769   6.161   3.079
 5778SOL     OW18232   0.524   1.483   0.384
 5778SOL    HW118233   0.552   1.399   0.431
 5778SOL    HW218234   0.448   1.525   0.434
 5779SOL     OW18235   6.029   2.059   6.037
 5779SOL    HW118236   6.100   2.069   5.967
 5779SOL    HW218237   6.065   2.090   6.125
 5780SOL     OW18238   4.981   5.722   3.722
 5780SOL    HW118239   4.889   5.724   3.683
 5780SOL    HW218240   5.038   5.659   3.669
 5781SOL     OW18241   0.660   4.037   5.523
 5781SOL    HW118242   0.581   3.981   5.499
 5781SOL    HW218243   0.732   3.978   5.562
 5782SOL     OW18244   0.089   1.324   0.382
 5782SOL    HW118245   0.067   1.309   0.478
 5782SOL    HW218246   0.112   1.420   0.367
 5783SOL     OW18247   2.095   1.430   1.319
 5783SOL    HW118248   2.142   1.373   1.252
 5783SOL    HW218249   2.017   1.379   1.356
 5784SOL     OW18250   0.047   6.848   6.407
 5784SOL    HW118251   0.002   6.936   6.418
 5784SOL    HW218252   6.996   6.778   6.383
 5785SOL     OW18253   1.520   1.778   1.157
 5785SOL    HW118254   1.619   1.772   1.144
 5785SOL    HW218255   1.485   1.689   1.186
 5786SOL     OW18256   6.273   4.513   0.989
 5786SOL    HW118257   6.267   4.597   1.042
 5786SOL    HW218258   6.273   4.535   0.891
 5787SOL     OW18259   3.136   1.958   5.623
 5787SOL    HW118260   3.187   1.970   5.538
 5787SOL    HW218261   3.041   1.934   5.602
 5788SOL     OW18262   2.792   1.092   3.579
 5788SOL    HW118263   2.710   1.052   3.620
 5788SOL    HW218264   2.792   1.191   3.594
 5789SOL     OW18265   4.366   4.893   6.201
 5789SOL    HW118266   4.448   4.842   6.226
 5789SOL    HW218267   4.360   4.977   6.255
 5790SOL     OW18268   0.279   2.791   3.774
 5790SOL    HW118269   0.326   2.792   3.862
 5790SOL    HW218270   0.329   2.847   3.708
 5791SOL     OW18271   2.275   0.556   2.674
 5791SOL    HW118272   2.268   0.484   2.743
 5791SOL    HW218273   2.344   0.532   2.606
 5792SOL     OW18274   0.352   2.395   3.342
 5792SOL    HW118275   0.407   2.466   3.387
 5792SOL    HW218276   0.255   2.419   3.350
 5793SOL     OW18277   6.663   0.767   3.624
 5793SOL    HW118278   6.656   0.681   3.674
 5793SOL    HW218279   6.572   0.803   3.605
 5794SOL     OW18280   3.706   3.880   0.061
 5794SOL    HW118281   3.629   3.907   0.119
 5794SOL    HW218282   3.753   3.802   0.102
 5795SOL     OW18283   6.153   4.238   6.077
 5795SOL    HW118284   6.229   4.191   6.121
 5795SOL    HW218285   6.088   4.170   6.043
 5796SOL     OW18286   3.659   1.371   0.214
 5796SOL    HW118287   3.660   1.457   0.163
 5796SOL    HW218288   3.743   1.362   0.267
 5797SOL     OW18289   3.257   1.643   4.717
 5797SOL    HW118290   3.205   1.722   4.751
 5797SOL    HW218291   3.276   1.580   4.792
 5798SOL     OW18292   6.922   4.712   4.804
 5798SOL    HW118293   6.901   4.762   4.721
 5798SOL    HW218294   6.923   4.775   4.882
 5799SOL     OW18295   5.725   0.182   3.932
 5799SOL    HW118296   5.765   0.217   4.017
 5799SOL    HW218297   5.627   0.201   3.931
 5800SOL     OW18298   5.976   4.791   0.218
 5800SOL    HW118299   5.923   4.745   0.146
 5800SOL    HW218300   6.045   4.728   0.254
 5801SOL     OW18301   1.716   0.967   3.723
 5801SOL    HW118302   1.728   0.928   3.815
 5801SOL    HW218303   1.636   1.027   3.723
 5802SOL     OW18304   0.420   3.940   5.776
 5802SOL    HW118305   0.351   3.885   5.825
 5802SOL    HW218306   0.433   3.902   5.685
 5803SOL     OW18307   0.843   4.745   0.935
 5803SOL    HW118308   0.822   4.843   0.941
 5803SOL    HW218309   0.774   4.699   0.881
 5804SOL     OW18310   6.098   4.202   4.743
 5804SOL    HW118311   6.053   4.146   4.674
 5804SOL    HW218312   6.192   4.223   4.714
 5805SOL     OW18313   4.964   3.315   6.621
 5805SOL    HW118314   4.934   3.402   6.660
 5805SOL    HW218315   4.996   3.331   6.527
 5806SOL     OW18316   0.781   6.426   0.098
 5806SOL    HW118317   0.754   6.336   0.133
 5806SOL    HW218318   0.795   6.488   0.175
 5807SOL     OW18319   1.659   3.245   1.555
 5807SOL    HW118320   1.730   3.176   1.544
 5807SOL    HW218321   1.610   3.257   1.468
 5808SOL     OW18322   5.945   4.029   2.161
 5808SOL    HW118323   5.991   3.944   2.135
 5808SOL    HW218324   5.953   4.042   2.260
 5809SOL     OW18325   7.008   3.383   4.410
 5809SOL    HW118326   0.061   3.315   4.393
 5809SOL    HW218327   0.006   3.425   4.500
 5810SOL     OW18328   2.748   1.878   2.451
 5810SOL    HW118329   2.768   1.782   2.472
 5810SOL    HW218330   2.777   1.935   2.528
 5811SOL     OW18331   3.050   0.435   4.269
 5811SOL    HW118332   3.076   0.499   4.198
 5811SOL    HW218333   3.024   0.348   4.228
 5812SOL     OW18334   4.884   0.407   3.975
 5812SOL    HW118335   4.907   0.392   3.879
 5812SOL    HW218336   4.965   0.441   4.023
 5813SOL     OW18337   1.331   0.688   5.320
 5813SOL    HW118338   1.397   0.618   5.294
 5813SOL    HW218339   1.240   0.647   5.325
 5814SOL     OW18340   0.087   4.988   1.862
 5814SOL    HW118341   0.173   4.973   1.815
 5814SOL    HW218342   0.043   4.900   1.881
 5815SOL     OW18343   4.009   1.304   3.273
 5815SOL    HW118344   4.010   1.241   3.351
 5815SOL    HW218345   3.935   1.370   3.284
 5816SOL     OW18346   4.270   0.729   0.502
 5816SOL    HW118347   4.175   0.713   0.525
 5816SOL    HW218348   4.329   0.691   0.574
 5817SOL     OW18349   4.764   3.175   5.629
 5817SOL    HW118350   4.702   3.222   5.567
 5817SOL    HW218351   4.736   3.079   5.637
 5818SOL     OW18352   6.139   0.053   6.313
 5818SOL    HW118353   6.238   0.049   6.325
 5818SOL    HW218354   6.108   6.987   6.266
 5819SOL     OW18355   5.460   0.376   1.424
 5819SOL    HW118356   5.514   0.454   1.394
 5819SOL    HW218357   5.517   0.294   1.425
 5820SOL     OW18358   5.559   6.522   3.299
 5820SOL    HW118359   5.508   6.447   3.342
 5820SOL    HW218360   5.639   6.544   3.356
 5821SOL     OW18361   2.877   0.888   2.123
 5821SOL    HW118362   2.871   0.902   2.222
 5821SOL    HW218363   2.799   0.933   2.079
 5822SOL     OW18364   6.950   1.567   2.232
 5822SOL    HW118365   6.899   1.651   2.214
 5822SOL    HW218366   0.031   1.584   2.224
 5823SOL     OW18367   2.030   1.926   4.088
 5823SOL    HW118368   1.989   2.016   4.102
 5823SOL    HW218369   2.120   1.924   4.132
 5824SOL     OW18370   5.708   6.983   3.738
 5824SOL    HW118371   5.743   0.009   3.655
 5824SOL    HW218372   5.693   0.036   3.808
 5825SOL     OW18373   2.266   0.396   0.071
 5825SOL    HW118374   2.211   0.327   0.024
 5825SOL    HW218375   2.245   0.486   0.033
 5826SOL     OW18376   6.669   6.800   4.564
 5826SOL    HW118377   6.646   6.897   4.554
 5826SOL    HW218378   6.613   6.746   4.502
 5827SOL     OW18379   0.826   5.828   4.926
 5827SOL    HW118380   0.897   5.891   4.956
 5827SOL    HW218381   0.851   5.789   4.837
 5828SOL     OW18382   0.489   3.480   1.957
 5828SOL    HW118383   0.566   3.516   1.904
 5828SOL    HW218384   0.410   3.467   1.898
 5829SOL     OW18385   2.256   1.552   1.501
 5829SOL    HW118386   2.340   1.569   1.449
 5829SOL    HW218387   2.183   1.522   1.438
 5830SOL     OW18388   3.290   1.218   6.075
 5830SOL    HW118389   3.233   1.141   6.044
 5830SOL    HW218390   3.310   1.278   5.998
 5831SOL     OW18391   5.130   6.964   3.436
 5831SOL    HW118392   5.193   6.942   3.362
 5831SOL    HW218393   5.180   7.003   3.513
 5832SOL     OW18394   4.027   3.800   5.292
 5832SOL    HW118395   3.996   3.879   5.240
 5832SOL    HW218396   3.963   3.724   5.279
 5833SOL     OW18397   3.308   3.315   4.403
 5833SOL    HW118398   3.312   3.283   4.498
 5833SOL    HW218399   3.216   3.300   4.367
 5834SOL     OW18400   5.783   1.819   0.862
 5834SOL    HW118401   5.691   1.857   0.869
 5834SOL    HW218402   5.780   1.736   0.806
 5835SOL     OW18403   4.815   2.209   3.719
 5835SOL    HW118404   4.833   2.288   3.661
 5835SOL    HW218405   4.717   2.205   3.741
 5836SOL     OW18406   3.550   6.166   2.229
 5836SOL    HW118407   3.603   6.093   2.272
 5836SOL    HW218408   3.560   6.160   2.130
 5837SOL     OW18409   4.539   4.282   0.272
 5837SOL    HW118410   4.635   4.265   0.292
 5837SOL    HW218411   4.507   4.218   0.203
 5838SOL     OW18412   1.489   1.117   5.429
 5838SOL    HW118413   1.441   1.068   5.502
 5838SOL    HW218414   1.567   1.167   5.468
 5839SOL     OW18415   6.642   3.208   3.001
 5839SOL    HW118416   6.616   3.291   2.953
 5839SOL    HW218417   6.681   3.142   2.935
 5840SOL     OW18418   1.423   5.373   0.062
 5840SOL    HW118419   1.357   5.424   0.007
 5840SOL    HW218420   1.500   5.345   0.005
 5841SOL     OW18421   6.588   2.556   3.645
 5841SOL    HW118422   6.516   2.499   3.685
 5841SOL    HW218423   6.575   2.651   3.673
 5842SOL     OW18424   4.040   2.654   1.091
 5842SOL    HW118425   4.139   2.665   1.088
 5842SOL    HW218426   4.003   2.707   1.168
 5843SOL     OW18427   1.946   3.437   2.546
 5843SOL    HW118428   1.991   3.454   2.459
 5843SOL    HW218429   1.892   3.353   2.540
 5844SOL     OW18430   0.657   6.201   6.522
 5844SOL    HW118431   0.583   6.260   6.556
 5844SOL    HW218432   0.724   6.186   6.595
 5845SOL     OW18433   0.749   2.483   4.330
 5845SOL    HW118434   0.755   2.581   4.345
 5845SOL    HW218435   0.701   2.466   4.243
 5846SOL     OW18436   0.087   2.611   5.428
 5846SOL    HW118437   0.093   2.691   5.488
 5846SOL    HW218438   0.127   2.633   5.339
 5847SOL     OW18439   2.339   2.714   2.363
 5847SOL    HW118440   2.305   2.796   2.410
 5847SOL    HW218441   2.328   2.725   2.264
 5848SOL     OW18442   1.262   4.679   3.211
 5848SOL    HW118443   1.179   4.700   3.159
 5848SOL    HW218444   1.316   4.610   3.162
 5849SOL     OW18445   2.358   0.225   5.697
 5849SOL    HW118446   2.386   0.304   5.642
 5849SOL    HW218447   2.412   0.145   5.671
 5850SOL     OW18448   0.657   4.851   2.240
 5850SOL    HW118449   0.690   4.838   2.146
 5850SOL    HW218450   0.653   4.948   2.261
 5851SOL     OW18451   6.362   4.066   2.016
 5851SOL    HW118452   6.285   4.011   1.982
 5851SOL    HW218453   6.327   4.152   2.052
 5852SOL     OW18454   4.010   5.882   2.286
 5852SOL    HW118455   4.093   5.936   2.293
 5852SOL    HW218456   4.033   5.786   2.266
 5853SOL     OW18457   3.140   4.617   6.035
 5853SOL    HW118458   3.160   4.657   6.124
 5853SOL    HW218459   3.064   4.552   6.045
 5854SOL     OW18460   6.941   0.951   5.930
 5854SOL    HW118461   6.973   0.872   5.879
 5854SOL    HW218462   6.850   0.932   5.969
 5855SOL     OW18463   1.403   1.052   4.458
 5855SOL    HW118464   1.309   1.024   4.479
 5855SOL    HW218465   1.438   1.110   4.532
 5856SOL     OW18466   1.691   4.821   3.642
 5856SOL    HW118467   1.759   4.856   3.578
 5856SOL    HW218468   1.715   4.727   3.668
 5857SOL     OW18469   6.456   3.199   5.317
 5857SOL    HW118470   6.535   3.186   5.376
 5857SOL    HW218471   6.476   3.271   5.250
 5858SOL     OW18472   3.979   1.261   2.862
 5858SOL    HW118473   3.967   1.170   2.824
 5858SOL    HW218474   4.027   1.319   2.796
 5859SOL     OW18475   6.353   6.882   1.116
 5859SOL    HW118476   6.382   6.834   1.034
 5859SOL    HW218477   6.430   6.931   1.155
 5860SOL     OW18478   1.413   4.309   1.657
 5860SOL    HW118479   1.382   4.216   1.677
 5860SOL    HW218480   1.348   4.354   1.597
 5861SOL     OW18481   5.882   2.060   4.044
 5861SOL    HW118482   5.942   2.101   3.976
 5861SOL    HW218483   5.887   1.960   4.038
 5862SOL     OW18484   4.130   4.807   2.935
 5862SOL    HW118485   4.053   4.791   2.997
 5862SOL    HW218486   4.101   4.788   2.841
 5863SOL     OW18487   1.926   1.013   6.158
 5863SOL    HW118488   1.923   1.080   6.233
 5863SOL    HW218489   1.975   1.052   6.080
 5864SOL     OW18490   4.335   3.965   1.705
 5864SOL    HW118491   4.411   3.912   1.669
 5864SOL    HW218492   4.370   4.041   1.760
 5865SOL     OW18493   4.860   0.900   3.588
 5865SOL    HW118494   4.797   0.974   3.561
 5865SOL    HW218495   4.862   0.830   3.516
 5866SOL     OW18496   3.746   6.866   5.561
 5866SOL    HW118497   3.839   6.831   5.555
 5866SOL    HW218498   3.729   6.900   5.654
 5867SOL     OW18499   0.588   3.047   1.644
 5867SOL    HW118500   0.603   3.111   1.719
 5867SOL    HW218501   0.675   3.031   1.596
 5868SOL     OW18502   1.764   6.764   5.232
 5868SOL    HW118503   1.758   6.784   5.134
 5868SOL    HW218504   1.683   6.799   5.279
 5869SOL     OW18505   2.882   4.836   4.546
 5869SOL    HW118506   2.815   4.896   4.589
 5869SOL    HW218507   2.973   4.855   4.583
 5870SOL     OW18508   4.701   5.418   4.273
 5870SOL    HW118509   4.721   5.320   4.285
 5870SOL    HW218510   4.707   5.441   4.176
 5871SOL     OW18511   3.706   3.411   0.529
 5871SOL    HW118512   3.673   3.471   0.602
 5871SOL    HW218513   3.746   3.329   0.570
 5872SOL     OW18514   3.422   5.830   5.702
 5872SOL    HW118515   3.422   5.837   5.802
 5872SOL    HW218516   3.515   5.845   5.667
 5873SOL     OW18517   3.412   3.350   0.186
 5873SOL    HW118518   3.492   3.409   0.170
 5873SOL    HW218519   3.429   3.294   0.267
 5874SOL     OW18520   2.093   3.439   1.713
 5874SOL    HW118521   2.170   3.433   1.777
 5874SOL    HW218522   2.126   3.427   1.620
 5875SOL     OW18523   3.382   1.359   0.266
 5875SOL    HW118524   3.482   1.360   0.261
 5875SOL    HW218525   3.346   1.447   0.235
 5876SOL     OW18526   3.150   3.482   6.684
 5876SOL    HW118527   3.108   3.469   6.773
 5876SOL    HW218528   3.199   3.399   6.657
 5877SOL     OW18529   6.687   0.649   2.550
 5877SOL    HW118530   6.668   0.578   2.483
 5877SOL    HW218531   6.734   0.609   2.629
 5878SOL     OW18532   4.330   5.010   2.321
 5878SOL    HW118533   4.360   4.981   2.412
 5878SOL    HW218534   4.238   5.048   2.328
 5879SOL     OW18535   3.709   3.478   6.189
 5879SOL    HW118536   3.741   3.436   6.104
 5879SOL    HW218537   3.619   3.519   6.174
 5880SOL     OW18538   4.686   2.905   5.941
 5880SOL    HW118539   4.661   2.842   5.867
 5880SOL    HW218540   4.785   2.908   5.950
 5881SOL     OW18541   1.193   6.290   1.950
 5881SOL    HW118542   1.208   6.384   1.920
 5881SOL    HW218543   1.265   6.232   1.914
 5882SOL     OW18544   2.015   5.660   6.145
 5882SOL    HW118545   1.996   5.756   6.128
 5882SOL    HW218546   1.940   5.620   6.198
 5883SOL     OW18547   0.126   4.641   1.284
 5883SOL    HW118548   0.074   4.611   1.205
 5883SOL    HW218549   0.111   4.577   1.360
 5884SOL     OW18550   6.237   1.780   3.598
 5884SOL    HW118551   6.156   1.745   3.645
 5884SOL    HW218552   6.279   1.851   3.655
 5885SOL     OW18553   0.275   5.259   6.506
 5885SOL    HW118554   0.213   5.304   6.570
 5885SOL    HW218555   0.358   5.232   6.555
 5886SOL     OW18556   1.645   4.079   3.599
 5886SOL    HW118557   1.646   4.139   3.678
 5886SOL    HW218558   1.558   4.089   3.551
 5887SOL     OW18559   2.033   2.599   1.179
 5887SOL    HW118560   2.099   2.544   1.232
 5887SOL    HW218561   1.999   2.544   1.102
 5888SOL     OW18562   3.351   0.021   1.212
 5888SOL    HW118563   3.394   6.998   1.132
 5888SOL    HW218564   3.290   0.094   1.184
 5889SOL     OW18565   6.381   0.816   1.754
 5889SOL    HW118566   6.346   0.905   1.784
 5889SOL    HW218567   6.471   0.799   1.794
 5890SOL     OW18568   2.887   6.384   2.377
 5890SOL    HW118569   2.909   6.332   2.460
 5890SOL    HW218570   2.959   6.371   2.310
 5891SOL     OW18571   2.781   3.486   0.928
 5891SOL    HW118572   2.753   3.546   0.853
 5891SOL    HW218573   2.808   3.397   0.891
 5892SOL     OW18574   0.878   3.814   0.971
 5892SOL    HW118575   0.853   3.736   0.913
 5892SOL    HW218576   0.961   3.792   1.023
 5893SOL     OW18577   0.429   5.688   2.212
 5893SOL    HW118578   0.452   5.681   2.308
 5893SOL    HW218579   0.484   5.759   2.169
 5894SOL     OW18580   2.278   5.496   5.855
 5894SOL    HW118581   2.202   5.561   5.856
 5894SOL    HW218582   2.261   5.425   5.787
 5895SOL     OW18583   5.383   2.816   4.486
 5895SOL    HW118584   5.411   2.908   4.456
 5895SOL    HW218585   5.378   2.814   4.586
 5896SOL     OW18586   5.389   2.446   2.099
 5896SOL    HW118587   5.359   2.401   2.183
 5896SOL    HW218588   5.313   2.498   2.060
 5897SOL     OW18589   4.251   2.401   0.766
 5897SOL    HW118590   4.196   2.461   0.708
 5897SOL    HW218591   4.201   2.382   0.851
 5898SOL     OW18592   2.150   1.550   5.356
 5898SOL    HW118593   2.198   1.526   5.441
 5898SOL    HW218594   2.092   1.473   5.328
 5899SOL     OW18595   6.908   4.995   5.723
 5899SOL    HW118596   6.898   4.907   5.768
 5899SOL    HW218597   6.863   4.992   5.633
 5900SOL     OW18598   5.803   6.190   3.474
 5900SOL    HW118599   5.867   6.249   3.523
 5900SOL    HW218600   5.820   6.094   3.499
 5901SOL     OW18601   1.890   0.262   5.635
 5901SOL    HW118602   1.812   0.204   5.657
 5901SOL    HW218603   1.922   0.308   5.718
 5902SOL     OW18604   4.921   4.323   5.233
 5902SOL    HW118605   4.843   4.303   5.174
 5902SOL    HW218606   4.893   4.315   5.329
 5903SOL     OW18607   6.469   2.052   5.824
 5903SOL    HW118608   6.503   1.991   5.895
 5903SOL    HW218609   6.526   2.135   5.821
 5904SOL     OW18610   1.884   4.633   2.196
 5904SOL    HW118611   1.861   4.560   2.260
 5904SOL    HW218612   1.964   4.607   2.142
 5905SOL     OW18613   6.140   1.842   4.265
 5905SOL    HW118614   6.147   1.852   4.364
 5905SOL    HW218615   6.232   1.834   4.226
 5906SOL     OW18616   4.544   0.404   5.405
 5906SOL    HW118617   4.641   0.398   5.428
 5906SOL    HW218618   4.493   0.445   5.481
 5907SOL     OW18619   1.790   2.877   6.641
 5907SOL    HW118620   1.763   2.968   6.675
 5907SOL    HW218621   1.710   2.832   6.601
 5908SOL     OW18622   4.553   2.505   5.946
 5908SOL    HW118623   4.612   2.484   6.024
 5908SOL    HW218624   4.458   2.494   5.972
 5909SOL     OW18625   6.867   5.546   4.455
 5909SOL    HW118626   6.860   5.497   4.368
 5909SOL    HW218627   6.939   5.505   4.510
 5910SOL     OW18628   2.152   3.654   1.450
 5910SOL    HW118629   2.108   3.565   1.455
 5910SOL    HW218630   2.205   3.669   1.533
 5911SOL     OW18631   5.885   6.437   6.640
 5911SOL    HW118632   5.857   6.360   6.583
 5911SOL    HW218633   5.898   6.518   6.583
 5912SOL     OW18634   6.869   3.620   6.796
 5912SOL    HW118635   6.934   3.546   6.812
 5912SOL    HW218636   6.776   3.583   6.795
 5913SOL     OW18637   1.636   1.367   6.001
 5913SOL    HW118638   1.599   1.370   5.909
 5913SOL    HW218639   1.619   1.455   6.046
 5914SOL     OW18640   1.886   6.234   0.563
 5914SOL    HW118641   1.860   6.137   0.570
 5914SOL    HW218642   1.948   6.256   0.638
 5915SOL     OW18643   4.905   3.184   2.974
 5915SOL    HW118644   4.895   3.242   2.893
 5915SOL    HW218645   4.895   3.088   2.947
 5916SOL     OW18646   3.626   0.787   5.691
 5916SOL    HW118647   3.662   0.868   5.737
 5916SOL    HW218648   3.569   0.735   5.755
 5917SOL     OW18649   2.847   3.440   3.241
 5917SOL    HW118650   2.842   3.437   3.341
 5917SOL    HW218651   2.890   3.356   3.207
 5918SOL     OW18652   2.137   3.324   4.204
 5918SOL    HW118653   2.175   3.294   4.292
 5918SOL    HW218654   2.140   3.248   4.139
 5919SOL     OW18655   1.422   3.132   6.841
 5919SOL    HW118656   1.362   3.073   6.788
 5919SOL    HW218657   1.369   3.208   6.880
 5920SOL     OW18658   3.769   6.310   6.776
 5920SOL    HW118659   3.853   6.259   6.795
 5920SOL    HW218660   3.750   6.308   6.678
 5921SOL     OW18661   4.051   4.912   5.288
 5921SOL    HW118662   4.099   4.824   5.287
 5921SOL    HW218663   4.059   4.955   5.198
 5922SOL     OW18664   5.619   4.175   2.272
 5922SOL    HW118665   5.719   4.184   2.271
 5922SOL    HW218666   5.583   4.204   2.183
 5923SOL     OW18667   0.346   6.787   4.274
 5923SOL    HW118668   0.359   6.881   4.304
 5923SOL    HW218669   0.298   6.735   4.344
 5924SOL     OW18670   5.202   1.944   4.333
 5924SOL    HW118671   5.230   2.037   4.357
 5924SOL    HW218672   5.197   1.936   4.233
 5925SOL     OW18673   5.644   6.245   1.127
 5925SOL    HW118674   5.650   6.341   1.155
 5925SOL    HW218675   5.671   6.186   1.203
 5926SOL     OW18676   3.615   5.065   1.553
 5926SOL    HW118677   3.626   5.138   1.485
 5926SOL    HW218678   3.639   5.101   1.643
 5927SOL     OW18679   3.046   6.215   2.886
 5927SOL    HW118680   3.101   6.240   2.806
 5927SOL    HW218681   3.100   6.158   2.947
 5928SOL     OW18682   1.429   6.906   1.923
 5928SOL    HW118683   1.513   6.895   1.871
 5928SOL    HW218684   1.443   6.972   1.996
 5929SOL     OW18685   1.332   6.997   6.146
 5929SOL    HW118686   1.397   6.979   6.219
 5929SOL    HW218687   1.308   6.910   6.101
 5930SOL     OW18688   6.798   1.886   4.668
 5930SOL    HW118689   6.709   1.922   4.642
 5930SOL    HW218690   6.802   1.875   4.768
 5931SOL     OW18691   6.617   5.477   1.773
 5931SOL    HW118692   6.521   5.477   1.801
 5931SOL    HW218693   6.641   5.388   1.735
 5932SOL     OW18694   2.802   6.783   0.481
 5932SOL    HW118695   2.769   6.794   0.575
 5932SOL    HW218696   2.759   6.852   0.423
 5933SOL     OW18697   6.739   3.590   2.744
 5933SOL    HW118698   6.769   3.685   2.755
 5933SOL    HW218699   6.669   3.586   2.672
 5934SOL     OW18700   3.119   4.003   3.022
 5934SOL    HW118701   3.103   3.948   2.940
 5934SOL    HW218702   3.079   3.958   3.102
 5935SOL     OW18703   4.066   3.538   4.101
 5935SOL    HW118704   4.055   3.439   4.101
 5935SOL    HW218705   3.984   3.581   4.064
 5936SOL     OW18706   4.895   6.002   6.480
 5936SOL    HW118707   4.894   5.980   6.577
 5936SOL    HW218708   4.913   6.100   6.468
 5937SOL     OW18709   2.081   3.385   0.749
 5937SOL    HW118710   1.987   3.418   0.750
 5937SOL    HW218711   2.082   3.285   0.757
 5938SOL     OW18712   2.159   4.609   1.829
 5938SOL    HW118713   2.145   4.585   1.925
 5938SOL    HW218714   2.071   4.611   1.782
 5939SOL     OW18715   3.544   0.160   3.060
 5939SOL    HW118716   3.460   0.148   3.113
 5939SOL    HW218717   3.564   0.076   3.009
 5940SOL     OW18718   3.822   5.971   3.200
 5940SOL    HW118719   3.722   5.974   3.199
 5940SOL    HW218720   3.857   6.021   3.122
 5941SOL     OW18721   6.015   5.212   2.282
 5941SOL    HW118722   6.001   5.293   2.225
 5941SOL    HW218723   6.025   5.131   2.223
 5942SOL     OW18724   4.703   2.472   6.179
 5942SOL    HW118725   4.741   2.391   6.224
 5942SOL    HW218726   4.766   2.548   6.190
 5943SOL     OW18727   1.284   6.110   0.453
 5943SOL    HW118728   1.382   6.096   0.464
 5943SOL    HW218729   1.253   6.179   0.519
 5944SOL     OW18730   5.361   2.012   2.877
 5944SOL    HW118731   5.414   2.011   2.793
 5944SOL    HW218732   5.422   2.023   2.955
 5945SOL     OW18733   6.903   4.756   5.845
 5945SOL    HW118734   6.995   4.737   5.810
 5945SOL    HW218735   6.849   4.672   5.846
 5946SOL     OW18736   4.032   3.074   5.356
 5946SOL    HW118737   3.978   3.091   5.439
 5946SOL    HW218738   4.063   2.979   5.356
 5947SOL     OW18739   4.326   3.621   1.662
 5947SOL    HW118740   4.371   3.700   1.620
 5947SOL    HW218741   4.269   3.651   1.738
 5948SOL     OW18742   3.566   4.984   2.228
 5948SOL    HW118743   3.601   4.909   2.172
 5948SOL    HW218744   3.585   5.071   2.183
 5949SOL     OW18745   4.592   4.744   1.611
 5949SOL    HW118746   4.507   4.739   1.663
 5949SOL    HW218747   4.666   4.771   1.672
 5950SOL     OW18748   6.436   2.619   3.933
 5950SOL    HW118749   6.384   2.622   4.018
 5950SOL    HW218750   6.408   2.539   3.879
 5951SOL     OW18751   2.107   5.663   3.267
 5951SOL    HW118752   2.105   5.566   3.243
 5951SOL    HW218753   2.029   5.684   3.326
 5952SOL     OW18754   0.170   6.679   4.461
 5952SOL    HW118755   0.141   6.596   4.509
 5952SOL    HW218756   0.092   6.740   4.448
 5953SOL     OW18757   0.229   3.099   6.302
 5953SOL    HW118758   0.131   3.114   6.290
 5953SOL    HW218759   0.279   3.153   6.235
 5954SOL     OW18760   0.307   5.050   6.862
 5954SOL    HW118761   0.221   5.019   6.821
 5954SOL    HW218762   0.340   4.981   6.926
 5955SOL     OW18763   5.360   5.321   1.844
 5955SOL    HW118764   5.317   5.259   1.779
 5955SOL    HW218765   5.325   5.302   1.936
 5956SOL     OW18766   5.869   2.329   6.994
 5956SOL    HW118767   5.827   2.371   0.058
 5956SOL    HW218768   5.836   2.377   6.912
 5957SOL     OW18769   5.882   6.391   5.965
 5957SOL    HW118770   5.814   6.463   5.953
 5957SOL    HW218771   5.915   6.393   6.060
 5958SOL     OW18772   6.973   5.226   1.942
 5958SOL    HW118773   0.014   5.157   1.899
 5958SOL    HW218774   6.996   5.316   1.907
 5959SOL     OW18775   1.908   1.633   5.891
 5959SOL    HW118776   1.997   1.594   5.913
 5959SOL    HW218777   1.920   1.715   5.836
 5960SOL     OW18778   3.186   0.649   3.395
 5960SOL    HW118779   3.230   0.739   3.404
 5960SOL    HW218780   3.145   0.641   3.304
 5961SOL     OW18781   2.922   0.740   5.393
 5961SOL    HW118782   2.937   0.641   5.393
 5961SOL    HW218783   2.973   0.782   5.468
 5962SOL     OW18784   4.941   5.102   2.374
 5962SOL    HW118785   4.886   5.036   2.426
 5962SOL    HW218786   4.898   5.118   2.285
 5963SOL     OW18787   4.179   3.461   2.264
 5963SOL    HW118788   4.140   3.387   2.319
 5963SOL    HW218789   4.273   3.478   2.293
 5964SOL     OW18790   0.687   5.254   5.262
 5964SOL    HW118791   0.686   5.354   5.254
 5964SOL    HW218792   0.696   5.229   5.358
 5965SOL     OW18793   2.802   2.289   5.502
 5965SOL    HW118794   2.828   2.268   5.597
 5965SOL    HW218795   2.873   2.256   5.440
 5966SOL     OW18796   2.707   6.035   3.987
 5966SOL    HW118797   2.611   6.045   4.014
 5966SOL    HW218798   2.752   6.124   3.991
 5967SOL     OW18799   4.766   6.864   2.455
 5967SOL    HW118800   4.733   6.773   2.479
 5967SOL    HW218801   4.689   6.920   2.425
 5968SOL     OW18802   0.113   3.017   4.227
 5968SOL    HW118803   0.135   3.070   4.309
 5968SOL    HW218804   0.147   2.923   4.239
 5969SOL     OW18805   6.173   3.634   3.653
 5969SOL    HW118806   6.140   3.688   3.730
 5969SOL    HW218807   6.200   3.694   3.578
 5970SOL     OW18808   1.330   2.856   3.072
 5970SOL    HW118809   1.398   2.844   2.999
 5970SOL    HW218810   1.242   2.821   3.041
 5971SOL     OW18811   2.449   6.927   2.575
 5971SOL    HW118812   2.513   6.993   2.615
 5971SOL    HW218813   2.359   6.969   2.567
 5972SOL     OW18814   4.924   6.500   0.168
 5972SOL    HW118815   4.879   6.496   0.257
 5972SOL    HW218816   4.988   6.576   0.166
 5973SOL     OW18817   1.251   4.459   3.372
 5973SOL    HW118818   1.246   4.540   3.314
 5973SOL    HW218819   1.225   4.379   3.318
 5974SOL     OW18820   0.801   4.199   6.625
 5974SOL    HW118821   0.813   4.294   6.595
 5974SOL    HW218822   0.706   4.172   6.612
 5975SOL     OW18823   2.455   2.977   0.694
 5975SOL    HW118824   2.506   2.905   0.741
 5975SOL    HW218825   2.469   3.064   0.742
 5976SOL     OW18826   3.239   3.149   4.939
 5976SOL    HW118827   3.157   3.122   4.888
 5976SOL    HW218828   3.221   3.236   4.986
 5977SOL     OW18829   0.835   3.809   2.502
 5977SOL    HW118830   0.921   3.811   2.552
 5977SOL    HW218831   0.816   3.715   2.471
 5978SOL     OW18832   5.207   5.160   1.684
 5978SOL    HW118833   5.164   5.193   1.768
 5978SOL    HW218834   5.181   5.065   1.669
 5979SOL     OW18835   6.929   0.733   3.541
 5979SOL    HW118836   6.948   0.642   3.504
 5979SOL    HW218837   6.831   0.745   3.552
 5980SOL     OW18838   6.010   3.980   6.932
 5980SOL    HW118839   6.050   4.067   6.902
 5980SOL    HW218840   6.068   3.939   7.002
 5981SOL     OW18841   4.785   1.010   2.525
 5981SOL    HW118842   4.770   0.915   2.499
 5981SOL    HW218843   4.862   1.016   2.588
 5982SOL     OW18844   6.549   1.788   6.244
 5982SOL    HW118845   6.513   1.834   6.162
 5982SOL    HW218846   6.476   1.779   6.311
 5983SOL     OW18847   1.645   0.924   4.579
 5983SOL    HW118848   1.607   1.015   4.597
 5983SOL    HW218849   1.621   0.862   4.654
 5984SOL     OW18850   0.150   6.439   4.993
 5984SOL    HW118851   0.065   6.396   4.966
 5984SOL    HW218852   0.132   6.507   5.065
 5985SOL     OW18853   4.167   1.635   4.036
 5985SOL    HW118854   4.095   1.631   3.968
 5985SOL    HW218855   4.179   1.729   4.067
 5986SOL     OW18856   3.365   3.154   2.508
 5986SOL    HW118857   3.352   3.063   2.470
 5986SOL    HW218858   3.461   3.180   2.501
 5987SOL     OW18859   3.384   6.847   5.011
 5987SOL    HW118860   3.421   6.938   4.988
 5987SOL    HW218861   3.405   6.825   5.106
 5988SOL     OW18862   3.949   6.934   3.933
 5988SOL    HW118863   3.949   6.880   3.849
 5988SOL    HW218864   3.874   6.999   3.931
 5989SOL     OW18865   3.384   1.060   5.809
 5989SOL    HW118866   3.437   1.073   5.893
 5989SOL    HW218867   3.440   1.079   5.729
 5990SOL     OW18868   3.205   4.700   1.275
 5990SOL    HW118869   3.261   4.755   1.336
 5990SOL    HW218870   3.171   4.619   1.323
 5991SOL     OW18871   2.750   5.046   4.663
 5991SOL    HW118872   2.652   5.061   4.671
 5991SOL    HW218873   2.796   5.077   4.746
 5992SOL     OW18874   4.619   0.195   3.744
 5992SOL    HW118875   4.534   0.147   3.722
 5992SOL    HW218876   4.696   0.146   3.705
 5993SOL     OW18877   2.510   5.786   5.277
 5993SOL    HW118878   2.603   5.764   5.248
 5993SOL    HW218879   2.501   5.772   5.376
 5994SOL     OW18880   6.530   2.173   2.709
 5994SOL    HW118881   6.565   2.157   2.617
 5994SOL    HW218882   6.505   2.269   2.720
 5995SOL     OW18883   0.022   4.712   1.581
 5995SOL    HW118884   0.100   4.661   1.619
 5995SOL    HW218885   6.958   4.653   1.581
 5996SOL     OW18886   0.157   5.310   5.592
 5996SOL    HW118887   0.069   5.319   5.546
 5996SOL    HW218888   0.149   5.246   5.668
 5997SOL     OW18889   0.376   6.673   2.271
 5997SOL    HW118890   0.337   6.582   2.284
 5997SOL    HW218891   0.474   6.665   2.251
 5998SOL     OW18892   5.556   2.316   2.822
 5998SOL    HW118893   5.570   2.303   2.920
 5998SOL    HW218894   5.470   2.365   2.806
 5999SOL     OW18895   1.177   1.531   2.801
 5999SOL    HW118896   1.118   1.582   2.863
 5999SOL    HW218897   1.163   1.433   2.815
 6000SOL     OW18898   4.835   5.770   2.059
 6000SOL    HW118899   4.878   5.721   1.983
 6000SOL    HW218900   4.898   5.837   2.096
 6001SOL     OW18901   6.888   2.385   0.035
 6001SOL    HW118902   6.849   2.304   7.008
 6001SOL    HW218903   6.830   2.411   0.113
 6002SOL     OW18904   2.018   0.389   1.448
 6002SOL    HW118905   2.039   0.350   1.538
 6002SOL    HW218906   1.923   0.422   1.448
 6003SOL     OW18907   4.872   4.041   4.457
 6003SOL    HW118908   4.938   4.106   4.418
 6003SOL    HW218909   4.891   3.949   4.423
 6004SOL     OW18910   0.276   3.169   2.442
 6004SOL    HW118911   0.293   3.088   2.387
 6004SOL    HW218912   0.316   3.249   2.398
 6005SOL     OW18913   3.293   5.712   2.770
 6005SOL    HW118914   3.324   5.618   2.787
 6005SOL    HW218915   3.211   5.731   2.825
 6006SOL     OW18916   2.637   6.795   6.780
 6006SOL    HW118917   2.568   6.735   6.738
 6006SOL    HW218918   2.621   6.889   6.751
 6007SOL     OW18919   5.738   2.800   4.132
 6007SOL    HW118920   5.671   2.733   4.164
 6007SOL    HW218921   5.827   2.781   4.176
 6008SOL     OW18922   2.600   4.437   6.458
 6008SOL    HW118923   2.544   4.442   6.376
 6008SOL    HW218924   2.655   4.353   6.455
 6009SOL     OW18925   2.631   1.878   4.295
 6009SOL    HW118926   2.730   1.861   4.298
 6009SOL    HW218927   2.596   1.886   4.388
 6010SOL     OW18928   1.611   3.858   3.163
 6010SOL    HW118929   1.652   3.948   3.180
 6010SOL    HW218930   1.518   3.858   3.200
 6011SOL     OW18931   5.674   3.712   3.033
 6011SOL    HW118932   5.677   3.683   2.937
 6011SOL    HW218933   5.758   3.682   3.079
 6012SOL     OW18934   6.794   3.248   0.717
 6012SOL    HW118935   6.892   3.270   0.714
 6012SOL    HW218936   6.767   3.228   0.811
 6013SOL     OW18937   5.287   1.068   2.575
 6013SOL    HW118938   5.348   1.104   2.645
 6013SOL    HW218939   5.322   1.092   2.484
 6014SOL     OW18940   5.589   0.092   0.869
 6014SOL    HW118941   5.689   0.100   0.863
 6014SOL    HW218942   5.548   0.114   0.781
 6015SOL     OW18943   6.015   2.103   4.307
 6015SOL    HW118944   6.067   2.036   4.360
 6015SOL    HW218945   5.986   2.062   4.221
 6016SOL     OW18946   1.621   0.009   5.257
 6016SOL    HW118947   1.544   0.062   5.293
 6016SOL    HW218948   1.686   7.006   5.330
 6017SOL     OW18949   6.362   4.967   2.735
 6017SOL    HW118950   6.426   4.933   2.804
 6017SOL    HW218951   6.383   4.925   2.646
 6018SOL     OW18952   2.499   3.932   0.825
 6018SOL    HW118953   2.594   3.935   0.791
 6018SOL    HW218954   2.468   3.837   0.828
 6019SOL     OW18955   3.342   7.002   4.403
 6019SOL    HW118956   3.427   0.029   4.432
 6019SOL    HW218957   3.284   0.052   4.356
 6020SOL     OW18958   3.854   0.949   2.978
 6020SOL    HW118959   3.827   0.904   3.063
 6020SOL    HW218960   3.775   0.994   2.938
 6021SOL     OW18961   4.473   1.414   2.723
 6021SOL    HW118962   4.413   1.410   2.643
 6021SOL    HW218963   4.555   1.359   2.706
 6022SOL     OW18964   4.251   1.410   4.242
 6022SOL    HW118965   4.337   1.380   4.201
 6022SOL    HW218966   4.213   1.486   4.189
 6023SOL     OW18967   6.967   1.213   2.437
 6023SOL    HW118968   6.975   1.128   2.490
 6023SOL    HW218969   0.000   1.286   2.483
 6024SOL     OW18970   0.648   4.468   1.890
 6024SOL    HW118971   0.673   4.408   1.966
 6024SOL    HW218972   0.666   4.421   1.804
 6025SOL     OW18973   4.780   1.812   1.263
 6025SOL    HW118974   4.686   1.800   1.231
 6025SOL    HW218975   4.838   1.841   1.187
 6026SOL     OW18976   6.819   4.984   5.164
 6026SOL    HW118977   6.729   4.951   5.134
 6026SOL    HW218978   6.830   4.966   5.262
 6027SOL     OW18979   3.181   3.481   0.271
 6027SOL    HW118980   3.103   3.421   0.253
 6027SOL    HW218981   3.262   3.444   0.225
 6028SOL     OW18982   1.334   3.744   0.092
 6028SOL    HW118983   1.252   3.790   0.058
 6028SOL    HW218984   1.313   3.702   0.181
 6029SOL     OW18985   2.059   6.003   1.203
 6029SOL    HW118986   2.082   5.935   1.133
 6029SOL    HW218987   2.004   5.960   1.274
 6030SOL     OW18988   1.828   0.586   1.503
 6030SOL    HW118989   1.839   0.682   1.526
 6030SOL    HW218990   1.787   0.578   1.412
 6031SOL     OW18991   5.176   0.060   4.914
 6031SOL    HW118992   5.244   0.096   4.850
 6031SOL    HW218993   5.095   0.119   4.912
 6032SOL     OW18994   0.543   3.391   2.664
 6032SOL    HW118995   0.536   3.296   2.632
 6032SOL    HW218996   0.620   3.399   2.727
 6033SOL     OW18997   1.096   0.763   3.877
 6033SOL    HW118998   1.192   0.776   3.854
 6033SOL    HW218999   1.045   0.847   3.857
 6034SOL     OW19000   1.910   4.042   5.244
 6034SOL    HW119001   1.941   4.094   5.323
 6034SOL    HW219002   1.817   4.008   5.261
 6035SOL     OW19003   6.120   1.092   3.964
 6035SOL    HW119004   6.109   1.099   3.865
 6035SOL    HW219005   6.069   1.014   3.999
 6036SOL     OW19006   0.559   6.694   5.058
 6036SOL    HW119007   0.645   6.735   5.028
 6036SOL    HW219008   0.526   6.631   4.988
 6037SOL     OW19009   5.882   5.833   4.724
 6037SOL    HW119010   5.820   5.870   4.654
 6037SOL    HW219011   5.887   5.734   4.714
 6038SOL     OW19012   5.073   3.808   6.426
 6038SOL    HW119013   5.147   3.872   6.448
 6038SOL    HW219014   5.072   3.792   6.327
 6039SOL     OW19015   3.591   3.838   2.772
 6039SOL    HW119016   3.555   3.902   2.704
 6039SOL    HW219017   3.629   3.758   2.725
 6040SOL     OW19018   0.396   1.781   0.162
 6040SOL    HW119019   0.491   1.782   0.131
 6040SOL    HW219020   0.372   1.870   0.200
 6041SOL     OW19021   1.110   2.391   0.170
 6041SOL    HW119022   1.134   2.431   0.259
 6041SOL    HW219023   1.163   2.307   0.156
 6042SOL     OW19024   4.540   5.583   3.535
 6042SOL    HW119025   4.518   5.531   3.618
 6042SOL    HW219026   4.553   5.519   3.459
 6043SOL     OW19027   0.890   4.362   4.251
 6043SOL    HW119028   0.866   4.343   4.155
 6043SOL    HW219029   0.861   4.454   4.275
 6044SOL     OW19030   1.178   0.634   1.163
 6044SOL    HW119031   1.099   0.614   1.221
 6044SOL    HW219032   1.149   0.687   1.083
 6045SOL     OW19033   6.954   3.991   2.051
 6045SOL    HW119034   6.899   4.032   2.123
 6045SOL    HW219035   0.018   3.949   2.090
 6046SOL     OW19036   2.770   2.508   0.400
 6046SOL    HW119037   2.755   2.434   0.464
 6046SOL    HW219038   2.782   2.471   0.308
 6047SOL     OW19039   6.909   0.119   4.145
 6047SOL    HW119040   6.814   0.137   4.172
 6047SOL    HW219041   6.968   0.127   4.226
 6048SOL     OW19042   4.676   6.665   5.013
 6048SOL    HW119043   4.762   6.695   4.971
 6048SOL    HW219044   4.681   6.567   5.033
 6049SOL     OW19045   6.278   4.674   0.164
 6049SOL    HW119046   6.325   4.763   0.161
 6049SOL    HW219047   6.255   4.652   0.259
 6050SOL     OW19048   4.695   4.544   5.596
 6050SOL    HW119049   4.730   4.453   5.614
 6050SOL    HW219050   4.750   4.612   5.644
 6051SOL     OW19051   2.181   1.739   2.864
 6051SOL    HW119052   2.231   1.708   2.945
 6051SOL    HW219053   2.153   1.659   2.811
 6052SOL     OW19054   7.003   1.043   0.791
 6052SOL    HW119055   0.057   1.080   0.850
 6052SOL    HW219056   0.026   0.985   0.720
 6053SOL     OW19057   1.860   6.858   6.776
 6053SOL    HW119058   1.811   6.932   6.823
 6053SOL    HW219059   1.938   6.830   6.831
 6054SOL     OW19060   2.278   4.195   0.539
 6054SOL    HW119061   2.255   4.131   0.465
 6054SOL    HW219062   2.194   4.237   0.573
 6055SOL     OW19063   4.550   0.789   4.757
 6055SOL    HW119064   4.509   0.704   4.791
 6055SOL    HW219065   4.610   0.827   4.827
 6056SOL     OW19066   5.122   2.012   6.370
 6056SOL    HW119067   5.116   1.929   6.314
 6056SOL    HW219068   5.204   2.063   6.345
 6057SOL     OW19069   3.319   1.420   5.319
 6057SOL    HW119070   3.334   1.355   5.394
 6057SOL    HW219071   3.270   1.375   5.245
 6058SOL     OW19072   5.824   2.514   4.265
 6058SOL    HW119073   5.827   2.436   4.202
 6058SOL    HW219074   5.729   2.529   4.294
 6059SOL     OW19075   6.351   5.109   6.557
 6059SOL    HW119076   6.438   5.152   6.582
 6059SOL    HW219077   6.324   5.044   6.628
 6060SOL     OW19078   4.455   6.069   5.728
 6060SOL    HW119079   4.454   5.971   5.749
 6060SOL    HW219080   4.361   6.102   5.720
 6061SOL     OW19081   2.436   1.968   6.357
 6061SOL    HW119082   2.435   2.022   6.441
 6061SOL    HW219083   2.505   1.895   6.365
 6062SOL     OW19084   2.197   0.136   4.495
 6062SOL    HW119085   2.185   0.039   4.476
 6062SOL    HW219086   2.227   0.183   4.411
 6063SOL     OW19087   4.241   0.656   6.211
 6063SOL    HW119088   4.280   0.722   6.147
 6063SOL    HW219089   4.312   0.623   6.272
 6064SOL     OW19090   1.724   5.292   3.449
 6064SOL    HW119091   1.640   5.300   3.395
 6064SOL    HW219092   1.769   5.206   3.425
 6065SOL     OW19093   0.068   0.733   0.917
 6065SOL    HW119094   7.012   0.785   0.961
 6065SOL    HW219095   0.028   0.664   0.856
 6066SOL     OW19096   4.230   2.960   0.533
 6066SOL    HW119097   4.277   2.916   0.610
 6066SOL    HW219098   4.146   2.909   0.512
 6067SOL     OW19099   6.455   1.682   6.642
 6067SOL    HW119100   6.519   1.617   6.683
 6067SOL    HW219101   6.368   1.678   6.691
 6068SOL     OW19102   4.623   2.530   4.727
 6068SOL    HW119103   4.597   2.601   4.792
 6068SOL    HW219104   4.574   2.445   4.747
 6069SOL     OW19105   6.288   4.575   4.676
 6069SOL    HW119106   6.334   4.558   4.763
 6069SOL    HW219107   6.189   4.579   4.692
 6070SOL     OW19108   4.038   2.139   6.353
 6070SOL    HW119109   3.963   2.160   6.414
 6070SOL    HW219110   4.119   2.112   6.406
 6071SOL     OW19111   4.276   6.140   5.420
 6071SOL    HW119112   4.200   6.166   5.361
 6071SOL    HW219113   4.261   6.047   5.453
 6072SOL     OW19114   0.290   2.027   1.434
 6072SOL    HW119115   0.341   1.946   1.463
 6072SOL    HW219116   0.211   1.999   1.379
 6073SOL     OW19117   6.710   2.751   0.767
 6073SOL    HW119118   6.627   2.743   0.821
 6073SOL    HW219119   6.687   2.778   0.673
 6074SOL     OW19120   0.674   0.146   4.804
 6074SOL    HW119121   0.605   0.193   4.858
 6074SOL    HW219122   0.758   0.135   4.858
 6075SOL     OW19123   5.689   3.788   6.720
 6075SOL    HW119124   5.776   3.746   6.749
 6075SOL    HW219125   5.638   3.817   6.801
 6076SOL     OW19126   1.763   5.910   4.192
 6076SOL    HW119127   1.820   5.954   4.123
 6076SOL    HW219128   1.747   5.815   4.165
 6077SOL     OW19129   6.243   6.095   2.274
 6077SOL    HW119130   6.264   6.128   2.182
 6077SOL    HW219131   6.174   6.153   2.316
 6078SOL     OW19132   2.505   4.448   3.979
 6078SOL    HW119133   2.583   4.504   4.006
 6078SOL    HW219134   2.503   4.440   3.880
 6079SOL     OW19135   2.125   1.935   6.772
 6079SOL    HW119136   2.115   2.028   6.807
 6079SOL    HW219137   2.202   1.930   6.709
 6080SOL     OW19138   5.714   2.640   1.741
 6080SOL    HW119139   5.657   2.690   1.806
 6080SOL    HW219140   5.770   2.573   1.791
 6081SOL     OW19141   6.882   3.763   3.735
 6081SOL    HW119142   6.958   3.828   3.746
 6081SOL    HW219143   6.811   3.783   3.802
 6082SOL     OW19144   4.138   1.058   3.743
 6082SOL    HW119145   4.225   1.010   3.750
 6082SOL    HW219146   4.130   1.122   3.819
 6083SOL     OW19147   1.499   6.059   0.048
 6083SOL    HW119148   1.575   6.039   0.110
 6083SOL    HW219149   1.414   6.066   0.100
 6084SOL     OW19150   0.111   5.149   5.795
 6084SOL    HW119151   0.039   5.090   5.760
 6084SOL    HW219152   0.142   5.115   5.883
 6085SOL     OW19153   5.479   3.733   0.559
 6085SOL    HW119154   5.434   3.820   0.540
 6085SOL    HW219155   5.557   3.722   0.497
 6086SOL     OW19156   2.960   2.141   3.726
 6086SOL    HW119157   2.967   2.182   3.817
 6086SOL    HW219158   3.051   2.134   3.686
 6087SOL     OW19159   5.401   6.938   6.800
 6087SOL    HW119160   5.358   0.009   6.819
 6087SOL    HW219161   5.361   6.899   6.717
 6088SOL     OW19162   0.888   0.105   4.961
 6088SOL    HW119163   0.983   0.084   4.982
 6088SOL    HW219164   0.828   0.049   5.017
 6089SOL     OW19165   0.132   3.717   0.280
 6089SOL    HW119166   0.075   3.683   0.205
 6089SOL    HW219167   0.100   3.808   0.308
 6090SOL     OW19168   0.678   5.336   4.772
 6090SOL    HW119169   0.591   5.287   4.771
 6090SOL    HW219170   0.662   5.432   4.796
 6091SOL     OW19171   6.014   1.839   1.890
 6091SOL    HW119172   6.052   1.792   1.810
 6091SOL    HW219173   6.007   1.937   1.870
 6092SOL     OW19174   2.023   1.937   1.905
 6092SOL    HW119175   2.106   1.893   1.939
 6092SOL    HW219176   1.976   1.875   1.843
 6093SOL     OW19177   0.977   2.949   1.150
 6093SOL    HW119178   0.937   2.985   1.066
 6093SOL    HW219179   1.009   3.025   1.207
 6094SOL     OW19180   1.369   0.937   1.595
 6094SOL    HW119181   1.341   0.893   1.510
 6094SOL    HW219182   1.466   0.963   1.589
 6095SOL     OW19183   6.133   3.545   5.977
 6095SOL    HW119184   6.199   3.498   5.919
 6095SOL    HW219185   6.175   3.567   6.065
 6096SOL     OW19186   3.759   2.030   3.584
 6096SOL    HW119187   3.789   2.110   3.636
 6096SOL    HW219188   3.783   2.042   3.487
 6097SOL     OW19189   2.745   1.935   2.164
 6097SOL    HW119190   2.739   1.875   2.244
 6097SOL    HW219191   2.678   2.009   2.173
 6098SOL     OW19192   1.957   2.280   5.905
 6098SOL    HW119193   1.985   2.186   5.925
 6098SOL    HW219194   2.031   2.343   5.930
 6099SOL     OW19195   6.080   5.711   5.008
 6099SOL    HW119196   6.178   5.719   5.027
 6099SOL    HW219197   6.061   5.748   4.917
 6100SOL     OW19198   6.607   2.809   6.906
 6100SOL    HW119199   6.550   2.728   6.892
 6100SOL    HW219200   6.665   2.796   6.986
 6101SOL     OW19201   6.488   1.212   4.959
 6101SOL    HW119202   6.459   1.165   4.876
 6101SOL    HW219203   6.460   1.159   5.039
 6102SOL     OW19204   2.718   0.371   4.645
 6102SOL    HW119205   2.743   0.358   4.549
 6102SOL    HW219206   2.711   0.469   4.665
 6103SOL     OW19207   6.333   6.391   5.629
 6103SOL    HW119208   6.331   6.341   5.543
 6103SOL    HW219209   6.242   6.427   5.649
 6104SOL     OW19210   6.759   2.451   6.590
 6104SOL    HW119211   6.847   2.465   6.544
 6104SOL    HW219212   6.719   2.365   6.560
 6105SOL     OW19213   3.326   5.975   4.556
 6105SOL    HW119214   3.406   5.963   4.497
 6105SOL    HW219215   3.246   5.934   4.513
 6106SOL     OW19216   3.090   5.320   5.653
 6106SOL    HW119217   3.075   5.238   5.708
 6106SOL    HW219218   3.166   5.373   5.691
 6107SOL     OW19219   2.062   4.804   5.369
 6107SOL    HW119220   2.108   4.888   5.339
 6107SOL    HW219221   2.093   4.727   5.313
 6108SOL     OW19222   0.495   2.161   5.376
 6108SOL    HW119223   0.507   2.246   5.325
 6108SOL    HW219224   0.433   2.101   5.326
 6109SOL     OW19225   5.892   4.297   1.099
 6109SOL    HW119226   5.911   4.294   1.001
 6109SOL    HW219227   5.847   4.212   1.127
 6110SOL     OW19228   3.407   1.124   4.581
 6110SOL    HW119229   3.375   1.031   4.599
 6110SOL    HW219230   3.423   1.171   4.668
 6111SOL     OW19231   1.502   4.910   3.130
 6111SOL    HW119232   1.597   4.924   3.159
 6111SOL    HW219233   1.448   4.991   3.154
 6112SOL     OW19234   0.804   1.475   2.762
 6112SOL    HW119235   0.728   1.436   2.815
 6112SOL    HW219236   0.772   1.555   2.712
 6113SOL     OW19237   1.233   6.397   6.003
 6113SOL    HW119238   1.305   6.465   5.988
 6113SOL    HW219239   1.145   6.444   6.016
 6114SOL     OW19240   5.087   5.708   0.424
 6114SOL    HW119241   5.108   5.662   0.510
 6114SOL    HW219242   5.021   5.782   0.441
 6115SOL     OW19243   5.528   5.090   2.519
 6115SOL    HW119244   5.531   5.021   2.592
 6115SOL    HW219245   5.619   5.127   2.504
 6116SOL     OW19246   4.072   1.140   1.898
 6116SOL    HW119247   3.994   1.093   1.857
 6116SOL    HW219248   4.126   1.075   1.950
 6117SOL     OW19249   5.352   6.798   4.176
 6117SOL    HW119250   5.439   6.827   4.217
 6117SOL    HW219251   5.277   6.825   4.236
 6118SOL     OW19252   6.009   0.656   3.376
 6118SOL    HW119253   6.095   0.606   3.361
 6118SOL    HW219254   6.031   0.750   3.401
 6119SOL     OW19255   6.701   5.661   4.618
 6119SOL    HW119256   6.730   5.640   4.712
 6119SOL    HW219257   6.748   5.600   4.554
 6120SOL     OW19258   2.588   1.123   3.108
 6120SOL    HW119259   2.609   1.026   3.117
 6120SOL    HW219260   2.595   1.167   3.197
 6121SOL     OW19261   6.804   2.828   4.554
 6121SOL    HW119262   6.793   2.917   4.599
 6121SOL    HW219263   6.806   2.842   4.455
 6122SOL     OW19264   4.506   5.423   3.086
 6122SOL    HW119265   4.451   5.358   3.033
 6122SOL    HW219266   4.533   5.500   3.028
 6123SOL     OW19267   5.757   1.642   2.445
 6123SOL    HW119268   5.724   1.550   2.467
 6123SOL    HW219269   5.759   1.653   2.345
 6124SOL     OW19270   3.123   0.245   5.833
 6124SOL    HW119271   3.067   0.311   5.882
 6124SOL    HW219272   3.193   0.209   5.894
 6125SOL     OW19273   2.605   6.096   1.730
 6125SOL    HW119274   2.539   6.116   1.803
 6125SOL    HW219275   2.688   6.149   1.745
 6126SOL     OW19276   5.356   5.271   2.620
 6126SOL    HW119277   5.258   5.254   2.622
 6126SOL    HW219278   5.403   5.193   2.580
 6127SOL     OW19279   1.932   5.497   1.490
 6127SOL    HW119280   1.931   5.562   1.566
 6127SOL    HW219281   1.990   5.420   1.513
 6128SOL     OW19282   5.305   1.770   0.558
 6128SOL    HW119283   5.208   1.784   0.577
 6128SOL    HW219284   5.350   1.859   0.549
 6129SOL     OW19285   5.841   4.499   3.531
 6129SOL    HW119286   5.773   4.571   3.516
 6129SOL    HW219287   5.932   4.533   3.505
 6130SOL     OW19288   5.722   3.767   2.452
 6130SOL    HW119289   5.703   3.676   2.414
 6130SOL    HW219290   5.676   3.836   2.396
 6131SOL     OW19291   5.925   1.364   5.164
 6131SOL    HW119292   5.826   1.367   5.177
 6131SOL    HW219293   5.967   1.326   5.247
 6132SOL     OW19294   5.016   2.520   1.218
 6132SOL    HW119295   5.089   2.518   1.150
 6132SOL    HW219296   5.020   2.606   1.269
 6133SOL     OW19297   0.956   4.475   1.022
 6133SOL    HW119298   1.048   4.484   1.060
 6133SOL    HW219299   0.932   4.559   0.972
 6134SOL     OW19300   4.465   3.803   6.590
 6134SOL    HW119301   4.551   3.790   6.540
 6134SOL    HW219302   4.390   3.808   6.525
 6135SOL     OW19303   5.486   0.069   1.241
 6135SOL    HW119304   5.501   0.023   1.154
 6135SOL    HW219305   5.418   0.142   1.228
 6136SOL     OW19306   0.571   2.366   1.613
 6136SOL    HW119307   0.551   2.312   1.532
 6136SOL    HW219308   0.593   2.305   1.689
 6137SOL     OW19309   2.921   6.719   6.221
 6137SOL    HW119310   3.018   6.740   6.236
 6137SOL    HW219311   2.911   6.664   6.138
 6138SOL     OW19312   3.915   6.280   2.774
 6138SOL    HW119313   3.865   6.326   2.847
 6138SOL    HW219314   3.874   6.304   2.686
 6139SOL     OW19315   1.942   4.813   4.087
 6139SOL    HW119316   1.997   4.872   4.028
 6139SOL    HW219317   1.908   4.866   4.164
 6140SOL     OW19318   2.031   6.285   0.787
 6140SOL    HW119319   1.986   6.363   0.831
 6140SOL    HW219320   2.024   6.205   0.846
 6141SOL     OW19321   6.430   5.682   6.204
 6141SOL    HW119322   6.508   5.743   6.201
 6141SOL    HW219323   6.366   5.713   6.276
 6142SOL     OW19324   0.133   4.515   1.749
 6142SOL    HW119325   0.086   4.428   1.733
 6142SOL    HW219326   0.224   4.497   1.786
 6143SOL     OW19327   5.884   5.729   6.923
 6143SOL    HW119328   5.867   5.660   6.994
 6143SOL    HW219329   5.800   5.743   6.870
 6144SOL     OW19330   0.584   4.552   4.179
 6144SOL    HW119331   0.618   4.468   4.135
 6144SOL    HW219332   0.649   4.582   4.248
 6145SOL     OW19333   5.239   6.193   3.032
 6145SOL    HW119334   5.189   6.231   3.109
 6145SOL    HW219335   5.281   6.106   3.058
 6146SOL     OW19336   5.654   1.561   3.206
 6146SOL    HW119337   5.634   1.587   3.301
 6146SOL    HW219338   5.741   1.513   3.203
 6147SOL     OW19339   1.776   3.344   3.208
 6147SOL    HW119340   1.748   3.435   3.178
 6147SOL    HW219341   1.824   3.351   3.296
 6148SOL     OW19342   6.351   6.463   4.315
 6148SOL    HW119343   6.411   6.397   4.268
 6148SOL    HW219344   6.265   6.418   4.338
 6149SOL     OW19345   2.473   6.314   3.377
 6149SOL    HW119346   2.536   6.286   3.304
 6149SOL    HW219347   2.414   6.236   3.401
 6150SOL     OW19348   4.606   5.512   5.863
 6150SOL    HW119349   4.682   5.459   5.825
 6150SOL    HW219350   4.520   5.481   5.822
 6151SOL     OW19351   4.889   2.728   5.576
 6151SOL    HW119352   4.860   2.671   5.498
 6151SOL    HW219353   4.840   2.815   5.573
 6152SOL     OW19354   6.693   4.387   6.835
 6152SOL    HW119355   6.643   4.467   6.868
 6152SOL    HW219356   6.740   4.411   6.750
 6153SOL     OW19357   4.426   3.019   1.270
 6153SOL    HW119358   4.417   2.962   1.352
 6153SOL    HW219359   4.372   2.979   1.196
 6154SOL     OW19360   5.511   3.033   2.816
 6154SOL    HW119361   5.432   2.988   2.776
 6154SOL    HW219362   5.488   3.068   2.907
 6155SOL     OW19363   0.541   3.854   5.119
 6155SOL    HW119364   0.565   3.949   5.099
 6155SOL    HW219365   0.624   3.802   5.136
 6156SOL     OW19366   6.752   0.061   3.731
 6156SOL    HW119367   6.808   7.012   3.781
 6156SOL    HW219368   6.700   0.117   3.795
 6157SOL     OW19369   2.758   1.124   4.090
 6157SOL    HW119370   2.690   1.193   4.064
 6157SOL    HW219371   2.850   1.158   4.070
 6158SOL     OW19372   5.119   1.249   5.824
 6158SOL    HW119373   5.081   1.342   5.824
 6158SOL    HW219374   5.062   1.190   5.767
 6159SOL     OW19375   5.256   3.174   6.612
 6159SOL    HW119376   5.254   3.274   6.620
 6159SOL    HW219377   5.350   3.144   6.594
 6160SOL     OW19378   6.037   5.977   1.803
 6160SOL    HW119379   6.045   5.915   1.880
 6160SOL    HW219380   6.126   5.987   1.758
 6161SOL     OW19381   5.674   0.555   5.995
 6161SOL    HW119382   5.668   0.654   5.982
 6161SOL    HW219383   5.595   0.511   5.950
 6162SOL     OW19384   6.186   5.014   4.658
 6162SOL    HW119385   6.172   5.112   4.643
 6162SOL    HW219386   6.224   5.000   4.749
 6163SOL     OW19387   6.796   3.905   2.476
 6163SOL    HW119388   6.872   3.848   2.445
 6163SOL    HW219389   6.777   3.975   2.407
 6164SOL     OW19390   4.008   2.433   0.366
 6164SOL    HW119391   4.092   2.447   0.419
 6164SOL    HW219392   3.973   2.521   0.336
 6165SOL     OW19393   4.071   6.073   0.107
 6165SOL    HW119394   4.079   6.173   0.107
 6165SOL    HW219395   3.990   6.046   0.055
 6166SOL     OW19396   2.851   1.891   6.142
 6166SOL    HW119397   2.784   1.964   6.153
 6166SOL    HW219398   2.811   1.816   6.089
 6167SOL     OW19399   0.070   4.510   3.153
 6167SOL    HW119400   0.141   4.474   3.213
 6167SOL    HW219401   7.015   4.441   3.142
 6168SOL     OW19402   0.342   3.114   2.708
 6168SOL    HW119403   0.335   3.112   2.608
 6168SOL    HW219404   0.330   3.208   2.741
 6169SOL     OW19405   1.933   4.320   2.105
 6169SOL    HW119406   1.977   4.270   2.030
 6169SOL    HW219407   1.888   4.254   2.166
 6170SOL     OW19408   0.505   3.349   4.885
 6170SOL    HW119409   0.520   3.287   4.808
 6170SOL    HW219410   0.544   3.439   4.864
 6171SOL     OW19411   0.280   0.179   6.464
 6171SOL    HW119412   0.310   0.272   6.444
 6171SOL    HW219413   0.180   0.175   6.463
 6172SOL     OW19414   0.505   3.396   3.412
 6172SOL    HW119415   0.439   3.432   3.478
 6172SOL    HW219416   0.516   3.460   3.337
 6173SOL     OW19417   6.876   6.458   3.281
 6173SOL    HW119418   6.975   6.461   3.290
 6173SOL    HW219419   6.834   6.468   3.371
 6174SOL     OW19420   5.862   4.018   2.438
 6174SOL    HW119421   5.928   4.087   2.468
 6174SOL    HW219422   5.785   4.015   2.501
 6175SOL     OW19423   2.870   2.212   5.790
 6175SOL    HW119424   2.840   2.122   5.821
 6175SOL    HW219425   2.970   2.212   5.781
 6176SOL     OW19426   4.438   3.466   5.898
 6176SOL    HW119427   4.486   3.379   5.893
 6176SOL    HW219428   4.416   3.498   5.806
 6177SOL     OW19429   6.246   1.214   2.034
 6177SOL    HW119430   6.230   1.136   2.095
 6177SOL    HW219431   6.266   1.181   1.942
 6178SOL     OW19432   4.081   4.555   1.302
 6178SOL    HW119433   4.145   4.597   1.238
 6178SOL    HW219434   4.025   4.626   1.345
 6179SOL     OW19435   5.594   4.693   3.309
 6179SOL    HW119436   5.624   4.605   3.272
 6179SOL    HW219437   5.523   4.678   3.378
 6180SOL     OW19438   3.085   4.133   0.233
 6180SOL    HW119439   3.134   4.165   0.152
 6180SOL    HW219440   3.093   4.033   0.239
 6181SOL     OW19441   5.623   5.689   6.759
 6181SOL    HW119442   5.604   5.595   6.787
 6181SOL    HW219443   5.579   5.706   6.671
 6182SOL     OW19444   3.613   2.395   0.351
 6182SOL    HW119445   3.527   2.405   0.400
 6182SOL    HW219446   3.682   2.357   0.411
 6183SOL     OW19447   0.658   0.872   1.063
 6183SOL    HW119448   0.716   0.879   0.982
 6183SOL    HW219449   0.586   0.941   1.059
 6184SOL     OW19450   2.351   0.641   5.669
 6184SOL    HW119451   2.315   0.728   5.703
 6184SOL    HW219452   2.417   0.659   5.596
 6185SOL     OW19453   3.201   3.157   5.688
 6185SOL    HW119454   3.239   3.165   5.596
 6185SOL    HW219455   3.192   3.061   5.713
 6186SOL     OW19456   6.906   2.200   2.409
 6186SOL    HW119457   6.806   2.197   2.411
 6186SOL    HW219458   6.937   2.292   2.432
 6187SOL     OW19459   5.329   1.652   5.753
 6187SOL    HW119460   5.403   1.714   5.779
 6187SOL    HW219461   5.244   1.704   5.743
 6188SOL     OW19462   1.390   1.559   5.051
 6188SOL    HW119463   1.470   1.547   5.110
 6188SOL    HW219464   1.340   1.473   5.044
 6189SOL     OW19465   6.584   6.711   1.316
 6189SOL    HW119466   6.677   6.729   1.284
 6189SOL    HW219467   6.568   6.759   1.402
 6190SOL     OW19468   0.425   2.501   5.489
 6190SOL    HW119469   0.363   2.459   5.554
 6190SOL    HW219470   0.389   2.490   5.396
 6191SOL     OW19471   4.089   3.708   6.836
 6191SOL    HW119472   4.123   3.794   6.797
 6191SOL    HW219473   4.096   3.712   6.936
 6192SOL     OW19474   3.047   1.375   0.539
 6192SOL    HW119475   3.089   1.313   0.605
 6192SOL    HW219476   3.064   1.342   0.446
 6193SOL     OW19477   4.619   5.798   6.568
 6193SOL    HW119478   4.697   5.835   6.517
 6193SOL    HW219479   4.541   5.788   6.507
 6194SOL     OW19480   6.367   0.323   5.769
 6194SOL    HW119481   6.452   0.301   5.817
 6194SOL    HW219482   6.359   0.265   5.689
 6195SOL     OW19483   6.598   6.541   5.992
 6195SOL    HW119484   6.572   6.600   6.068
 6195SOL    HW219485   6.523   6.478   5.972
 6196SOL     OW19486   5.739   3.985   3.227
 6196SOL    HW119487   5.672   3.958   3.158
 6196SOL    HW219488   5.735   3.922   3.304
 6197SOL     OW19489   3.299   5.740   1.873
 6197SOL    HW119490   3.297   5.734   1.972
 6197SOL    HW219491   3.226   5.684   1.834
 6198SOL     OW19492   6.501   0.235   6.995
 6198SOL    HW119493   6.523   0.331   6.978
 6198SOL    HW219494   6.421   0.230   0.038
 6199SOL     OW19495   0.881   0.287   0.093
 6199SOL    HW119496   0.924   0.341   0.166
 6199SOL    HW219497   0.943   0.281   0.015
 6200SOL     OW19498   2.231   1.747   2.034
 6200SOL    HW119499   2.323   1.739   1.995
 6200SOL    HW219500   2.234   1.808   2.114
 6201SOL     OW19501   6.990   4.388   3.504
 6201SOL    HW119502   0.064   4.378   3.463
 6201SOL    HW219503   6.996   4.447   3.584
 6202SOL     OW19504   6.164   1.547   2.635
 6202SOL    HW119505   6.142   1.625   2.577
 6202SOL    HW219506   6.237   1.572   2.698
 6203SOL     OW19507   6.555   6.925   1.779
 6203SOL    HW119508   6.536   6.850   1.842
 6203SOL    HW219509   6.624   6.986   1.819
 6204SOL     OW19510   2.432   0.241   4.917
 6204SOL    HW119511   2.415   0.177   4.841
 6204SOL    HW219512   2.345   0.269   4.956
 6205SOL     OW19513   4.680   4.654   3.133
 6205SOL    HW119514   4.616   4.714   3.086
 6205SOL    HW219515   4.748   4.709   3.181
 6206SOL     OW19516   6.019   1.770   4.035
 6206SOL    HW119517   6.054   1.687   3.990
 6206SOL    HW219518   6.063   1.780   4.124
 6207SOL     OW19519   2.347   4.695   4.362
 6207SOL    HW119520   2.367   4.607   4.406
 6207SOL    HW219521   2.398   4.768   4.407
 6208SOL     OW19522   3.936   3.616   5.547
 6208SOL    HW119523   3.957   3.523   5.517
 6208SOL    HW219524   4.020   3.669   5.554
 6209SOL     OW19525   3.658   2.415   1.429
 6209SOL    HW119526   3.738   2.420   1.490
 6209SOL    HW219527   3.631   2.320   1.417
 6210SOL     OW19528   4.715   1.863   3.953
 6210SOL    HW119529   4.720   1.961   3.934
 6210SOL    HW219530   4.623   1.839   3.984
 6211SOL     OW19531   5.598   4.793   5.508
 6211SOL    HW119532   5.642   4.708   5.540
 6211SOL    HW219533   5.568   4.781   5.413
 6212SOL     OW19534   4.531   5.229   4.886
 6212SOL    HW119535   4.571   5.150   4.840
 6212SOL    HW219536   4.534   5.308   4.824
 6213SOL     OW19537   4.089   5.966   0.350
 6213SOL    HW119538   4.010   5.999   0.401
 6213SOL    HW219539   4.078   5.988   0.253
 6214SOL     OW19540   6.550   5.446   6.296
 6214SOL    HW119541   6.513   5.358   6.265
 6214SOL    HW219542   6.489   5.520   6.266
 6215SOL     OW19543   5.500   2.865   5.859
 6215SOL    HW119544   5.527   2.947   5.910
 6215SOL    HW219545   5.545   2.785   5.897
 6216SOL     OW19546   4.430   2.154   3.457
 6216SOL    HW119547   4.446   2.129   3.361
 6216SOL    HW219548   4.461   2.079   3.516
 6217SOL     OW19549   0.385   4.282   2.469
 6217SOL    HW119550   0.469   4.270   2.522
 6217SOL    HW219551   0.352   4.192   2.439
 6218SOL     OW19552   4.267   6.578   0.342
 6218SOL    HW119553   4.178   6.625   0.349
 6218SOL    HW219554   4.328   6.631   0.283
 6219SOL     OW19555   1.506   0.758   5.934
 6219SOL    HW119556   1.470   0.844   5.898
 6219SOL    HW219557   1.605   0.755   5.921
 6220SOL     OW19558   4.053   0.394   0.874
 6220SOL    HW119559   4.132   0.333   0.867
 6220SOL    HW219560   4.006   0.379   0.962
 6221SOL     OW19561   5.667   5.424   6.887
 6221SOL    HW119562   5.598   5.368   6.933
 6221SOL    HW219563   5.752   5.422   6.939
 6222SOL     OW19564   6.250   2.182   2.081
 6222SOL    HW119565   6.252   2.090   2.120
 6222SOL    HW219566   6.204   2.244   2.145
 6223SOL     OW19567   0.423   4.917   3.651
 6223SOL    HW119568   0.502   4.865   3.681
 6223SOL    HW219569   0.453   5.001   3.606
 6224SOL     OW19570   3.912   0.764   0.001
 6224SOL    HW119571   3.881   0.669   0.014
 6224SOL    HW219572   3.864   0.823   0.065
 6225SOL     OW19573   4.508   6.418   6.591
 6225SOL    HW119574   4.568   6.423   6.670
 6225SOL    HW219575   4.469   6.508   6.573
 6226SOL     OW19576   1.563   1.167   4.658
 6226SOL    HW119577   1.658   1.194   4.675
 6226SOL    HW219578   1.503   1.245   4.678
 6227SOL     OW19579   2.732   4.539   5.345
 6227SOL    HW119580   2.677   4.622   5.346
 6227SOL    HW219581   2.809   4.551   5.282
 6228SOL     OW19582   1.437   3.260   3.606
 6228SOL    HW119583   1.366   3.229   3.542
 6228SOL    HW219584   1.495   3.327   3.562
 6229SOL     OW19585   0.454   3.299   4.452
 6229SOL    HW119586   0.468   3.268   4.547
 6229SOL    HW219587   0.414   3.390   4.453
 6230SOL     OW19588   0.058   0.717   1.997
 6230SOL    HW119589   0.100   0.633   2.032
 6230SOL    HW219590   0.099   0.739   1.908
 6231SOL     OW19591   1.311   4.938   6.772
 6231SOL    HW119592   1.287   4.872   6.701
 6231SOL    HW219593   1.404   4.919   6.805
 6232SOL     OW19594   4.447   1.049   6.130
 6232SOL    HW119595   4.459   0.956   6.164
 6232SOL    HW219596   4.532   1.080   6.089
 6233SOL     OW19597   6.882   3.561   1.337
 6233SOL    HW119598   6.856   3.600   1.425
 6233SOL    HW219599   6.982   3.563   1.328
 6234SOL     OW19600   4.533   5.651   4.874
 6234SOL    HW119601   4.474   5.586   4.923
 6234SOL    HW219602   4.611   5.675   4.931
 6235SOL     OW19603   6.291   0.573   2.761
 6235SOL    HW119604   6.202   0.584   2.806
 6235SOL    HW219605   6.286   0.496   2.697
 6236SOL     OW19606   0.495   5.352   1.322
 6236SOL    HW119607   0.528   5.390   1.235
 6236SOL    HW219608   0.496   5.424   1.392
 6237SOL     OW19609   3.304   1.164   0.454
 6237SOL    HW119610   3.368   1.225   0.407
 6237SOL    HW219611   3.259   1.214   0.528
 6238SOL     OW19612   2.102   0.269   3.990
 6238SOL    HW119613   2.101   0.256   3.891
 6238SOL    HW219614   2.043   0.347   4.014
 6239SOL     OW19615   4.464   0.922   4.000
 6239SOL    HW119616   4.473   0.957   3.906
 6239SOL    HW219617   4.550   0.879   4.028
 6240SOL     OW19618   3.750   2.984   3.764
 6240SOL    HW119619   3.662   2.968   3.808
 6240SOL    HW219620   3.821   2.993   3.834
 6241SOL     OW19621   3.599   0.240   2.775
 6241SOL    HW119622   3.551   0.228   2.688
 6241SOL    HW219623   3.532   0.240   2.850
 6242SOL     OW19624   3.074   1.965   3.368
 6242SOL    HW119625   3.016   1.895   3.326
 6242SOL    HW219626   3.068   2.049   3.314
 6243SOL     OW19627   4.655   2.026   6.467
 6243SOL    HW119628   4.643   1.938   6.515
 6243SOL    HW219629   4.750   2.055   6.476
 6244SOL     OW19630   5.192   4.181   2.551
 6244SOL    HW119631   5.240   4.235   2.481
 6244SOL    HW219632   5.100   4.160   2.520
 6245SOL     OW19633   0.080   4.283   2.593
 6245SOL    HW119634   0.073   4.229   2.509
 6245SOL    HW219635   0.091   4.380   2.569
 6246SOL     OW19636   6.683   6.850   4.225
 6246SOL    HW119637   6.677   6.922   4.294
 6246SOL    HW219638   6.760   6.789   4.247
 6247SOL     OW19639   6.551   6.473   3.241
 6247SOL    HW119640   6.570   6.434   3.331
 6247SOL    HW219641   6.536   6.399   3.175
 6248SOL     OW19642   3.709   3.043   5.964
 6248SOL    HW119643   3.738   3.139   5.968
 6248SOL    HW219644   3.624   3.032   6.015
 6249SOL     OW19645   5.952   2.887   1.709
 6249SOL    HW119646   5.893   2.846   1.638
 6249SOL    HW219647   5.920   2.858   1.799
 6250SOL     OW19648   6.204   0.442   0.237
 6250SOL    HW119649   6.173   0.502   0.164
 6250SOL    HW219650   6.213   0.495   0.322
 6251SOL     OW19651   2.270   0.008   3.793
 6251SOL    HW119652   2.236   0.081   3.733
 6251SOL    HW219653   2.307   0.049   3.877
 6252SOL     OW19654   3.207   5.789   6.844
 6252SOL    HW119655   3.234   5.761   6.937
 6252SOL    HW219656   3.112   5.763   6.827
 6253SOL     OW19657   3.355   5.304   4.707
 6253SOL    HW119658   3.395   5.213   4.693
 6253SOL    HW219659   3.426   5.374   4.694
 6254SOL     OW19660   0.634   0.104   1.515
 6254SOL    HW119661   0.707   0.068   1.456
 6254SOL    HW219662   0.637   0.060   1.604
 6255SOL     OW19663   0.429   1.530   2.062
 6255SOL    HW119664   0.402   1.450   2.008
 6255SOL    HW219665   0.480   1.594   2.004
 6256SOL     OW19666   5.066   6.015   2.508
 6256SOL    HW119667   5.152   6.038   2.555
 6256SOL    HW219668   5.003   5.974   2.573
 6257SOL     OW19669   3.189   3.995   1.394
 6257SOL    HW119670   3.096   4.028   1.384
 6257SOL    HW219671   3.240   4.012   1.309
 6258SOL     OW19672   3.780   5.258   4.893
 6258SOL    HW119673   3.838   5.323   4.843
 6258SOL    HW219674   3.691   5.251   4.849
 6259SOL     OW19675   3.285   0.355   4.455
 6259SOL    HW119676   3.219   0.381   4.384
 6259SOL    HW219677   3.329   0.270   4.429
 6260SOL     OW19678   1.369   1.416   6.910
 6260SOL    HW119679   1.294   1.424   6.975
 6260SOL    HW219680   1.367   1.493   6.846
 6261SOL     OW19681   3.704   0.225   1.123
 6261SOL    HW119682   3.691   0.158   1.196
 6261SOL    HW219683   3.677   0.316   1.155
 6262SOL     OW19684   5.672   0.168   2.379
 6262SOL    HW119685   5.667   0.093   2.313
 6262SOL    HW219686   5.580   0.206   2.392
 6263SOL     OW19687   6.006   6.038   5.956
 6263SOL    HW119688   5.947   5.986   5.894
 6263SOL    HW219689   5.954   6.062   6.039
 6264SOL     OW19690   2.645   6.933   0.266
 6264SOL    HW119691   2.570   6.904   0.326
 6264SOL    HW219692   2.644   6.879   0.182
 6265SOL     OW19693   4.854   0.634   6.678
 6265SOL    HW119694   4.875   0.720   6.725
 6265SOL    HW219695   4.919   0.564   6.707
 6266SOL     OW19696   2.696   4.948   3.209
 6266SOL    HW119697   2.609   4.913   3.176
 6266SOL    HW219698   2.765   4.876   3.205
 6267SOL     OW19699   2.629   6.149   5.024
 6267SOL    HW119700   2.542   6.106   5.049
 6267SOL    HW219701   2.698   6.127   5.093
 6268SOL     OW19702   3.491   1.250   1.219
 6268SOL    HW119703   3.563   1.183   1.200
 6268SOL    HW219704   3.469   1.300   1.135
 6269SOL     OW19705   6.392   4.943   0.197
 6269SOL    HW119706   6.469   4.956   0.134
 6269SOL    HW219707   6.320   5.009   0.174
 6270SOL     OW19708   1.926   5.362   0.648
 6270SOL    HW119709   2.004   5.387   0.591
 6270SOL    HW219710   1.946   5.276   0.696
 6271SOL     OW19711   6.128   3.415   5.716
 6271SOL    HW119712   6.149   3.353   5.641
 6271SOL    HW219713   6.031   3.439   5.714
 6272SOL     OW19714   0.104   0.071   0.338
 6272SOL    HW119715   0.107   0.171   0.325
 6272SOL    HW219716   0.011   0.044   0.363
 6273SOL     OW19717   0.505   6.503   1.263
 6273SOL    HW119718   0.455   6.419   1.242
 6273SOL    HW219719   0.456   6.581   1.223
 6274SOL     OW19720   3.230   5.326   3.476
 6274SOL    HW119721   3.312   5.378   3.501
 6274SOL    HW219722   3.252   5.264   3.400
 6275SOL     OW19723   2.064   5.169   6.752
 6275SOL    HW119724   2.012   5.223   6.686
 6275SOL    HW219725   2.143   5.128   6.707
 6276SOL     OW19726   1.847   5.191   3.055
 6276SOL    HW119727   1.804   5.124   2.995
 6276SOL    HW219728   1.938   5.158   3.082
 6277SOL     OW19729   4.966   3.312   1.090
 6277SOL    HW119730   5.034   3.369   1.137
 6277SOL    HW219731   4.912   3.263   1.159
 6278SOL     OW19732   2.761   1.292   6.695
 6278SOL    HW119733   2.681   1.294   6.756
 6278SOL    HW219734   2.843   1.271   6.749
 6279SOL     OW19735   2.851   6.835   2.053
 6279SOL    HW119736   2.899   6.896   1.990
 6279SOL    HW219737   2.834   6.882   2.139
 6280SOL     OW19738   6.201   2.581   6.758
 6280SOL    HW119739   6.149   2.516   6.813
 6280SOL    HW219740   6.296   2.584   6.792
 6281SOL     OW19741   5.380   3.756   6.011
 6281SOL    HW119742   5.384   3.675   5.952
 6281SOL    HW219743   5.384   3.727   6.106
 6282SOL     OW19744   0.288   3.389   6.242
 6282SOL    HW119745   0.191   3.411   6.253
 6282SOL    HW219746   0.343   3.453   6.295
 6283SOL     OW19747   1.691   6.410   5.125
 6283SOL    HW119748   1.647   6.499   5.120
 6283SOL    HW219749   1.771   6.409   5.064
 6284SOL     OW19750   1.670   4.326   5.561
 6284SOL    HW119751   1.717   4.362   5.641
 6284SOL    HW219752   1.702   4.374   5.479
 6285SOL     OW19753   1.118   3.952   3.078
 6285SOL    HW119754   1.168   3.962   2.992
 6285SOL    HW219755   1.023   3.928   3.058
 6286SOL     OW19756   0.735   2.320   0.386
 6286SOL    HW119757   0.696   2.229   0.375
 6286SOL    HW219758   0.719   2.353   0.479
 6287SOL     OW19759   5.001   4.974   4.903
 6287SOL    HW119760   5.006   4.911   4.826
 6287SOL    HW219761   5.007   5.068   4.870
 6288SOL     OW19762   3.348   3.487   6.351
 6288SOL    HW119763   3.327   3.553   6.423
 6288SOL    HW219764   3.389   3.535   6.273
 6289SOL     OW19765   2.846   4.657   5.841
 6289SOL    HW119766   2.893   4.591   5.900
 6289SOL    HW219767   2.823   4.613   5.754
 6290SOL     OW19768   5.811   6.002   4.333
 6290SOL    HW119769   5.772   5.946   4.260
 6290SOL    HW219770   5.911   6.002   4.325
 6291SOL     OW19771   3.672   3.001   3.172
 6291SOL    HW119772   3.732   2.982   3.094
 6291SOL    HW219773   3.580   3.023   3.139
 6292SOL     OW19774   1.837   3.659   4.503
 6292SOL    HW119775   1.897   3.637   4.426
 6292SOL    HW219776   1.869   3.742   4.548
 6293SOL     OW19777   3.258   1.056   6.676
 6293SOL    HW119778   3.324   1.058   6.601
 6293SOL    HW219779   3.167   1.041   6.639
 6294SOL     OW19780   1.648   1.675   2.992
 6294SOL    HW119781   1.725   1.683   2.928
 6294SOL    HW219782   1.585   1.605   2.959
 6295SOL     OW19783   5.080   3.790   6.160
 6295SOL    HW119784   5.068   3.863   6.093
 6295SOL    HW219785   5.052   3.703   6.119
 6296SOL     OW19786   0.851   3.179   0.673
 6296SOL    HW119787   0.873   3.122   0.593
 6296SOL    HW219788   0.904   3.264   0.668
 6297SOL     OW19789   6.026   1.532   4.371
 6297SOL    HW119790   6.074   1.479   4.441
 6297SOL    HW219791   5.985   1.613   4.412
 6298SOL     OW19792   6.651   6.117   1.026
 6298SOL    HW119793   6.612   6.116   0.934
 6298SOL    HW219794   6.662   6.211   1.057
 6299SOL     OW19795   4.055   1.068   3.127
 6299SOL    HW119796   4.021   1.144   3.183
 6299SOL    HW219797   3.985   1.044   3.059
 6300SOL     OW19798   2.510   0.978   6.494
 6300SOL    HW119799   2.552   0.953   6.407
 6300SOL    HW219800   2.452   1.059   6.481
 6301SOL     OW19801   3.830   6.404   0.152
 6301SOL    HW119802   3.795   6.478   0.095
 6301SOL    HW219803   3.911   6.364   0.109
 6302SOL     OW19804   3.297   2.463   6.255
 6302SOL    HW119805   3.244   2.520   6.192
 6302SOL    HW219806   3.246   2.380   6.276
 6303SOL     OW19807   0.472   5.924   5.143
 6303SOL    HW119808   0.489   5.984   5.221
 6303SOL    HW219809   0.485   5.829   5.169
 6304SOL     OW19810   3.578   0.684   4.420
 6304SOL    HW119811   3.675   0.692   4.445
 6304SOL    HW219812   3.531   0.770   4.441
 6305SOL     OW19813   0.437   5.798   6.377
 6305SOL    HW119814   0.411   5.784   6.282
 6305SOL    HW219815   0.455   5.710   6.420
 6306SOL     OW19816   0.161   5.330   4.322
 6306SOL    HW119817   0.233   5.285   4.269
 6306SOL    HW219818   0.159   5.292   4.415
 6307SOL     OW19819   3.910   2.948   2.028
 6307SOL    HW119820   3.986   2.909   2.080
 6307SOL    HW219821   3.915   3.048   2.030
 6308SOL     OW19822   0.217   2.269   0.642
 6308SOL    HW119823   0.290   2.265   0.574
 6308SOL    HW219824   0.250   2.233   0.729
 6309SOL     OW19825   2.397   6.301   4.712
 6309SOL    HW119826   2.356   6.389   4.733
 6309SOL    HW219827   2.330   6.228   4.727
 6310SOL     OW19828   1.759   0.236   3.100
 6310SOL    HW119829   1.660   0.249   3.096
 6310SOL    HW219830   1.795   0.222   3.008
 6311SOL     OW19831   5.616   0.756   6.413
 6311SOL    HW119832   5.556   0.694   6.462
 6311SOL    HW219833   5.665   0.815   6.478
 6312SOL     OW19834   3.448   5.880   6.529
 6312SOL    HW119835   3.480   5.900   6.622
 6312SOL    HW219836   3.453   5.782   6.512
 6313SOL     OW19837   5.459   5.096   5.062
 6313SOL    HW119838   5.388   5.034   5.097
 6313SOL    HW219839   5.423   5.149   4.986
 6314SOL     OW19840   1.899   6.861   2.450
 6314SOL    HW119841   1.832   6.789   2.466
 6314SOL    HW219842   1.854   6.939   2.406
 6315SOL     OW19843   2.314   2.496   4.390
 6315SOL    HW119844   2.254   2.495   4.310
 6315SOL    HW219845   2.409   2.482   4.361
 6316SOL     OW19846   4.588   0.999   4.562
 6316SOL    HW119847   4.650   0.963   4.492
 6316SOL    HW219848   4.576   0.930   4.634
 6317SOL     OW19849   5.472   4.878   1.909
 6317SOL    HW119850   5.391   4.925   1.946
 6317SOL    HW219851   5.486   4.907   1.814
 6318SOL     OW19852   6.418   6.864   0.223
 6318SOL    HW119853   6.405   6.766   0.236
 6318SOL    HW219854   6.416   6.885   0.125
 6319SOL     OW19855   5.212   1.338   4.185
 6319SOL    HW119856   5.186   1.285   4.104
 6319SOL    HW219857   5.220   1.276   4.263
 6320SOL     OW19858   6.184   1.273   5.621
 6320SOL    HW119859   6.272   1.320   5.631
 6320SOL    HW219860   6.159   1.230   5.707
 6321SOL     OW19861   6.554   2.661   6.594
 6321SOL    HW119862   6.604   2.737   6.552
 6321SOL    HW219863   6.612   2.579   6.595
 6322SOL     OW19864   1.087   1.226   2.034
 6322SOL    HW119865   1.022   1.223   2.110
 6322SOL    HW219866   1.109   1.133   2.005
 6323SOL     OW19867   2.228   5.044   1.653
 6323SOL    HW119868   2.263   5.094   1.732
 6323SOL    HW219869   2.265   4.951   1.653
 6324SOL     OW19870   4.548   2.434   1.144
 6324SOL    HW119871   4.597   2.357   1.102
 6324SOL    HW219872   4.471   2.399   1.197
 6325SOL     OW19873   1.661   3.055   4.054
 6325SOL    HW119874   1.699   2.992   3.987
 6325SOL    HW219875   1.733   3.085   4.117
 6326SOL     OW19876   5.531   5.119   5.727
 6326SOL    HW119877   5.614   5.167   5.754
 6326SOL    HW219878   5.477   5.098   5.809
 6327SOL     OW19879   0.136   0.594   3.670
 6327SOL    HW119880   0.056   0.534   3.670
 6327SOL    HW219881   0.107   0.689   3.663
 6328SOL     OW19882   4.527   3.586   5.367
 6328SOL    HW119883   4.605   3.580   5.305
 6328SOL    HW219884   4.451   3.632   5.321
 6329SOL     OW19885   0.621   2.308   5.794
 6329SOL    HW119886   0.655   2.342   5.706
 6329SOL    HW219887   0.664   2.221   5.815
 6330SOL     OW19888   5.590   1.290   3.482
 6330SOL    HW119889   5.553   1.363   3.540
 6330SOL    HW219890   5.560   1.304   3.388
 6331SOL     OW19891   0.497   2.886   3.589
 6331SOL    HW119892   0.550   2.820   3.642
 6331SOL    HW219893   0.535   2.895   3.497
 6332SOL     OW19894   2.964   1.473   6.461
 6332SOL    HW119895   2.963   1.559   6.512
 6332SOL    HW219896   2.880   1.422   6.480
 6333SOL     OW19897   5.454   1.627   0.754
 6333SOL    HW119898   5.414   1.677   0.677
 6333SOL    HW219899   5.515   1.556   0.719
 6334SOL     OW19900   1.485   1.462   1.933
 6334SOL    HW119901   1.441   1.384   1.978
 6334SOL    HW219902   1.487   1.540   1.995
 6335SOL     OW19903   6.429   2.339   6.890
 6335SOL    HW119904   6.433   2.324   6.989
 6335SOL    HW219905   6.418   2.251   6.844
 6336SOL     OW19906   1.236   3.904   5.276
 6336SOL    HW119907   1.264   3.907   5.372
 6336SOL    HW219908   1.150   3.954   5.266
 6337SOL     OW19909   5.390   6.029   5.080
 6337SOL    HW119910   5.334   6.111   5.087
 6337SOL    HW219911   5.332   5.948   5.083
 6338SOL     OW19912   1.478   0.870   3.184
 6338SOL    HW119913   1.512   0.782   3.216
 6338SOL    HW219914   1.553   0.921   3.141
 6339SOL     OW19915   0.241   4.471   3.388
 6339SOL    HW119916   0.294   4.556   3.386
 6339SOL    HW219917   0.303   4.393   3.384
 6340SOL     OW19918   2.761   3.935   0.743
 6340SOL    HW119919   2.776   4.009   0.808
 6340SOL    HW219920   2.849   3.893   0.720
 6341SOL     OW19921   0.453   5.489   2.725
 6341SOL    HW119922   0.414   5.417   2.668
 6341SOL    HW219923   0.385   5.520   2.791
 6342SOL     OW19924   2.199   0.850   1.198
 6342SOL    HW119925   2.171   0.929   1.144
 6342SOL    HW219926   2.225   0.775   1.136
 6343SOL     OW19927   0.833   5.015   0.899
 6343SOL    HW119928   0.783   5.069   0.967
 6343SOL    HW219929   0.802   5.040   0.807
 6344SOL     OW19930   0.127   1.201   3.995
 6344SOL    HW119931   0.040   1.156   3.975
 6344SOL    HW219932   0.194   1.132   4.023
 6345SOL     OW19933   6.166   3.172   1.743
 6345SOL    HW119934   6.135   3.082   1.772
 6345SOL    HW219935   6.266   3.175   1.743
 6346SOL     OW19936   0.126   4.620   5.710
 6346SOL    HW119937   0.053   4.560   5.679
 6346SOL    HW219938   0.212   4.569   5.714
 6347SOL     OW19939   2.199   2.124   2.928
 6347SOL    HW119940   2.220   2.110   3.024
 6347SOL    HW219941   2.238   2.050   2.874
 6348SOL     OW19942   0.716   1.959   6.133
 6348SOL    HW119943   0.712   1.896   6.054
 6348SOL    HW219944   0.627   2.003   6.144
 6349SOL     OW19945   6.808   0.897   0.139
 6349SOL    HW119946   6.800   0.885   0.238
 6349SOL    HW219947   6.721   0.874   0.095
 6350SOL     OW19948   0.966   5.619   2.027
 6350SOL    HW119949   1.002   5.629   1.934
 6350SOL    HW219950   1.008   5.688   2.086
 6351SOL     OW19951   5.345   3.168   1.633
 6351SOL    HW119952   5.253   3.191   1.665
 6351SOL    HW219953   5.399   3.131   1.709
 6352SOL     OW19954   3.136   0.617   4.053
 6352SOL    HW119955   3.189   0.643   3.973
 6352SOL    HW219956   3.066   0.686   4.071
 6353SOL     OW19957   3.612   6.705   5.393
 6353SOL    HW119958   3.602   6.612   5.429
 6353SOL    HW219959   3.672   6.757   5.454
 6354SOL     OW19960   4.717   5.611   1.137
 6354SOL    HW119961   4.631   5.613   1.188
 6354SOL    HW219962   4.698   5.627   1.040
 6355SOL     OW19963   2.911   4.820   0.622
 6355SOL    HW119964   2.812   4.821   0.638
 6355SOL    HW219965   2.930   4.852   0.529
 6356SOL     OW19966   6.509   5.200   6.188
 6356SOL    HW119967   6.425   5.173   6.139
 6356SOL    HW219968   6.580   5.222   6.122
 6357SOL     OW19969   5.569   1.305   1.845
 6357SOL    HW119970   5.659   1.347   1.859
 6357SOL    HW219971   5.515   1.360   1.782
 6358SOL     OW19972   1.227   1.894   5.687
 6358SOL    HW119973   1.286   1.820   5.718
 6358SOL    HW219974   1.200   1.950   5.765
 6359SOL     OW19975   5.438   6.714   0.674
 6359SOL    HW119976   5.449   6.781   0.748
 6359SOL    HW219977   5.475   6.752   0.589
 6360SOL     OW19978   0.402   1.969   2.238
 6360SOL    HW119979   0.489   1.950   2.286
 6360SOL    HW219980   0.349   2.035   2.292
 6361SOL     OW19981   0.066   0.965   6.717
 6361SOL    HW119982   0.157   0.923   6.719
 6361SOL    HW219983   0.004   0.912   6.774
 6362SOL     OW19984   0.705   5.347   0.363
 6362SOL    HW119985   0.638   5.379   0.429
 6362SOL    HW219986   0.743   5.425   0.313
 6363SOL     OW19987   2.227   4.221   3.008
 6363SOL    HW119988   2.195   4.131   2.981
 6363SOL    HW219989   2.250   4.221   3.106
 6364SOL     OW19990   2.564   2.539   4.254
 6364SOL    HW119991   2.605   2.524   4.344
 6364SOL    HW219992   2.555   2.637   4.237
 6365SOL     OW19993   5.061   6.733   3.084
 6365SOL    HW119994   5.025   6.793   3.156
 6365SOL    HW219995   5.018   6.756   2.997
 6366SOL     OW19996   5.974   0.222   5.159
 6366SOL    HW119997   5.921   0.141   5.135
 6366SOL    HW219998   5.989   0.225   5.258
 6367SOL     OW19999   1.508   2.097   2.352
 6367SOL    HW120000   1.495   2.171   2.286
 6367SOL    HW220001   1.429   2.092   2.414
 6368SOL     OW20002   5.118   3.229   5.160
 6368SOL    HW120003   5.098   3.182   5.246
 6368SOL    HW220004   5.032   3.254   5.115
 6369SOL     OW20005   4.380   5.377   0.104
 6369SOL    HW120006   4.294   5.403   0.060
 6369SOL    HW220007   4.360   5.325   0.187
 6370SOL     OW20008   5.191   3.920   4.341
 6370SOL    HW120009   5.098   3.885   4.350
 6370SOL    HW220010   5.256   3.845   4.351
 6371SOL     OW20011   5.381   4.610   1.251
 6371SOL    HW120012   5.333   4.625   1.337
 6371SOL    HW220013   5.467   4.661   1.251
 6372SOL     OW20014   6.269   1.895   2.280
 6372SOL    HW120015   6.179   1.859   2.255
 6372SOL    HW220016   6.334   1.819   2.291
 6373SOL     OW20017   4.919   4.210   1.754
 6373SOL    HW120018   4.916   4.241   1.659
 6373SOL    HW220019   4.883   4.281   1.814
 6374SOL     OW20020   4.184   3.939   6.747
 6374SOL    HW120021   4.222   3.882   6.674
 6374SOL    HW220022   4.236   4.024   6.753
 6375SOL     OW20023   5.019   2.067   2.083
 6375SOL    HW120024   5.019   2.036   2.179
 6375SOL    HW220025   5.010   1.987   2.023
 6376SOL     OW20026   3.300   0.739   6.781
 6376SOL    HW120027   3.357   0.724   6.700
 6376SOL    HW220028   3.219   0.679   6.776
 6377SOL     OW20029   0.306   0.586   0.946
 6377SOL    HW120030   0.297   0.495   0.907
 6377SOL    HW220031   0.222   0.638   0.929
 6378SOL     OW20032   5.000   4.678   1.778
 6378SOL    HW120033   4.941   4.631   1.712
 6378SOL    HW220034   5.095   4.665   1.752
 6379SOL     OW20035   1.941   5.310   6.488
 6379SOL    HW120036   2.019   5.273   6.437
 6379SOL    HW220037   1.873   5.345   6.423
 6380SOL     OW20038   1.578   3.786   4.678
 6380SOL    HW120039   1.545   3.855   4.742
 6380SOL    HW220040   1.652   3.824   4.622
 6381SOL     OW20041   4.231   2.612   0.481
 6381SOL    HW120042   4.158   2.680   0.484
 6381SOL    HW220043   4.319   2.658   0.486
 6382SOL     OW20044   1.213   1.297   0.676
 6382SOL    HW120045   1.283   1.357   0.716
 6382SOL    HW220046   1.137   1.352   0.643
 6383SOL     OW20047   2.444   2.029   1.804
 6383SOL    HW120048   2.475   2.103   1.745
 6383SOL    HW220049   2.453   2.057   1.900
 6384SOL     OW20050   6.767   3.000   2.470
 6384SOL    HW120051   6.719   2.921   2.431
 6384SOL    HW220052   6.845   3.024   2.413
 6385SOL     OW20053   0.362   3.160   0.659
 6385SOL    HW120054   0.431   3.211   0.608
 6385SOL    HW220055   0.296   3.223   0.699
 6386SOL     OW20056   2.639   3.377   0.522
 6386SOL    HW120057   2.680   3.434   0.593
 6386SOL    HW220058   2.539   3.381   0.530
 6387SOL     OW20059   0.116   0.050   0.042
 6387SOL    HW120060   0.136   0.025   0.137
 6387SOL    HW220061   0.137   6.990   7.000
 6388SOL     OW20062   6.280   5.555   2.449
 6388SOL    HW120063   6.313   5.510   2.365
 6388SOL    HW220064   6.281   5.490   2.524
 6389SOL     OW20065   0.387   0.447   0.485
 6389SOL    HW120066   0.422   0.459   0.393
 6389SOL    HW220067   0.431   0.367   0.527
 6390SOL     OW20068   5.042   0.452   6.792
 6390SOL    HW120069   5.139   0.445   6.767
 6390SOL    HW220070   5.034   0.477   6.888
 6391SOL     OW20071   1.224   1.541   4.765
 6391SOL    HW120072   1.179   1.611   4.711
 6391SOL    HW220073   1.205   1.556   4.862
 6392SOL     OW20074   3.670   6.687   3.847
 6392SOL    HW120075   3.629   6.769   3.886
 6392SOL    HW220076   3.759   6.710   3.808
 6393SOL     OW20077   0.559   5.146   0.148
 6393SOL    HW120078   0.562   5.051   0.117
 6393SOL    HW220079   0.646   5.190   0.127
 6394SOL     OW20080   1.606   5.706   1.758
 6394SOL    HW120081   1.672   5.710   1.683
 6394SOL    HW220082   1.513   5.715   1.721
 6395SOL     OW20083   2.203   3.918   3.109
 6395SOL    HW120084   2.213   3.828   3.153
 6395SOL    HW220085   2.112   3.925   3.069
 6396SOL     OW20086   0.999   3.263   6.072
 6396SOL    HW120087   1.041   3.224   5.990
 6396SOL    HW220088   1.071   3.300   6.132
 6397SOL     OW20089   5.574   3.994   4.406
 6397SOL    HW120090   5.577   3.902   4.444
 6397SOL    HW220091   5.492   4.041   4.437
 6398SOL     OW20092   2.039   0.080   1.476
 6398SOL    HW120093   2.073   0.067   1.383
 6398SOL    HW220094   2.106   0.044   1.541
 6399SOL     OW20095   3.075   0.812   6.120
 6399SOL    HW120096   3.172   0.816   6.143
 6399SOL    HW220097   3.057   0.870   6.040
 6400SOL     OW20098   1.039   6.259   3.038
 6400SOL    HW120099   0.974   6.275   2.964
 6400SOL    HW220100   1.114   6.324   3.033
 6401SOL     OW20101   3.903   5.202   3.475
 6401SOL    HW120102   3.909   5.213   3.574
 6401SOL    HW220103   3.982   5.245   3.431
 6402SOL     OW20104   2.277   4.652   5.219
 6402SOL    HW120105   2.245   4.730   5.165
 6402SOL    HW220106   2.326   4.588   5.159
 6403SOL     OW20107   4.974   5.202   5.323
 6403SOL    HW120108   4.907   5.140   5.284
 6403SOL    HW220109   4.952   5.296   5.297
 6404SOL     OW20110   4.333   6.579   1.806
 6404SOL    HW120111   4.335   6.626   1.894
 6404SOL    HW220112   4.377   6.635   1.737
 6405SOL     OW20113   5.479   1.708   3.056
 6405SOL    HW120114   5.392   1.753   3.074
 6405SOL    HW220115   5.533   1.705   3.140
 6406SOL     OW20116   6.934   3.630   3.508
 6406SOL    HW120117   6.901   3.539   3.533
 6406SOL    HW220118   6.919   3.693   3.585
 6407SOL     OW20119   0.645   6.040   2.270
 6407SOL    HW120120   0.684   6.127   2.299
 6407SOL    HW220121   0.715   5.985   2.226
 6408SOL     OW20122   6.578   0.396   2.291
 6408SOL    HW120123   6.517   0.392   2.369
 6408SOL    HW220124   6.593   0.492   2.265
 6409SOL     OW20125   5.151   5.209   3.510
 6409SOL    HW120126   5.058   5.175   3.526
 6409SOL    HW220127   5.147   5.293   3.456
 6410SOL     OW20128   1.497   1.647   6.520
 6410SOL    HW120129   1.402   1.629   6.493
 6410SOL    HW220130   1.521   1.590   6.598
 6411SOL     OW20131   0.465   2.675   2.057
 6411SOL    HW120132   0.521   2.757   2.069
 6411SOL    HW220133   0.525   2.598   2.033
 6412SOL     OW20134   3.299   0.824   0.082
 6412SOL    HW120135   3.323   0.727   0.080
 6412SOL    HW220136   3.277   0.851   0.176
 6413SOL     OW20137   4.746   6.339   2.927
 6413SOL    HW120138   4.841   6.366   2.910
 6413SOL    HW220139   4.722   6.362   3.022
 6414SOL     OW20140   1.553   0.512   0.419
 6414SOL    HW120141   1.634   0.480   0.467
 6414SOL    HW220142   1.566   0.607   0.391
 6415SOL     OW20143   0.140   2.545   3.904
 6415SOL    HW120144   0.180   2.636   3.899
 6415SOL    HW220145   0.160   2.495   3.820
 6416SOL     OW20146   2.144   6.400   0.234
 6416SOL    HW120147   2.187   6.317   0.270
 6416SOL    HW220148   2.045   6.387   0.230
 6417SOL     OW20149   4.428   2.396   6.832
 6417SOL    HW120150   4.342   2.446   6.836
 6417SOL    HW220151   4.437   2.352   6.743
 6418SOL     OW20152   5.101   4.674   0.239
 6418SOL    HW120153   5.170   4.660   0.168
 6418SOL    HW220154   5.017   4.627   0.214
 6419SOL     OW20155   0.768   6.408   6.064
 6419SOL    HW120156   0.852   6.462   6.062
 6419SOL    HW220157   0.774   6.334   5.997
 6420SOL     OW20158   1.976   4.076   4.508
 6420SOL    HW120159   1.973   4.127   4.422
 6420SOL    HW220160   2.055   4.015   4.509
 6421SOL     OW20161   3.914   0.483   2.023
 6421SOL    HW120162   3.827   0.455   2.063
 6421SOL    HW220163   3.925   0.582   2.032
 6422SOL     OW20164   5.900   1.760   4.463
 6422SOL    HW120165   5.850   1.732   4.545
 6422SOL    HW220166   5.837   1.803   4.398
 6423SOL     OW20167   1.766   4.435   4.302
 6423SOL    HW120168   1.700   4.411   4.373
 6423SOL    HW220169   1.840   4.488   4.343
 6424SOL     OW20170   6.450   4.864   5.363
 6424SOL    HW120171   6.492   4.920   5.292
 6424SOL    HW220172   6.437   4.771   5.329
 6425SOL     OW20173   6.827   5.257   4.304
 6425SOL    HW120174   6.857   5.259   4.209
 6425SOL    HW220175   6.857   5.172   4.347
 6426SOL     OW20176   4.784   4.233   4.920
 6426SOL    HW120177   4.881   4.253   4.933
 6426SOL    HW220178   4.773   4.157   4.856
 6427SOL     OW20179   3.888   3.194   2.840
 6427SOL    HW120180   3.794   3.226   2.849
 6427SOL    HW220181   3.890   3.106   2.793
 6428SOL     OW20182   5.664   2.791   0.401
 6428SOL    HW120183   5.701   2.877   0.435
 6428SOL    HW220184   5.569   2.805   0.372
 6429SOL     OW20185   2.023   1.338   5.248
 6429SOL    HW120186   1.950   1.272   5.267
 6429SOL    HW220187   2.064   1.317   5.159
 6430SOL     OW20188   6.458   0.502   5.544
 6430SOL    HW120189   6.394   0.457   5.607
 6430SOL    HW220190   6.502   0.433   5.486
 6431SOL     OW20191   3.731   4.908   1.752
 6431SOL    HW120192   3.684   4.836   1.804
 6431SOL    HW220193   3.678   4.930   1.670
 6432SOL     OW20194   5.207   4.460   5.962
 6432SOL    HW120195   5.296   4.448   5.917
 6432SOL    HW220196   5.142   4.500   5.897
 6433SOL     OW20197   2.944   4.399   6.404
 6433SOL    HW120198   2.931   4.477   6.343
 6433SOL    HW220199   3.006   4.425   6.479
 6434SOL     OW20200   4.778   5.477   6.293
 6434SOL    HW120201   4.719   5.419   6.237
 6434SOL    HW220202   4.818   5.548   6.235
 6435SOL     OW20203   5.022   2.143   1.728
 6435SOL    HW120204   5.059   2.198   1.803
 6435SOL    HW220205   5.015   2.199   1.646
 6436SOL     OW20206   6.472   3.559   3.931
 6436SOL    HW120207   6.567   3.552   3.901
 6436SOL    HW220208   6.430   3.641   3.891
 6437SOL     OW20209   1.196   2.118   5.491
 6437SOL    HW120210   1.213   2.021   5.504
 6437SOL    HW220211   1.130   2.150   5.559
 6438SOL     OW20212   0.756   4.531   0.062
 6438SOL    HW120213   0.830   4.471   0.034
 6438SOL    HW220214   0.708   4.490   0.140
 6439SOL     OW20215   4.681   6.780   3.316
 6439SOL    HW120216   4.775   6.800   3.286
 6439SOL    HW220217   4.681   6.763   3.414
 6440SOL     OW20218   2.795   1.953   6.390
 6440SOL    HW120219   2.848   2.036   6.410
 6440SOL    HW220220   2.836   1.906   6.312
 6441SOL     OW20221   0.045   1.886   2.307
 6441SOL    HW120222   6.992   1.939   2.260
 6441SOL    HW220223   0.064   1.929   2.396
 6442SOL     OW20224   2.758   2.236   4.570
 6442SOL    HW120225   2.837   2.175   4.579
 6442SOL    HW220226   2.698   2.223   4.649
 6443SOL     OW20227   4.592   3.170   0.039
 6443SOL    HW120228   4.670   3.127   0.085
 6443SOL    HW220229   4.513   3.108   0.042
 6444SOL     OW20230   6.634   3.505   4.844
 6444SOL    HW120231   6.655   3.484   4.748
 6444SOL    HW220232   6.537   3.488   4.862
 6445SOL     OW20233   3.239   2.967   3.786
 6445SOL    HW120234   3.289   3.054   3.776
 6445SOL    HW220235   3.250   2.913   3.702
 6446SOL     OW20236   1.589   1.257   6.390
 6446SOL    HW120237   1.642   1.341   6.374
 6446SOL    HW220238   1.495   1.282   6.416
 6447SOL     OW20239   6.004   3.769   1.680
 6447SOL    HW120240   5.907   3.745   1.682
 6447SOL    HW220241   6.054   3.700   1.627
 6448SOL     OW20242   3.205   4.972   1.485
 6448SOL    HW120243   3.203   5.072   1.476
 6448SOL    HW220244   3.290   4.937   1.446
 6449SOL     OW20245   2.501   5.355   1.054
 6449SOL    HW120246   2.545   5.412   1.124
 6449SOL    HW220247   2.530   5.260   1.066
 6450SOL     OW20248   0.418   4.672   0.373
 6450SOL    HW120249   0.332   4.693   0.326
 6450SOL    HW220250   0.401   4.663   0.471
 6451SOL     OW20251   4.808   2.703   1.562
 6451SOL    HW120252   4.747   2.643   1.509
 6451SOL    HW220253   4.835   2.658   1.646
 6452SOL     OW20254   4.573   1.538   3.807
 6452SOL    HW120255   4.663   1.576   3.782
 6452SOL    HW220256   4.570   1.521   3.905
 6453SOL     OW20257   2.117   0.636   2.366
 6453SOL    HW120258   2.146   0.590   2.450
 6453SOL    HW220259   2.099   0.733   2.385
 6454SOL     OW20260   5.111   2.256   3.413
 6454SOL    HW120261   5.050   2.181   3.388
 6454SOL    HW220262   5.060   2.323   3.467
 6455SOL     OW20263   6.468   3.373   3.553
 6455SOL    HW120264   6.508   3.326   3.474
 6455SOL    HW220265   6.445   3.305   3.623
 6456SOL     OW20266   6.231   0.958   2.595
 6456SOL    HW120267   6.160   0.952   2.665
 6456SOL    HW220268   6.309   1.007   2.631
 6457SOL     OW20269   3.531   7.011   1.935
 6457SOL    HW120270   3.579   0.080   1.917
 6457SOL    HW220271   3.453   0.011   1.995
 6458SOL     OW20272   6.874   5.268   4.040
 6458SOL    HW120273   6.805   5.296   3.973
 6458SOL    HW220274   6.947   5.337   4.043
 6459SOL     OW20275   0.190   3.003   3.095
 6459SOL    HW120276   0.253   3.075   3.125
 6459SOL    HW220277   0.098   3.041   3.085
 6460SOL     OW20278   0.441   5.539   6.510
 6460SOL    HW120279   0.413   5.453   6.467
 6460SOL    HW220280   0.491   5.519   6.594
 6461SOL     OW20281   1.251   5.646   1.042
 6461SOL    HW120282   1.247   5.698   0.957
 6461SOL    HW220283   1.345   5.643   1.075
 6462SOL     OW20284   1.804   4.422   5.323
 6462SOL    HW120285   1.891   4.451   5.283
 6462SOL    HW220286   1.737   4.405   5.250
 6463SOL     OW20287   4.699   2.232   1.052
 6463SOL    HW120288   4.704   2.177   0.969
 6463SOL    HW220289   4.729   2.178   1.130
 6464SOL     OW20290   0.970   4.104   3.391
 6464SOL    HW120291   0.968   4.006   3.369
 6464SOL    HW220292   0.950   4.117   3.488
 6465SOL     OW20293   3.569   1.431   3.566
 6465SOL    HW120294   3.535   1.472   3.481
 6465SOL    HW220295   3.496   1.377   3.608
 6466SOL     OW20296   6.572   3.757   0.271
 6466SOL    HW120297   6.476   3.751   0.244
 6466SOL    HW220298   6.619   3.672   0.246
 6467SOL     OW20299   2.551   2.888   0.423
 6467SOL    HW120300   2.505   2.933   0.498
 6467SOL    HW220301   2.517   2.795   0.413
 6468SOL     OW20302   2.622   1.115   0.757
 6468SOL    HW120303   2.541   1.089   0.704
 6468SOL    HW220304   2.598   1.186   0.823
 6469SOL     OW20305   2.710   1.484   2.296
 6469SOL    HW120306   2.693   1.465   2.199
 6469SOL    HW220307   2.623   1.484   2.345
 6470SOL     OW20308   0.290   1.483   6.902
 6470SOL    HW120309   0.277   1.555   6.835
 6470SOL    HW220310   0.276   1.520   6.994
 6471SOL     OW20311   0.866   6.526   5.670
 6471SOL    HW120312   0.801   6.565   5.604
 6471SOL    HW220313   0.862   6.579   5.755
 6472SOL     OW20314   6.750   6.227   3.174
 6472SOL    HW120315   6.832   6.213   3.118
 6472SOL    HW220316   6.758   6.314   3.223
 6473SOL     OW20317   2.793   1.372   3.450
 6473SOL    HW120318   2.758   1.405   3.538
 6473SOL    HW220319   2.752   1.426   3.376
 6474SOL     OW20320   3.965   5.403   4.722
 6474SOL    HW120321   4.046   5.417   4.779
 6474SOL    HW220322   3.900   5.477   4.739
 6475SOL     OW20323   5.812   5.692   2.630
 6475SOL    HW120324   5.876   5.641   2.572
 6475SOL    HW220325   5.784   5.635   2.707
 6476SOL     OW20326   3.791   2.205   6.724
 6476SOL    HW120327   3.797   2.232   6.820
 6476SOL    HW220328   3.745   2.117   6.717
 6477SOL     OW20329   6.263   5.950   1.336
 6477SOL    HW120330   6.271   5.957   1.435
 6477SOL    HW220331   6.320   6.020   1.293
 6478SOL     OW20332   3.191   5.687   0.899
 6478SOL    HW120333   3.102   5.684   0.852
 6478SOL    HW220334   3.243   5.605   0.877
 6479SOL     OW20335   3.478   6.368   3.305
 6479SOL    HW120336   3.420   6.417   3.370
 6479SOL    HW220337   3.448   6.273   3.299
 6480SOL     OW20338   3.908   1.924   6.784
 6480SOL    HW120339   3.888   2.008   6.835
 6480SOL    HW220340   3.964   1.947   6.704
 6481SOL     OW20341   3.607   2.676   1.335
 6481SOL    HW120342   3.639   2.585   1.364
 6481SOL    HW220343   3.549   2.715   1.407
 6482SOL     OW20344   5.764   3.738   5.683
 6482SOL    HW120345   5.707   3.773   5.758
 6482SOL    HW220346   5.801   3.815   5.631
 6483SOL     OW20347   1.730   6.645   4.874
 6483SOL    HW120348   1.644   6.620   4.920
 6483SOL    HW220349   1.739   6.590   4.791
 6484SOL     OW20350   2.544   1.003   3.664
 6484SOL    HW120351   2.543   0.920   3.608
 6484SOL    HW220352   2.483   1.071   3.624
 6485SOL     OW20353   2.426   6.083   5.427
 6485SOL    HW120354   2.392   6.176   5.419
 6485SOL    HW220355   2.358   6.026   5.475
 6486SOL     OW20356   0.820   5.099   2.851
 6486SOL    HW120357   0.788   5.004   2.861
 6486SOL    HW220358   0.807   5.129   2.757
 6487SOL     OW20359   5.455   4.508   4.270
 6487SOL    HW120360   5.473   4.593   4.221
 6487SOL    HW220361   5.511   4.505   4.353
 6488SOL     OW20362   3.913   5.167   4.549
 6488SOL    HW120363   3.972   5.096   4.588
 6488SOL    HW220364   3.907   5.243   4.613
 6489SOL     OW20365   4.964   2.537   5.128
 6489SOL    HW120366   4.951   2.500   5.036
 6489SOL    HW220367   4.887   2.596   5.152
 6490SOL     OW20368   2.324   2.452   6.791
 6490SOL    HW120369   2.416   2.491   6.789
 6490SOL    HW220370   2.260   2.514   6.744
 6491SOL     OW20371   2.650   0.091   1.711
 6491SOL    HW120372   2.740   0.054   1.689
 6491SOL    HW220373   2.623   0.061   1.803
 6492SOL     OW20374   4.115   3.473   5.189
 6492SOL    HW120375   4.035   3.527   5.213
 6492SOL    HW220376   4.174   3.525   5.127
 6493SOL     OW20377   0.969   4.592   4.591
 6493SOL    HW120378   1.067   4.602   4.573
 6493SOL    HW220379   0.935   4.675   4.634
 6494SOL     OW20380   6.202   0.241   1.144
 6494SOL    HW120381   6.222   0.146   1.167
 6494SOL    HW220382   6.162   0.287   1.224
 6495SOL     OW20383   6.390   0.625   3.242
 6495SOL    HW120384   6.481   0.584   3.240
 6495SOL    HW220385   6.353   0.621   3.335
 6496SOL     OW20386   3.252   1.748   1.750
 6496SOL    HW120387   3.243   1.842   1.782
 6496SOL    HW220388   3.195   1.735   1.668
 6497SOL     OW20389   0.291   1.341   0.714
 6497SOL    HW120390   0.359   1.274   0.686
 6497SOL    HW220391   0.201   1.315   0.677
 6498SOL     OW20392   0.854   4.473   3.801
 6498SOL    HW120393   0.949   4.500   3.783
 6498SOL    HW220394   0.807   4.457   3.714
 6499SOL     OW20395   4.916   3.015   3.414
 6499SOL    HW120396   4.894   3.022   3.512
 6499SOL    HW220397   4.857   2.947   3.371
 6500SOL     OW20398   1.358   4.305   2.818
 6500SOL    HW120399   1.414   4.358   2.754
 6500SOL    HW220400   1.411   4.228   2.852
 6501SOL     OW20401   5.758   1.813   1.995
 6501SOL    HW120402   5.718   1.822   1.903
 6501SOL    HW220403   5.855   1.791   1.987
 6502SOL     OW20404   6.972   3.495   2.103
 6502SOL    HW120405   6.903   3.564   2.124
 6502SOL    HW220406   6.940   3.405   2.131
 6503SOL     OW20407   6.882   3.602   5.625
 6503SOL    HW120408   6.794   3.633   5.659
 6503SOL    HW220409   6.868   3.538   5.550
 6504SOL     OW20410   4.357   6.202   6.498
 6504SOL    HW120411   4.416   6.262   6.552
 6504SOL    HW220412   4.402   6.180   6.411
 6505SOL     OW20413   0.434   5.836   0.537
 6505SOL    HW120414   0.409   5.741   0.555
 6505SOL    HW220415   0.534   5.844   0.529
 6506SOL     OW20416   0.215   3.602   2.055
 6506SOL    HW120417   0.284   3.562   2.114
 6506SOL    HW220418   0.129   3.553   2.066
 6507SOL     OW20419   3.297   5.235   0.109
 6507SOL    HW120420   3.204   5.200   0.120
 6507SOL    HW220421   3.324   5.231   0.013
 6508SOL     OW20422   0.622   6.987   2.951
 6508SOL    HW120423   0.625   0.066   2.976
 6508SOL    HW220424   0.536   6.966   2.906
 6509SOL     OW20425   2.323   1.703   6.552
 6509SOL    HW120426   2.390   1.649   6.603
 6509SOL    HW220427   2.332   1.799   6.576
 6510SOL     OW20428   2.987   6.097   5.869
 6510SOL    HW120429   2.993   6.016   5.811
 6510SOL    HW220430   3.079   6.135   5.882
 6511SOL     OW20431   3.264   1.575   0.986
 6511SOL    HW120432   3.323   1.633   1.042
 6511SOL    HW220433   3.224   1.629   0.912
 6512SOL     OW20434   3.697   1.667   0.197
 6512SOL    HW120435   3.786   1.712   0.204
 6512SOL    HW220436   3.643   1.711   0.126
 6513SOL     OW20437   2.959   4.788   3.215
 6513SOL    HW120438   3.050   4.816   3.244
 6513SOL    HW220439   2.953   4.791   3.115
 6514SOL     OW20440   5.288   6.415   5.479
 6514SOL    HW120441   5.288   6.330   5.425
 6514SOL    HW220442   5.197   6.429   5.517
 6515SOL     OW20443   0.880   4.774   2.402
 6515SOL    HW120444   0.951   4.751   2.336
 6515SOL    HW220445   0.793   4.789   2.354
 6516SOL     OW20446   6.156   3.579   1.528
 6516SOL    HW120447   6.219   3.601   1.602
 6516SOL    HW220448   6.111   3.491   1.547
 6517SOL     OW20449   7.014   3.687   0.677
 6517SOL    HW120450   6.958   3.649   0.750
 6517SOL    HW220451   0.073   3.738   0.716
 6518SOL     OW20452   0.454   1.715   2.708
 6518SOL    HW120453   0.366   1.756   2.685
 6518SOL    HW220454   0.526   1.785   2.701
 6519SOL     OW20455   1.243   1.574   3.393
 6519SOL    HW120456   1.337   1.608   3.395
 6519SOL    HW220457   1.199   1.603   3.307
 6520SOL     OW20458   6.974   5.326   0.271
 6520SOL    HW120459   6.954   5.374   0.186
 6520SOL    HW220460   0.055   5.325   0.287
 6521SOL     OW20461   1.314   3.857   3.452
 6521SOL    HW120462   1.303   3.918   3.530
 6521SOL    HW220463   1.349   3.769   3.484
 6522SOL     OW20464   2.690   2.839   5.365
 6522SOL    HW120465   2.640   2.917   5.327
 6522SOL    HW220466   2.666   2.828   5.461
 6523SOL     OW20467   6.032   0.266   0.445
 6523SOL    HW120468   5.975   0.315   0.379
 6523SOL    HW220469   6.079   0.191   0.399
 6524SOL     OW20470   2.415   2.712   0.846
 6524SOL    HW120471   2.500   2.728   0.896
 6524SOL    HW220472   2.426   2.632   0.786
 6525SOL     OW20473   1.103   5.163   3.380
 6525SOL    HW120474   1.010   5.145   3.413
 6525SOL    HW220475   1.101   5.242   3.319
 6526SOL     OW20476   0.865   5.530   0.174
 6526SOL    HW120477   0.947   5.488   0.212
 6526SOL    HW220478   0.860   5.513   0.076
 6527SOL     OW20479   6.696   1.779   0.276
 6527SOL    HW120480   6.627   1.841   0.312
 6527SOL    HW220481   6.664   1.685   0.283
 6528SOL     OW20482   4.099   6.667   6.566
 6528SOL    HW120483   4.150   6.641   6.484
 6528SOL    HW220484   4.152   6.643   6.647
 6529SOL     OW20485   5.819   1.033   2.546
 6529SOL    HW120486   5.759   1.058   2.470
 6529SOL    HW220487   5.812   0.934   2.562
 6530SOL     OW20488   0.301   3.367   2.841
 6530SOL    HW120489   0.270   3.381   2.935
 6530SOL    HW220490   0.392   3.407   2.829
 6531SOL     OW20491   3.541   4.120   5.079
 6531SOL    HW120492   3.475   4.098   5.006
 6531SOL    HW220493   3.495   4.117   5.167
 6532SOL     OW20494   1.391   0.351   0.285
 6532SOL    HW120495   1.444   0.421   0.333
 6532SOL    HW220496   1.397   0.264   0.334
 6533SOL     OW20497   4.959   3.749   1.238
 6533SOL    HW120498   4.940   3.837   1.193
 6533SOL    HW220499   4.876   3.717   1.284
 6534SOL     OW20500   0.212   4.760   3.129
 6534SOL    HW120501   0.272   4.770   3.207
 6534SOL    HW220502   0.154   4.679   3.142
 6535SOL     OW20503   4.859   2.974   5.289
 6535SOL    HW120504   4.810   2.890   5.313
 6535SOL    HW220505   4.940   2.984   5.347
 6536SOL     OW20506   0.486   4.686   5.420
 6536SOL    HW120507   0.568   4.639   5.451
 6536SOL    HW220508   0.450   4.641   5.338
 6537SOL     OW20509   6.087   5.443   3.958
 6537SOL    HW120510   6.116   5.425   3.865
 6537SOL    HW220511   6.082   5.542   3.974
 6538SOL     OW20512   1.865   3.123   5.677
 6538SOL    HW120513   1.794   3.125   5.606
 6538SOL    HW220514   1.948   3.166   5.642
 6539SOL     OW20515   5.018   0.555   5.915
 6539SOL    HW120516   5.069   0.618   5.857
 6539SOL    HW220517   5.045   0.461   5.895
 6540SOL     OW20518   6.551   3.017   5.626
 6540SOL    HW120519   6.612   3.075   5.572
 6540SOL    HW220520   6.499   3.073   5.690
 6541SOL     OW20521   5.991   1.604   5.318
 6541SOL    HW120522   6.004   1.542   5.395
 6541SOL    HW220523   6.047   1.574   5.241
 6542SOL     OW20524   1.730   4.316   2.964
 6542SOL    HW120525   1.723   4.414   2.947
 6542SOL    HW220526   1.640   4.274   2.954
 6543SOL     OW20527   3.724   1.444   4.459
 6543SOL    HW120528   3.693   1.508   4.388
 6543SOL    HW220529   3.653   1.434   4.528
 6544SOL     OW20530   1.162   6.539   1.849
 6544SOL    HW120531   1.133   6.537   1.753
 6544SOL    HW220532   1.160   6.633   1.882
 6545SOL     OW20533   4.562   6.589   0.630
 6545SOL    HW120534   4.577   6.688   0.624
 6545SOL    HW220535   4.624   6.550   0.699
 6546SOL     OW20536   4.797   3.924   6.325
 6546SOL    HW120537   4.774   4.003   6.381
 6546SOL    HW220538   4.892   3.931   6.295
 6547SOL     OW20539   0.375   5.697   6.136
 6547SOL    HW120540   0.450   5.668   6.077
 6547SOL    HW220541   0.296   5.639   6.120
 6548SOL     OW20542   0.131   1.347   5.457
 6548SOL    HW120543   0.043   1.392   5.439
 6548SOL    HW220544   0.162   1.369   5.550
 6549SOL     OW20545   4.641   1.461   2.427
 6549SOL    HW120546   4.622   1.370   2.391
 6549SOL    HW220547   4.716   1.502   2.375
 6550SOL     OW20548   5.684   6.274   3.259
 6550SOL    HW120549   5.648   6.367   3.261
 6550SOL    HW220550   5.723   6.251   3.348
 6551SOL     OW20551   3.414   4.068   0.904
 6551SOL    HW120552   3.355   4.068   0.984
 6551SOL    HW220553   3.359   4.050   0.822
 6552SOL     OW20554   2.006   5.738   0.576
 6552SOL    HW120555   1.914   5.700   0.586
 6552SOL    HW220556   2.068   5.688   0.637
 6553SOL     OW20557   0.938   1.403   4.203
 6553SOL    HW120558   0.895   1.322   4.162
 6553SOL    HW220559   0.911   1.484   4.151
 6554SOL     OW20560   1.973   1.432   3.894
 6554SOL    HW120561   1.895   1.491   3.915
 6554SOL    HW220562   1.958   1.389   3.804
 6555SOL     OW20563   6.498   3.639   3.634
 6555SOL    HW120564   6.404   3.655   3.665
 6555SOL    HW220565   6.513   3.541   3.622
 6556SOL     OW20566   4.871   3.312   2.708
 6556SOL    HW120567   4.886   3.287   2.612
 6556SOL    HW220568   4.887   3.411   2.719
 6557SOL     OW20569   2.187   0.514   1.876
 6557SOL    HW120570   2.254   0.578   1.838
 6557SOL    HW220571   2.152   0.551   1.962
 6558SOL     OW20572   5.651   6.054   6.247
 6558SOL    HW120573   5.576   6.061   6.182
 6558SOL    HW220574   5.615   6.057   6.340
 6559SOL     OW20575   6.959   2.276   6.158
 6559SOL    HW120576   6.944   2.372   6.177
 6559SOL    HW220577   6.993   2.266   6.064
 6560SOL     OW20578   5.407   4.571   0.469
 6560SOL    HW120579   5.329   4.621   0.506
 6560SOL    HW220580   5.404   4.476   0.500
 6561SOL     OW20581   3.410   4.338   6.836
 6561SOL    HW120582   3.416   4.416   6.898
 6561SOL    HW220583   3.449   4.257   6.879
 6562SOL     OW20584   5.344   2.490   1.402
 6562SOL    HW120585   5.363   2.409   1.347
 6562SOL    HW220586   5.423   2.509   1.461
 6563SOL     OW20587   5.284   5.582   4.914
 6563SOL    HW120588   5.325   5.518   4.978
 6563SOL    HW220589   5.289   5.544   4.821
 6564SOL     OW20590   6.481   3.512   3.130
 6564SOL    HW120591   6.494   3.419   3.166
 6564SOL    HW220592   6.491   3.511   3.030
 6565SOL     OW20593   5.227   0.419   3.030
 6565SOL    HW120594   5.246   0.335   2.979
 6565SOL    HW220595   5.291   0.427   3.106
 6566SOL     OW20596   4.700   5.878   2.813
 6566SOL    HW120597   4.609   5.866   2.772
 6566SOL    HW220598   4.697   5.953   2.879
 6567SOL     OW20599   3.929   0.704   1.285
 6567SOL    HW120600   4.007   0.646   1.309
 6567SOL    HW220601   3.874   0.721   1.367
 6568SOL     OW20602   4.559   1.962   0.945
 6568SOL    HW120603   4.553   1.950   1.044
 6568SOL    HW220604   4.469   1.949   0.904
 6569SOL     OW20605   0.780   4.329   5.081
 6569SOL    HW120606   0.764   4.350   4.985
 6569SOL    HW220607   0.868   4.280   5.090
 6570SOL     OW20608   4.527   0.207   1.839
 6570SOL    HW120609   4.625   0.194   1.856
 6570SOL    HW220610   4.475   0.169   1.915
 6571SOL     OW20611   3.308   4.899   3.033
 6571SOL    HW120612   3.256   4.814   3.042
 6571SOL    HW220613   3.349   4.922   3.121
 6572SOL     OW20614   1.247   5.420   4.186
 6572SOL    HW120615   1.334   5.469   4.199
 6572SOL    HW220616   1.201   5.456   4.105
 6573SOL     OW20617   1.612   1.267   3.556
 6573SOL    HW120618   1.574   1.184   3.515
 6573SOL    HW220619   1.687   1.302   3.499
 6574SOL     OW20620   2.193   5.741   2.202
 6574SOL    HW120621   2.247   5.821   2.226
 6574SOL    HW220622   2.179   5.684   2.284
 6575SOL     OW20623   0.044   1.397   2.874
 6575SOL    HW120624   0.046   1.473   2.938
 6575SOL    HW220625   6.967   1.365   2.863
 6576SOL     OW20626   4.692   5.818   0.728
 6576SOL    HW120627   4.783   5.827   0.767
 6576SOL    HW220628   4.695   5.837   0.630
 6577SOL     OW20629   3.090   1.102   3.830
 6577SOL    HW120630   3.059   1.163   3.903
 6577SOL    HW220631   3.179   1.064   3.854
 6578SOL     OW20632   1.441   4.805   1.504
 6578SOL    HW120633   1.457   4.716   1.461
 6578SOL    HW220634   1.440   4.876   1.434
 6579SOL     OW20635   6.685   0.807   4.111
 6579SOL    HW120636   6.702   0.902   4.139
 6579SOL    HW220637   6.733   0.790   4.025
 6580SOL     OW20638   2.480   1.712   0.367
 6580SOL    HW120639   2.440   1.729   0.277
 6580SOL    HW220640   2.518   1.619   0.369
 6581SOL     OW20641   0.566   1.703   0.980
 6581SOL    HW120642   0.662   1.732   0.975
 6581SOL    HW220643   0.539   1.691   1.075
 6582SOL     OW20644   6.782   1.283   2.860
 6582SOL    HW120645   6.691   1.297   2.820
 6582SOL    HW220646   6.773   1.239   2.949
 6583SOL     OW20647   3.583   5.589   6.486
 6583SOL    HW120648   3.498   5.585   6.538
 6583SOL    HW220649   3.659   5.557   6.543
 6584SOL     OW20650   4.013   2.783   0.526
 6584SOL    HW120651   3.998   2.727   0.607
 6584SOL    HW220652   3.940   2.850   0.518
 6585SOL     OW20653   5.697   6.496   1.252
 6585SOL    HW120654   5.776   6.485   1.312
 6585SOL    HW220655   5.618   6.526   1.306
 6586SOL     OW20656   6.994   2.001   6.818
 6586SOL    HW120657   6.910   2.022   6.869
 6586SOL    HW220658   0.055   2.007   6.880
 6587SOL     OW20659   1.781   4.663   5.611
 6587SOL    HW120660   1.786   4.589   5.678
 6587SOL    HW220661   1.863   4.719   5.618
 6588SOL     OW20662   6.794   3.069   0.485
 6588SOL    HW120663   6.817   3.138   0.554
 6588SOL    HW220664   6.842   2.984   0.506
 6589SOL     OW20665   6.732   0.259   1.952
 6589SOL    HW120666   6.638   0.271   1.982
 6589SOL    HW220667   6.792   0.322   2.001
 6590SOL     OW20668   1.308   6.459   3.594
 6590SOL    HW120669   1.313   6.539   3.654
 6590SOL    HW220670   1.331   6.377   3.647
 6591SOL     OW20671   5.957   3.992   4.127
 6591SOL    HW120672   6.029   3.926   4.151
 6591SOL    HW220673   5.919   4.032   4.210
 6592SOL     OW20674   6.080   6.842   3.228
 6592SOL    HW120675   6.063   6.940   3.223
 6592SOL    HW220676   6.167   6.821   3.183
 6593SOL     OW20677   2.556   1.750   2.022
 6593SOL    HW120678   2.561   1.846   2.050
 6593SOL    HW220679   2.581   1.692   2.099
 6594SOL     OW20680   5.239   0.637   6.197
 6594SOL    HW120681   5.191   0.724   6.184
 6594SOL    HW220682   5.249   0.619   6.295
 6595SOL     OW20683   0.826   1.961   5.319
 6595SOL    HW120684   0.899   2.008   5.270
 6595SOL    HW220685   0.862   1.922   5.403
 6596SOL     OW20686   5.618   7.017   2.678
 6596SOL    HW120687   5.623   0.097   2.657
 6596SOL    HW220688   5.558   7.003   2.757
 6597SOL     OW20689   0.992   4.311   2.262
 6597SOL    HW120690   1.047   4.230   2.246
 6597SOL    HW220691   0.939   4.299   2.346
 6598SOL     OW20692   1.488   4.544   4.236
 6598SOL    HW120693   1.481   4.480   4.313
 6598SOL    HW220694   1.578   4.587   4.236
 6599SOL     OW20695   5.955   5.281   6.411
 6599SOL    HW120696   5.886   5.350   6.434
 6599SOL    HW220697   5.954   5.209   6.480
 6600SOL     OW20698   4.287   0.147   5.326
 6600SOL    HW120699   4.372   0.099   5.304
 6600SOL    HW220700   4.306   0.221   5.391
 6601SOL     OW20701   1.567   2.312   1.483
 6601SOL    HW120702   1.582   2.226   1.532
 6601SOL    HW220703   1.598   2.303   1.389
 6602SOL     OW20704   1.189   5.932   1.832
 6602SOL    HW120705   1.212   5.910   1.927
 6602SOL    HW220706   1.248   6.006   1.800
 6603SOL     OW20707   0.309   3.518   3.089
 6603SOL    HW120708   0.299   3.614   3.061
 6603SOL    HW220709   0.227   3.490   3.139
 6604SOL     OW20710   2.498   6.333   2.718
 6604SOL    HW120711   2.526   6.309   2.625
 6604SOL    HW220712   2.409   6.379   2.715
 6605SOL     OW20713   6.855   5.208   1.075
 6605SOL    HW120714   6.873   5.299   1.110
 6605SOL    HW220715   6.935   5.173   1.027
 6606SOL     OW20716   1.565   3.082   3.279
 6606SOL    HW120717   1.545   3.180   3.272
 6606SOL    HW220718   1.641   3.069   3.343
 6607SOL     OW20719   5.957   3.885   3.419
 6607SOL    HW120720   6.050   3.873   3.454
 6607SOL    HW220721   5.898   3.816   3.461
 6608SOL     OW20722   1.170   5.662   6.114
 6608SOL    HW120723   1.206   5.735   6.171
 6608SOL    HW220724   1.073   5.680   6.094
 6609SOL     OW20725   4.712   1.707   6.255
 6609SOL    HW120726   4.646   1.656   6.310
 6609SOL    HW220727   4.670   1.732   6.167
 6610SOL     OW20728   2.986   5.281   0.779
 6610SOL    HW120729   2.955   5.226   0.702
 6610SOL    HW220730   3.058   5.232   0.828
 6611SOL     OW20731   3.883   1.656   4.658
 6611SOL    HW120732   3.921   1.604   4.582
 6611SOL    HW220733   3.804   1.709   4.626
 6612SOL     OW20734   0.456   0.760   6.222
 6612SOL    HW120735   0.444   0.757   6.321
 6612SOL    HW220736   0.465   0.855   6.192
 6613SOL     OW20737   4.668   6.615   0.345
 6613SOL    HW120738   4.736   6.686   0.364
 6613SOL    HW220739   4.604   6.609   0.422
 6614SOL     OW20740   4.248   5.732   0.989
 6614SOL    HW120741   4.177   5.778   0.935
 6614SOL    HW220742   4.264   5.784   1.073
 6615SOL     OW20743   3.622   4.708   6.336
 6615SOL    HW120744   3.596   4.779   6.271
 6615SOL    HW220745   3.574   4.623   6.314
 6616SOL     OW20746   3.813   1.207   5.843
 6616SOL    HW120747   3.871   1.263   5.785
 6616SOL    HW220748   3.729   1.183   5.794
 6617SOL     OW20749   3.911   0.365   4.048
 6617SOL    HW120750   3.850   0.293   4.082
 6617SOL    HW220751   4.005   0.344   4.076
 6618SOL     OW20752   6.656   2.827   4.037
 6618SOL    HW120753   6.639   2.730   4.053
 6618SOL    HW220754   6.570   2.872   4.012
 6619SOL     OW20755   4.543   6.202   4.414
 6619SOL    HW120756   4.557   6.160   4.324
 6619SOL    HW220757   4.498   6.290   4.403
 6620SOL     OW20758   0.669   3.150   3.332
 6620SOL    HW120759   0.591   3.204   3.366
 6620SOL    HW220760   0.746   3.160   3.395
 6621SOL     OW20761   3.991   3.247   4.821
 6621SOL    HW120762   3.987   3.217   4.916
 6621SOL    HW220763   3.963   3.172   4.761
 6622SOL     OW20764   0.529   5.482   1.089
 6622SOL    HW120765   0.487   5.571   1.107
 6622SOL    HW220766   0.506   5.452   0.997
 6623SOL     OW20767   3.348   3.482   5.420
 6623SOL    HW120768   3.293   3.535   5.356
 6623SOL    HW220769   3.301   3.477   5.508
 6624SOL     OW20770   2.094   1.803   3.352
 6624SOL    HW120771   2.151   1.729   3.386
 6624SOL    HW220772   2.054   1.778   3.264
 6625SOL     OW20773   6.038   3.805   5.831
 6625SOL    HW120774   6.070   3.726   5.884
 6625SOL    HW220775   5.961   3.777   5.772
 6626SOL     OW20776   2.685   6.059   5.506
 6626SOL    HW120777   2.680   6.126   5.580
 6626SOL    HW220778   2.592   6.036   5.475
 6627SOL     OW20779   1.760   5.927   4.503
 6627SOL    HW120780   1.730   5.856   4.568
 6627SOL    HW220781   1.719   5.910   4.414
 6628SOL     OW20782   4.031   6.148   4.650
 6628SOL    HW120783   4.112   6.114   4.603
 6628SOL    HW220784   4.040   6.131   4.748
 6629SOL     OW20785   4.671   6.362   6.378
 6629SOL    HW120786   4.629   6.377   6.467
 6629SOL    HW220787   4.638   6.431   6.313
 6630SOL     OW20788   1.656   0.731   0.618
 6630SOL    HW120789   1.588   0.706   0.686
 6630SOL    HW220790   1.611   0.759   0.533
 6631SOL     OW20791   1.600   3.556   6.203
 6631SOL    HW120792   1.502   3.537   6.198
 6631SOL    HW220793   1.619   3.644   6.159
 6632SOL     OW20794   0.818   0.782   0.832
 6632SOL    HW120795   0.897   0.738   0.875
 6632SOL    HW220796   0.797   0.737   0.745
 6633SOL     OW20797   3.682   5.547   5.664
 6633SOL    HW120798   3.603   5.487   5.679
 6633SOL    HW220799   3.765   5.497   5.685
 6634SOL     OW20800   3.840   1.530   4.033
 6634SOL    HW120801   3.745   1.525   4.063
 6634SOL    HW220802   3.864   1.626   4.016
 6635SOL     OW20803   4.999   4.986   4.040
 6635SOL    HW120804   5.069   4.915   4.037
 6635SOL    HW220805   5.014   5.050   3.965
 6636SOL     OW20806   4.003   0.646   6.636
 6636SOL    HW120807   3.910   0.682   6.625
 6636SOL    HW220808   4.057   0.711   6.689
 6637SOL     OW20809   1.160   1.676   1.455
 6637SOL    HW120810   1.178   1.724   1.370
 6637SOL    HW220811   1.149   1.743   1.529
 6638SOL     OW20812   3.180   3.472   3.790
 6638SOL    HW120813   3.124   3.530   3.850
 6638SOL    HW220814   3.182   3.511   3.698
 6639SOL     OW20815   5.003   2.728   1.388
 6639SOL    HW120816   4.931   2.712   1.455
 6639SOL    HW220817   5.057   2.808   1.415
 6640SOL     OW20818   1.740   3.536   4.951
 6640SOL    HW120819   1.718   3.485   4.868
 6640SOL    HW220820   1.803   3.611   4.929
 6641SOL     OW20821   4.863   1.920   1.695
 6641SOL    HW120822   4.902   2.012   1.707
 6641SOL    HW220823   4.910   1.875   1.619
 6642SOL     OW20824   1.165   5.798   0.063
 6642SOL    HW120825   1.102   5.875   0.047
 6642SOL    HW220826   1.244   5.830   0.115
 6643SOL     OW20827   4.069   5.445   6.492
 6643SOL    HW120828   4.096   5.514   6.424
 6643SOL    HW220829   4.139   5.440   6.564
 6644SOL     OW20830   1.710   6.792   3.658
 6644SOL    HW120831   1.661   6.857   3.599
 6644SOL    HW220832   1.794   6.762   3.613
 6645SOL     OW20833   6.014   2.608   0.565
 6645SOL    HW120834   5.968   2.693   0.591
 6645SOL    HW220835   6.108   2.609   0.599
 6646SOL     OW20836   4.248   6.824   5.877
 6646SOL    HW120837   4.242   6.775   5.790
 6646SOL    HW220838   4.182   6.899   5.878
 6647SOL     OW20839   4.312   5.457   0.795
 6647SOL    HW120840   4.389   5.502   0.841
 6647SOL    HW220841   4.324   5.358   0.799
 6648SOL     OW20842   2.953   6.358   6.138
 6648SOL    HW120843   2.886   6.291   6.106
 6648SOL    HW220844   3.010   6.317   6.209
 6649SOL     OW20845   5.215   3.513   6.825
 6649SOL    HW120846   5.232   3.428   6.875
 6649SOL    HW220847   5.258   3.508   6.735
 6650SOL     OW20848   2.204   1.861   4.904
 6650SOL    HW120849   2.111   1.897   4.914
 6650SOL    HW220850   2.240   1.883   4.814
 6651SOL     OW20851   6.372   1.864   6.468
 6651SOL    HW120852   6.425   1.949   6.470
 6651SOL    HW220853   6.408   1.801   6.537
 6652SOL     OW20854   0.159   4.559   0.653
 6652SOL    HW120855   0.137   4.495   0.579
 6652SOL    HW220856   0.144   4.653   0.620
 6653SOL     OW20857   5.692   4.592   0.402
 6653SOL    HW120858   5.602   4.567   0.437
 6653SOL    HW220859   5.700   4.691   0.396
 6654SOL     OW20860   6.432   4.116   3.339
 6654SOL    HW120861   6.504   4.153   3.397
 6654SOL    HW220862   6.367   4.064   3.396
 6655SOL     OW20863   6.854   4.969   2.131
 6655SOL    HW120864   6.846   5.028   2.210
 6655SOL    HW220865   6.943   4.922   2.133
 6656SOL     OW20866   4.724   1.243   2.990
 6656SOL    HW120867   4.692   1.330   3.027
 6656SOL    HW220868   4.803   1.212   3.043
 6657SOL     OW20869   5.201   2.166   3.708
 6657SOL    HW120870   5.237   2.257   3.729
 6657SOL    HW220871   5.197   2.154   3.608
 6658SOL     OW20872   6.761   6.020   5.629
 6658SOL    HW120873   6.722   5.928   5.639
 6658SOL    HW220874   6.828   6.036   5.701
 6659SOL     OW20875   0.965   5.158   2.230
 6659SOL    HW120876   0.986   5.224   2.157
 6659SOL    HW220877   1.026   5.173   2.307
 6660SOL     OW20878   6.759   6.350   3.766
 6660SOL    HW120879   6.669   6.392   3.768
 6660SOL    HW220880   6.827   6.414   3.804
 6661SOL     OW20881   3.639   5.631   4.391
 6661SOL    HW120882   3.672   5.692   4.318
 6661SOL    HW220883   3.679   5.540   4.379
 6662SOL     OW20884   3.977   6.617   2.075
 6662SOL    HW120885   3.877   6.618   2.077
 6662SOL    HW220886   4.010   6.541   2.131
 6663SOL     OW20887   1.398   3.875   5.990
 6663SOL    HW120888   1.345   3.929   6.056
 6663SOL    HW220889   1.489   3.857   6.028
 6664SOL     OW20890   2.922   0.090   1.205
 6664SOL    HW120891   2.828   0.087   1.238
 6664SOL    HW220892   2.951   7.015   1.179
 6665SOL     OW20893   2.268   0.862   6.260
 6665SOL    HW120894   2.311   0.785   6.307
 6665SOL    HW220895   2.336   0.910   6.204
 6666SOL     OW20896   4.081   6.320   5.286
 6666SOL    HW120897   4.120   6.311   5.194
 6666SOL    HW220898   4.113   6.406   5.327
 6667SOL     OW20899   0.134   6.574   6.848
 6667SOL    HW120900   0.084   6.488   6.858
 6667SOL    HW220901   0.216   6.572   6.904
 6668SOL     OW20902   0.333   4.881   0.554
 6668SOL    HW120903   0.298   4.887   0.460
 6668SOL    HW220904   0.433   4.885   0.553
 6669SOL     OW20905   1.479   1.046   3.435
 6669SOL    HW120906   1.487   0.962   3.380
 6669SOL    HW220907   1.397   1.040   3.492
 6670SOL     OW20908   4.098   2.391   1.000
 6670SOL    HW120909   4.100   2.310   1.058
 6670SOL    HW220910   4.073   2.471   1.055
 6671SOL     OW20911   4.869   5.865   0.512
 6671SOL    HW120912   4.878   5.957   0.551
 6671SOL    HW220913   4.777   5.852   0.477
 6672SOL     OW20914   1.971   2.447   0.976
 6672SOL    HW120915   2.031   2.444   0.896
 6672SOL    HW220916   1.879   2.417   0.949
 6673SOL     OW20917   5.963   3.256   4.062
 6673SOL    HW120918   5.870   3.223   4.051
 6673SOL    HW220919   6.011   3.251   3.975
 6674SOL     OW20920   0.325   1.498   0.174
 6674SOL    HW120921   0.316   1.597   0.168
 6674SOL    HW220922   0.387   1.475   0.250
 6675SOL     OW20923   5.513   1.516   6.757
 6675SOL    HW120924   5.491   1.427   6.718
 6675SOL    HW220925   5.531   1.506   6.855
 6676SOL     OW20926   1.202   3.659   3.300
 6676SOL    HW120927   1.107   3.648   3.329
 6676SOL    HW220928   1.240   3.743   3.341
 6677SOL     OW20929   0.737   1.594   0.273
 6677SOL    HW120930   0.737   1.520   0.206
 6677SOL    HW220931   0.660   1.582   0.336
 6678SOL     OW20932   2.003   3.962   6.971
 6678SOL    HW120933   1.971   3.904   6.897
 6678SOL    HW220934   2.035   3.905   0.030
 6679SOL     OW20935   2.139   0.766   4.187
 6679SOL    HW120936   2.070   0.783   4.117
 6679SOL    HW220937   2.128   0.831   4.262
 6680SOL     OW20938   5.838   0.002   1.361
 6680SOL    HW120939   5.827   6.970   1.275
 6680SOL    HW220940   5.927   6.998   1.401
 6681SOL     OW20941   3.228   5.933   1.522
 6681SOL    HW120942   3.229   5.833   1.527
 6681SOL    HW220943   3.260   5.962   1.432
 6682SOL     OW20944   3.239   5.004   6.062
 6682SOL    HW120945   3.262   4.907   6.059
 6682SOL    HW220946   3.255   5.039   6.154
 6683SOL     OW20947   6.767   3.910   6.394
 6683SOL    HW120948   6.764   4.008   6.376
 6683SOL    HW220949   6.765   3.895   6.493
 6684SOL     OW20950   2.899   6.054   0.274
 6684SOL    HW120951   2.877   6.088   0.365
 6684SOL    HW220952   2.997   6.066   0.256
 6685SOL     OW20953   5.075   3.577   0.036
 6685SOL    HW120954   5.109   3.584   6.959
 6685SOL    HW220955   5.124   3.505   0.084
 6686SOL     OW20956   4.841   5.154   4.275
 6686SOL    HW120957   4.832   5.059   4.247
 6686SOL    HW220958   4.789   5.169   4.359
 6687SOL     OW20959   6.300   2.213   1.813
 6687SOL    HW120960   6.358   2.276   1.762
 6687SOL    HW220961   6.313   2.227   1.911
 6688SOL     OW20962   4.578   5.361   0.402
 6688SOL    HW120963   4.639   5.388   0.327
 6688SOL    HW220964   4.567   5.438   0.465
 6689SOL     OW20965   2.048   4.602   5.946
 6689SOL    HW120966   2.031   4.572   5.852
 6689SOL    HW220967   2.047   4.702   5.949
 6690SOL     OW20968   0.794   6.949   5.862
 6690SOL    HW120969   0.718   6.967   5.799
 6690SOL    HW220970   0.767   6.973   5.955
 6691SOL     OW20971   2.559   2.380   2.557
 6691SOL    HW120972   2.656   2.398   2.572
 6691SOL    HW220973   2.536   2.288   2.588
 6692SOL     OW20974   4.799   4.863   1.789
 6692SOL    HW120975   4.866   4.793   1.815
 6692SOL    HW220976   4.843   4.929   1.728
 6693SOL     OW20977   4.064   1.566   4.490
 6693SOL    HW120978   4.143   1.617   4.524
 6693SOL    HW220979   4.088   1.470   4.481
 6694SOL     OW20980   3.313   4.462   1.574
 6694SOL    HW120981   3.362   4.377   1.591
 6694SOL    HW220982   3.222   4.441   1.537
 6695SOL     OW20983   1.966   1.926   6.190
 6695SOL    HW120984   2.062   1.955   6.197
 6695SOL    HW220985   1.910   2.006   6.169
 6696SOL     OW20986   4.064   3.615   4.582
 6696SOL    HW120987   4.119   3.536   4.608
 6696SOL    HW220988   4.087   3.644   4.489
 6697SOL     OW20989   4.118   2.189   3.031
 6697SOL    HW120990   4.034   2.137   3.014
 6697SOL    HW220991   4.143   2.181   3.127
 6698SOL     OW20992   3.593   3.961   1.272
 6698SOL    HW120993   3.586   3.924   1.365
 6698SOL    HW220994   3.681   3.936   1.233
 6699SOL     OW20995   0.999   4.200   5.719
 6699SOL    HW120996   1.060   4.257   5.665
 6699SOL    HW220997   0.904   4.220   5.695
 6700SOL     OW20998   5.717   6.769   6.998
 6700SOL    HW120999   5.700   6.710   6.919
 6700SOL    HW221000   5.792   6.832   6.977
 6701SOL     OW21001   5.940   0.675   1.450
 6701SOL    HW121002   6.030   0.709   1.420
 6701SOL    HW221003   5.915   0.594   1.396
 6702SOL     OW21004   3.027   2.937   1.136
 6702SOL    HW121005   3.025   2.937   1.236
 6702SOL    HW221006   3.097   2.873   1.104
 6703SOL     OW21007   0.373   1.198   0.103
 6703SOL    HW121008   0.429   1.206   0.020
 6703SOL    HW221009   0.327   1.285   0.121
 6704SOL     OW21010   2.867   0.173   5.743
 6704SOL    HW121011   2.910   0.087   5.715
 6704SOL    HW221012   2.924   0.219   5.810
 6705SOL     OW21013   6.436   3.723   2.123
 6705SOL    HW121014   6.476   3.642   2.167
 6705SOL    HW221015   6.395   3.782   2.193
 6706SOL     OW21016   0.304   6.843   1.757
 6706SOL    HW121017   0.332   6.933   1.723
 6706SOL    HW221018   0.305   6.843   1.857
 6707SOL     OW21019   5.367   0.189   2.085
 6707SOL    HW121020   5.361   0.240   2.170
 6707SOL    HW221021   5.275   0.179   2.046
 6708SOL     OW21022   0.728   4.004   1.210
 6708SOL    HW121023   0.786   3.925   1.186
 6708SOL    HW221024   0.785   4.085   1.218
 6709SOL     OW21025   1.737   5.018   2.869
 6709SOL    HW121026   1.685   4.934   2.851
 6709SOL    HW221027   1.823   5.015   2.817
 6710SOL     OW21028   4.278   0.928   0.704
 6710SOL    HW121029   4.262   0.834   0.673
 6710SOL    HW221030   4.364   0.962   0.666
 6711SOL     OW21031   3.534   5.713   6.236
 6711SOL    HW121032   3.553   5.652   6.313
 6711SOL    HW221033   3.439   5.702   6.208
 6712SOL     OW21034   5.972   3.808   1.382
 6712SOL    HW121035   6.020   3.759   1.456
 6712SOL    HW221036   5.932   3.741   1.319
 6713SOL     OW21037   1.807   6.384   4.757
 6713SOL    HW121038   1.813   6.296   4.710
 6713SOL    HW221039   1.898   6.416   4.780
 6714SOL     OW21040   4.826   1.496   1.202
 6714SOL    HW121041   4.870   1.482   1.291
 6714SOL    HW221042   4.853   1.422   1.140
 6715SOL     OW21043   1.487   1.059   0.373
 6715SOL    HW121044   1.410   1.121   0.357
 6715SOL    HW221045   1.525   1.076   0.463
 6716SOL     OW21046   6.888   5.544   2.955
 6716SOL    HW121047   6.825   5.576   3.025
 6716SOL    HW221048   6.840   5.534   2.868
 6717SOL     OW21049   4.928   2.063   5.594
 6717SOL    HW121050   4.926   2.163   5.583
 6717SOL    HW221051   4.851   2.035   5.652
 6718SOL     OW21052   3.798   0.972   1.920
 6718SOL    HW121053   3.780   1.042   1.851
 6718SOL    HW221054   3.730   0.978   1.993
 6719SOL     OW21055   1.934   0.787   0.048
 6719SOL    HW121056   1.864   0.858   0.040
 6719SOL    HW221057   1.950   0.767   0.145
 6720SOL     OW21058   1.429   0.394   6.280
 6720SOL    HW121059   1.524   0.426   6.287
 6720SOL    HW221060   1.410   0.331   6.355
 6721SOL     OW21061   6.684   1.494   0.245
 6721SOL    HW121062   6.679   1.455   0.337
 6721SOL    HW221063   6.779   1.491   0.213
 6722SOL     OW21064   6.532   3.147   0.419
 6722SOL    HW121065   6.468   3.101   0.480
 6722SOL    HW221066   6.626   3.127   0.448
 6723SOL     OW21067   1.264   2.421   6.267
 6723SOL    HW121068   1.335   2.371   6.317
 6723SOL    HW221069   1.298   2.444   6.176
 6724SOL     OW21070   2.117   3.552   5.638
 6724SOL    HW121071   2.216   3.564   5.650
 6724SOL    HW221072   2.088   3.595   5.552
 6725SOL     OW21073   5.113   2.717   3.874
 6725SOL    HW121074   5.022   2.687   3.904
 6725SOL    HW221075   5.114   2.724   3.775
 6726SOL     OW21076   0.103   0.745   5.586
 6726SOL    HW121077   0.153   0.748   5.499
 6726SOL    HW221078   0.024   0.806   5.581
 6727SOL     OW21079   1.203   5.015   5.451
 6727SOL    HW121080   1.234   4.983   5.361
 6727SOL    HW221081   1.279   5.007   5.516
 6728SOL     OW21082   3.582   2.031   3.891
 6728SOL    HW121083   3.509   2.020   3.958
 6728SOL    HW221084   3.587   1.951   3.832
 6729SOL     OW21085   4.807   1.354   2.148
 6729SOL    HW121086   4.818   1.452   2.165
 6729SOL    HW221087   4.806   1.338   2.049
 6730SOL     OW21088   0.357   1.348   1.857
 6730SOL    HW121089   0.257   1.354   1.852
 6730SOL    HW221090   0.395   1.351   1.765
 6731SOL     OW21091   3.852   6.589   6.706
 6731SOL    HW121092   3.927   6.616   6.645
 6731SOL    HW221093   3.813   6.503   6.675
 6732SOL     OW21094   6.960   5.814   4.465
 6732SOL    HW121095   6.914   5.726   4.458
 6732SOL    HW221096   6.896   5.887   4.441
 6733SOL     OW21097   4.954   5.261   6.310
 6733SOL    HW121098   4.915   5.346   6.275
 6733SOL    HW221099   5.036   5.238   6.258
 6734SOL     OW21100   6.469   1.250   4.260
 6734SOL    HW121101   6.505   1.315   4.327
 6734SOL    HW221102   6.390   1.202   4.299
 6735SOL     OW21103   6.267   2.780   3.606
 6735SOL    HW121104   6.262   2.697   3.549
 6735SOL    HW221105   6.355   2.781   3.654
 6736SOL     OW21106   3.552   3.904   0.697
 6736SOL    HW121107   3.473   3.847   0.677
 6736SOL    HW221108   3.523   3.998   0.712
 6737SOL     OW21109   0.253   3.812   0.898
 6737SOL    HW121110   0.331   3.834   0.840
 6737SOL    HW221111   0.215   3.897   0.937
 6738SOL     OW21112   1.652   5.701   3.739
 6738SOL    HW121113   1.655   5.610   3.697
 6738SOL    HW221114   1.620   5.768   3.672
 6739SOL     OW21115   6.254   6.906   4.708
 6739SOL    HW121116   6.242   6.815   4.669
 6739SOL    HW221117   6.341   6.945   4.676
 6740SOL     OW21118   0.388   6.632   3.784
 6740SOL    HW121119   0.397   6.675   3.694
 6740SOL    HW221120   0.413   6.536   3.778
 6741SOL     OW21121   4.434   2.033   6.323
 6741SOL    HW121122   4.506   2.013   6.390
 6741SOL    HW221123   4.386   1.949   6.299
 6742SOL     OW21124   5.564   4.637   3.579
 6742SOL    HW121125   5.617   4.651   3.663
 6742SOL    HW221126   5.568   4.541   3.554
 6743SOL     OW21127   4.282   3.952   0.675
 6743SOL    HW121128   4.367   4.002   0.692
 6743SOL    HW221129   4.220   3.964   0.753
 6744SOL     OW21130   0.247   5.931   6.148
 6744SOL    HW121131   0.152   5.910   6.172
 6744SOL    HW221132   0.299   5.846   6.143
 6745SOL     OW21133   6.821   5.676   4.869
 6745SOL    HW121134   6.845   5.685   4.966
 6745SOL    HW221135   6.900   5.700   4.812
 6746SOL     OW21136   1.788   1.869   2.581
 6746SOL    HW121137   1.735   1.865   2.666
 6746SOL    HW221138   1.788   1.963   2.546
 6747SOL     OW21139   1.765   6.421   5.963
 6747SOL    HW121140   1.736   6.490   5.896
 6747SOL    HW221141   1.703   6.423   6.042
 6748SOL     OW21142   2.145   1.201   4.501
 6748SOL    HW121143   2.244   1.207   4.503
 6748SOL    HW221144   2.108   1.282   4.455
 6749SOL     OW21145   3.475   4.970   1.098
 6749SOL    HW121146   3.447   4.936   1.188
 6749SOL    HW221147   3.509   4.894   1.043
 6750SOL     OW21148   3.107   0.976   4.925
 6750SOL    HW121149   3.205   0.961   4.938
 6750SOL    HW221150   3.056   0.925   4.994
 6751SOL     OW21151   4.209   0.305   4.039
 6751SOL    HW121152   4.219   0.213   4.002
 6751SOL    HW221153   4.267   0.315   4.120
 6752SOL     OW21154   2.283   5.997   2.293
 6752SOL    HW121155   2.375   6.001   2.332
 6752SOL    HW221156   2.217   6.033   2.358
 6753SOL     OW21157   3.933   3.098   5.621
 6753SOL    HW121158   3.849   3.052   5.593
 6753SOL    HW221159   3.958   3.070   5.713
 6754SOL     OW21160   5.826   2.077   1.267
 6754SOL    HW121161   5.788   2.167   1.249
 6754SOL    HW221162   5.910   2.086   1.320
 6755SOL     OW21163   2.428   5.519   6.344
 6755SOL    HW121164   2.369   5.472   6.279
 6755SOL    HW221165   2.399   5.614   6.354
 6756SOL     OW21166   2.509   2.361   5.247
 6756SOL    HW121167   2.515   2.454   5.211
 6756SOL    HW221168   2.588   2.308   5.216
 6757SOL     OW21169   3.334   6.797   0.412
 6757SOL    HW121170   3.334   6.896   0.399
 6757SOL    HW221171   3.251   6.758   0.372
 6758SOL     OW21172   6.079   2.338   2.610
 6758SOL    HW121173   6.038   2.429   2.616
 6758SOL    HW221174   6.128   2.317   2.694
 6759SOL     OW21175   0.825   3.127   2.698
 6759SOL    HW121176   0.739   3.132   2.647
 6759SOL    HW221177   0.824   3.046   2.757
 6760SOL     OW21178   5.550   2.361   3.095
 6760SOL    HW121179   5.611   2.440   3.086
 6760SOL    HW221180   5.457   2.393   3.117
 6761SOL     OW21181   4.421   2.105   4.794
 6761SOL    HW121182   4.381   2.197   4.784
 6761SOL    HW221183   4.499   2.109   4.857
 6762SOL     OW21184   6.884   5.663   4.132
 6762SOL    HW121185   6.949   5.587   4.126
 6762SOL    HW221186   6.933   5.749   4.122
 6763SOL     OW21187   4.936   5.440   5.243
 6763SOL    HW121188   5.014   5.497   5.217
 6763SOL    HW221189   4.852   5.482   5.210
 6764SOL     OW21190   1.898   5.179   0.875
 6764SOL    HW121191   1.811   5.167   0.827
 6764SOL    HW221192   1.881   5.216   0.966
 6765SOL     OW21193   6.525   4.980   3.126
 6765SOL    HW121194   6.429   4.973   3.152
 6765SOL    HW221195   6.557   4.891   3.093
 6766SOL     OW21196   5.285   0.612   0.419
 6766SOL    HW121197   5.220   0.638   0.491
 6766SOL    HW221198   5.234   0.587   0.337
 6767SOL     OW21199   2.979   0.585   0.693
 6767SOL    HW121200   3.047   0.623   0.630
 6767SOL    HW221201   3.012   0.595   0.787
 6768SOL     OW21202   1.584   0.687   1.271
 6768SOL    HW121203   1.662   0.630   1.246
 6768SOL    HW221204   1.594   0.778   1.230
 6769SOL     OW21205   4.150   2.759   1.555
 6769SOL    HW121206   4.092   2.781   1.634
 6769SOL    HW221207   4.095   2.760   1.472
 6770SOL     OW21208   6.840   0.200   1.713
 6770SOL    HW121209   6.938   0.182   1.724
 6770SOL    HW221210   6.803   0.235   1.799
 6771SOL     OW21211   4.027   1.952   3.467
 6771SOL    HW121212   4.092   1.879   3.445
 6771SOL    HW221213   3.954   1.954   3.400
 6772SOL     OW21214   2.968   1.912   2.645
 6772SOL    HW121215   2.929   1.878   2.731
 6772SOL    HW221216   3.034   1.845   2.610
 6773SOL     OW21217   6.928   4.484   2.328
 6773SOL    HW121218   6.989   4.438   2.263
 6773SOL    HW221219   6.979   4.512   2.408
 6774SOL     OW21220   0.699   1.945   6.949
 6774SOL    HW121221   0.691   1.855   6.906
 6774SOL    HW221222   0.742   1.935   0.021
 6775SOL     OW21223   2.631   4.828   0.934
 6775SOL    HW121224   2.675   4.760   0.993
 6775SOL    HW221225   2.571   4.781   0.869
 6776SOL     OW21226   5.876   5.232   0.042
 6776SOL    HW121227   5.940   5.263   0.112
 6776SOL    HW221228   5.831   5.148   0.072
 6777SOL     OW21229   4.712   4.697   6.496
 6777SOL    HW121230   4.723   4.700   6.396
 6777SOL    HW221231   4.782   4.754   6.538
 6778SOL     OW21232   0.582   5.278   2.891
 6778SOL    HW121233   0.561   5.371   2.861
 6778SOL    HW221234   0.665   5.279   2.947
 6779SOL     OW21235   0.228   5.173   0.305
 6779SOL    HW121236   0.304   5.149   0.365
 6779SOL    HW221237   0.250   5.257   0.255
 6780SOL     OW21238   0.379   2.610   2.621
 6780SOL    HW121239   0.381   2.516   2.655
 6780SOL    HW221240   0.338   2.670   2.690
 6781SOL     OW21241   5.205   6.154   6.002
 6781SOL    HW121242   5.157   6.125   6.085
 6781SOL    HW221243   5.153   6.226   5.956
 6782SOL     OW21244   0.064   1.424   2.587
 6782SOL    HW121245   0.013   1.419   2.673
 6782SOL    HW221246   0.030   1.502   2.533
 6783SOL     OW21247   0.035   6.327   6.781
 6783SOL    HW121248   0.122   6.297   6.742
 6783SOL    HW221249   6.994   6.248   6.798
 6784SOL     OW21250   3.916   3.951   0.429
 6784SOL    HW121251   3.963   3.863   0.431
 6784SOL    HW221252   3.957   4.013   0.496
 6785SOL     OW21253   5.802   5.813   2.104
 6785SOL    HW121254   5.713   5.842   2.069
 6785SOL    HW221255   5.797   5.806   2.204
 6786SOL     OW21256   1.538   2.882   6.221
 6786SOL    HW121257   1.634   2.874   6.250
 6786SOL    HW221258   1.512   2.979   6.217
 6787SOL     OW21259   1.352   3.571   2.180
 6787SOL    HW121260   1.385   3.515   2.255
 6787SOL    HW221261   1.391   3.538   2.094
 6788SOL     OW21262   3.112   3.766   1.520
 6788SOL    HW121263   3.159   3.845   1.482
 6788SOL    HW221264   3.117   3.768   1.619
 6789SOL     OW21265   0.917   6.533   2.376
 6789SOL    HW121266   0.994   6.475   2.349
 6789SOL    HW221267   0.934   6.627   2.347
 6790SOL     OW21268   1.778   3.003   0.021
 6790SOL    HW121269   1.792   2.942   0.099
 6790SOL    HW221270   1.768   2.949   6.954
 6791SOL     OW21271   4.594   3.155   6.446
 6791SOL    HW121272   4.550   3.084   6.391
 6791SOL    HW221273   4.587   3.243   6.399
 6792SOL     OW21274   6.153   6.380   0.070
 6792SOL    HW121275   6.224   6.313   0.093
 6792SOL    HW221276   6.112   6.355   6.999
 6793SOL     OW21277   1.217   2.788   1.329
 6793SOL    HW121278   1.269   2.873   1.327
 6793SOL    HW221279   1.145   2.791   1.259
 6794SOL     OW21280   4.917   0.922   4.995
 6794SOL    HW121281   4.987   0.958   4.933
 6794SOL    HW221282   4.934   0.825   5.011
 6795SOL     OW21283   3.130   5.732   0.338
 6795SOL    HW121284   3.207   5.677   0.372
 6795SOL    HW221285   3.098   5.793   0.411
 6796SOL     OW21286   5.023   1.563   2.789
 6796SOL    HW121287   5.068   1.652   2.791
 6796SOL    HW221288   5.012   1.529   2.883
 6797SOL     OW21289   5.748   3.702   1.942
 6797SOL    HW121290   5.739   3.801   1.954
 6797SOL    HW221291   5.745   3.680   1.844
 6798SOL     OW21292   5.162   5.674   2.227
 6798SOL    HW121293   5.116   5.753   2.186
 6798SOL    HW221294   5.160   5.597   2.162
 6799SOL     OW21295   5.339   5.855   0.259
 6799SOL    HW121296   5.398   5.917   0.310
 6799SOL    HW221297   5.245   5.890   0.260
 6800SOL     OW21298   1.870   4.635   0.472
 6800SOL    HW121299   1.816   4.611   0.553
 6800SOL    HW221300   1.817   4.614   0.390
 6801SOL     OW21301   1.645   2.640   2.125
 6801SOL    HW121302   1.552   2.658   2.156
 6801SOL    HW221303   1.646   2.556   2.071
 6802SOL     OW21304   2.293   6.285   1.691
 6802SOL    HW121305   2.236   6.365   1.708
 6802SOL    HW221306   2.372   6.312   1.636
 6803SOL     OW21307   5.387   1.915   6.607
 6803SOL    HW121308   5.375   1.935   6.705
 6803SOL    HW221309   5.304   1.873   6.572
 6804SOL     OW21310   1.853   5.758   3.415
 6804SOL    HW121311   1.755   5.765   3.431
 6804SOL    HW221312   1.897   5.846   3.434
 6805SOL     OW21313   6.189   0.425   4.887
 6805SOL    HW121314   6.096   0.444   4.917
 6805SOL    HW221315   6.200   0.327   4.872
 6806SOL     OW21316   4.068   0.876   4.914
 6806SOL    HW121317   3.985   0.930   4.905
 6806SOL    HW221318   4.148   0.934   4.900
 6807SOL     OW21319   3.245   2.488   0.152
 6807SOL    HW121320   3.183   2.411   0.139
 6807SOL    HW221321   3.199   2.574   0.128
 6808SOL     OW21322   0.286   2.825   5.356
 6808SOL    HW121323   0.373   2.828   5.405
 6808SOL    HW221324   0.216   2.872   5.409
 6809SOL     OW21325   2.516   3.816   6.535
 6809SOL    HW121326   2.520   3.757   6.616
 6809SOL    HW221327   2.514   3.912   6.565
 6810SOL     OW21328   0.014   0.832   2.245
 6810SOL    HW121329   0.035   0.781   2.161
 6810SOL    HW221330   0.072   0.799   2.319
 6811SOL     OW21331   6.051   5.060   1.375
 6811SOL    HW121332   6.047   5.108   1.288
 6811SOL    HW221333   6.146   5.040   1.398
 6812SOL     OW21334   4.074   3.183   3.445
 6812SOL    HW121335   4.055   3.197   3.348
 6812SOL    HW221336   3.993   3.144   3.490
 6813SOL     OW21337   4.725   2.488   0.699
 6813SOL    HW121338   4.716   2.570   0.755
 6813SOL    HW221339   4.663   2.417   0.734
 6814SOL     OW21340   2.709   3.736   1.317
 6814SOL    HW121341   2.636   3.732   1.385
 6814SOL    HW221342   2.679   3.692   1.232
 6815SOL     OW21343   2.499   0.572   1.649
 6815SOL    HW121344   2.468   0.636   1.719
 6815SOL    HW221345   2.424   0.512   1.622
 6816SOL     OW21346   6.554   4.775   6.986
 6816SOL    HW121347   6.530   4.685   0.005
 6816SOL    HW221348   6.645   4.770   6.944
 6817SOL     OW21349   6.918   1.536   5.697
 6817SOL    HW121350   6.921   1.544   5.597
 6817SOL    HW221351   6.974   1.609   5.737
 6818SOL     OW21352   3.593   6.421   2.319
 6818SOL    HW121353   3.514   6.452   2.372
 6818SOL    HW221354   3.574   6.332   2.279
 6819SOL     OW21355   3.253   0.681   3.718
 6819SOL    HW121356   3.200   0.758   3.682
 6819SOL    HW221357   3.296   0.633   3.642
 6820SOL     OW21358   1.375   4.453   3.118
 6820SOL    HW121359   1.311   4.384   3.085
 6820SOL    HW221360   1.429   4.415   3.193
 6821SOL     OW21361   2.512   2.519   4.952
 6821SOL    HW121362   2.417   2.509   4.981
 6821SOL    HW221363   2.566   2.559   5.026
 6822SOL     OW21364   5.655   1.923   5.621
 6822SOL    HW121365   5.587   1.889   5.556
 6822SOL    HW221366   5.705   1.999   5.579
 6823SOL     OW21367   2.966   3.274   2.878
 6823SOL    HW121368   2.877   3.300   2.841
 6823SOL    HW221369   3.035   3.282   2.807
 6824SOL     OW21370   0.532   4.218   6.664
 6824SOL    HW121371   0.496   4.156   6.733
 6824SOL    HW221372   0.541   4.310   6.702
 6825SOL     OW21373   4.924   0.093   2.419
 6825SOL    HW121374   4.867   0.011   2.417
 6825SOL    HW221375   4.872   0.171   2.387
 6826SOL     OW21376   2.098   3.329   2.863
 6826SOL    HW121377   2.014   3.284   2.896
 6826SOL    HW221378   2.154   3.262   2.814
 6827SOL     OW21379   5.581   6.056   6.507
 6827SOL    HW121380   5.594   6.053   6.606
 6827SOL    HW221381   5.488   6.087   6.487
 6828SOL     OW21382   1.184   2.129   1.242
 6828SOL    HW121383   1.133   2.108   1.326
 6828SOL    HW221384   1.120   2.145   1.167
 6829SOL     OW21385   5.069   6.141   3.672
 6829SOL    HW121386   5.155   6.137   3.723
 6829SOL    HW221387   5.001   6.081   3.715
 6830SOL     OW21388   5.277   1.658   3.628
 6830SOL    HW121389   5.305   1.747   3.663
 6830SOL    HW221390   5.312   1.586   3.688
 6831SOL     OW21391   0.760   0.695   5.392
 6831SOL    HW121392   0.679   0.669   5.445
 6831SOL    HW221393   0.733   0.755   5.317
 6832SOL     OW21394   3.034   5.035   2.420
 6832SOL    HW121395   3.007   5.019   2.325
 6832SOL    HW221396   3.129   5.007   2.432
 6833SOL     OW21397   3.438   4.692   6.800
 6833SOL    HW121398   3.489   4.770   6.837
 6833SOL    HW221399   3.499   4.636   6.744
 6834SOL     OW21400   3.951   6.341   2.116
 6834SOL    HW121401   3.906   6.292   2.041
 6834SOL    HW221402   3.962   6.279   2.193
 6835SOL     OW21403   3.643   6.757   4.828
 6835SOL    HW121404   3.737   6.790   4.839
 6835SOL    HW221405   3.580   6.822   4.872
 6836SOL     OW21406   3.512   6.431   6.927
 6836SOL    HW121407   3.567   6.356   6.892
 6836SOL    HW221408   3.529   6.442   0.007
 6837SOL     OW21409   1.763   3.289   1.914
 6837SOL    HW121410   1.766   3.335   1.825
 6837SOL    HW221411   1.846   3.310   1.965
 6838SOL     OW21412   2.143   1.471   6.951
 6838SOL    HW121413   2.047   1.465   6.978
 6838SOL    HW221414   2.150   1.506   6.858
 6839SOL     OW21415   4.224   1.073   0.410
 6839SOL    HW121416   4.220   0.987   0.361
 6839SOL    HW221417   4.303   1.074   0.471
 6840SOL     OW21418   1.729   1.530   6.400
 6840SOL    HW121419   1.807   1.591   6.412
 6840SOL    HW221420   1.655   1.557   6.462
 6841SOL     OW21421   6.511   2.964   6.034
 6841SOL    HW121422   6.456   2.996   6.111
 6841SOL    HW221423   6.455   2.909   5.972
 6842SOL     OW21424   2.545   5.497   2.186
 6842SOL    HW121425   2.523   5.516   2.281
 6842SOL    HW221426   2.599   5.572   2.148
 6843SOL     OW21427   4.562   7.005   6.617
 6843SOL    HW121428   4.472   0.005   6.576
 6843SOL    HW221429   4.574   6.907   6.631
 6844SOL     OW21430   5.391   0.719   5.059
 6844SOL    HW121431   5.314   0.712   5.122
 6844SOL    HW221432   5.432   0.810   5.066
 6845SOL     OW21433   4.949   2.683   2.990
 6845SOL    HW121434   4.898   2.769   2.988
 6845SOL    HW221435   4.894   2.611   3.032
 6846SOL     OW21436   2.950   3.610   0.488
 6846SOL    HW121437   2.895   3.568   0.416
 6846SOL    HW221438   3.030   3.553   0.507
 6847SOL     OW21439   6.190   3.813   4.177
 6847SOL    HW121440   6.157   3.795   4.085
 6847SOL    HW221441   6.204   3.726   4.225
 6848SOL     OW21442   5.246   4.727   3.454
 6848SOL    HW121443   5.191   4.647   3.479
 6848SOL    HW221444   5.213   4.765   3.368
 6849SOL     OW21445   3.744   3.836   6.507
 6849SOL    HW121446   3.805   3.905   6.546
 6849SOL    HW221447   3.701   3.872   6.424
 6850SOL     OW21448   4.056   1.206   3.523
 6850SOL    HW121449   4.094   1.154   3.599
 6850SOL    HW221450   3.989   1.271   3.557
 6851SOL     OW21451   1.826   3.047   3.439
 6851SOL    HW121452   1.841   3.144   3.457
 6851SOL    HW221453   1.882   3.018   3.361
 6852SOL     OW21454   2.862   5.589   0.534
 6852SOL    HW121455   2.893   5.601   0.628
 6852SOL    HW221456   2.933   5.543   0.481
 6853SOL     OW21457   4.796   3.031   6.893
 6853SOL    HW121458   4.782   3.020   6.795
 6853SOL    HW221459   4.880   3.084   6.909
 6854SOL     OW21460   5.364   6.317   6.182
 6854SOL    HW121461   5.289   6.265   6.224
 6854SOL    HW221462   5.362   6.304   6.083
 6855SOL     OW21463   4.275   5.000   3.857
 6855SOL    HW121464   4.343   5.030   3.789
 6855SOL    HW221465   4.208   4.941   3.813
 6856SOL     OW21466   1.240   1.817   6.978
 6856SOL    HW121467   1.326   1.861   7.003
 6856SOL    HW221468   1.255   1.758   6.898
 6857SOL     OW21469   1.273   3.936   5.528
 6857SOL    HW121470   1.288   4.028   5.565
 6857SOL    HW221471   1.266   3.871   5.603
 6858SOL     OW21472   2.886   4.224   1.585
 6858SOL    HW121473   2.815   4.285   1.619
 6858SOL    HW221474   2.942   4.192   1.662
 6859SOL     OW21475   0.912   1.283   2.622
 6859SOL    HW121476   0.893   1.298   2.525
 6859SOL    HW221477   0.869   1.355   2.676
 6860SOL     OW21478   0.887   6.733   2.097
 6860SOL    HW121479   0.899   6.649   2.044
 6860SOL    HW221480   0.977   6.770   2.122
 6861SOL     OW21481   4.837   2.085   5.099
 6861SOL    HW121482   4.795   2.105   5.187
 6861SOL    HW221483   4.935   2.102   5.104
 6862SOL     OW21484   0.737   4.877   5.344
 6862SOL    HW121485   0.810   4.886   5.411
 6862SOL    HW221486   0.675   4.803   5.372
 6863SOL     OW21487   6.584   7.008   5.197
 6863SOL    HW121488   6.671   6.967   5.170
 6863SOL    HW221489   6.517   6.995   5.124
 6864SOL     OW21490   1.607   3.989   5.782
 6864SOL    HW121491   1.637   3.894   5.775
 6864SOL    HW221492   1.546   3.998   5.861
 6865SOL     OW21493   2.162   6.795   4.137
 6865SOL    HW121494   2.137   6.887   4.109
 6865SOL    HW221495   2.221   6.754   4.067
 6866SOL     OW21496   0.560   4.133   1.598
 6866SOL    HW121497   0.585   4.048   1.552
 6866SOL    HW221498   0.478   4.170   1.555
 6867SOL     OW21499   2.344   3.527   0.176
 6867SOL    HW121500   2.264   3.528   0.117
 6867SOL    HW221501   2.397   3.444   0.159
 6868SOL     OW21502   2.494   4.902   4.461
 6868SOL    HW121503   2.495   4.936   4.555
 6868SOL    HW221504   2.490   4.979   4.398
 6869SOL     OW21505   3.921   0.253   6.052
 6869SOL    HW121506   3.928   0.350   6.030
 6869SOL    HW221507   4.008   0.221   6.089
 6870SOL     OW21508   0.046   2.952   0.480
 6870SOL    HW121509   0.069   3.045   0.453
 6870SOL    HW221510   0.083   2.888   0.413
 6871SOL     OW21511   0.525   3.840   2.565
 6871SOL    HW121512   0.487   3.932   2.577
 6871SOL    HW221513   0.562   3.808   2.652
 6872SOL     OW21514   2.527   3.179   0.857
 6872SOL    HW121515   2.507   3.144   0.948
 6872SOL    HW221516   2.457   3.245   0.830
 6873SOL     OW21517   1.118   4.166   4.663
 6873SOL    HW121518   1.023   4.169   4.631
 6873SOL    HW221519   1.167   4.093   4.614
 6874SOL     OW21520   5.434   6.335   2.853
 6874SOL    HW121521   5.410   6.429   2.829
 6874SOL    HW221522   5.359   6.294   2.904
 6875SOL     OW21523   1.765   2.833   1.282
 6875SOL    HW121524   1.689   2.862   1.223
 6875SOL    HW221525   1.754   2.736   1.304
 6876SOL     OW21526   4.499   5.710   3.025
 6876SOL    HW121527   4.431   5.784   3.023
 6876SOL    HW221528   4.525   5.691   3.119
 6877SOL     OW21529   1.464   3.505   2.411
 6877SOL    HW121530   1.546   3.562   2.403
 6877SOL    HW221531   1.478   3.437   2.482
 6878SOL     OW21532   1.951   0.488   4.103
 6878SOL    HW121533   1.859   0.512   4.134
 6878SOL    HW221534   1.999   0.571   4.075
 6879SOL     OW21535   1.912   1.977   0.407
 6879SOL    HW121536   1.994   1.942   0.453
 6879SOL    HW221537   1.902   1.932   0.318
 6880SOL     OW21538   1.468   5.158   6.597
 6880SOL    HW121539   1.455   5.064   6.564
 6880SOL    HW221540   1.463   5.221   6.520
 6881SOL     OW21541   1.171   3.245   0.662
 6881SOL    HW121542   1.182   3.344   0.652
 6881SOL    HW221543   1.189   3.201   0.574
 6882SOL     OW21544   2.551   6.258   6.873
 6882SOL    HW121545   2.617   6.285   6.802
 6882SOL    HW221546   2.593   6.189   6.932
 6883SOL     OW21547   4.666   0.260   0.247
 6883SOL    HW121548   4.751   0.312   0.238
 6883SOL    HW221549   4.596   0.300   0.189
 6884SOL     OW21550   1.935   3.924   3.011
 6884SOL    HW121551   1.918   3.947   2.915
 6884SOL    HW221552   1.880   3.985   3.070
 6885SOL     OW21553   5.447   5.915   4.202
 6885SOL    HW121554   5.405   6.006   4.207
 6885SOL    HW221555   5.524   5.918   4.138
 6886SOL     OW21556   4.913   2.117   6.523
 6886SOL    HW121557   4.911   2.131   6.622
 6886SOL    HW221558   4.998   2.071   6.498
 6887SOL     OW21559   5.331   6.026   6.401
 6887SOL    HW121560   5.283   5.996   6.484
 6887SOL    HW221561   5.348   5.947   6.343
 6888SOL     OW21562   5.886   5.089   6.603
 6888SOL    HW121563   5.804   5.146   6.615
 6888SOL    HW221564   5.930   5.075   6.691
 6889SOL     OW21565   0.533   2.150   6.756
 6889SOL    HW121566   0.629   2.179   6.765
 6889SOL    HW221567   0.473   2.228   6.774
 6890SOL     OW21568   4.495   5.352   2.675
 6890SOL    HW121569   4.576   5.293   2.676
 6890SOL    HW221570   4.444   5.337   2.591
 6891SOL     OW21571   1.788   1.131   0.948
 6891SOL    HW121572   1.711   1.084   0.991
 6891SOL    HW221573   1.768   1.228   0.938
 6892SOL     OW21574   3.038   0.853   4.222
 6892SOL    HW121575   3.008   0.872   4.129
 6892SOL    HW221576   2.986   0.909   4.286
 6893SOL     OW21577   6.807   2.948   6.793
 6893SOL    HW121578   6.852   2.977   6.877
 6893SOL    HW221579   6.723   2.899   6.815
 6894SOL     OW21580   5.306   5.341   0.601
 6894SOL    HW121581   5.384   5.362   0.541
 6894SOL    HW221582   5.332   5.269   0.665
 6895SOL     OW21583   0.820   6.102   1.727
 6895SOL    HW121584   0.887   6.160   1.680
 6895SOL    HW221585   0.728   6.130   1.702
 6896SOL     OW21586   4.251   2.328   4.752
 6896SOL    HW121587   4.227   2.404   4.812
 6896SOL    HW221588   4.180   2.257   4.759
 6897SOL     OW21589   5.010   3.618   5.125
 6897SOL    HW121590   4.927   3.594   5.076
 6897SOL    HW221591   4.991   3.626   5.223
 6898SOL     OW21592   2.348   1.276   0.971
 6898SOL    HW121593   2.437   1.321   0.982
 6898SOL    HW221594   2.279   1.325   1.023
 6899SOL     OW21595   5.893   6.096   2.571
 6899SOL    HW121596   5.889   6.134   2.664
 6899SOL    HW221597   5.802   6.069   2.542
 6900SOL     OW21598   6.590   4.262   5.448
 6900SOL    HW121599   6.652   4.335   5.419
 6900SOL    HW221600   6.571   4.202   5.370
 6901SOL     OW21601   4.827   4.482   0.103
 6901SOL    HW121602   4.876   4.428   0.034
 6901SOL    HW221603   4.738   4.508   0.067
 6902SOL     OW21604   0.571   5.860   6.664
 6902SOL    HW121605   0.607   5.870   6.757
 6902SOL    HW221606   0.605   5.775   6.624
 6903SOL     OW21607   2.114   5.198   4.415
 6903SOL    HW121608   2.061   5.224   4.495
 6903SOL    HW221609   2.085   5.108   4.383
 6904SOL     OW21610   6.783   6.440   4.913
 6904SOL    HW121611   6.749   6.526   4.876
 6904SOL    HW221612   6.754   6.365   4.854
 6905SOL     OW21613   4.990   5.853   6.082
 6905SOL    HW121614   4.980   5.916   6.006
 6905SOL    HW221615   4.921   5.780   6.075
 6906SOL     OW21616   3.861   1.412   3.576
 6906SOL    HW121617   3.771   1.393   3.537
 6906SOL    HW221618   3.890   1.504   3.551
 6907SOL     OW21619   6.363   1.758   0.877
 6907SOL    HW121620   6.294   1.743   0.948
 6907SOL    HW221621   6.412   1.842   0.896
 6908SOL     OW21622   2.709   4.427   0.102
 6908SOL    HW121623   2.623   4.382   0.128
 6908SOL    HW221624   2.777   4.358   0.078
 6909SOL     OW21625   6.000   5.864   2.360
 6909SOL    HW121626   5.936   5.846   2.436
 6909SOL    HW221627   6.085   5.901   2.397
 6910SOL     OW21628   1.746   3.000   3.710
 6910SOL    HW121629   1.775   3.082   3.759
 6910SOL    HW221630   1.773   3.006   3.614
 6911SOL     OW21631   2.690   6.730   6.023
 6911SOL    HW121632   2.649   6.638   6.026
 6911SOL    HW221633   2.626   6.796   6.062
 6912SOL     OW21634   2.800   3.463   6.131
 6912SOL    HW121635   2.826   3.510   6.047
 6912SOL    HW221636   2.703   3.477   6.149
 6913SOL     OW21637   4.591   6.341   6.063
 6913SOL    HW121638   4.594   6.277   6.140
 6913SOL    HW221639   4.577   6.433   6.097
 6914SOL     OW21640   6.579   3.407   1.597
 6914SOL    HW121641   6.519   3.327   1.589
 6914SOL    HW221642   6.573   3.462   1.514
 6915SOL     OW21643   0.761   3.396   2.862
 6915SOL    HW121644   0.711   3.456   2.924
 6915SOL    HW221645   0.784   3.310   2.909
 6916SOL     OW21646   4.447   6.446   0.047
 6916SOL    HW121647   4.464   6.536   0.085
 6916SOL    HW221648   4.499   6.435   6.979
 6917SOL     OW21649   5.482   5.186   1.382
 6917SOL    HW121650   5.577   5.168   1.409
 6917SOL    HW221651   5.441   5.102   1.345
 6918SOL     OW21652   2.177   3.132   1.607
 6918SOL    HW121653   2.189   3.140   1.706
 6918SOL    HW221654   2.192   3.220   1.563
 6919SOL     OW21655   6.388   6.153   3.401
 6919SOL    HW121656   6.298   6.108   3.400
 6919SOL    HW221657   6.457   6.086   3.428
 6920SOL     OW21658   5.652   0.411   5.486
 6920SOL    HW121659   5.685   0.340   5.549
 6920SOL    HW221660   5.578   0.374   5.430
 6921SOL     OW21661   3.904   0.149   4.275
 6921SOL    HW121662   3.873   0.208   4.350
 6921SOL    HW221663   4.002   0.135   4.282
 6922SOL     OW21664   1.051   5.539   5.807
 6922SOL    HW121665   1.075   5.550   5.711
 6922SOL    HW221666   1.109   5.597   5.864
 6923SOL     OW21667   6.215   7.008   2.368
 6923SOL    HW121668   6.207   6.924   2.313
 6923SOL    HW221669   6.291   0.045   2.335
 6924SOL     OW21670   3.548   6.535   0.936
 6924SOL    HW121671   3.469   6.592   0.912
 6924SOL    HW221672   3.612   6.533   0.859
 6925SOL     OW21673   6.015   6.376   6.255
 6925SOL    HW121674   5.955   6.302   6.225
 6925SOL    HW221675   6.108   6.341   6.265
 6926SOL     OW21676   2.837   2.076   0.175
 6926SOL    HW121677   2.835   2.104   0.079
 6926SOL    HW221678   2.848   1.977   0.181
 6927SOL     OW21679   4.743   0.911   0.637
 6927SOL    HW121680   4.815   0.934   0.702
 6927SOL    HW221681   4.755   0.964   0.553
 6928SOL     OW21682   4.307   5.161   1.130
 6928SOL    HW121683   4.286   5.101   1.207
 6928SOL    HW221684   4.316   5.107   1.047
 6929SOL     OW21685   6.164   5.490   1.157
 6929SOL    HW121686   6.232   5.517   1.089
 6929SOL    HW221687   6.172   5.549   1.238
 6930SOL     OW21688   1.008   0.013   0.556
 6930SOL    HW121689   0.948   0.085   0.522
 6930SOL    HW221690   1.012   0.018   0.656
 6931SOL     OW21691   2.836   3.139   1.128
 6931SOL    HW121692   2.791   3.162   1.213
 6931SOL    HW221693   2.899   3.063   1.143
 6932SOL     OW21694   4.597   5.521   0.120
 6932SOL    HW121695   4.511   5.471   0.106
 6932SOL    HW221696   4.666   5.459   0.157
 6933SOL     OW21697   3.047   5.015   6.351
 6933SOL    HW121698   3.130   5.069   6.367
 6933SOL    HW221699   2.984   5.028   6.427
 6934SOL     OW21700   5.353   4.100   6.815
 6934SOL    HW121701   5.326   4.005   6.803
 6934SOL    HW221702   5.334   4.129   6.909
 6935SOL     OW21703   5.201   5.398   1.515
 6935SOL    HW121704   5.200   5.307   1.555
 6935SOL    HW221705   5.284   5.410   1.461
 6936SOL     OW21706   0.801   1.996   4.729
 6936SOL    HW121707   0.875   1.973   4.667
 6936SOL    HW221708   0.838   2.009   4.821
 6937SOL     OW21709   5.357   5.566   0.353
 6937SOL    HW121710   5.323   5.658   0.371
 6937SOL    HW221711   5.290   5.515   0.299
 6938SOL     OW21712   1.340   0.615   4.900
 6938SOL    HW121713   1.413   0.562   4.942
 6938SOL    HW221714   1.264   0.624   4.965
 6939SOL     OW21715   5.831   4.242   3.953
 6939SOL    HW121716   5.873   4.165   4.001
 6939SOL    HW221717   5.790   4.305   4.020
 6940SOL     OW21718   3.331   6.680   0.844
 6940SOL    HW121719   3.286   6.758   0.800
 6940SOL    HW221720   3.288   6.662   0.932
 6941SOL     OW21721   3.525   3.511   2.486
 6941SOL    HW121722   3.541   3.505   2.585
 6941SOL    HW221723   3.613   3.510   2.438
 6942SOL     OW21724   6.255   6.620   1.780
 6942SOL    HW121725   6.313   6.550   1.822
 6942SOL    HW221726   6.167   6.579   1.754
 6943SOL     OW21727   4.724   5.133   6.388
 6943SOL    HW121728   4.672   5.211   6.420
 6943SOL    HW221729   4.819   5.160   6.373
 6944SOL     OW21730   1.321   4.086   5.097
 6944SOL    HW121731   1.402   4.132   5.130
 6944SOL    HW221732   1.288   4.021   5.166
 6945SOL     OW21733   5.523   2.645   1.087
 6945SOL    HW121734   5.436   2.679   1.124
 6945SOL    HW221735   5.596   2.664   1.152
 6946SOL     OW21736   4.493   5.884   2.386
 6946SOL    HW121737   4.477   5.875   2.484
 6946SOL    HW221738   4.439   5.961   2.351
 6947SOL     OW21739   4.939   5.095   5.617
 6947SOL    HW121740   4.996   5.014   5.604
 6947SOL    HW221741   4.938   5.149   5.533
 6948SOL     OW21742   0.565   4.896   0.074
 6948SOL    HW121743   0.659   4.867   0.090
 6948SOL    HW221744   0.516   4.826   0.023
 6949SOL     OW21745   2.689   1.725   3.864
 6949SOL    HW121746   2.655   1.708   3.957
 6949SOL    HW221747   2.713   1.821   3.855
 6950SOL     OW21748   0.849   0.519   4.709
 6950SOL    HW121749   0.911   0.483   4.779
 6950SOL    HW221750   0.756   0.523   4.746
 6951SOL     OW21751   0.145   5.053   6.040
 6951SOL    HW121752   0.149   5.125   6.109
 6951SOL    HW221753   0.231   5.003   6.039
 6952SOL     OW21754   3.870   5.695   3.290
 6952SOL    HW121755   3.845   5.789   3.265
 6952SOL    HW221756   3.950   5.697   3.351
 6953SOL     OW21757   4.946   1.327   1.019
 6953SOL    HW121758   5.013   1.254   1.004
 6953SOL    HW221759   4.992   1.416   1.017
 6954SOL     OW21760   6.185   3.776   0.302
 6954SOL    HW121761   6.087   3.755   0.297
 6954SOL    HW221762   6.236   3.693   0.325
 6955SOL     OW21763   5.042   6.768   2.230
 6955SOL    HW121764   5.047   6.760   2.330
 6955SOL    HW221765   5.117   6.717   2.189
 6956SOL     OW21766   5.407   5.487   2.433
 6956SOL    HW121767   5.393   5.420   2.506
 6956SOL    HW221768   5.323   5.539   2.419
 6957SOL     OW21769   5.373   5.775   6.310
 6957SOL    HW121770   5.319   5.714   6.366
 6957SOL    HW221771   5.357   5.755   6.213
 6958SOL     OW21772   2.868   3.344   3.823
 6958SOL    HW121773   2.888   3.257   3.778
 6958SOL    HW221774   2.923   3.352   3.906
 6959SOL     OW21775   1.111   4.245   2.730
 6959SOL    HW121776   1.197   4.292   2.750
 6959SOL    HW221777   1.052   4.247   2.811
 6960SOL     OW21778   3.131   4.519   0.421
 6960SOL    HW121779   3.041   4.528   0.377
 6960SOL    HW221780   3.119   4.482   0.514
 6961SOL     OW21781   4.631   1.828   5.469
 6961SOL    HW121782   4.585   1.896   5.412
 6961SOL    HW221783   4.564   1.762   5.504
 6962SOL     OW21784   2.706   0.050   6.712
 6962SOL    HW121785   2.785   0.013   6.664
 6962SOL    HW221786   2.646   0.097   6.648
 6963SOL     OW21787   4.736   6.441   0.756
 6963SOL    HW121788   4.825   6.408   0.724
 6963SOL    HW221789   4.689   6.368   0.805
 6964SOL     OW21790   1.677   6.851   5.525
 6964SOL    HW121791   1.681   6.755   5.498
 6964SOL    HW221792   1.768   6.891   5.519
 6965SOL     OW21793   0.779   1.886   0.226
 6965SOL    HW121794   0.769   1.788   0.241
 6965SOL    HW221795   0.873   1.906   0.196
 6966SOL     OW21796   1.341   6.771   1.546
 6966SOL    HW121797   1.246   6.794   1.568
 6966SOL    HW221798   1.396   6.855   1.549
 6967SOL     OW21799   4.608   1.697   5.987
 6967SOL    HW121800   4.635   1.601   5.979
 6967SOL    HW221801   4.517   1.710   5.946
 6968SOL     OW21802   4.028   6.228   2.374
 6968SOL    HW121803   4.109   6.284   2.357
 6968SOL    HW221804   4.041   6.172   2.456
 6969SOL     OW21805   1.927   1.506   1.620
 6969SOL    HW121806   1.893   1.506   1.714
 6969SOL    HW221807   1.964   1.416   1.597
 6970SOL     OW21808   3.698   4.907   5.697
 6970SOL    HW121809   3.633   4.848   5.649
 6970SOL    HW221810   3.782   4.856   5.714
 6971SOL     OW21811   6.987   4.599   0.160
 6971SOL    HW121812   6.895   4.623   0.192
 6971SOL    HW221813   6.981   4.520   0.099
 6972SOL     OW21814   5.382   3.515   2.055
 6972SOL    HW121815   5.329   3.530   1.971
 6972SOL    HW221816   5.324   3.469   2.122
 6973SOL     OW21817   1.131   3.242   3.270
 6973SOL    HW121818   1.187   3.320   3.241
 6973SOL    HW221819   1.188   3.176   3.319
 6974SOL     OW21820   3.742   4.111   2.621
 6974SOL    HW121821   3.753   4.090   2.718
 6974SOL    HW221822   3.646   4.101   2.596
 6975SOL     OW21823   3.010   5.728   4.713
 6975SOL    HW121824   2.920   5.710   4.671
 6975SOL    HW221825   3.010   5.819   4.754
 6976SOL     OW21826   4.625   3.826   6.132
 6976SOL    HW121827   4.686   3.869   6.198
 6976SOL    HW221828   4.541   3.796   6.177
 6977SOL     OW21829   4.051   4.658   0.935
 6977SOL    HW121830   4.149   4.644   0.949
 6977SOL    HW221831   4.035   4.754   0.909
 6978SOL     OW21832   5.761   3.673   1.663
 6978SOL    HW121833   5.745   3.715   1.574
 6978SOL    HW221834   5.740   3.575   1.658
 6979SOL     OW21835   1.291   4.037   1.750
 6979SOL    HW121836   1.330   4.035   1.842
 6979SOL    HW221837   1.333   3.965   1.694
 6980SOL     OW21838   1.859   6.019   3.131
 6980SOL    HW121839   1.873   6.021   3.230
 6980SOL    HW221840   1.947   6.000   3.087
 6981SOL     OW21841   3.924   2.766   6.844
 6981SOL    HW121842   4.001   2.724   6.796
 6981SOL    HW221843   3.895   2.848   6.794
 6982SOL     OW21844   1.960   1.013   3.595
 6982SOL    HW121845   2.039   0.982   3.647
 6982SOL    HW221846   1.877   0.969   3.630
 6983SOL     OW21847   5.073   0.304   4.510
 6983SOL    HW121848   5.054   0.211   4.540
 6983SOL    HW221849   5.027   0.322   4.423
 6984SOL     OW21850   0.658   2.548   3.346
 6984SOL    HW121851   0.689   2.617   3.281
 6984SOL    HW221852   0.568   2.574   3.381
 6985SOL     OW21853   6.271   3.521   0.247
 6985SOL    HW121854   6.276   3.539   0.148
 6985SOL    HW221855   6.323   3.439   0.268
 6986SOL     OW21856   4.349   5.169   5.557
 6986SOL    HW121857   4.305   5.091   5.600
 6986SOL    HW221858   4.444   5.175   5.588
 6987SOL     OW21859   0.887   1.693   6.075
 6987SOL    HW121860   0.831   1.687   5.992
 6987SOL    HW221861   0.941   1.609   6.085
 6988SOL     OW21862   3.690   1.563   6.370
 6988SOL    HW121863   3.623   1.538   6.301
 6988SOL    HW221864   3.728   1.480   6.411
 6989SOL     OW21865   0.286   5.297   2.597
 6989SOL    HW121866   0.342   5.232   2.546
 6989SOL    HW221867   0.247   5.364   2.534
 6990SOL     OW21868   3.681   2.406   0.994
 6990SOL    HW121869   3.721   2.480   0.941
 6990SOL    HW221870   3.751   2.361   1.048
 6991SOL     OW21871   6.155   3.612   2.105
 6991SOL    HW121872   6.071   3.664   2.115
 6991SOL    HW221873   6.233   3.675   2.101
 6992SOL     OW21874   0.768   6.070   0.157
 6992SOL    HW121875   0.674   6.049   0.185
 6992SOL    HW221876   0.827   6.071   0.237
 6993SOL     OW21877   4.413   1.180   1.885
 6993SOL    HW121878   4.513   1.178   1.884
 6993SOL    HW221879   4.377   1.114   1.818
 6994SOL     OW21880   2.798   0.432   3.500
 6994SOL    HW121881   2.867   0.408   3.568
 6994SOL    HW221882   2.715   0.379   3.517
 6995SOL     OW21883   0.098   3.977   1.235
 6995SOL    HW121884   0.099   3.990   1.334
 6995SOL    HW221885   0.006   3.953   1.205
 6996SOL     OW21886   1.112   1.167   0.048
 6996SOL    HW121887   1.150   1.180   0.139
 6996SOL    HW221888   1.016   1.140   0.055
 6997SOL     OW21889   5.830   5.266   5.523
 6997SOL    HW121890   5.809   5.169   5.518
 6997SOL    HW221891   5.806   5.301   5.614
 6998SOL     OW21892   6.431   1.163   0.226
 6998SOL    HW121893   6.435   1.245   0.169
 6998SOL    HW221894   6.430   1.189   0.322
 6999SOL     OW21895   0.308   3.705   0.499
 6999SOL    HW121896   0.227   3.726   0.445
 6999SOL    HW221897   0.382   3.767   0.472
 7000SOL     OW21898   6.893   6.786   3.456
 7000SOL    HW121899   6.793   6.785   3.447
 7000SOL    HW221900   6.930   6.698   3.427
 7001SOL     OW21901   0.462   1.789   4.302
 7001SOL    HW121902   0.442   1.775   4.399
 7001SOL    HW221903   0.388   1.749   4.247
 7002SOL     OW21904   0.087   5.143   2.722
 7002SOL    HW121905   0.157   5.215   2.723
 7002SOL    HW221906   0.009   5.171   2.778
 7003SOL     OW21907   6.484   4.840   1.230
 7003SOL    HW121908   6.550   4.902   1.188
 7003SOL    HW221909   6.531   4.757   1.261
 7004SOL     OW21910   1.813   6.475   0.474
 7004SOL    HW121911   1.843   6.383   0.498
 7004SOL    HW221912   1.803   6.482   0.374
 7005SOL     OW21913   1.029   6.462   0.300
 7005SOL    HW121914   1.065   6.380   0.256
 7005SOL    HW221915   0.971   6.436   0.377
 7006SOL     OW21916   1.240   0.289   4.910
 7006SOL    HW121917   1.306   0.235   4.858
 7006SOL    HW221918   1.272   0.383   4.918
 7007SOL     OW21919   2.894   6.947   5.934
 7007SOL    HW121920   2.860   6.853   5.938
 7007SOL    HW221921   2.924   6.968   5.841
 7008SOL     OW21922   5.867   3.963   3.765
 7008SOL    HW121923   5.799   3.942   3.836
 7008SOL    HW221924   5.846   3.910   3.683
 7009SOL     OW21925   4.500   5.333   1.720
 7009SOL    HW121926   4.561   5.270   1.672
 7009SOL    HW221927   4.503   5.314   1.818
 7010SOL     OW21928   5.334   4.177   1.664
 7010SOL    HW121929   5.391   4.097   1.647
 7010SOL    HW221930   5.247   4.149   1.704
 7011SOL     OW21931   3.144   6.030   6.759
 7011SOL    HW121932   3.176   5.940   6.791
 7011SOL    HW221933   3.081   6.068   6.826
 7012SOL     OW21934   6.693   2.370   0.262
 7012SOL    HW121935   6.732   2.281   0.285
 7012SOL    HW221936   6.601   2.359   0.225
 7013SOL     OW21937   2.817   1.447   0.248
 7013SOL    HW121938   2.735   1.445   0.306
 7013SOL    HW221939   2.882   1.377   0.279
 7014SOL     OW21940   6.428   2.823   1.497
 7014SOL    HW121941   6.505   2.881   1.470
 7014SOL    HW221942   6.352   2.881   1.527
 7015SOL     OW21943   5.257   6.263   0.857
 7015SOL    HW121944   5.329   6.219   0.911
 7015SOL    HW221945   5.297   6.303   0.775
 7016SOL     OW21946   3.294   4.633   0.905
 7016SOL    HW121947   3.259   4.642   0.812
 7016SOL    HW221948   3.241   4.563   0.953
 7017SOL     OW21949   4.925   5.281   4.550
 7017SOL    HW121950   4.857   5.217   4.515
 7017SOL    HW221951   4.879   5.365   4.580
 7018SOL     OW21952   4.677   2.781   4.279
 7018SOL    HW121953   4.688   2.855   4.211
 7018SOL    HW221954   4.636   2.702   4.235
 7019SOL     OW21955   4.579   5.010   2.208
 7019SOL    HW121956   4.574   4.961   2.121
 7019SOL    HW221957   4.487   5.024   2.243
 7020SOL     OW21958   0.523   2.504   6.563
 7020SOL    HW121959   0.533   2.424   6.505
 7020SOL    HW221960   0.519   2.586   6.507
 7021SOL     OW21961   1.055   1.605   5.392
 7021SOL    HW121962   1.019   1.690   5.432
 7021SOL    HW221963   1.126   1.627   5.326
 7022SOL     OW21964   3.799   1.472   0.644
 7022SOL    HW121965   3.777   1.421   0.727
 7022SOL    HW221966   3.729   1.542   0.628
 7023SOL     OW21967   0.824   2.157   1.123
 7023SOL    HW121968   0.859   2.078   1.174
 7023SOL    HW221969   0.813   2.235   1.184
 7024SOL     OW21970   3.677   3.401   4.100
 7024SOL    HW121971   3.752   3.336   4.114
 7024SOL    HW221972   3.602   3.380   4.162
 7025SOL     OW21973   3.905   6.421   0.610
 7025SOL    HW121974   3.976   6.461   0.667
 7025SOL    HW221975   3.923   6.323   0.598
 7026SOL     OW21976   4.005   2.244   1.384
 7026SOL    HW121977   3.993   2.166   1.446
 7026SOL    HW221978   3.980   2.328   1.431
 7027SOL     OW21979   2.291   5.397   2.112
 7027SOL    HW121980   2.382   5.436   2.126
 7027SOL    HW221981   2.250   5.436   2.030
 7028SOL     OW21982   2.984   0.359   3.288
 7028SOL    HW121983   3.009   0.449   3.253
 7028SOL    HW221984   2.911   0.368   3.355
 7029SOL     OW21985   3.308   3.661   5.079
 7029SOL    HW121986   3.346   3.732   5.138
 7029SOL    HW221987   3.211   3.680   5.063
 7030SOL     OW21988   6.391   1.548   5.210
 7030SOL    HW121989   6.321   1.546   5.139
 7030SOL    HW221990   6.405   1.456   5.246
 7031SOL     OW21991   4.168   6.836   0.500
 7031SOL    HW121992   4.088   6.799   0.453
 7031SOL    HW221993   4.221   6.762   0.540
 7032SOL     OW21994   3.875   6.265   4.446
 7032SOL    HW121995   3.915   6.249   4.536
 7032SOL    HW221996   3.790   6.316   4.455
 7033SOL     OW21997   1.629   1.990   5.063
 7033SOL    HW121998   1.659   2.086   5.060
 7033SOL    HW221999   1.704   1.931   5.034
 7034SOL     OW22000   6.603   1.460   3.298
 7034SOL    HW122001   6.577   1.463   3.395
 7034SOL    HW222002   6.559   1.535   3.250
 7035SOL     OW22003   1.890   0.571   0.678
 7035SOL    HW122004   1.843   0.659   0.671
 7035SOL    HW222005   1.849   0.517   0.751
 7036SOL     OW22006   0.043   1.112   1.824
 7036SOL    HW122007   0.055   1.209   1.846
 7036SOL    HW222008   6.967   1.084   1.848
 7037SOL     OW22009   1.068   0.645   6.133
 7037SOL    HW122010   1.056   0.547   6.116
 7037SOL    HW222011   1.161   0.661   6.169
 7038SOL     OW22012   1.422   3.361   6.529
 7038SOL    HW122013   1.473   3.280   6.499
 7038SOL    HW222014   1.326   3.337   6.544
 7039SOL     OW22015   0.527   6.363   2.913
 7039SOL    HW122016   0.596   6.333   2.980
 7039SOL    HW222017   0.443   6.389   2.961
 7040SOL     OW22018   4.519   2.652   4.966
 7040SOL    HW122019   4.540   2.737   4.917
 7040SOL    HW222020   4.524   2.669   5.065
 7041SOL     OW22021   1.644   0.469   3.671
 7041SOL    HW122022   1.723   0.454   3.731
 7041SOL    HW222023   1.642   0.397   3.601
 7042SOL     OW22024   4.519   5.682   5.510
 7042SOL    HW122025   4.521   5.739   5.428
 7042SOL    HW222026   4.507   5.740   5.591
 7043SOL     OW22027   1.723   4.910   1.867
 7043SOL    HW122028   1.809   4.961   1.876
 7043SOL    HW222029   1.731   4.822   1.913
 7044SOL     OW22030   4.824   6.228   4.054
 7044SOL    HW122031   4.919   6.206   4.074
 7044SOL    HW222032   4.770   6.225   4.138
 7045SOL     OW22033   6.331   5.822   2.587
 7045SOL    HW122034   6.343   5.725   2.565
 7045SOL    HW222035   6.234   5.840   2.605
 7046SOL     OW22036   2.963   2.238   4.272
 7046SOL    HW122037   2.890   2.306   4.285
 7046SOL    HW222038   2.964   2.175   4.349
 7047SOL     OW22039   1.101   6.592   0.608
 7047SOL    HW122040   1.098   6.675   0.552
 7047SOL    HW222041   1.008   6.555   0.617
 7048SOL     OW22042   6.682   5.962   4.789
 7048SOL    HW122043   6.716   5.951   4.883
 7048SOL    HW222044   6.640   5.876   4.759
 7049SOL     OW22045   3.605   1.021   2.868
 7049SOL    HW122046   3.561   1.085   2.805
 7049SOL    HW222047   3.599   0.928   2.832
 7050SOL     OW22048   4.054   4.018   1.259
 7050SOL    HW122049   4.124   3.997   1.327
 7050SOL    HW222050   3.996   4.092   1.293
 7051SOL     OW22051   0.700   0.844   1.346
 7051SOL    HW122052   0.686   0.842   1.246
 7051SOL    HW222053   0.613   0.827   1.392
 7052SOL     OW22054   5.037   6.855   2.602
 7052SOL    HW122055   4.958   6.820   2.553
 7052SOL    HW222056   5.030   6.955   2.610
 7053SOL     OW22057   1.924   2.937   3.195
 7053SOL    HW122058   1.841   2.911   3.146
 7053SOL    HW222059   2.002   2.891   3.154
 7054SOL     OW22060   6.496   0.462   0.516
 7054SOL    HW122061   6.398   0.453   0.536
 7054SOL    HW222062   6.522   0.394   0.448
 7055SOL     OW22063   1.973   1.021   6.821
 7055SOL    HW122064   1.960   0.959   6.898
 7055SOL    HW222065   2.023   0.974   6.748
 7056SOL     OW22066   6.925   5.578   1.291
 7056SOL    HW122067   6.951   5.620   1.378
 7056SOL    HW222068   6.934   5.479   1.298
 7057SOL     OW22069   3.199   5.005   4.886
 7057SOL    HW122070   3.168   4.944   4.959
 7057SOL    HW222071   3.210   5.097   4.922
 7058SOL     OW22072   5.045   2.724   5.801
 7058SOL    HW122073   5.083   2.637   5.833
 7058SOL    HW222074   4.988   2.707   5.720
 7059SOL     OW22075   1.763   0.349   5.308
 7059SOL    HW122076   1.730   0.362   5.402
 7059SOL    HW222077   1.784   0.252   5.293
 7060SOL     OW22078   3.505   0.654   2.011
 7060SOL    HW122079   3.583   0.650   2.073
 7060SOL    HW222080   3.526   0.603   1.928
 7061SOL     OW22081   0.794   2.306   2.448
 7061SOL    HW122082   0.851   2.335   2.525
 7061SOL    HW222083   0.705   2.351   2.453
 7062SOL     OW22084   3.672   1.280   3.158
 7062SOL    HW122085   3.719   1.342   3.096
 7062SOL    HW222086   3.584   1.253   3.118
 7063SOL     OW22087   0.921   1.037   1.720
 7063SOL    HW122088   1.009   1.063   1.681
 7063SOL    HW222089   0.881   0.963   1.665
 7064SOL     OW22090   4.568   1.679   5.198
 7064SOL    HW122091   4.539   1.756   5.142
 7064SOL    HW222092   4.646   1.706   5.255
 7065SOL     OW22093   3.911   4.507   6.051
 7065SOL    HW122094   3.842   4.506   5.979
 7065SOL    HW222095   3.941   4.413   6.068
 7066SOL     OW22096   3.780   0.346   6.586
 7066SOL    HW122097   3.738   0.291   6.513
 7066SOL    HW222098   3.852   0.404   6.547
 7067SOL     OW22099   2.046   3.658   6.710
 7067SOL    HW122100   2.132   3.705   6.732
 7067SOL    HW222101   2.059   3.601   6.629
 7068SOL     OW22102   5.291   3.486   4.318
 7068SOL    HW122103   5.318   3.417   4.385
 7068SOL    HW222104   5.192   3.499   4.321
 7069SOL     OW22105   5.774   0.321   6.540
 7069SOL    HW122106   5.762   0.225   6.512
 7069SOL    HW222107   5.846   0.363   6.484
 7070SOL     OW22108   0.407   6.522   4.886
 7070SOL    HW122109   0.316   6.483   4.901
 7070SOL    HW222110   0.444   6.488   4.800
 7071SOL     OW22111   5.228   6.000   6.665
 7071SOL    HW122112   5.183   5.935   6.726
 7071SOL    HW222113   5.236   6.089   6.710
 7072SOL     OW22114   0.200   3.823   6.391
 7072SOL    HW122115   0.167   3.848   6.482
 7072SOL    HW222116   0.128   3.840   6.324
 7073SOL     OW22117   5.218   1.183   3.210
 7073SOL    HW122118   5.305   1.219   3.242
 7073SOL    HW222119   5.234   1.099   3.158
 7074SOL     OW22120   5.373   4.062   2.720
 7074SOL    HW122121   5.377   4.142   2.780
 7074SOL    HW222122   5.314   4.082   2.641
 7075SOL     OW22123   3.305   5.458   3.831
 7075SOL    HW122124   3.376   5.477   3.900
 7075SOL    HW222125   3.289   5.539   3.776
 7076SOL     OW22126   5.678   2.430   2.356
 7076SOL    HW122127   5.700   2.334   2.343
 7076SOL    HW222128   5.599   2.437   2.418
 7077SOL     OW22129   3.622   5.691   1.193
 7077SOL    HW122130   3.559   5.614   1.184
 7077SOL    HW222131   3.704   5.662   1.243
 7078SOL     OW22132   5.365   0.542   0.063
 7078SOL    HW122133   5.423   0.621   0.082
 7078SOL    HW222134   5.374   0.475   0.136
 7079SOL     OW22135   1.727   6.662   4.578
 7079SOL    HW122136   1.716   6.569   4.541
 7079SOL    HW222137   1.637   6.699   4.602
 7080SOL     OW22138   4.177   1.871   5.621
 7080SOL    HW122139   4.266   1.827   5.627
 7080SOL    HW222140   4.158   1.896   5.526
 7081SOL     OW22141   1.466   0.802   0.433
 7081SOL    HW122142   1.472   0.890   0.388
 7081SOL    HW222143   1.375   0.763   0.418
 7082SOL     OW22144   6.503   4.586   2.802
 7082SOL    HW122145   6.448   4.669   2.815
 7082SOL    HW222146   6.541   4.585   2.709
 7083SOL     OW22147   6.683   2.982   2.833
 7083SOL    HW122148   6.759   2.947   2.777
 7083SOL    HW222149   6.619   2.908   2.852
 7084SOL     OW22150   0.528   6.162   0.212
 7084SOL    HW122151   0.496   6.257   0.207
 7084SOL    HW222152   0.484   6.116   0.289
 7085SOL     OW22153   0.606   3.222   1.828
 7085SOL    HW122154   0.706   3.225   1.832
 7085SOL    HW222155   0.569   3.315   1.837
 7086SOL     OW22156   5.861   0.945   3.968
 7086SOL    HW122157   5.893   0.934   4.062
 7086SOL    HW222158   5.911   0.883   3.908
 7087SOL     OW22159   5.537   3.363   3.242
 7087SOL    HW122160   5.442   3.377   3.268
 7087SOL    HW222161   5.596   3.374   3.323
 7088SOL     OW22162   6.416   2.170   4.516
 7088SOL    HW122163   6.341   2.198   4.576
 7088SOL    HW222164   6.425   2.235   4.440
 7089SOL     OW22165   3.163   6.141   2.068
 7089SOL    HW122166   3.172   6.158   1.970
 7089SOL    HW222167   3.070   6.110   2.088
 7090SOL     OW22168   4.635   2.555   1.405
 7090SOL    HW122169   4.632   2.502   1.320
 7090SOL    HW222170   4.553   2.536   1.458
 7091SOL     OW22171   6.707   6.367   6.576
 7091SOL    HW122172   6.673   6.414   6.495
 7091SOL    HW222173   6.674   6.273   6.577
 7092SOL     OW22174   4.296   1.549   6.230
 7092SOL    HW122175   4.384   1.501   6.236
 7092SOL    HW222176   4.261   1.543   6.136
 7093SOL     OW22177   3.558   3.204   1.257
 7093SOL    HW122178   3.461   3.181   1.264
 7093SOL    HW222179   3.572   3.298   1.287
 7094SOL     OW22180   2.838   0.205   5.468
 7094SOL    HW122181   2.840   0.198   5.568
 7094SOL    HW222182   2.899   0.278   5.438
 7095SOL     OW22183   2.472   4.506   4.799
 7095SOL    HW122184   2.548   4.570   4.800
 7095SOL    HW222185   2.484   4.440   4.725
 7096SOL     OW22186   0.297   1.007   1.366
 7096SOL    HW122187   0.284   1.082   1.302
 7096SOL    HW222188   0.215   0.997   1.423
 7097SOL     OW22189   4.547   0.741   1.419
 7097SOL    HW122190   4.607   0.747   1.499
 7097SOL    HW222191   4.452   0.752   1.447
 7098SOL     OW22192   1.099   6.863   4.093
 7098SOL    HW122193   1.172   6.922   4.126
 7098SOL    HW222194   1.059   6.902   4.010
 7099SOL     OW22195   2.762   2.331   3.855
 7099SOL    HW122196   2.844   2.302   3.904
 7099SOL    HW222197   2.687   2.344   3.919
 7100SOL     OW22198   5.744   4.061   1.168
 7100SOL    HW122199   5.652   4.088   1.140
 7100SOL    HW222200   5.751   3.962   1.171
 7101SOL     OW22201   2.381   6.131   5.733
 7101SOL    HW122202   2.450   6.072   5.776
 7101SOL    HW222203   2.292   6.086   5.734
 7102SOL     OW22204   5.453   0.903   1.812
 7102SOL    HW122205   5.547   0.908   1.846
 7102SOL    HW222206   5.390   0.936   1.882
 7103SOL     OW22207   4.875   3.890   2.917
 7103SOL    HW122208   4.864   3.897   2.817
 7103SOL    HW222209   4.825   3.965   2.961
 7104SOL     OW22210   5.343   4.102   3.444
 7104SOL    HW122211   5.285   4.031   3.485
 7104SOL    HW222212   5.361   4.173   3.512
 7105SOL     OW22213   3.165   4.118   3.998
 7105SOL    HW122214   3.130   4.210   4.016
 7105SOL    HW222215   3.265   4.120   4.000
 7106SOL     OW22216   3.253   2.578   0.701
 7106SOL    HW122217   3.351   2.577   0.721
 7106SOL    HW222218   3.228   2.665   0.659
 7107SOL     OW22219   3.678   0.752   6.377
 7107SOL    HW122220   3.678   0.698   6.293
 7107SOL    HW222221   3.637   0.841   6.359
 7108SOL     OW22222   4.508   0.751   1.923
 7108SOL    HW122223   4.535   0.661   1.886
 7108SOL    HW222224   4.415   0.772   1.894
 7109SOL     OW22225   2.511   6.080   6.358
 7109SOL    HW122226   2.611   6.074   6.357
 7109SOL    HW222227   2.478   6.093   6.264
 7110SOL     OW22228   3.146   6.346   4.509
 7110SOL    HW122229   3.239   6.328   4.479
 7110SOL    HW222230   3.091   6.378   4.432
 7111SOL     OW22231   6.971   0.160   4.697
 7111SOL    HW122232   0.011   0.121   4.769
 7111SOL    HW222233   6.999   0.122   4.609
 7112SOL     OW22234   1.486   5.049   4.915
 7112SOL    HW122235   1.497   5.084   5.008
 7112SOL    HW222236   1.521   4.955   4.911
 7113SOL     OW22237   3.645   5.684   5.434
 7113SOL    HW122238   3.678   5.646   5.521
 7113SOL    HW222239   3.675   5.778   5.425
 7114SOL     OW22240   5.236   4.972   0.449
 7114SOL    HW122241   5.327   4.932   0.441
 7114SOL    HW222242   5.213   4.984   0.545
 7115SOL     OW22243   6.397   3.653   6.747
 7115SOL    HW122244   6.422   3.747   6.771
 7115SOL    HW222245   6.478   3.594   6.757
 7116SOL     OW22246   6.556   3.994   4.126
 7116SOL    HW122247   6.461   4.027   4.125
 7116SOL    HW222248   6.580   3.965   4.219
 7117SOL     OW22249   5.768   6.865   3.198
 7117SOL    HW122250   5.866   6.878   3.212
 7117SOL    HW222251   5.753   6.813   3.113
 7118SOL     OW22252   4.240   4.259   5.328
 7118SOL    HW122253   4.145   4.231   5.314
 7118SOL    HW222254   4.263   4.334   5.267
 7119SOL     OW22255   3.715   6.390   5.199
 7119SOL    HW122256   3.795   6.417   5.252
 7119SOL    HW222257   3.732   6.302   5.156
 7120SOL     OW22258   4.753   0.738   0.368
 7120SOL    HW122259   4.684   0.771   0.303
 7120SOL    HW222260   4.714   0.666   0.424
 7121SOL     OW22261   1.657   6.023   2.307
 7121SOL    HW122262   1.633   6.072   2.391
 7121SOL    HW222263   1.645   5.925   2.321
 7122SOL     OW22264   2.944   0.953   6.667
 7122SOL    HW122265   2.889   1.011   6.607
 7122SOL    HW222266   2.941   0.859   6.633
 7123SOL     OW22267   5.374   5.432   6.266
 7123SOL    HW122268   5.317   5.447   6.185
 7123SOL    HW222269   5.465   5.469   6.249
 7124SOL     OW22270   1.384   2.376   1.274
 7124SOL    HW122271   1.429   2.409   1.358
 7124SOL    HW222272   1.332   2.294   1.294
 7125SOL     OW22273   0.656   6.288   1.551
 7125SOL    HW122274   0.561   6.307   1.573
 7125SOL    HW222275   0.661   6.206   1.494
 7126SOL     OW22276   3.413   5.457   1.118
 7126SOL    HW122277   3.320   5.471   1.151
 7126SOL    HW222278   3.416   5.473   1.019
 7127SOL     OW22279   2.475   6.627   5.269
 7127SOL    HW122280   2.534   6.705   5.247
 7127SOL    HW222281   2.525   6.564   5.329
 7128SOL     OW22282   4.395   3.746   6.276
 7128SOL    HW122283   4.309   3.797   6.280
 7128SOL    HW222284   4.384   3.658   6.322
 7129SOL     OW22285   0.480   0.236   0.761
 7129SOL    HW122286   0.504   0.177   0.838
 7129SOL    HW222287   0.531   0.208   0.680
 7130SOL     OW22288   3.269   6.598   4.006
 7130SOL    HW122289   3.229   6.681   4.044
 7130SOL    HW222290   3.355   6.579   4.052
 7131SOL     OW22291   3.399   1.306   3.016
 7131SOL    HW122292   3.369   1.331   3.109
 7131SOL    HW222293   3.406   1.389   2.961
 7132SOL     OW22294   5.427   4.660   0.826
 7132SOL    HW122295   5.372   4.684   0.907
 7132SOL    HW222296   5.418   4.562   0.807
 7133SOL     OW22297   5.131   5.501   2.672
 7133SOL    HW122298   5.127   5.425   2.608
 7133SOL    HW222299   5.119   5.587   2.623
 7134SOL     OW22300   5.482   5.189   0.838
 7134SOL    HW122301   5.382   5.193   0.843
 7134SOL    HW222302   5.519   5.281   0.850
 7135SOL     OW22303   1.742   2.364   0.871
 7135SOL    HW122304   1.677   2.400   0.938
 7135SOL    HW222305   1.729   2.410   0.784
 7136SOL     OW22306   2.086   1.717   1.634
 7136SOL    HW122307   2.175   1.674   1.623
 7136SOL    HW222308   2.013   1.650   1.618
 7137SOL     OW22309   2.744   2.212   1.448
 7137SOL    HW122310   2.779   2.242   1.537
 7137SOL    HW222311   2.749   2.113   1.442
 7138SOL     OW22312   0.925   2.398   0.672
 7138SOL    HW122313   0.829   2.384   0.647
 7138SOL    HW222314   0.983   2.338   0.616
 7139SOL     OW22315   6.403   6.525   0.720
 7139SOL    HW122316   6.382   6.581   0.640
 7139SOL    HW222317   6.322   6.472   0.746
 7140SOL     OW22318   6.816   3.591   0.525
 7140SOL    HW122319   6.795   3.681   0.486
 7140SOL    HW222320   6.897   3.598   0.583
 7141SOL     OW22321   3.444   0.564   0.938
 7141SOL    HW122322   3.424   0.586   0.843
 7141SOL    HW222323   3.420   0.642   0.996
 7142SOL     OW22324   3.032   6.929   4.856
 7142SOL    HW122325   3.041   6.876   4.941
 7142SOL    HW222326   3.122   6.949   4.820
 7143SOL     OW22327   2.760   4.189   6.418
 7143SOL    HW122328   2.788   4.133   6.340
 7143SOL    HW222329   2.832   4.256   6.439
 7144SOL     OW22330   6.696   0.635   5.822
 7144SOL    HW122331   6.674   0.686   5.739
 7144SOL    HW222332   6.788   0.597   5.814
 7145SOL     OW22333   5.281   2.322   6.567
 7145SOL    HW122334   5.295   2.353   6.473
 7145SOL    HW222335   5.198   2.364   6.604
 7146SOL     OW22336   1.731   2.234   5.206
 7146SOL    HW122337   1.646   2.279   5.178
 7146SOL    HW222338   1.796   2.304   5.237
 7147SOL     OW22339   6.168   6.498   2.139
 7147SOL    HW122340   6.166   6.399   2.122
 7147SOL    HW222341   6.076   6.529   2.165
 7148SOL     OW22342   6.638   0.018   0.959
 7148SOL    HW122343   6.638   0.101   1.015
 7148SOL    HW222344   6.621   6.956   1.017
 7149SOL     OW22345   6.137   4.772   5.563
 7149SOL    HW122346   6.080   4.770   5.645
 7149SOL    HW222347   6.166   4.679   5.540
 7150SOL     OW22348   3.675   3.098   7.014
 7150SOL    HW122349   3.608   3.109   6.941
 7150SOL    HW222350   3.765   3.081   6.974
 7151SOL     OW22351   3.678   1.079   0.801
 7151SOL    HW122352   3.701   1.174   0.823
 7151SOL    HW222353   3.750   1.019   0.835
 7152SOL     OW22354   6.378   1.434   6.051
 7152SOL    HW122355   6.308   1.504   6.042
 7152SOL    HW222356   6.365   1.385   6.138
 7153SOL     OW22357   3.319   6.023   0.926
 7153SOL    HW122358   3.360   5.943   0.968
 7153SOL    HW222359   3.369   6.105   0.953
 7154SOL     OW22360   4.245   1.837   1.780
 7154SOL    HW122361   4.268   1.887   1.864
 7154SOL    HW222362   4.248   1.900   1.702
 7155SOL     OW22363   2.478   1.304   1.660
 7155SOL    HW122364   2.410   1.313   1.586
 7155SOL    HW222365   2.541   1.381   1.656
 7156SOL     OW22366   6.111   3.234   6.354
 7156SOL    HW122367   6.049   3.284   6.292
 7156SOL    HW222368   6.112   3.279   6.443
 7157SOL     OW22369   6.543   4.208   6.276
 7157SOL    HW122370   6.635   4.184   6.306
 7157SOL    HW222371   6.537   4.198   6.177
 7158SOL     OW22372   4.347   6.819   3.871
 7158SOL    HW122373   4.420   6.761   3.834
 7158SOL    HW222374   4.286   6.847   3.797
 7159SOL     OW22375   0.953   6.322   2.790
 7159SOL    HW122376   0.938   6.252   2.721
 7159SOL    HW222377   0.888   6.398   2.775
 7160SOL     OW22378   0.062   6.969   3.330
 7160SOL    HW122379   0.004   7.017   3.264
 7160SOL    HW222380   0.022   6.881   3.352
 7161SOL     OW22381   3.617   2.946   3.512
 7161SOL    HW122382   3.623   2.902   3.602
 7161SOL    HW222383   3.709   2.965   3.478
 7162SOL     OW22384   0.249   5.526   1.623
 7162SOL    HW122385   0.348   5.528   1.636
 7162SOL    HW222386   0.223   5.440   1.579
 7163SOL     OW22387   6.734   1.734   2.014
 7163SOL    HW122388   6.734   1.817   2.070
 7163SOL    HW222389   6.641   1.715   1.983
 7164SOL     OW22390   2.141   1.324   6.519
 7164SOL    HW122391   2.106   1.244   6.471
 7164SOL    HW222392   2.118   1.407   6.468
 7165SOL     OW22393   5.461   1.585   0.434
 7165SOL    HW122394   5.417   1.662   0.480
 7165SOL    HW222395   5.545   1.561   0.482
 7166SOL     OW22396   6.432   6.113   6.403
 7166SOL    HW122397   6.469   6.166   6.327
 7166SOL    HW222398   6.504   6.097   6.471
 7167SOL     OW22399   5.901   2.503   4.721
 7167SOL    HW122400   5.981   2.446   4.707
 7167SOL    HW222401   5.883   2.514   4.819
 7168SOL     OW22402   2.912   1.017   1.775
 7168SOL    HW122403   2.929   1.074   1.856
 7168SOL    HW222404   2.998   0.976   1.744
 7169SOL     OW22405   1.778   3.603   6.767
 7169SOL    HW122406   1.798   3.571   6.860
 7169SOL    HW222407   1.860   3.646   6.729
 7170SOL     OW22408   3.996   1.134   0.548
 7170SOL    HW122409   4.068   1.110   0.484
 7170SOL    HW222410   4.034   1.141   0.640
 7171SOL     OW22411   6.956   4.755   0.556
 7171SOL    HW122412   6.908   4.668   0.549
 7171SOL    HW222413   6.976   4.790   0.464
 7172SOL     OW22414   1.439   1.956   4.338
 7172SOL    HW122415   1.425   1.890   4.412
 7172SOL    HW222416   1.520   1.929   4.285
 7173SOL     OW22417   4.772   5.728   6.026
 7173SOL    HW122418   4.775   5.681   5.938
 7173SOL    HW222419   4.682   5.714   6.067
 7174SOL     OW22420   6.814   4.538   2.083
 7174SOL    HW122421   6.837   4.522   2.179
 7174SOL    HW222422   6.892   4.515   2.025
 7175SOL     OW22423   5.971   3.490   6.486
 7175SOL    HW122424   6.047   3.545   6.521
 7175SOL    HW222425   5.931   3.437   6.561
 7176SOL     OW22426   0.956   0.557   5.299
 7176SOL    HW122427   0.919   0.467   5.273
 7176SOL    HW222428   0.882   0.614   5.335
 7177SOL     OW22429   1.610   5.572   3.442
 7177SOL    HW122430   1.695   5.532   3.477
 7177SOL    HW222431   1.557   5.502   3.396
 7178SOL     OW22432   1.921   0.445   5.054
 7178SOL    HW122433   1.847   0.402   5.106
 7178SOL    HW222434   1.900   0.542   5.042
 7179SOL     OW22435   3.248   5.647   6.074
 7179SOL    HW122436   3.182   5.591   6.024
 7179SOL    HW222437   3.260   5.734   6.027
 7180SOL     OW22438   1.649   3.632   1.117
 7180SOL    HW122439   1.743   3.644   1.148
 7180SOL    HW222440   1.625   3.535   1.118
 7181SOL     OW22441   2.348   1.779   5.670
 7181SOL    HW122442   2.289   1.859   5.682
 7181SOL    HW222443   2.293   1.700   5.643
 7182SOL     OW22444   2.047   1.655   4.335
 7182SOL    HW122445   1.968   1.594   4.340
 7182SOL    HW222446   2.044   1.706   4.249
 7183SOL     OW22447   0.761   7.000   2.020
 7183SOL    HW122448   0.793   0.031   2.102
 7183SOL    HW222449   0.776   6.902   2.032
 7184SOL     OW22450   6.421   0.319   4.143
 7184SOL    HW122451   6.498   0.327   4.207
 7184SOL    HW222452   6.373   0.233   4.159
 7185SOL     OW22453   4.187   1.041   4.576
 7185SOL    HW122454   4.099   1.010   4.612
 7185SOL    HW222455   4.255   1.041   4.650
 7186SOL     OW22456   0.275   0.483   6.410
 7186SOL    HW122457   0.374   0.484   6.391
 7186SOL    HW222458   0.251   0.565   6.462
 7187SOL     OW22459   3.108   3.067   4.306
 7187SOL    HW122460   3.097   3.048   4.209
 7187SOL    HW222461   3.193   3.025   4.339
 7188SOL     OW22462   3.861   4.452   0.164
 7188SOL    HW122463   3.885   4.357   0.186
 7188SOL    HW222464   3.825   4.456   0.071
 7189SOL     OW22465   6.600   2.800   5.771
 7189SOL    HW122466   6.681   2.792   5.829
 7189SOL    HW222467   6.608   2.880   5.712
 7190SOL     OW22468   5.667   5.202   1.618
 7190SOL    HW122469   5.585   5.166   1.662
 7190SOL    HW222470   5.698   5.284   1.667
 7191SOL     OW22471   0.346   4.905   4.429
 7191SOL    HW122472   0.257   4.949   4.430
 7191SOL    HW222473   0.385   4.907   4.521
 7192SOL     OW22474   2.222   4.421   6.655
 7192SOL    HW122475   2.184   4.444   6.744
 7192SOL    HW222476   2.181   4.335   6.623
 7193SOL     OW22477   3.067   2.174   2.731
 7193SOL    HW122478   3.042   2.081   2.704
 7193SOL    HW222479   3.165   2.178   2.751
 7194SOL     OW22480   3.138   2.610   6.101
 7194SOL    HW122481   3.127   2.693   6.155
 7194SOL    HW222482   3.154   2.633   6.005
 7195SOL     OW22483   0.302   4.714   4.991
 7195SOL    HW122484   0.258   4.717   4.901
 7195SOL    HW222485   0.319   4.619   5.017
 7196SOL     OW22486   3.346   4.128   1.791
 7196SOL    HW122487   3.424   4.135   1.854
 7196SOL    HW222488   3.372   4.166   1.702
 7197SOL     OW22489   2.774   4.249   5.878
 7197SOL    HW122490   2.786   4.194   5.796
 7197SOL    HW222491   2.688   4.299   5.872
 7198SOL     OW22492   0.495   0.664   1.908
 7198SOL    HW122493   0.546   0.702   1.831
 7198SOL    HW222494   0.495   0.729   1.984
 7199SOL     OW22495   6.935   1.141   2.180
 7199SOL    HW122496   7.003   1.068   2.183
 7199SOL    HW222497   6.928   1.183   2.270
 7200SOL     OW22498   0.960   2.467   0.940
 7200SOL    HW122499   1.013   2.549   0.960
 7200SOL    HW222500   0.976   2.439   0.846
 7201SOL     OW22501   5.554   5.716   3.937
 7201SOL    HW122502   5.483   5.730   3.868
 7201SOL    HW222503   5.612   5.639   3.910
 7202SOL     OW22504   4.598   0.997   5.540
 7202SOL    HW122505   4.660   0.963   5.611
 7202SOL    HW222506   4.600   1.097   5.541
 7203SOL     OW22507   0.103   1.552   1.073
 7203SOL    HW122508   0.191   1.506   1.063
 7203SOL    HW222509   0.074   1.548   1.169
 7204SOL     OW22510   6.236   0.085   1.856
 7204SOL    HW122511   6.252   0.006   1.797
 7204SOL    HW222512   6.141   0.086   1.887
 7205SOL     OW22513   3.093   1.922   4.137
 7205SOL    HW122514   3.116   1.911   4.234
 7205SOL    HW222515   3.135   2.007   4.103
 7206SOL     OW22516   2.394   3.673   0.885
 7206SOL    HW122517   2.329   3.701   0.956
 7206SOL    HW222518   2.347   3.670   0.796
 7207SOL     OW22519   2.093   1.182   4.037
 7207SOL    HW122520   2.051   1.238   3.966
 7207SOL    HW222521   2.064   1.214   4.127
 7208SOL     OW22522   2.926   0.207   4.154
 7208SOL    HW122523   2.958   0.142   4.223
 7208SOL    HW222524   2.961   0.180   4.065
 7209SOL     OW22525   3.267   1.998   2.053
 7209SOL    HW122526   3.170   2.022   2.040
 7209SOL    HW222527   3.285   1.984   2.150
 7210SOL     OW22528   3.038   1.459   3.248
 7210SOL    HW122529   3.012   1.521   3.322
 7210SOL    HW222530   2.996   1.370   3.263
 7211SOL     OW22531   3.845   5.895   4.820
 7211SOL    HW122532   3.944   5.896   4.804
 7211SOL    HW222533   3.827   5.879   4.916
 7212SOL     OW22534   6.666   4.292   5.842
 7212SOL    HW122535   6.679   4.379   5.795
 7212SOL    HW222536   6.749   4.269   5.893
 7213SOL     OW22537   4.112   2.056   0.481
 7213SOL    HW122538   4.124   2.135   0.421
 7213SOL    HW222539   4.016   2.050   0.510
 7214SOL     OW22540   6.976   0.617   6.255
 7214SOL    HW122541   6.993   0.540   6.316
 7214SOL    HW222542   6.897   0.669   6.288
 7215SOL     OW22543   6.884   2.880   2.689
 7215SOL    HW122544   6.984   2.888   2.686
 7215SOL    HW222545   6.846   2.903   2.599
 7216SOL     OW22546   3.349   6.743   2.774
 7216SOL    HW122547   3.430   6.685   2.766
 7216SOL    HW222548   3.289   6.706   2.845
 7217SOL     OW22549   1.307   2.787   3.534
 7217SOL    HW122550   1.379   2.790   3.603
 7217SOL    HW222551   1.345   2.761   3.446
 7218SOL     OW22552   6.369   4.297   4.671
 7218SOL    HW122553   6.468   4.315   4.675
 7218SOL    HW222554   6.323   4.374   4.628
 7219SOL     OW22555   3.536   5.767   2.663
 7219SOL    HW122556   3.555   5.679   2.621
 7219SOL    HW222557   3.443   5.768   2.699
 7220SOL     OW22558   6.015   4.673   4.948
 7220SOL    HW122559   5.925   4.714   4.935
 7220SOL    HW222560   6.039   4.618   4.868
 7221SOL     OW22561   3.741   5.765   4.153
 7221SOL    HW122562   3.710   5.681   4.109
 7221SOL    HW222563   3.839   5.777   4.137
 7222SOL     OW22564   0.221   5.864   4.517
 7222SOL    HW122565   0.275   5.782   4.499
 7222SOL    HW222566   0.124   5.846   4.499
 7223SOL     OW22567   0.082   3.709   1.570
 7223SOL    HW122568   0.113   3.758   1.651
 7223SOL    HW222569   0.001   3.655   1.593
 7224SOL     OW22570   4.037   1.677   3.272
 7224SOL    HW122571   4.113   1.696   3.334
 7224SOL    HW222572   4.051   1.589   3.227
 7225SOL     OW22573   1.423   6.677   0.877
 7225SOL    HW122574   1.428   6.599   0.815
 7225SOL    HW222575   1.455   6.650   0.968
 7226SOL     OW22576   6.086   6.366   0.866
 7226SOL    HW122577   5.998   6.335   0.903
 7226SOL    HW222578   6.072   6.403   0.774
 7227SOL     OW22579   2.266   0.754   1.739
 7227SOL    HW122580   2.245   0.840   1.786
 7227SOL    HW222581   2.265   0.769   1.640
 7228SOL     OW22582   0.027   3.394   2.571
 7228SOL    HW122583   0.117   3.360   2.544
 7228SOL    HW222584   0.037   3.451   2.653
 7229SOL     OW22585   6.752   0.640   5.025
 7229SOL    HW122586   6.682   0.697   4.982
 7229SOL    HW222587   6.827   0.626   4.961
 7230SOL     OW22588   2.083   5.259   4.127
 7230SOL    HW122589   2.068   5.320   4.205
 7230SOL    HW222590   2.129   5.176   4.158
 7231SOL     OW22591   4.602   1.556   6.464
 7231SOL    HW122592   4.686   1.509   6.487
 7231SOL    HW222593   4.524   1.496   6.481
 7232SOL     OW22594   4.922   6.877   3.285
 7232SOL    HW122595   4.927   6.945   3.212
 7232SOL    HW222596   4.999   6.889   3.347
 7233SOL     OW22597   6.645   1.308   4.495
 7233SOL    HW122598   6.678   1.215   4.505
 7233SOL    HW222599   6.721   1.372   4.509
 7234SOL     OW22600   5.115   4.046   2.895
 7234SOL    HW122601   5.034   3.988   2.888
 7234SOL    HW222602   5.152   4.063   2.804
 7235SOL     OW22603   7.016   6.102   1.378
 7235SOL    HW122604   6.973   6.041   1.312
 7235SOL    HW222605   6.960   6.184   1.390
 7236SOL     OW22606   2.189   2.524   3.123
 7236SOL    HW122607   2.141   2.472   3.052
 7236SOL    HW222608   2.179   2.478   3.211
 7237SOL     OW22609   5.468   0.913   0.240
 7237SOL    HW122610   5.380   0.892   0.283
 7237SOL    HW222611   5.520   0.974   0.299
 7238SOL     OW22612   4.061   3.094   0.851
 7238SOL    HW122613   4.041   3.192   0.846
 7238SOL    HW222614   3.976   3.044   0.866
 7239SOL     OW22615   0.121   2.940   2.706
 7239SOL    HW122616   0.211   2.974   2.679
 7239SOL    HW222617   0.068   3.015   2.745
 7240SOL     OW22618   6.737   1.909   6.425
 7240SOL    HW122619   6.796   1.841   6.470
 7240SOL    HW222620   6.685   1.865   6.352
 7241SOL     OW22621   2.799   1.614   1.809
 7241SOL    HW122622   2.838   1.575   1.893
 7241SOL    HW222623   2.755   1.701   1.830
 7242SOL     OW22624   6.436   5.339   5.019
 7242SOL    HW122625   6.463   5.334   4.923
 7242SOL    HW222626   6.471   5.423   5.060
 7243SOL     OW22627   6.089   4.198   6.754
 7243SOL    HW122628   6.050   4.108   6.737
 7243SOL    HW222629   6.095   4.249   6.669
 7244SOL     OW22630   0.190   6.738   6.606
 7244SOL    HW122631   0.132   6.705   6.681
 7244SOL    HW222632   0.135   6.795   6.545
 7245SOL     OW22633   1.089   3.112   0.078
 7245SOL    HW122634   1.129   3.020   0.082
 7245SOL    HW222635   1.147   3.170   0.021
 7246SOL     OW22636   3.222   0.202   3.930
 7246SOL    HW122637   3.158   0.125   3.935
 7246SOL    HW222638   3.191   0.266   3.859
 7247SOL     OW22639   2.846   2.630   5.795
 7247SOL    HW122640   2.934   2.593   5.764
 7247SOL    HW222641   2.779   2.556   5.801
 7248SOL     OW22642   3.333   0.848   4.635
 7248SOL    HW122643   3.315   0.838   4.537
 7248SOL    HW222644   3.289   0.774   4.685
 7249SOL     OW22645   3.847   5.163   1.839
 7249SOL    HW122646   3.854   5.081   1.895
 7249SOL    HW222647   3.774   5.221   1.875
 7250SOL     OW22648   4.933   5.783   5.680
 7250SOL    HW122649   4.942   5.843   5.760
 7250SOL    HW222650   4.894   5.835   5.604
 7251SOL     OW22651   0.140   5.597   5.539
 7251SOL    HW122652   0.200   5.516   5.541
 7251SOL    HW222653   0.185   5.672   5.588
 7252SOL     OW22654   3.328   4.052   2.116
 7252SOL    HW122655   3.335   3.953   2.111
 7252SOL    HW222656   3.326   4.091   2.024
 7253SOL     OW22657   1.326   5.721   5.225
 7253SOL    HW122658   1.410   5.775   5.225
 7253SOL    HW222659   1.251   5.775   5.263
 7254SOL     OW22660   5.175   3.932   3.627
 7254SOL    HW122661   5.259   3.916   3.679
 7254SOL    HW222662   5.136   3.844   3.599
 7255SOL     OW22663   5.320   3.437   6.599
 7255SOL    HW122664   5.288   3.502   6.530
 7255SOL    HW222665   5.412   3.462   6.628
 7256SOL     OW22666   3.479   6.217   6.024
 7256SOL    HW122667   3.449   6.260   6.109
 7256SOL    HW222668   3.561   6.262   5.991
 7257SOL     OW22669   0.818   1.074   4.583
 7257SOL    HW122670   0.835   1.096   4.679
 7257SOL    HW222671   0.851   1.149   4.526
 7258SOL     OW22672   6.014   1.923   3.360
 7258SOL    HW122673   5.980   1.832   3.384
 7258SOL    HW222674   5.971   1.954   3.275
 7259SOL     OW22675   0.820   4.549   2.835
 7259SOL    HW122676   0.737   4.530   2.887
 7259SOL    HW222677   0.891   4.483   2.859
 7260SOL     OW22678   5.591   3.546   0.987
 7260SOL    HW122679   5.505   3.495   0.994
 7260SOL    HW222680   5.667   3.482   0.979
 7261SOL     OW22681   0.016   4.303   0.154
 7261SOL    HW122682   0.059   4.214   0.140
 7261SOL    HW222683   6.935   4.296   0.135
 7262SOL     OW22684   6.319   1.972   6.109
 7262SOL    HW122685   6.347   2.055   6.159
 7262SOL    HW222686   6.359   1.975   6.017
 7263SOL     OW22687   0.713   5.744   0.219
 7263SOL    HW122688   0.776   5.666   0.210
 7263SOL    HW222689   0.678   5.770   0.129
 7264SOL     OW22690   5.629   1.435   0.659
 7264SOL    HW122691   5.615   1.369   0.732
 7264SOL    HW222692   5.726   1.440   0.636
 7265SOL     OW22693   4.154   5.804   5.173
 7265SOL    HW122694   4.083   5.808   5.243
 7265SOL    HW222695   4.230   5.748   5.206
 7266SOL     OW22696   6.897   0.435   3.721
 7266SOL    HW122697   6.922   0.345   3.756
 7266SOL    HW222698   6.862   0.426   3.628
 7267SOL     OW22699   6.263   5.667   4.743
 7267SOL    HW122700   6.355   5.705   4.747
 7267SOL    HW222701   6.234   5.660   4.647
 7268SOL     OW22702   6.266   6.259   3.751
 7268SOL    HW122703   6.292   6.163   3.740
 7268SOL    HW222704   6.294   6.311   3.670
 7269SOL     OW22705   2.292   5.126   5.144
 7269SOL    HW122706   2.283   5.226   5.153
 7269SOL    HW222707   2.381   5.105   5.105
 7270SOL     OW22708   0.831   1.514   3.952
 7270SOL    HW122709   0.905   1.550   3.895
 7270SOL    HW222710   0.794   1.431   3.911
 7271SOL     OW22711   0.604   4.181   3.610
 7271SOL    HW122712   0.667   4.105   3.631
 7271SOL    HW222713   0.530   4.182   3.678
 7272SOL     OW22714   6.166   5.556   2.834
 7272SOL    HW122715   6.132   5.640   2.793
 7272SOL    HW222716   6.246   5.576   2.891
 7273SOL     OW22717   0.063   2.916   5.499
 7273SOL    HW122718   0.117   2.987   5.543
 7273SOL    HW222719   0.023   2.952   5.414
 7274SOL     OW22720   0.495   4.423   7.012
 7274SOL    HW122721   0.494   4.433   0.094
 7274SOL    HW222722   0.427   4.483   6.971
 7275SOL     OW22723   6.305   6.819   3.055
 7275SOL    HW122724   6.386   6.768   3.083
 7275SOL    HW222725   6.331   6.913   3.033
 7276SOL     OW22726   4.608   6.588   3.795
 7276SOL    HW122727   4.545   6.527   3.747
 7276SOL    HW222728   4.658   6.535   3.864
 7277SOL     OW22729   4.819   0.197   5.569
 7277SOL    HW122730   4.777   0.226   5.483
 7277SOL    HW222731   4.769   0.236   5.646
 7278SOL     OW22732   3.123   3.827   2.492
 7278SOL    HW122733   3.190   3.764   2.452
 7278SOL    HW222734   3.144   3.920   2.464
 7279SOL     OW22735   4.079   5.741   0.060
 7279SOL    HW122736   4.103   5.721   0.155
 7279SOL    HW222737   4.135   5.816   0.026
 7280SOL     OW22738   4.600   0.286   5.713
 7280SOL    HW122739   4.590   0.383   5.737
 7280SOL    HW222740   4.581   0.230   5.794
 7281SOL     OW22741   4.120   1.590   6.627
 7281SOL    HW122742   4.107   1.535   6.545
 7281SOL    HW222743   4.076   1.545   6.705
 7282SOL     OW22744   5.903   5.504   2.237
 7282SOL    HW122745   5.902   5.485   2.139
 7282SOL    HW222746   5.814   5.538   2.266
 7283SOL     OW22747   2.577   0.776   3.516
 7283SOL    HW122748   2.674   0.755   3.515
 7283SOL    HW222749   2.543   0.781   3.422
 7284SOL     OW22750   6.657   3.802   5.220
 7284SOL    HW122751   6.611   3.768   5.302
 7284SOL    HW222752   6.591   3.846   5.160
 7285SOL     OW22753   4.988   5.651   1.877
 7285SOL    HW122754   4.933   5.609   1.804
 7285SOL    HW222755   5.038   5.579   1.926
 7286SOL     OW22756   2.619   2.592   1.180
 7286SOL    HW122757   2.623   2.569   1.083
 7286SOL    HW222758   2.539   2.549   1.221
 7287SOL     OW22759   6.541   0.820   6.455
 7287SOL    HW122760   6.466   0.852   6.397
 7287SOL    HW222761   6.625   0.813   6.401
 7288SOL     OW22762   4.027   0.111   6.426
 7288SOL    HW122763   4.058   0.163   6.505
 7288SOL    HW222764   3.958   0.164   6.376
 7289SOL     OW22765   5.486   1.954   3.359
 7289SOL    HW122766   5.421   1.879   3.345
 7289SOL    HW222767   5.560   1.924   3.419
 7290SOL     OW22768   2.366   5.316   4.879
 7290SOL    HW122769   2.353   5.295   4.976
 7290SOL    HW222770   2.277   5.317   4.833
 7291SOL     OW22771   2.311   6.329   1.348
 7291SOL    HW122772   2.361   6.242   1.347
 7291SOL    HW222773   2.360   6.396   1.293
 7292SOL     OW22774   2.646   6.722   3.222
 7292SOL    HW122775   2.561   6.744   3.270
 7292SOL    HW222776   2.711   6.797   3.233
 7293SOL     OW22777   1.760   1.436   4.868
 7293SOL    HW122778   1.844   1.477   4.903
 7293SOL    HW222779   1.750   1.460   4.772
 7294SOL     OW22780   2.310   5.096   0.470
 7294SOL    HW122781   2.298   5.143   0.557
 7294SOL    HW222782   2.287   4.999   0.481
 7295SOL     OW22783   0.330   1.602   0.521
 7295SOL    HW122784   0.277   1.547   0.586
 7295SOL    HW222785   0.311   1.699   0.536
 7296SOL     OW22786   2.951   4.594   0.792
 7296SOL    HW122787   2.991   4.602   0.883
 7296SOL    HW222788   2.938   4.685   0.753
 7297SOL     OW22789   4.391   6.374   0.515
 7297SOL    HW122790   4.447   6.426   0.580
 7297SOL    HW222791   4.361   6.435   0.442
 7298SOL     OW22792   5.899   3.934   4.820
 7298SOL    HW122793   5.870   4.010   4.878
 7298SOL    HW222794   5.944   3.969   4.738
 7299SOL     OW22795   6.878   2.968   0.899
 7299SOL    HW122796   6.969   2.936   0.874
 7299SOL    HW222797   6.812   2.938   0.830
 7300SOL     OW22798   4.932   5.783   0.864
 7300SOL    HW122799   4.924   5.684   0.868
 7300SOL    HW222800   4.950   5.819   0.956
 7301SOL     OW22801   6.531   6.929   5.856
 7301SOL    HW122802   6.539   6.902   5.952
 7301SOL    HW222803   6.620   6.919   5.811
 7302SOL     OW22804   7.011   1.128   0.201
 7302SOL    HW122805   0.028   1.185   0.276
 7302SOL    HW222806   6.929   1.080   0.231
 7303SOL     OW22807   3.527   0.434   6.676
 7303SOL    HW122808   3.619   0.419   6.639
 7303SOL    HW222809   3.533   0.462   6.772
 7304SOL     OW22810   3.964   3.692   5.974
 7304SOL    HW122811   3.930   3.718   6.064
 7304SOL    HW222812   4.056   3.728   5.961
 7305SOL     OW22813   5.405   1.544   0.170
 7305SOL    HW122814   5.443   1.554   0.262
 7305SOL    HW222815   5.360   1.630   0.143
 7306SOL     OW22816   4.850   4.185   1.484
 7306SOL    HW122817   4.810   4.098   1.512
 7306SOL    HW222818   4.825   4.205   1.390
 7307SOL     OW22819   3.244   6.468   1.743
 7307SOL    HW122820   3.239   6.520   1.828
 7307SOL    HW222821   3.233   6.529   1.665
 7308SOL     OW22822   6.734   3.645   4.182
 7308SOL    HW122823   6.655   3.697   4.213
 7308SOL    HW222824   6.728   3.551   4.216
 7309SOL     OW22825   5.114   6.532   0.424
 7309SOL    HW122826   5.201   6.581   0.421
 7309SOL    HW222827   5.131   6.434   0.420
 7310SOL     OW22828   2.362   5.564   0.976
 7310SOL    HW122829   2.430   5.636   0.966
 7310SOL    HW222830   2.407   5.478   1.001
 7311SOL     OW22831   2.744   2.119   1.943
 7311SOL    HW122832   2.757   2.044   2.007
 7311SOL    HW222833   2.794   2.200   1.976
 7312SOL     OW22834   0.034   2.137   5.586
 7312SOL    HW122835   0.062   2.230   5.560
 7312SOL    HW222836   0.114   2.079   5.596
 7313SOL     OW22837   4.286   2.172   6.499
 7313SOL    HW122838   4.311   2.266   6.525
 7313SOL    HW222839   4.360   2.131   6.447
 7314SOL     OW22840   6.891   3.708   5.082
 7314SOL    HW122841   6.968   3.739   5.138
 7314SOL    HW222842   6.805   3.736   5.124
 7315SOL     OW22843   6.637   0.207   3.936
 7315SOL    HW122844   6.547   0.166   3.924
 7315SOL    HW222845   6.626   0.302   3.966
 7316SOL     OW22846   3.893   3.351   5.478
 7316SOL    HW122847   3.810   3.317   5.433
 7316SOL    HW222848   3.928   3.280   5.539
 7317SOL     OW22849   3.574   0.747   2.808
 7317SOL    HW122850   3.612   0.746   2.716
 7317SOL    HW222851   3.476   0.729   2.804
 7318SOL     OW22852   0.803   1.960   1.654
 7318SOL    HW122853   0.756   1.877   1.686
 7318SOL    HW222854   0.880   1.981   1.715
 7319SOL     OW22855   6.224   4.382   6.913
 7319SOL    HW122856   6.291   4.431   6.858
 7319SOL    HW222857   6.182   4.310   6.858
 7320SOL     OW22858   0.444   3.493   2.226
 7320SOL    HW122859   0.487   3.570   2.273
 7320SOL    HW222860   0.466   3.497   2.128
 7321SOL     OW22861   2.396   1.438   4.483
 7321SOL    HW122862   2.364   1.356   4.530
 7321SOL    HW222863   2.317   1.497   4.463
 7322SOL     OW22864   0.860   3.933   3.019
 7322SOL    HW122865   0.825   4.022   3.048
 7322SOL    HW222866   0.807   3.901   2.940
 7323SOL     OW22867   1.788   2.177   3.530
 7323SOL    HW122868   1.722   2.107   3.557
 7323SOL    HW222869   1.740   2.255   3.490
 7324SOL     OW22870   5.818   0.696   3.629
 7324SOL    HW122871   5.793   0.614   3.577
 7324SOL    HW222872   5.768   0.697   3.715
 7325SOL     OW22873   3.899   6.236   6.040
 7325SOL    HW122874   3.835   6.298   6.086
 7325SOL    HW222875   3.991   6.251   6.074
 7326SOL     OW22876   2.543   6.275   5.953
 7326SOL    HW122877   2.562   6.364   5.996
 7326SOL    HW222878   2.627   6.240   5.911
 7327SOL     OW22879   0.860   2.960   6.094
 7327SOL    HW122880   0.811   3.018   6.159
 7327SOL    HW222881   0.854   2.865   6.124
 7328SOL     OW22882   3.363   6.843   6.774
 7328SOL    HW122883   3.450   6.796   6.763
 7328SOL    HW222884   3.364   6.898   6.857
 7329SOL     OW22885   4.421   3.470   0.707
 7329SOL    HW122886   4.345   3.529   0.678
 7329SOL    HW222887   4.426   3.391   0.646
 7330SOL     OW22888   3.312   1.531   6.798
 7330SOL    HW122889   3.213   1.522   6.810
 7330SOL    HW222890   3.337   1.628   6.805
 7331SOL     OW22891   5.118   0.431   2.399
 7331SOL    HW122892   5.202   0.482   2.416
 7331SOL    HW222893   5.046   0.464   2.460
 7332SOL     OW22894   2.468   5.984   0.104
 7332SOL    HW122895   2.556   6.023   0.076
 7332SOL    HW222896   2.456   5.894   0.061
 7333SOL     OW22897   0.538   4.839   3.020
 7333SOL    HW122898   0.521   4.758   2.963
 7333SOL    HW222899   0.636   4.845   3.039
 7334SOL     OW22900   3.740   5.946   5.374
 7334SOL    HW122901   3.650   5.975   5.342
 7334SOL    HW222902   3.796   6.026   5.394
 7335SOL     OW22903   1.440   2.455   2.425
 7335SOL    HW122904   1.381   2.530   2.457
 7335SOL    HW222905   1.429   2.444   2.326
 7336SOL     OW22906   1.490   5.913   4.156
 7336SOL    HW122907   1.583   5.948   4.150
 7336SOL    HW222908   1.480   5.833   4.098
 7337SOL     OW22909   1.222   3.179   2.435
 7337SOL    HW122910   1.140   3.153   2.384
 7337SOL    HW222911   1.303   3.142   2.391
 7338SOL     OW22912   6.718   2.337   1.750
 7338SOL    HW122913   6.713   2.363   1.847
 7338SOL    HW222914   6.814   2.337   1.721
 7339SOL     OW22915   6.718   6.080   3.996
 7339SOL    HW122916   6.657   6.005   3.970
 7339SOL    HW222917   6.679   6.166   3.964
 7340SOL     OW22918   2.516   0.326   0.154
 7340SOL    HW122919   2.579   0.385   0.105
 7340SOL    HW222920   2.423   0.360   0.144
 7341SOL     OW22921   6.299   2.256   0.344
 7341SOL    HW122922   6.334   2.275   0.435
 7341SOL    HW222923   6.220   2.195   0.350
 7342SOL     OW22924   6.542   6.400   2.813
 7342SOL    HW122925   6.546   6.303   2.787
 7342SOL    HW222926   6.495   6.452   2.742
 7343SOL     OW22927   5.418   3.152   0.675
 7343SOL    HW122928   5.368   3.123   0.593
 7343SOL    HW222929   5.501   3.200   0.648
 7344SOL     OW22930   1.235   5.992   6.085
 7344SOL    HW122931   1.320   6.024   6.126
 7344SOL    HW222932   1.232   6.021   5.989
 7345SOL     OW22933   3.843   3.284   6.003
 7345SOL    HW122934   3.864   3.358   5.939
 7345SOL    HW222935   3.920   3.271   6.066
 7346SOL     OW22936   3.747   5.488   2.671
 7346SOL    HW122937   3.796   5.561   2.624
 7346SOL    HW222938   3.794   5.401   2.656
 7347SOL     OW22939   6.459   2.272   0.125
 7347SOL    HW122940   6.515   2.189   0.127
 7347SOL    HW222941   6.404   2.277   0.208
 7348SOL     OW22942   1.835   4.579   2.648
 7348SOL    HW122943   1.755   4.519   2.654
 7348SOL    HW222944   1.873   4.575   2.555
 7349SOL     OW22945   3.846   0.691   1.008
 7349SOL    HW122946   3.893   0.690   1.096
 7349SOL    HW222947   3.751   0.664   1.021
 7350SOL     OW22948   2.681   0.557   5.272
 7350SOL    HW122949   2.635   0.501   5.202
 7350SOL    HW222950   2.712   0.643   5.231
 7351SOL     OW22951   4.443   4.898   4.079
 7351SOL    HW122952   4.529   4.878   4.031
 7351SOL    HW222953   4.377   4.935   4.014
 7352SOL     OW22954   0.551   2.600   3.018
 7352SOL    HW122955   0.571   2.596   3.116
 7352SOL    HW222956   0.625   2.555   2.968
 7353SOL     OW22957   6.204   0.437   6.887
 7353SOL    HW122958   6.186   0.345   6.923
 7353SOL    HW222959   6.164   0.505   6.948
 7354SOL     OW22960   1.384   1.827   2.977
 7354SOL    HW122961   1.353   1.874   3.060
 7354SOL    HW222962   1.456   1.762   3.001
 7355SOL     OW22963   0.106   2.039   6.225
 7355SOL    HW122964   0.072   2.086   6.306
 7355SOL    HW222965   0.055   2.070   6.144
 7356SOL     OW22966   4.249   3.510   6.375
 7356SOL    HW122967   4.335   3.495   6.424
 7356SOL    HW222968   4.238   3.440   6.305
 7357SOL     OW22969   5.289   5.786   1.782
 7357SOL    HW122970   5.308   5.759   1.687
 7357SOL    HW222971   5.325   5.716   1.844
 7358SOL     OW22972   5.854   2.085   2.753
 7358SOL    HW122973   5.930   2.022   2.735
 7358SOL    HW222974   5.792   2.043   2.819
 7359SOL     OW22975   4.682   0.457   6.486
 7359SOL    HW122976   4.762   0.513   6.508
 7359SOL    HW222977   4.712   0.367   6.456
 7360SOL     OW22978   2.670   3.183   5.342
 7360SOL    HW122979   2.625   3.100   5.307
 7360SOL    HW222980   2.698   3.167   5.437
 7361SOL     OW22981   4.728   0.345   2.401
 7361SOL    HW122982   4.675   0.288   2.463
 7361SOL    HW222983   4.784   0.409   2.454
 7362SOL     OW22984   3.728   5.225   6.729
 7362SOL    HW122985   3.825   5.204   6.742
 7362SOL    HW222986   3.676   5.196   6.809
 7363SOL     OW22987   3.787   0.549   0.758
 7363SOL    HW122988   3.782   0.452   0.733
 7363SOL    HW222989   3.834   0.558   0.846
 7364SOL     OW22990   4.871   6.915   1.757
 7364SOL    HW122991   4.965   6.879   1.756
 7364SOL    HW222992   4.868   7.000   1.705
 7365SOL     OW22993   5.984   4.738   2.367
 7365SOL    HW122994   6.027   4.788   2.291
 7365SOL    HW222995   5.908   4.683   2.333
 7366SOL     OW22996   2.665   1.435   4.012
 7366SOL    HW122997   2.751   1.452   3.963
 7366SOL    HW222998   2.625   1.522   4.039
 7367SOL     OW22999   5.053   1.255   6.510
 7367SOL    HW123000   5.073   1.170   6.558
 7367SOL    HW223001   4.960   1.253   6.474
 7368SOL     OW23002   4.145   3.280   2.919
 7368SOL    HW123003   4.061   3.263   2.869
 7368SOL    HW223004   4.180   3.371   2.895
 7369SOL     OW23005   5.165   2.792   0.445
 7369SOL    HW123006   5.086   2.828   0.396
 7369SOL    HW223007   5.136   2.728   0.516
 7370SOL     OW23008   2.221   1.692   4.570
 7370SOL    HW123009   2.135   1.686   4.520
 7370SOL    HW223010   2.237   1.787   4.597
 7371SOL     OW23011   4.095   0.204   3.664
 7371SOL    HW123012   4.058   0.273   3.725
 7371SOL    HW223013   4.086   0.235   3.569
 7372SOL     OW23014   4.380   6.933   4.530
 7372SOL    HW123015   4.404   6.952   4.435
 7372SOL    HW223016   4.356   6.836   4.540
 7373SOL     OW23017   4.818   2.641   4.547
 7373SOL    HW123018   4.813   2.741   4.547
 7373SOL    HW223019   4.750   2.604   4.610
 7374SOL     OW23020   0.550   1.697   5.397
 7374SOL    HW123021   0.576   1.787   5.432
 7374SOL    HW223022   0.623   1.661   5.339
 7375SOL     OW23023   1.861   2.948   2.313
 7375SOL    HW123024   1.846   2.850   2.326
 7375SOL    HW223025   1.830   2.976   2.222
 7376SOL     OW23026   0.338   4.152   0.541
 7376SOL    HW123027   0.243   4.164   0.512
 7376SOL    HW223028   0.345   4.164   0.640
 7377SOL     OW23029   3.019   5.495   0.169
 7377SOL    HW123030   2.931   5.538   0.149
 7377SOL    HW223031   3.091   5.564   0.169
 7378SOL     OW23032   1.445   6.218   3.675
 7378SOL    HW123033   1.540   6.220   3.643
 7378SOL    HW223034   1.443   6.224   3.774
 7379SOL     OW23035   4.103   0.669   0.837
 7379SOL    HW123036   4.112   0.572   0.856
 7379SOL    HW223037   4.015   0.702   0.872
 7380SOL     OW23038   5.909   3.509   3.629
 7380SOL    HW123039   5.875   3.497   3.536
 7380SOL    HW223040   5.999   3.554   3.626
 7381SOL     OW23041   3.769   0.926   0.183
 7381SOL    HW123042   3.726   0.878   0.260
 7381SOL    HW223043   3.713   1.005   0.158
 7382SOL     OW23044   6.782   1.179   6.078
 7382SOL    HW123045   6.746   1.268   6.048
 7382SOL    HW223046   6.748   1.159   6.169
 7383SOL     OW23047   1.740   6.465   1.523
 7383SOL    HW123048   1.775   6.451   1.430
 7383SOL    HW223049   1.756   6.382   1.577
 7384SOL     OW23050   0.407   7.002   0.992
 7384SOL    HW123051   0.325   0.041   0.988
 7384SOL    HW223052   0.392   6.918   0.940
 7385SOL     OW23053   4.448   4.911   2.561
 7385SOL    HW123054   4.473   4.986   2.621
 7385SOL    HW223055   4.391   4.846   2.610
 7386SOL     OW23056   6.199   3.262   0.780
 7386SOL    HW123057   6.211   3.300   0.688
 7386SOL    HW223058   6.274   3.200   0.800
 7387SOL     OW23059   6.605   4.791   5.561
 7387SOL    HW123060   6.584   4.849   5.639
 7387SOL    HW223061   6.537   4.807   5.488
 7388SOL     OW23062   1.896   6.408   2.364
 7388SOL    HW123063   1.877   6.325   2.311
 7388SOL    HW223064   1.850   6.486   2.321
 7389SOL     OW23065   6.795   3.129   0.148
 7389SOL    HW123066   6.735   3.209   0.154
 7389SOL    HW223067   6.799   3.085   0.238
 7390SOL     OW23068   2.607   2.123   2.651
 7390SOL    HW123069   2.693   2.173   2.657
 7390SOL    HW223070   2.603   2.055   2.725
 7391SOL     OW23071   3.611   3.362   2.935
 7391SOL    HW123072   3.701   3.405   2.934
 7391SOL    HW223073   3.544   3.423   2.893
 7392SOL     OW23074   3.747   5.170   6.430
 7392SOL    HW123075   3.761   5.212   6.520
 7392SOL    HW223076   3.834   5.132   6.398
 7393SOL     OW23077   6.013   5.369   4.481
 7393SOL    HW123078   6.056   5.447   4.434
 7393SOL    HW223079   5.915   5.368   4.460
 7394SOL     OW23080   2.366   2.461   6.120
 7394SOL    HW123081   2.429   2.526   6.077
 7394SOL    HW223082   2.332   2.499   6.206
 7395SOL     OW23083   2.916   4.577   1.090
 7395SOL    HW123084   2.877   4.662   1.123
 7395SOL    HW223085   2.887   4.501   1.149
 7396SOL     OW23086   2.337   5.193   1.884
 7396SOL    HW123087   2.384   5.256   1.824
 7396SOL    HW223088   2.359   5.215   1.979
 7397SOL     OW23089   5.372   4.217   3.937
 7397SOL    HW123090   5.466   4.207   3.904
 7397SOL    HW223091   5.352   4.145   4.003
 7398SOL     OW23092   2.088   4.688   2.744
 7398SOL    HW123093   2.113   4.594   2.766
 7398SOL    HW223094   2.010   4.688   2.681
 7399SOL     OW23095   5.408   1.743   4.899
 7399SOL    HW123096   5.469   1.822   4.898
 7399SOL    HW223097   5.313   1.773   4.904
 7400SOL     OW23098   5.323   2.427   5.436
 7400SOL    HW123099   5.317   2.332   5.466
 7400SOL    HW223100   5.349   2.485   5.513
 7401SOL     OW23101   0.651   2.679   3.730
 7401SOL    HW123102   0.601   2.593   3.719
 7401SOL    HW223103   0.736   2.662   3.779
 7402SOL     OW23104   3.126   6.086   5.371
 7402SOL    HW123105   3.053   6.017   5.375
 7402SOL    HW223106   3.093   6.171   5.411
 7403SOL     OW23107   1.542   3.049   4.405
 7403SOL    HW123108   1.592   2.969   4.438
 7403SOL    HW223109   1.472   3.020   4.339
 7404SOL     OW23110   3.276   3.720   1.029
 7404SOL    HW123111   3.279   3.647   1.097
 7404SOL    HW223112   3.182   3.733   0.997
 7405SOL     OW23113   3.126   5.907   5.014
 7405SOL    HW123114   3.173   5.983   5.061
 7405SOL    HW223115   3.174   5.886   4.930
 7406SOL     OW23116   0.619   0.950   4.847
 7406SOL    HW123117   0.696   1.002   4.883
 7406SOL    HW223118   0.555   1.012   4.802
 7407SOL     OW23119   0.883   6.283   5.821
 7407SOL    HW123120   0.898   6.343   5.742
 7407SOL    HW223121   0.942   6.203   5.814
 7408SOL     OW23122   3.580   3.782   5.220
 7408SOL    HW123123   3.494   3.834   5.213
 7408SOL    HW223124   3.644   3.815   5.151
 7409SOL     OW23125   6.182   4.167   0.597
 7409SOL    HW123126   6.202   4.262   0.575
 7409SOL    HW223127   6.084   4.157   0.616
 7410SOL     OW23128   6.589   0.275   1.604
 7410SOL    HW123129   6.553   0.359   1.644
 7410SOL    HW223130   6.642   0.225   1.673
 7411SOL     OW23131   1.421   1.923   5.229
 7411SOL    HW123132   1.338   1.980   5.233
 7411SOL    HW223133   1.487   1.966   5.168
 7412SOL     OW23134   4.170   6.776   0.007
 7412SOL    HW123135   4.248   6.800   0.065
 7412SOL    HW223136   4.094   6.837   0.028
 7413SOL     OW23137   4.066   6.618   3.082
 7413SOL    HW123138   4.032   6.526   3.060
 7413SOL    HW223139   4.140   6.642   3.019
 7414SOL     OW23140   2.577   2.358   4.041
 7414SOL    HW123141   2.578   2.259   4.051
 7414SOL    HW223142   2.564   2.400   4.131
 7415SOL     OW23143   4.087   6.112   6.329
 7415SOL    HW123144   4.145   6.148   6.401
 7415SOL    HW223145   4.112   6.153   6.242
 7416SOL     OW23146   1.155   1.651   2.535
 7416SOL    HW123147   1.238   1.706   2.548
 7416SOL    HW223148   1.137   1.598   2.618
 7417SOL     OW23149   0.942   1.898   3.803
 7417SOL    HW123150   0.884   1.966   3.759
 7417SOL    HW223151   0.990   1.845   3.734
 7418SOL     OW23152   1.810   3.631   6.401
 7418SOL    HW123153   1.738   3.571   6.365
 7418SOL    HW223154   1.772   3.722   6.416
 7419SOL     OW23155   6.673   3.851   3.884
 7419SOL    HW123156   6.603   3.855   3.813
 7419SOL    HW223157   6.638   3.891   3.968
 7420SOL     OW23158   6.424   6.988   2.055
 7420SOL    HW123159   6.342   7.005   2.001
 7420SOL    HW223160   6.448   6.891   2.049
 7421SOL     OW23161   5.092   3.711   1.662
 7421SOL    HW123162   5.069   3.648   1.588
 7421SOL    HW223163   5.011   3.728   1.718
 7422SOL     OW23164   5.534   2.780   1.903
 7422SOL    HW123165   5.452   2.748   1.856
 7422SOL    HW223166   5.548   2.726   1.986
 7423SOL     OW23167   5.516   1.817   5.816
 7423SOL    HW123168   5.562   1.859   5.738
 7423SOL    HW223169   5.533   1.872   5.898
 7424SOL     OW23170   0.732   1.788   3.915
 7424SOL    HW123171   0.755   1.700   3.957
 7424SOL    HW223172   0.816   1.837   3.894
 7425SOL     OW23173   5.958   0.176   0.081
 7425SOL    HW123174   6.058   0.182   0.084
 7425SOL    HW223175   5.931   0.082   0.061
 7426SOL     OW23176   3.342   2.931   5.830
 7426SOL    HW123177   3.407   2.947   5.755
 7426SOL    HW223178   3.376   2.976   5.912
 7427SOL     OW23179   3.614   1.638   4.282
 7427SOL    HW123180   3.639   1.712   4.220
 7427SOL    HW223181   3.543   1.581   4.239
 7428SOL     OW23182   4.078   5.618   5.551
 7428SOL    HW123183   4.160   5.570   5.522
 7428SOL    HW223184   4.034   5.568   5.626
 7429SOL     OW23185   1.780   0.044   2.298
 7429SOL    HW123186   1.803   6.985   2.238
 7429SOL    HW223187   1.691   0.082   2.271
 7430SOL     OW23188   6.188   5.159   2.840
 7430SOL    HW123189   6.225   5.079   2.794
 7430SOL    HW223190   6.174   5.139   2.937
 7431SOL     OW23191   1.572   2.116   4.702
 7431SOL    HW123192   1.628   2.042   4.665
 7431SOL    HW223193   1.533   2.170   4.627
 7432SOL     OW23194   2.144   0.222   3.069
 7432SOL    HW123195   2.236   0.182   3.076
 7432SOL    HW223196   2.101   0.222   3.159
 7433SOL     OW23197   2.034   0.494   6.729
 7433SOL    HW123198   2.001   0.528   6.817
 7433SOL    HW223199   1.970   0.521   6.657
 7434SOL     OW23200   4.011   5.786   5.748
 7434SOL    HW123201   4.063   5.777   5.663
 7434SOL    HW223202   4.045   5.865   5.800
 7435SOL     OW23203   4.817   5.613   3.171
 7435SOL    HW123204   4.817   5.693   3.231
 7435SOL    HW223205   4.821   5.642   3.075
 7436SOL     OW23206   5.546   3.022   6.625
 7436SOL    HW123207   5.520   2.969   6.545
 7436SOL    HW223208   5.579   3.112   6.597
 7437SOL     OW23209   4.117   6.282   1.140
 7437SOL    HW123210   4.197   6.228   1.167
 7437SOL    HW223211   4.077   6.325   1.221
 7438SOL     OW23212   2.593   0.556   0.289
 7438SOL    HW123213   2.688   0.561   0.258
 7438SOL    HW223214   2.560   0.461   0.280
 7439SOL     OW23215   0.682   4.558   6.256
 7439SOL    HW123216   0.688   4.645   6.304
 7439SOL    HW223217   0.626   4.494   6.309
 7440SOL     OW23218   4.960   3.118   4.425
 7440SOL    HW123219   4.915   3.148   4.341
 7440SOL    HW223220   4.990   3.024   4.414
 7441SOL     OW23221   5.875   6.232   1.750
 7441SOL    HW123222   5.788   6.184   1.745
 7441SOL    HW223223   5.948   6.167   1.768
 7442SOL     OW23224   5.208   0.475   5.146
 7442SOL    HW123225   5.258   0.446   5.228
 7442SOL    HW223226   5.126   0.419   5.137
 7443SOL     OW23227   0.206   0.486   2.061
 7443SOL    HW123228   0.296   0.443   2.073
 7443SOL    HW223229   0.139   0.417   2.033
 7444SOL     OW23230   0.854   6.475   6.343
 7444SOL    HW123231   0.789   6.521   6.403
 7444SOL    HW223232   0.807   6.446   6.259
 7445SOL     OW23233   4.346   5.947   1.485
 7445SOL    HW123234   4.352   6.041   1.517
 7445SOL    HW223235   4.430   5.898   1.508
 7446SOL     OW23236   5.200   4.052   0.271
 7446SOL    HW123237   5.140   3.974   0.288
 7446SOL    HW223238   5.145   4.136   0.268
 7447SOL     OW23239   0.793   4.976   1.420
 7447SOL    HW123240   0.815   4.913   1.345
 7447SOL    HW223241   0.846   4.951   1.500
 7448SOL     OW23242   4.847   4.883   6.000
 7448SOL    HW123243   4.762   4.895   6.051
 7448SOL    HW223244   4.879   4.972   5.967
 7449SOL     OW23245   0.490   4.715   6.554
 7449SOL    HW123246   0.392   4.727   6.540
 7449SOL    HW223247   0.517   4.624   6.523
 7450SOL     OW23248   5.074   2.057   5.852
 7450SOL    HW123249   5.041   2.084   5.762
 7450SOL    HW223250   5.085   1.958   5.857
 7451SOL     OW23251   5.475   4.878   2.720
 7451SOL    HW123252   5.540   4.885   2.795
 7451SOL    HW223253   5.442   4.784   2.713
 7452SOL     OW23254   5.895   5.379   5.217
 7452SOL    HW123255   5.830   5.347   5.286
 7452SOL    HW223256   5.988   5.360   5.248
 7453SOL     OW23257   3.836   5.747   6.948
 7453SOL    HW123258   3.798   5.660   6.917
 7453SOL    HW223259   3.927   5.731   6.987
 7454SOL     OW23260   3.839   2.089   0.526
 7454SOL    HW123261   3.749   2.080   0.484
 7454SOL    HW223262   3.853   2.184   0.554
 7455SOL     OW23263   6.939   3.147   3.086
 7455SOL    HW123264   6.883   3.066   3.068
 7455SOL    HW223265   6.917   3.183   3.176
 7456SOL     OW23266   2.993   1.966   5.242
 7456SOL    HW123267   2.980   1.873   5.209
 7456SOL    HW223268   3.078   2.003   5.204
 7457SOL     OW23269   2.923   0.371   2.939
 7457SOL    HW123270   3.015   0.338   2.921
 7457SOL    HW223271   2.911   0.463   2.900
 7458SOL     OW23272   1.293   6.001   5.311
 7458SOL    HW123273   1.343   5.997   5.225
 7458SOL    HW223274   1.232   6.081   5.310
 7459SOL     OW23275   5.816   0.792   2.799
 7459SOL    HW123276   5.779   0.720   2.858
 7459SOL    HW223277   5.764   0.795   2.713
 7460SOL     OW23278   1.518   6.904   0.731
 7460SOL    HW123279   1.522   6.815   0.777
 7460SOL    HW223280   1.544   6.975   0.796
 7461SOL     OW23281   1.403   4.950   6.250
 7461SOL    HW123282   1.484   4.963   6.193
 7461SOL    HW223283   1.321   4.968   6.196
 7462SOL     OW23284   1.105   4.962   0.829
 7462SOL    HW123285   1.012   4.962   0.866
 7462SOL    HW223286   1.142   4.869   0.831
 7463SOL     OW23287   3.421   4.383   0.544
 7463SOL    HW123288   3.474   4.412   0.464
 7463SOL    HW223289   3.335   4.341   0.514
 7464SOL     OW23290   6.432   6.022   5.702
 7464SOL    HW123291   6.443   5.986   5.609
 7464SOL    HW223292   6.339   6.059   5.712
 7465SOL     OW23293   2.125   4.878   0.390
 7465SOL    HW123294   2.042   4.933   0.400
 7465SOL    HW223295   2.167   4.896   0.301
 7466SOL     OW23296   0.558   6.515   4.645
 7466SOL    HW123297   0.594   6.605   4.622
 7466SOL    HW223298   0.517   6.474   4.563
 7467SOL     OW23299   0.459   3.509   5.786
 7467SOL    HW123300   0.555   3.530   5.804
 7467SOL    HW223301   0.435   3.423   5.832
 7468SOL     OW23302   5.862   3.504   5.695
 7468SOL    HW123303   5.831   3.597   5.675
 7468SOL    HW223304   5.811   3.468   5.773
 7469SOL     OW23305   6.929   2.345   1.346
 7469SOL    HW123306   6.898   2.322   1.253
 7469SOL    HW223307   0.011   2.344   1.349
 7470SOL     OW23308   5.287   2.977   3.699
 7470SOL    HW123309   5.350   2.905   3.669
 7470SOL    HW223310   5.238   3.013   3.620
 7471SOL     OW23311   5.240   5.750   6.047
 7471SOL    HW123312   5.156   5.805   6.048
 7471SOL    HW223313   5.291   5.769   5.963
 7472SOL     OW23314   6.175   6.096   5.638
 7472SOL    HW123315   6.174   6.181   5.691
 7472SOL    HW223316   6.118   6.106   5.557
 7473SOL     OW23317   3.982   5.961   3.832
 7473SOL    HW123318   4.051   5.890   3.828
 7473SOL    HW223319   3.976   5.997   3.925
 7474SOL     OW23320   6.662   1.890   5.564
 7474SOL    HW123321   6.632   1.824   5.633
 7474SOL    HW223322   6.678   1.978   5.607
 7475SOL     OW23323   4.876   2.452   0.972
 7475SOL    HW123324   4.793   2.399   0.988
 7475SOL    HW223325   4.925   2.463   1.059
 7476SOL     OW23326   1.811   1.052   2.792
 7476SOL    HW123327   1.822   1.149   2.812
 7476SOL    HW223328   1.865   0.998   2.856
 7477SOL     OW23329   1.229   4.488   5.027
 7477SOL    HW123330   1.172   4.411   5.055
 7477SOL    HW223331   1.171   4.560   4.988
 7478SOL     OW23332   0.680   1.212   5.754
 7478SOL    HW123333   0.674   1.134   5.692
 7478SOL    HW223334   0.638   1.292   5.711
 7479SOL     OW23335   6.448   3.179   6.941
 7479SOL    HW123336   6.435   3.121   6.860
 7479SOL    HW223337   6.362   3.227   6.961
 7480SOL     OW23338   3.764   5.220   2.606
 7480SOL    HW123339   3.739   5.189   2.698
 7480SOL    HW223340   3.712   5.168   2.538
 7481SOL     OW23341   0.329   4.016   6.802
 7481SOL    HW123342   0.262   4.089   6.815
 7481SOL    HW223343   0.414   4.039   6.851
 7482SOL     OW23344   3.901   2.125   2.751
 7482SOL    HW123345   3.840   2.121   2.672
 7482SOL    HW223346   3.970   2.052   2.745
 7483SOL     OW23347   4.331   2.243   6.185
 7483SOL    HW123348   4.361   2.175   6.252
 7483SOL    HW223349   4.356   2.212   6.093
 7484SOL     OW23350   3.018   6.522   4.055
 7484SOL    HW123351   3.118   6.522   4.049
 7484SOL    HW223352   2.984   6.616   4.050
 7485SOL     OW23353   2.639   0.104   4.630
 7485SOL    HW123354   2.668   0.198   4.647
 7485SOL    HW223355   2.673   0.075   4.540
 7486SOL     OW23356   2.323   6.280   0.887
 7486SOL    HW123357   2.226   6.302   0.876
 7486SOL    HW223358   2.341   6.191   0.846
 7487SOL     OW23359   3.966   6.462   3.708
 7487SOL    HW123360   4.048   6.418   3.671
 7487SOL    HW223361   3.885   6.426   3.661
 7488SOL     OW23362   0.861   5.473   3.875
 7488SOL    HW123363   0.885   5.440   3.784
 7488SOL    HW223364   0.774   5.522   3.870
 7489SOL     OW23365   6.579   3.366   6.330
 7489SOL    HW123366   6.508   3.431   6.303
 7489SOL    HW223367   6.635   3.343   6.251
 7490SOL     OW23368   1.180   2.050   2.190
 7490SOL    HW123369   1.117   2.069   2.265
 7490SOL    HW223370   1.180   1.952   2.170
 7491SOL     OW23371   4.360   3.117   0.339
 7491SOL    HW123372   4.348   3.088   0.244
 7491SOL    HW223373   4.297   3.067   0.397
 7492SOL     OW23374   1.359   0.536   4.301
 7492SOL    HW123375   1.415   0.599   4.356
 7492SOL    HW223376   1.294   0.589   4.246
 7493SOL     OW23377   6.678   4.500   4.871
 7493SOL    HW123378   6.746   4.557   4.917
 7493SOL    HW223379   6.677   4.409   4.911
 7494SOL     OW23380   6.074   1.447   3.039
 7494SOL    HW123381   6.073   1.413   2.945
 7494SOL    HW223382   6.131   1.528   3.045
 7495SOL     OW23383   1.759   3.931   4.938
 7495SOL    HW123384   1.811   3.866   4.883
 7495SOL    HW223385   1.674   3.888   4.969
 7496SOL     OW23386   5.633   4.032   2.573
 7496SOL    HW123387   5.560   4.075   2.627
 7496SOL    HW223388   5.594   3.994   2.490
 7497SOL     OW23389   0.073   6.735   0.373
 7497SOL    HW123390   0.168   6.729   0.342
 7497SOL    HW223391   0.070   6.740   0.473
 7498SOL     OW23392   2.973   0.652   2.625
 7498SOL    HW123393   3.063   0.694   2.633
 7498SOL    HW223394   2.983   0.553   2.619
 7499SOL     OW23395   4.150   1.672   3.702
 7499SOL    HW123396   4.197   1.584   3.712
 7499SOL    HW223397   4.061   1.658   3.659
 7500SOL     OW23398   3.625   6.571   2.941
 7500SOL    HW123399   3.545   6.556   3.000
 7500SOL    HW223400   3.598   6.560   2.846
 7501SOL     OW23401   6.174   2.254   4.619
 7501SOL    HW123402   6.175   2.302   4.707
 7501SOL    HW223403   6.134   2.313   4.549
 7502SOL     OW23404   4.042   0.456   4.326
 7502SOL    HW123405   3.945   0.434   4.335
 7502SOL    HW223406   4.090   0.426   4.409
 7503SOL     OW23407   1.789   6.248   1.668
 7503SOL    HW123408   1.756   6.166   1.621
 7503SOL    HW223409   1.884   6.266   1.643
 7504SOL     OW23410   6.231   6.371   3.439
 7504SOL    HW123411   6.281   6.307   3.380
 7504SOL    HW223412   6.294   6.443   3.470
 7505SOL     OW23413   1.076   6.813   5.589
 7505SOL    HW123414   1.115   6.898   5.554
 7505SOL    HW223415   1.117   6.736   5.542
 7506SOL     OW23416   2.727   1.620   3.202
 7506SOL    HW123417   2.659   1.657   3.265
 7506SOL    HW223418   2.683   1.558   3.137
 7507SOL     OW23419   6.311   3.971   4.872
 7507SOL    HW123420   6.215   3.977   4.902
 7507SOL    HW223421   6.324   3.889   4.818
 7508SOL     OW23422   1.744   6.106   6.528
 7508SOL    HW123423   1.832   6.091   6.572
 7508SOL    HW223424   1.683   6.156   6.590
 7509SOL     OW23425   5.121   4.345   0.481
 7509SOL    HW123426   5.219   4.337   0.466
 7509SOL    HW223427   5.091   4.276   0.546
 7510SOL     OW23428   3.770   3.647   3.722
 7510SOL    HW123429   3.806   3.737   3.700
 7510SOL    HW223430   3.770   3.589   3.640
 7511SOL     OW23431   3.394   5.974   3.635
 7511SOL    HW123432   3.484   5.998   3.672
 7511SOL    HW223433   3.406   5.915   3.555
 7512SOL     OW23434   3.618   6.470   5.965
 7512SOL    HW123435   3.680   6.472   6.044
 7512SOL    HW223436   3.544   6.535   5.978
 7513SOL     OW23437   0.619   2.064   2.456
 7513SOL    HW123438   0.522   2.087   2.448
 7513SOL    HW223439   0.672   2.147   2.471
 7514SOL     OW23440   1.838   4.175   2.443
 7514SOL    HW123441   1.916   4.121   2.410
 7514SOL    HW223442   1.767   4.115   2.478
 7515SOL     OW23443   0.141   4.639   4.087
 7515SOL    HW123444   0.215   4.638   4.154
 7515SOL    HW223445   0.133   4.729   4.046
 7516SOL     OW23446   1.255   6.211   5.572
 7516SOL    HW123447   1.224   6.300   5.607
 7516SOL    HW223448   1.274   6.218   5.475
 7517SOL     OW23449   0.500   1.304   6.886
 7517SOL    HW123450   0.426   1.370   6.894
 7517SOL    HW223451   0.585   1.343   6.924
 7518SOL     OW23452   4.736   2.862   3.860
 7518SOL    HW123453   4.736   2.790   3.791
 7518SOL    HW223454   4.730   2.951   3.815
 7519SOL     OW23455   3.644   6.432   4.446
 7519SOL    HW123456   3.675   6.476   4.362
 7519SOL    HW223457   3.602   6.500   4.506
 7520SOL     OW23458   1.717   1.855   0.778
 7520SOL    HW123459   1.757   1.938   0.818
 7520SOL    HW223460   1.730   1.856   0.679
 7521SOL     OW23461   3.974   1.335   5.680
 7521SOL    HW123462   4.020   1.421   5.699
 7521SOL    HW223463   3.972   1.319   5.581
 7522SOL     OW23464   1.782   7.015   2.728
 7522SOL    HW123465   1.806   0.095   2.722
 7522SOL    HW223466   1.700   7.005   2.785
 7523SOL     OW23467   5.325   1.218   6.440
 7523SOL    HW123468   5.227   1.210   6.461
 7523SOL    HW223469   5.350   1.314   6.436
 7524SOL     OW23470   0.258   3.414   5.122
 7524SOL    HW123471   0.293   3.333   5.169
 7524SOL    HW223472   0.307   3.495   5.153
 7525SOL     OW23473   4.402   5.711   6.415
 7525SOL    HW123474   4.365   5.713   6.322
 7525SOL    HW223475   4.329   5.736   6.479
 7526SOL     OW23476   2.485   3.319   1.679
 7526SOL    HW123477   2.419   3.371   1.733
 7526SOL    HW223478   2.474   3.340   1.582
 7527SOL     OW23479   4.164   5.505   3.905
 7527SOL    HW123480   4.071   5.528   3.932
 7527SOL    HW223481   4.170   5.407   3.886
 7528SOL     OW23482   6.975   3.203   6.242
 7528SOL    HW123483   6.904   3.253   6.193
 7528SOL    HW223484   6.933   3.130   6.296
 7529SOL     OW23485   6.565   2.935   4.340
 7529SOL    HW123486   6.652   2.909   4.298
 7529SOL    HW223487   6.529   2.859   4.393
 7530SOL     OW23488   6.691   2.143   2.074
 7530SOL    HW123489   6.617   2.101   2.022
 7530SOL    HW223490   6.692   2.242   2.057
 7531SOL     OW23491   4.220   1.889   3.879
 7531SOL    HW123492   4.137   1.924   3.922
 7531SOL    HW223493   4.198   1.847   3.791
 7532SOL     OW23494   4.372   5.125   6.362
 7532SOL    HW123495   4.377   5.224   6.358
 7532SOL    HW223496   4.375   5.095   6.457
 7533SOL     OW23497   4.863   3.820   1.816
 7533SOL    HW123498   4.815   3.908   1.814
 7533SOL    HW223499   4.797   3.745   1.808
 7534SOL     OW23500   4.734   6.640   4.360
 7534SOL    HW123501   4.728   6.692   4.445
 7534SOL    HW223502   4.753   6.702   4.284
 7535SOL     OW23503   0.601   5.231   3.799
 7535SOL    HW123504   0.603   5.329   3.816
 7535SOL    HW223505   0.542   5.212   3.720
 7536SOL     OW23506   4.820   5.880   4.410
 7536SOL    HW123507   4.847   5.802   4.464
 7536SOL    HW223508   4.803   5.851   4.315
 7537SOL     OW23509   3.274   6.450   3.498
 7537SOL    HW123510   3.259   6.352   3.514
 7537SOL    HW223511   3.270   6.499   3.585
 7538SOL     OW23512   0.847   4.224   0.835
 7538SOL    HW123513   0.925   4.185   0.786
 7538SOL    HW223514   0.878   4.303   0.888
 7539SOL     OW23515   0.619   5.948   3.560
 7539SOL    HW123516   0.703   6.002   3.564
 7539SOL    HW223517   0.564   5.967   3.641
 7540SOL     OW23518   6.157   5.336   3.695
 7540SOL    HW123519   6.090   5.320   3.623
 7540SOL    HW223520   6.208   5.252   3.713
 7541SOL     OW23521   1.506   4.070   6.811
 7541SOL    HW123522   1.582   4.032   6.758
 7541SOL    HW223523   1.515   4.043   6.907
 7542SOL     OW23524   6.175   5.661   5.821
 7542SOL    HW123525   6.091   5.702   5.856
 7542SOL    HW223526   6.236   5.639   5.898
 7543SOL     OW23527   2.683   0.915   6.272
 7543SOL    HW123528   2.701   0.933   6.176
 7543SOL    HW223529   2.755   0.956   6.328
 7544SOL     OW23530   0.207   2.768   4.345
 7544SOL    HW123531   0.252   2.730   4.264
 7544SOL    HW223532   0.132   2.708   4.372
 7545SOL     OW23533   0.800   5.035   6.870
 7545SOL    HW123534   0.783   5.113   6.930
 7545SOL    HW223535   0.804   4.951   6.924
 7546SOL     OW23536   3.359   2.795   1.941
 7546SOL    HW123537   3.447   2.833   1.967
 7546SOL    HW223538   3.366   2.752   1.851
 7547SOL     OW23539   4.277   0.418   2.162
 7547SOL    HW123540   4.362   0.469   2.148
 7547SOL    HW223541   4.236   0.396   2.074
 7548SOL     OW23542   4.080   2.290   6.681
 7548SOL    HW123543   4.005   2.227   6.701
 7548SOL    HW223544   4.152   2.242   6.630
 7549SOL     OW23545   4.854   2.450   4.891
 7549SOL    HW123546   4.780   2.500   4.845
 7549SOL    HW223547   4.834   2.352   4.888
 7550SOL     OW23548   2.271   4.127   4.300
 7550SOL    HW123549   2.338   4.190   4.263
 7550SOL    HW223550   2.186   4.133   4.248
 7551SOL     OW23551   5.945   2.632   5.878
 7551SOL    HW123552   5.882   2.640   5.802
 7551SOL    HW223553   6.016   2.566   5.856
 7552SOL     OW23554   2.454   5.815   4.842
 7552SOL    HW123555   2.449   5.733   4.785
 7552SOL    HW223556   2.521   5.879   4.802
 7553SOL     OW23557   5.683   6.164   5.936
 7553SOL    HW123558   5.660   6.127   6.026
 7553SOL    HW223559   5.759   6.229   5.946
 7554SOL     OW23560   5.460   0.937   1.323
 7554SOL    HW123561   5.495   0.936   1.417
 7554SOL    HW223562   5.365   0.905   1.323
 7555SOL     OW23563   3.341   5.063   5.553
 7555SOL    HW123564   3.398   4.985   5.524
 7555SOL    HW223565   3.396   5.147   5.550
 7556SOL     OW23566   0.161   0.112   0.969
 7556SOL    HW123567   0.127   0.051   0.897
 7556SOL    HW223568   0.089   0.177   0.995
 7557SOL     OW23569   4.666   0.550   0.027
 7557SOL    HW123570   4.621   0.599   6.970
 7557SOL    HW223571   4.744   0.604   0.060
 7558SOL     OW23572   1.135   2.172   4.274
 7558SOL    HW123573   1.190   2.171   4.357
 7558SOL    HW223574   1.081   2.089   4.268
 7559SOL     OW23575   3.964   1.862   4.834
 7559SOL    HW123576   4.028   1.923   4.788
 7559SOL    HW223577   3.967   1.771   4.792
 7560SOL     OW23578   0.451   1.043   6.166
 7560SOL    HW123579   0.511   1.032   6.246
 7560SOL    HW223580   0.507   1.061   6.085
 7561SOL     OW23581   5.703   1.979   4.759
 7561SOL    HW123582   5.749   2.005   4.673
 7561SOL    HW223583   5.610   2.016   4.759
 7562SOL     OW23584   1.157   4.450   3.990
 7562SOL    HW123585   1.167   4.522   3.921
 7562SOL    HW223586   1.240   4.447   4.046
 7563SOL     OW23587   3.540   5.484   2.522
 7563SOL    HW123588   3.538   5.425   2.441
 7563SOL    HW223589   3.621   5.464   2.576
 7564SOL     OW23590   4.754   1.561   4.589
 7564SOL    HW123591   4.754   1.575   4.688
 7564SOL    HW223592   4.690   1.489   4.565
 7565SOL     OW23593   5.393   3.935   6.329
 7565SOL    HW123594   5.315   3.952   6.390
 7565SOL    HW223595   5.398   4.006   6.260
 7566SOL     OW23596   3.976   4.277   1.342
 7566SOL    HW123597   4.027   4.259   1.426
 7566SOL    HW223598   3.980   4.375   1.321
 7567SOL     OW23599   1.718   0.565   4.804
 7567SOL    HW123600   1.744   0.469   4.789
 7567SOL    HW223601   1.800   0.619   4.821
 7568SOL     OW23602   6.015   5.539   1.747
 7568SOL    HW123603   5.994   5.478   1.671
 7568SOL    HW223604   5.930   5.564   1.794
 7569SOL     OW23605   4.730   3.812   0.127
 7569SOL    HW123606   4.763   3.905   0.112
 7569SOL    HW223607   4.635   3.805   0.097
 7570SOL     OW23608   6.432   2.993   3.076
 7570SOL    HW123609   6.355   2.973   3.015
 7570SOL    HW223610   6.497   3.053   3.028
 7571SOL     OW23611   4.606   2.392   3.109
 7571SOL    HW123612   4.562   2.303   3.098
 7571SOL    HW223613   4.620   2.410   3.207
 7572SOL     OW23614   4.674   6.204   2.153
 7572SOL    HW123615   4.662   6.303   2.155
 7572SOL    HW223616   4.741   6.180   2.084
 7573SOL     OW23617   4.795   6.227   5.409
 7573SOL    HW123618   4.760   6.279   5.486
 7573SOL    HW223619   4.837   6.142   5.442
 7574SOL     OW23620   6.910   1.176   4.248
 7574SOL    HW123621   6.893   1.263   4.201
 7574SOL    HW223622   6.971   1.192   4.326
 7575SOL     OW23623   0.180   6.814   2.396
 7575SOL    HW123624   0.090   6.787   2.361
 7575SOL    HW223625   0.252   6.765   2.347
 7576SOL     OW23626   5.725   3.243   0.693
 7576SOL    HW123627   5.753   3.223   0.787
 7576SOL    HW223628   5.698   3.339   0.687
 7577SOL     OW23629   1.277   0.162   0.722
 7577SOL    HW123630   1.352   0.228   0.717
 7577SOL    HW223631   1.285   0.096   0.647
 7578SOL     OW23632   0.235   5.580   3.383
 7578SOL    HW123633   0.309   5.609   3.323
 7578SOL    HW223634   0.244   5.482   3.401
 7579SOL     OW23635   6.854   1.225   6.975
 7579SOL    HW123636   6.868   1.181   0.046
 7579SOL    HW223637   6.927   1.293   6.960
 7580SOL     OW23638   2.375   4.774   3.783
 7580SOL    HW123639   2.409   4.688   3.743
 7580SOL    HW223640   2.422   4.791   3.870
 7581SOL     OW23641   6.646   0.954   2.581
 7581SOL    HW123642   6.665   0.909   2.493
 7581SOL    HW223643   6.733   0.973   2.628
 7582SOL     OW23644   3.376   0.980   4.968
 7582SOL    HW123645   3.411   1.069   4.939
 7582SOL    HW223646   3.431   0.907   4.927
 7583SOL     OW23647   5.129   2.981   2.776
 7583SOL    HW123648   5.187   2.900   2.780
 7583SOL    HW223649   5.164   3.051   2.839
 7584SOL     OW23650   0.204   0.883   3.034
 7584SOL    HW123651   0.168   0.947   3.102
 7584SOL    HW223652   0.284   0.922   2.989
 7585SOL     OW23653   1.166   1.644   0.165
 7585SOL    HW123654   1.106   1.572   0.129
 7585SOL    HW223655   1.189   1.707   0.091
 7586SOL     OW23656   1.373   2.233   2.826
 7586SOL    HW123657   1.467   2.211   2.802
 7586SOL    HW223658   1.315   2.153   2.808
 7587SOL     OW23659   3.337   0.832   0.783
 7587SOL    HW123660   3.421   0.790   0.749
 7587SOL    HW223661   3.358   0.921   0.824
 7588SOL     OW23662   1.801   2.448   4.576
 7588SOL    HW123663   1.811   2.502   4.493
 7588SOL    HW223664   1.799   2.508   4.656
 7589SOL     OW23665   0.455   0.938   2.910
 7589SOL    HW123666   0.525   0.884   2.956
 7589SOL    HW223667   0.443   1.025   2.958
 7590SOL     OW23668   0.103   1.669   6.511
 7590SOL    HW123669   0.103   1.718   6.424
 7590SOL    HW223670   0.118   1.571   6.495
 7591SOL     OW23671   4.199   3.286   5.364
 7591SOL    HW123672   4.133   3.212   5.374
 7591SOL    HW223673   4.171   3.346   5.290
 7592SOL     OW23674   6.762   6.215   4.748
 7592SOL    HW123675   6.690   6.257   4.692
 7592SOL    HW223676   6.745   6.117   4.757
 7593SOL     OW23677   1.139   1.405   5.862
 7593SOL    HW123678   1.066   1.355   5.908
 7593SOL    HW223679   1.191   1.342   5.804
 7594SOL     OW23680   0.252   4.399   0.226
 7594SOL    HW123681   0.160   4.386   0.191
 7594SOL    HW223682   0.248   4.447   0.313
 7595SOL     OW23683   6.744   2.842   6.038
 7595SOL    HW123684   6.686   2.920   6.061
 7595SOL    HW223685   6.709   2.759   6.083
 7596SOL     OW23686   2.949   0.805   5.087
 7596SOL    HW123687   2.985   0.805   5.180
 7596SOL    HW223688   2.849   0.807   5.090
 7597SOL     OW23689   1.516   4.638   2.439
 7597SOL    HW123690   1.454   4.641   2.361
 7597SOL    HW223691   1.551   4.731   2.457
 7598SOL     OW23692   6.312   1.287   3.012
 7598SOL    HW123693   6.252   1.367   3.013
 7598SOL    HW223694   6.390   1.304   2.952
 7599SOL     OW23695   3.946   3.341   1.242
 7599SOL    HW123696   3.871   3.294   1.195
 7599SOL    HW223697   3.926   3.348   1.339
 7600SOL     OW23698   1.559   0.257   4.378
 7600SOL    HW123699   1.515   0.284   4.463
 7600SOL    HW223700   1.640   0.202   4.397
 7601SOL     OW23701   3.726   5.702   2.013
 7601SOL    HW123702   3.820   5.676   2.035
 7601SOL    HW223703   3.684   5.747   2.092
 7602SOL     OW23704   0.014   1.301   0.648
 7602SOL    HW123705   7.016   1.210   0.687
 7602SOL    HW223706   0.012   1.369   0.721
 7603SOL     OW23707   2.628   0.069   5.069
 7603SOL    HW123708   2.554   0.122   5.027
 7603SOL    HW223709   2.681   0.024   4.998
 7604SOL     OW23710   0.773   2.816   4.672
 7604SOL    HW123711   0.850   2.880   4.665
 7604SOL    HW223712   0.706   2.837   4.601
 7605SOL     OW23713   2.322   6.574   0.342
 7605SOL    HW123714   2.280   6.487   0.316
 7605SOL    HW223715   2.356   6.620   0.259
 7606SOL     OW23716   6.523   1.466   3.558
 7606SOL    HW123717   6.567   1.545   3.602
 7606SOL    HW223718   6.519   1.390   3.623
 7607SOL     OW23719   2.575   5.703   5.534
 7607SOL    HW123720   2.630   5.754   5.600
 7607SOL    HW223721   2.576   5.606   5.557
 7608SOL     OW23722   6.332   2.666   6.133
 7608SOL    HW123723   6.353   2.627   6.223
 7608SOL    HW223724   6.344   2.596   6.063
 7609SOL     OW23725   0.517   2.006   4.739
 7609SOL    HW123726   0.456   2.043   4.668
 7609SOL    HW223727   0.612   2.019   4.711
 7610SOL     OW23728   3.922   5.034   5.489
 7610SOL    HW123729   3.852   5.073   5.429
 7610SOL    HW223730   3.992   4.988   5.434
 7611SOL     OW23731   4.733   3.470   1.173
 7611SOL    HW123732   4.817   3.520   1.194
 7611SOL    HW223733   4.743   3.374   1.201
 7612SOL     OW23734   2.921   1.790   3.231
 7612SOL    HW123735   2.959   1.739   3.154
 7612SOL    HW223736   2.838   1.744   3.263
 7613SOL     OW23737   0.273   1.121   2.356
 7613SOL    HW123738   0.265   1.221   2.357
 7613SOL    HW223739   0.232   1.084   2.440
 7614SOL     OW23740   5.474   3.802   0.849
 7614SOL    HW123741   5.457   3.780   0.752
 7614SOL    HW223742   5.419   3.740   0.906
 7615SOL     OW23743   5.721   3.365   4.833
 7615SOL    HW123744   5.672   3.449   4.860
 7615SOL    HW223745   5.810   3.390   4.797
 7616SOL     OW23746   6.136   6.804   3.484
 7616SOL    HW123747   6.112   6.795   3.388
 7616SOL    HW223748   6.166   6.898   3.502
 7617SOL     OW23749   5.429   5.259   3.559
 7617SOL    HW123750   5.442   5.341   3.503
 7617SOL    HW223751   5.332   5.233   3.558
 7618SOL     OW23752   2.619   3.014   0.167
 7618SOL    HW123753   2.659   2.952   0.099
 7618SOL    HW223754   2.618   2.969   0.257
 7619SOL     OW23755   0.662   2.115   4.458
 7619SOL    HW123756   0.728   2.182   4.494
 7619SOL    HW223757   0.570   2.140   4.488
 7620SOL     OW23758   4.207   3.957   1.473
 7620SOL    HW123759   4.226   3.923   1.565
 7620SOL    HW223760   4.265   4.037   1.454
 7621SOL     OW23761   0.111   4.368   0.454
 7621SOL    HW123762   0.040   4.331   0.514
 7621SOL    HW223763   0.114   4.315   0.369
 7622SOL     OW23764   2.960   3.650   1.324
 7622SOL    HW123765   2.870   3.692   1.310
 7622SOL    HW223766   3.005   3.694   1.401
 7623SOL     OW23767   4.584   4.456   1.100
 7623SOL    HW123768   4.488   4.438   1.081
 7623SOL    HW223769   4.595   4.549   1.135
 7624SOL     OW23770   0.636   2.895   2.149
 7624SOL    HW123771   0.705   2.939   2.090
 7624SOL    HW223772   0.577   2.965   2.188
 7625SOL     OW23773   5.455   1.615   1.021
 7625SOL    HW123774   5.468   1.606   0.922
 7625SOL    HW223775   5.510   1.546   1.068
 7626SOL     OW23776   5.545   0.865   5.461
 7626SOL    HW123777   5.629   0.899   5.503
 7626SOL    HW223778   5.479   0.842   5.533
 7627SOL     OW23779   3.601   2.034   6.833
 7627SOL    HW123780   3.541   2.109   6.863
 7627SOL    HW223781   3.586   2.017   6.736
 7628SOL     OW23782   3.533   2.776   6.975
 7628SOL    HW123783   3.503   2.718   0.034
 7628SOL    HW223784   3.463   2.777   6.904
 7629SOL     OW23785   6.036   2.761   3.826
 7629SOL    HW123786   5.983   2.827   3.773
 7629SOL    HW223787   6.122   2.742   3.779
 7630SOL     OW23788   1.408   6.814   5.668
 7630SOL    HW123789   1.319   6.803   5.623
 7630SOL    HW223790   1.478   6.831   5.599
 7631SOL     OW23791   1.466   6.544   5.931
 7631SOL    HW123792   1.542   6.535   5.867
 7631SOL    HW223793   1.452   6.641   5.953
 7632SOL     OW23794   5.136   5.210   0.341
 7632SOL    HW123795   5.177   5.272   0.274
 7632SOL    HW223796   5.202   5.139   0.366
 7633SOL     OW23797   6.407   1.274   1.485
 7633SOL    HW123798   6.443   1.365   1.466
 7633SOL    HW223799   6.397   1.224   1.399
 7634SOL     OW23800   0.029   2.001   0.675
 7634SOL    HW123801   0.092   1.962   0.743
 7634SOL    HW223802   0.064   2.089   0.644
 7635SOL     OW23803   2.395   4.561   5.985
 7635SOL    HW123804   2.361   4.590   5.895
 7635SOL    HW223805   2.341   4.604   6.057
 7636SOL     OW23806   0.331   3.548   4.465
 7636SOL    HW123807   0.336   3.621   4.397
 7636SOL    HW223808   0.306   3.587   4.554
 7637SOL     OW23809   0.943   6.451   4.782
 7637SOL    HW123810   0.855   6.408   4.764
 7637SOL    HW223811   0.941   6.495   4.872
 7638SOL     OW23812   0.598   5.626   1.844
 7638SOL    HW123813   0.643   5.559   1.903
 7638SOL    HW223814   0.626   5.718   1.871
 7639SOL     OW23815   1.638   1.134   0.157
 7639SOL    HW123816   1.611   1.103   0.248
 7639SOL    HW223817   1.650   1.055   0.097
 7640SOL     OW23818   3.143   0.510   6.746
 7640SOL    HW123819   3.189   0.458   6.818
 7640SOL    HW223820   3.105   0.447   6.678
 7641SOL     OW23821   0.490   3.886   3.286
 7641SOL    HW123822   0.477   3.946   3.208
 7641SOL    HW223823   0.404   3.874   3.335
 7642SOL     OW23824   6.322   0.727   3.655
 7642SOL    HW123825   6.345   0.810   3.605
 7642SOL    HW223826   6.331   0.743   3.753
 7643SOL     OW23827   5.500   3.740   3.231
 7643SOL    HW123828   5.585   3.728   3.180
 7643SOL    HW223829   5.430   3.680   3.193
 7644SOL     OW23830   5.339   3.780   1.673
 7644SOL    HW123831   5.243   3.761   1.654
 7644SOL    HW223832   5.384   3.696   1.702
 7645SOL     OW23833   3.313   4.403   6.072
 7645SOL    HW123834   3.275   4.320   6.113
 7645SOL    HW223835   3.240   4.471   6.063
 7646SOL     OW23836   0.381   2.342   2.026
 7646SOL    HW123837   0.461   2.398   2.047
 7646SOL    HW223838   0.322   2.390   1.961
 7647SOL     OW23839   6.567   2.512   5.209
 7647SOL    HW123840   6.563   2.533   5.306
 7647SOL    HW223841   6.584   2.596   5.157
 7648SOL     OW23842   2.512   1.732   1.486
 7648SOL    HW123843   2.428   1.762   1.442
 7648SOL    HW223844   2.511   1.760   1.582
 7649SOL     OW23845   4.660   1.250   5.342
 7649SOL    HW123846   4.718   1.331   5.351
 7649SOL    HW223847   4.713   1.175   5.301
 7650SOL     OW23848   4.075   1.770   0.479
 7650SOL    HW123849   4.129   1.855   0.477
 7650SOL    HW223850   4.122   1.702   0.536
 7651SOL     OW23851   2.610   4.732   6.030
 7651SOL    HW123852   2.691   4.730   5.971
 7651SOL    HW223853   2.567   4.642   6.030
 7652SOL     OW23854   6.898   1.030   3.917
 7652SOL    HW123855   6.810   1.074   3.896
 7652SOL    HW223856   6.928   0.977   3.838
 7653SOL     OW23857   0.668   1.530   6.746
 7653SOL    HW123858   0.717   1.617   6.739
 7653SOL    HW223859   0.631   1.506   6.656
 7654SOL     OW23860   5.988   2.292   6.448
 7654SOL    HW123861   5.908   2.272   6.503
 7654SOL    HW223862   6.068   2.303   6.507
 7655SOL     OW23863   3.016   1.037   3.415
 7655SOL    HW123864   2.940   1.095   3.445
 7655SOL    HW223865   3.011   1.025   3.316
 7656SOL     OW23866   0.014   3.277   6.563
 7656SOL    HW123867   6.959   3.209   6.547
 7656SOL    HW223868   6.993   3.369   6.552
 7657SOL     OW23869   1.426   3.960   4.369
 7657SOL    HW123870   1.408   4.027   4.297
 7657SOL    HW223871   1.430   3.868   4.329
 7658SOL     OW23872   2.455   1.559   1.067
 7658SOL    HW123873   2.541   1.604   1.043
 7658SOL    HW223874   2.473   1.491   1.139
 7659SOL     OW23875   4.371   3.661   5.598
 7659SOL    HW123876   4.421   3.679   5.514
 7659SOL    HW223877   4.277   3.692   5.589
 7660SOL     OW23878   0.352   5.629   4.522
 7660SOL    HW123879   0.364   5.617   4.621
 7660SOL    HW223880   0.415   5.567   4.474
 7661SOL     OW23881   4.521   2.292   5.755
 7661SOL    HW123882   4.512   2.231   5.835
 7661SOL    HW223883   4.512   2.387   5.785
 7662SOL     OW23884   0.721   1.453   1.609
 7662SOL    HW123885   0.623   1.456   1.591
 7662SOL    HW223886   0.770   1.431   1.525
 7663SOL     OW23887   6.637   5.422   5.325
 7663SOL    HW123888   6.703   5.383   5.262
 7663SOL    HW223889   6.570   5.352   5.351
 7664SOL     OW23890   3.835   2.150   2.257
 7664SOL    HW123891   3.770   2.145   2.181
 7664SOL    HW223892   3.888   2.234   2.250
 7665SOL     OW23893   4.224   0.993   5.152
 7665SOL    HW123894   4.237   1.030   5.060
 7665SOL    HW223895   4.173   1.059   5.207
 7666SOL     OW23896   5.680   4.910   4.182
 7666SOL    HW123897   5.752   4.841   4.174
 7666SOL    HW223898   5.645   4.910   4.276
 7667SOL     OW23899   4.531   5.979   1.212
 7667SOL    HW123900   4.520   5.945   1.119
 7667SOL    HW223901   4.588   5.915   1.265
 7668SOL     OW23902   2.268   4.996   1.039
 7668SOL    HW123903   2.266   5.095   1.029
 7668SOL    HW223904   2.335   4.972   1.110
 7669SOL     OW23905   2.760   6.658   5.597
 7669SOL    HW123906   2.664   6.633   5.606
 7669SOL    HW223907   2.771   6.720   5.519
 7670SOL     OW23908   0.305   6.685   0.211
 7670SOL    HW123909   0.405   6.694   0.206
 7670SOL    HW223910   0.269   6.662   0.121
 7671SOL     OW23911   4.402   6.884   0.785
 7671SOL    HW123912   4.414   6.924   0.694
 7671SOL    HW223913   4.487   6.893   0.837
 7672SOL     OW23914   4.833   4.521   2.949
 7672SOL    HW123915   4.786   4.572   3.021
 7672SOL    HW223916   4.767   4.465   2.898
 7673SOL     OW23917   0.577   5.890   4.773
 7673SOL    HW123918   0.625   5.970   4.736
 7673SOL    HW223919   0.615   5.867   4.863
 7674SOL     OW23920   4.091   6.354   4.263
 7674SOL    HW123921   4.024   6.360   4.337
 7674SOL    HW223922   4.143   6.269   4.272
 7675SOL     OW23923   4.297   6.793   2.999
 7675SOL    HW123924   4.372   6.726   3.004
 7675SOL    HW223925   4.278   6.813   2.903
 7676SOL     OW23926   2.961   2.913   5.478
 7676SOL    HW123927   2.890   2.851   5.446
 7676SOL    HW223928   3.003   2.960   5.400
 7677SOL     OW23929   5.638   4.896   0.941
 7677SOL    HW123930   5.721   4.882   0.995
 7677SOL    HW223931   5.663   4.934   0.851
 7678SOL     OW23932   1.403   0.932   5.245
 7678SOL    HW123933   1.417   0.985   5.329
 7678SOL    HW223934   1.354   0.847   5.266
 7679SOL     OW23935   1.805   5.397   5.391
 7679SOL    HW123936   1.750   5.480   5.382
 7679SOL    HW223937   1.885   5.403   5.332
 7680SOL     OW23938   2.080   0.013   5.189
 7680SOL    HW123939   2.169   7.004   5.151
 7680SOL    HW223940   2.029   6.947   5.212
 7681SOL     OW23941   2.507   3.663   6.755
 7681SOL    HW123942   2.478   3.575   6.793
 7681SOL    HW223943   2.606   3.670   6.758
 7682SOL     OW23944   3.136   1.755   2.478
 7682SOL    HW123945   3.083   1.750   2.393
 7682SOL    HW223946   3.114   1.677   2.537
 7683SOL     OW23947   1.120   0.744   4.481
 7683SOL    HW123948   1.163   0.741   4.391
 7683SOL    HW223949   1.038   0.687   4.482
 7684SOL     OW23950   4.024   2.235   1.756
 7684SOL    HW123951   4.117   2.204   1.736
 7684SOL    HW223952   4.015   2.331   1.733
 7685SOL     OW23953   2.426   0.761   0.162
 7685SOL    HW123954   2.441   0.841   0.219
 7685SOL    HW223955   2.480   0.684   0.196
 7686SOL     OW23956   5.987   0.184   4.545
 7686SOL    HW123957   5.998   0.176   4.645
 7686SOL    HW223958   6.038   0.110   4.500
 7687SOL     OW23959   5.080   4.698   5.290
 7687SOL    HW123960   5.170   4.655   5.302
 7687SOL    HW223961   5.037   4.662   5.207
 7688SOL     OW23962   0.745   4.826   6.339
 7688SOL    HW123963   0.789   4.901   6.289
 7688SOL    HW223964   0.706   4.861   6.424
 7689SOL     OW23965   4.877   0.443   1.370
 7689SOL    HW123966   4.852   0.497   1.451
 7689SOL    HW223967   4.795   0.429   1.314
 7690SOL     OW23968   6.232   5.671   1.327
 7690SOL    HW123969   6.243   5.769   1.312
 7690SOL    HW223970   6.269   5.646   1.417
 7691SOL     OW23971   4.618   4.385   2.812
 7691SOL    HW123972   4.625   4.309   2.748
 7691SOL    HW223973   4.523   4.417   2.817
 7692SOL     OW23974   2.584   6.995   1.947
 7692SOL    HW123975   2.500   0.019   1.983
 7692SOL    HW223976   2.563   6.907   1.906
 7693SOL     OW23977   2.439   2.046   0.741
 7693SOL    HW123978   2.470   2.033   0.835
 7693SOL    HW223979   2.465   1.967   0.686
 7694SOL     OW23980   5.842   2.112   5.538
 7694SOL    HW123981   5.829   2.211   5.542
 7694SOL    HW223982   5.940   2.091   5.531
 7695SOL     OW23983   4.995   0.360   2.929
 7695SOL    HW123984   5.024   0.320   2.843
 7695SOL    HW223985   5.074   0.397   2.978
 7696SOL     OW23986   0.516   2.856   6.185
 7696SOL    HW123987   0.455   2.851   6.264
 7696SOL    HW223988   0.576   2.936   6.194
 7697SOL     OW23989   4.331   6.854   2.351
 7697SOL    HW123990   4.257   6.883   2.289
 7697SOL    HW223991   4.417   6.894   2.320
 7698SOL     OW23992   6.771   2.823   0.109
 7698SOL    HW123993   6.725   2.895   0.160
 7698SOL    HW223994   6.781   2.742   0.168
 7699SOL     OW23995   4.189   5.582   5.891
 7699SOL    HW123996   4.154   5.536   5.972
 7699SOL    HW223997   4.116   5.639   5.851
 7700SOL     OW23998   5.031   5.677   2.499
 7700SOL    HW123999   5.097   5.664   2.425
 7700SOL    HW224000   4.993   5.770   2.495
 7701SOL     OW24001   0.165   2.638   6.068
 7701SOL    HW124002   0.171   2.679   6.159
 7701SOL    HW224003   0.248   2.659   6.016
 7702SOL     OW24004   4.387   0.099   4.711
 7702SOL    HW124005   4.399   0.036   4.634
 7702SOL    HW224006   4.396   0.193   4.679
 7703SOL     OW24007   6.531   6.671   5.179
 7703SOL    HW124008   6.494   6.665   5.086
 7703SOL    HW224009   6.518   6.584   5.226
 7704SOL     OW24010   6.969   1.834   4.465
 7704SOL    HW124011   0.041   1.802   4.497
 7704SOL    HW224012   6.909   1.849   4.543
 7705SOL     OW24013   1.048   4.632   0.235
 7705SOL    HW124014   0.950   4.650   0.239
 7705SOL    HW224015   1.095   4.711   0.195
 7706SOL     OW24016   3.605   2.828   2.341
 7706SOL    HW124017   3.606   2.849   2.243
 7706SOL    HW224018   3.582   2.732   2.354
 7707SOL     OW24019   6.512   4.492   6.286
 7707SOL    HW124020   6.507   4.394   6.300
 7707SOL    HW224021   6.426   4.526   6.248
 7708SOL     OW24022   2.428   0.012   4.756
 7708SOL    HW124023   2.387   6.988   4.674
 7708SOL    HW224024   2.522   0.039   4.736
 7709SOL     OW24025   0.260   5.242   1.551
 7709SOL    HW124026   0.180   5.190   1.579
 7709SOL    HW224027   0.314   5.189   1.486
 7710SOL     OW24028   0.374   3.568   0.755
 7710SOL    HW124029   0.336   3.637   0.694
 7710SOL    HW224030   0.461   3.600   0.793
 7711SOL     OW24031   0.095   5.015   5.180
 7711SOL    HW124032   0.111   5.067   5.264
 7711SOL    HW224033   7.013   5.007   5.165
 7712SOL     OW24034   6.936   4.446   5.679
 7712SOL    HW124035   6.976   4.367   5.725
 7712SOL    HW224036   6.918   4.424   5.583
 7713SOL     OW24037   2.128   4.575   0.245
 7713SOL    HW124038   2.074   4.598   0.164
 7713SOL    HW224039   2.225   4.587   0.224
 7714SOL     OW24040   6.574   0.736   5.588
 7714SOL    HW124041   6.569   0.785   5.501
 7714SOL    HW224042   6.532   0.646   5.577
 7715SOL     OW24043   2.862   2.552   6.145
 7715SOL    HW124044   2.854   2.463   6.100
 7715SOL    HW224045   2.959   2.577   6.152
 7716SOL     OW24046   1.210   5.839   5.490
 7716SOL    HW124047   1.247   5.916   5.439
 7716SOL    HW224048   1.282   5.799   5.547
 7717SOL     OW24049   0.767   1.774   6.622
 7717SOL    HW124050   0.822   1.771   6.706
 7717SOL    HW224051   0.788   1.858   6.571
 7718SOL     OW24052   1.396   3.837   2.710
 7718SOL    HW124053   1.367   3.779   2.634
 7718SOL    HW224054   1.420   3.780   2.788
 7719SOL     OW24055   2.071   4.445   4.932
 7719SOL    HW124056   2.009   4.372   4.903
 7719SOL    HW224057   2.123   4.414   5.011
 7720SOL     OW24058   5.596   1.168   0.012
 7720SOL    HW124059   5.607   1.267   0.022
 7720SOL    HW224060   5.520   1.137   0.069
 7721SOL     OW24061   0.637   0.619   2.300
 7721SOL    HW124062   0.728   0.643   2.332
 7721SOL    HW224063   0.571   0.636   2.373
 7722SOL     OW24064   2.127   6.203   3.263
 7722SOL    HW124065   2.174   6.291   3.250
 7722SOL    HW224066   2.028   6.218   3.259
 7723SOL     OW24067   4.692   4.356   0.541
 7723SOL    HW124068   4.694   4.267   0.496
 7723SOL    HW224069   4.727   4.347   0.634
 7724SOL     OW24070   2.127   3.980   2.136
 7724SOL    HW124071   2.190   4.046   2.096
 7724SOL    HW224072   2.141   3.976   2.235
 7725SOL     OW24073   5.280   2.923   3.429
 7725SOL    HW124074   5.379   2.929   3.443
 7725SOL    HW224075   5.256   2.965   3.341
 7726SOL     OW24076   0.610   3.041   6.552
 7726SOL    HW124077   0.673   2.975   6.594
 7726SOL    HW224078   0.601   3.121   6.612
 7727SOL     OW24079   5.056   1.983   2.351
 7727SOL    HW124080   5.155   1.977   2.367
 7727SOL    HW224081   5.014   1.896   2.376
 7728SOL     OW24082   2.016   3.549   4.317
 7728SOL    HW124083   2.076   3.505   4.249
 7728SOL    HW224084   2.029   3.506   4.406
 7729SOL     OW24085   6.672   2.042   4.338
 7729SOL    HW124086   6.768   2.060   4.359
 7729SOL    HW224087   6.629   1.996   4.416
 7730SOL     OW24088   6.648   4.215   4.929
 7730SOL    HW124089   6.648   4.147   4.857
 7730SOL    HW224090   6.568   4.203   4.987
 7731SOL     OW24091   6.476   6.710   6.604
 7731SOL    HW124092   6.570   6.713   6.639
 7731SOL    HW224093   6.470   6.765   6.521
 7732SOL     OW24094   4.172   0.205   6.155
 7732SOL    HW124095   4.180   0.238   6.249
 7732SOL    HW224096   4.196   0.278   6.092
 7733SOL     OW24097   6.311   5.782   2.165
 7733SOL    HW124098   6.312   5.832   2.251
 7733SOL    HW224099   6.402   5.785   2.124
 7734SOL     OW24100   3.568   3.758   4.923
 7734SOL    HW124101   3.493   3.756   4.989
 7734SOL    HW224102   3.542   3.814   4.845
 7735SOL     OW24103   6.840   6.281   0.678
 7735SOL    HW124104   6.827   6.188   0.645
 7735SOL    HW224105   6.901   6.280   0.758
 7736SOL     OW24106   2.361   3.386   0.417
 7736SOL    HW124107   2.306   3.312   0.456
 7736SOL    HW224108   2.300   3.460   0.386
 7737SOL     OW24109   3.698   4.852   1.221
 7737SOL    HW124110   3.631   4.784   1.192
 7737SOL    HW224111   3.763   4.811   1.285
 7738SOL     OW24112   2.393   6.720   6.614
 7738SOL    HW124113   2.359   6.627   6.598
 7738SOL    HW224114   2.435   6.755   6.530
 7739SOL     OW24115   1.266   2.185   0.164
 7739SOL    HW124116   1.319   2.102   0.150
 7739SOL    HW224117   1.250   2.199   0.262
 7740SOL     OW24118   1.838   0.748   5.119
 7740SOL    HW124119   1.753   0.798   5.099
 7740SOL    HW224120   1.903   0.763   5.045
 7741SOL     OW24121   1.777   4.207   5.911
 7741SOL    HW124122   1.824   4.189   5.998
 7741SOL    HW224123   1.692   4.155   5.908
 7742SOL     OW24124   3.967   1.365   4.202
 7742SOL    HW124125   3.923   1.427   4.137
 7742SOL    HW224126   4.062   1.395   4.217
 7743SOL     OW24127   4.938   2.345   5.606
 7743SOL    HW124128   4.900   2.395   5.684
 7743SOL    HW224129   4.973   2.410   5.539
 7744SOL     OW24130   0.221   6.457   4.624
 7744SOL    HW124131   0.151   6.387   4.642
 7744SOL    HW224132   0.312   6.419   4.645
 7745SOL     OW24133   2.299   6.810   0.934
 7745SOL    HW124134   2.349   6.896   0.924
 7745SOL    HW224135   2.248   6.791   0.850
 7746SOL     OW24136   1.476   6.297   0.987
 7746SOL    HW124137   1.431   6.340   0.909
 7746SOL    HW224138   1.436   6.332   1.072
 7747SOL     OW24139   1.136   6.198   0.196
 7747SOL    HW124140   1.175   6.173   0.285
 7747SOL    HW224141   1.180   6.281   0.163
 7748SOL     OW24142   4.090   2.432   5.726
 7748SOL    HW124143   4.095   2.359   5.658
 7748SOL    HW224144   4.004   2.482   5.715
 7749SOL     OW24145   3.843   3.680   3.988
 7749SOL    HW124146   3.754   3.667   4.032
 7749SOL    HW224147   3.835   3.657   3.890
 7750SOL     OW24148   6.175   4.062   5.477
 7750SOL    HW124149   6.200   4.014   5.393
 7750SOL    HW224150   6.146   4.155   5.455
 7751SOL     OW24151   6.635   0.866   5.364
 7751SOL    HW124152   6.713   0.929   5.371
 7751SOL    HW224153   6.608   0.857   5.268
 7752SOL     OW24154   6.327   5.403   5.752
 7752SOL    HW124155   6.298   5.439   5.840
 7752SOL    HW224156   6.247   5.378   5.698
 7753SOL     OW24157   2.353   0.698   4.754
 7753SOL    HW124158   2.354   0.797   4.738
 7753SOL    HW224159   2.260   0.668   4.774
 7754SOL     OW24160   5.699   0.892   1.946
 7754SOL    HW124161   5.733   0.834   2.020
 7754SOL    HW224162   5.758   0.883   1.867
 7755SOL     OW24163   0.679   5.789   5.622
 7755SOL    HW124164   0.692   5.800   5.721
 7755SOL    HW224165   0.701   5.875   5.576
 7756SOL     OW24166   3.598   5.244   2.058
 7756SOL    HW124167   3.607   5.326   2.003
 7756SOL    HW224168   3.526   5.185   2.020
 7757SOL     OW24169   4.647   6.362   5.593
 7757SOL    HW124170   4.548   6.370   5.594
 7757SOL    HW224171   4.678   6.313   5.675
 7758SOL     OW24172   2.426   2.237   5.736
 7758SOL    HW124173   2.486   2.204   5.664
 7758SOL    HW224174   2.414   2.336   5.726
 7759SOL     OW24175   2.101   0.658   4.462
 7759SOL    HW124176   2.122   0.751   4.432
 7759SOL    HW224177   2.121   0.594   4.388
 7760SOL     OW24178   5.090   2.984   2.450
 7760SOL    HW124179   5.020   3.038   2.498
 7760SOL    HW224180   5.093   2.892   2.489
 7761SOL     OW24181   3.608   6.695   6.807
 7761SOL    HW124182   3.544   6.636   6.856
 7761SOL    HW224183   3.694   6.646   6.793
 7762SOL     OW24184   3.856   1.366   0.409
 7762SOL    HW124185   3.920   1.290   0.415
 7762SOL    HW224186   3.852   1.413   0.497
 7763SOL     OW24187   1.755   1.621   0.426
 7763SOL    HW124188   1.705   1.700   0.463
 7763SOL    HW224189   1.850   1.648   0.410
 7764SOL     OW24190   3.539   2.890   2.594
 7764SOL    HW124191   3.442   2.885   2.568
 7764SOL    HW224192   3.596   2.862   2.517
 7765SOL     OW24193   6.642   2.164   2.984
 7765SOL    HW124194   6.740   2.145   2.973
 7765SOL    HW224195   6.601   2.180   2.894
 7766SOL     OW24196   6.985   2.534   6.797
 7766SOL    HW124197   6.920   2.508   6.725
 7766SOL    HW224198   6.945   2.516   6.887
 7767SOL     OW24199   4.350   5.763   4.517
 7767SOL    HW124200   4.373   5.720   4.430
 7767SOL    HW224201   4.433   5.794   4.563
 7768SOL     OW24202   3.917   4.975   2.404
 7768SOL    HW124203   3.822   4.971   2.433
 7768SOL    HW224204   3.922   4.966   2.304
 7769SOL     OW24205   5.391   1.796   1.481
 7769SOL    HW124206   5.325   1.831   1.548
 7769SOL    HW224207   5.476   1.848   1.488
 7770SOL     OW24208   3.168   4.969   1.167
 7770SOL    HW124209   3.166   4.874   1.196
 7770SOL    HW224210   3.188   5.028   1.245
 7771SOL     OW24211   2.411   2.219   6.018
 7771SOL    HW124212   2.400   2.303   6.072
 7771SOL    HW224213   2.404   2.240   5.921
 7772SOL     OW24214   5.092   0.568   4.274
 7772SOL    HW124215   5.166   0.608   4.328
 7772SOL    HW224216   5.130   0.517   4.197
 7773SOL     OW24217   4.254   3.684   5.963
 7773SOL    HW124218   4.306   3.599   5.949
 7773SOL    HW224219   4.241   3.700   6.061
 7774SOL     OW24220   4.959   1.806   6.169
 7774SOL    HW124221   5.021   1.732   6.194
 7774SOL    HW224222   4.871   1.793   6.215
 7775SOL     OW24223   2.960   6.593   2.119
 7775SOL    HW124224   2.934   6.688   2.100
 7775SOL    HW224225   2.913   6.562   2.201
 7776SOL     OW24226   3.815   3.353   6.601
 7776SOL    HW124227   3.849   3.447   6.607
 7776SOL    HW224228   3.717   3.354   6.580
 7777SOL     OW24229   2.192   1.229   6.784
 7777SOL    HW124230   2.156   1.260   6.696
 7777SOL    HW224231   2.124   1.173   6.831
 7778SOL     OW24232   5.488   0.839   6.997
 7778SOL    HW124233   5.498   0.843   0.079
 7778SOL    HW224234   5.574   0.868   6.954
 7779SOL     OW24235   4.209   2.841   0.802
 7779SOL    HW124236   4.192   2.939   0.794
 7779SOL    HW224237   4.305   2.825   0.828
 7780SOL     OW24238   2.226   6.136   4.966
 7780SOL    HW124239   2.284   6.085   5.028
 7780SOL    HW224240   2.227   6.094   4.875
 7781SOL     OW24241   1.242   4.656   4.522
 7781SOL    HW124242   1.318   4.711   4.558
 7781SOL    HW224243   1.220   4.687   4.429
 7782SOL     OW24244   2.624   4.105   6.115
 7782SOL    HW124245   2.719   4.136   6.115
 7782SOL    HW224246   2.574   4.151   6.188
 7783SOL     OW24247   2.445   5.308   6.606
 7783SOL    HW124248   2.425   5.395   6.562
 7783SOL    HW224249   2.461   5.238   6.536
 7784SOL     OW24250   0.405   2.417   6.805
 7784SOL    HW124251   0.409   2.480   6.882
 7784SOL    HW224252   0.430   2.465   6.720
 7785SOL     OW24253   2.315   6.271   4.146
 7785SOL    HW124254   2.249   6.238   4.213
 7785SOL    HW224255   2.360   6.353   4.181
 7786SOL     OW24256   3.077   4.375   5.320
 7786SOL    HW124257   3.172   4.405   5.312
 7786SOL    HW224258   3.017   4.445   5.282
 7787SOL     OW24259   2.271   2.785   5.138
 7787SOL    HW124260   2.319   2.868   5.110
 7787SOL    HW224261   2.172   2.803   5.142
 7788SOL     OW24262   1.328   1.702   0.568
 7788SOL    HW124263   1.365   1.778   0.621
 7788SOL    HW224264   1.305   1.733   0.476
 7789SOL     OW24265   2.425   0.793   1.392
 7789SOL    HW124266   2.431   0.693   1.389
 7789SOL    HW224267   2.331   0.820   1.414
 7790SOL     OW24268   5.181   3.181   2.945
 7790SOL    HW124269   5.081   3.189   2.941
 7790SOL    HW224270   5.222   3.272   2.949
 7791SOL     OW24271   1.668   5.172   4.736
 7791SOL    HW124272   1.644   5.151   4.641
 7791SOL    HW224273   1.593   5.143   4.796
 7792SOL     OW24274   2.567   5.710   6.123
 7792SOL    HW124275   2.564   5.627   6.068
 7792SOL    HW224276   2.474   5.744   6.138
 7793SOL     OW24277   1.048   1.120   6.157
 7793SOL    HW124278   0.997   1.075   6.231
 7793SOL    HW224279   1.076   1.052   6.089
 7794SOL     OW24280   5.682   5.680   4.263
 7794SOL    HW124281   5.586   5.676   4.290
 7794SOL    HW224282   5.700   5.765   4.213
 7795SOL     OW24283   2.484   4.368   5.329
 7795SOL    HW124284   2.384   4.363   5.322
 7795SOL    HW224285   2.515   4.457   5.296
 7796SOL     OW24286   3.547   4.067   3.240
 7796SOL    HW124287   3.545   4.104   3.147
 7796SOL    HW224288   3.514   3.973   3.240
 7797SOL     OW24289   6.925   0.009   2.738
 7797SOL    HW124290   6.900   6.960   2.666
 7797SOL    HW224291   6.946   6.977   2.822
 7798SOL     OW24292   3.255   5.738   0.084
 7798SOL    HW124293   3.190   5.741   0.160
 7798SOL    HW224294   3.333   5.681   0.109
 7799SOL     OW24295   0.552   4.557   1.558
 7799SOL    HW124296   0.563   4.641   1.611
 7799SOL    HW224297   0.614   4.487   1.594
 7800SOL     OW24298   0.364   5.500   1.917
 7800SOL    HW124299   0.445   5.533   1.870
 7800SOL    HW224300   0.385   5.487   2.014
 7801SOL     OW24301   3.264   2.059   6.705
 7801SOL    HW124302   3.324   2.100   6.774
 7801SOL    HW224303   3.174   2.104   6.710
 7802SOL     OW24304   5.577   2.307   1.903
 7802SOL    HW124305   5.639   2.383   1.924
 7802SOL    HW224306   5.519   2.289   1.982
 7803SOL     OW24307   4.034   4.061   5.545
 7803SOL    HW124308   3.996   4.111   5.622
 7803SOL    HW224309   4.032   4.119   5.463
 7804SOL     OW24310   5.328   2.094   5.939
 7804SOL    HW124311   5.382   2.105   5.855
 7804SOL    HW224312   5.231   2.110   5.918
 7805SOL     OW24313   5.253   3.380   2.254
 7805SOL    HW124314   5.178   3.367   2.319
 7805SOL    HW224315   5.340   3.382   2.303
 7806SOL     OW24316   5.722   2.921   6.406
 7806SOL    HW124317   5.782   2.940   6.483
 7806SOL    HW224318   5.689   2.827   6.411
 7807SOL     OW24319   0.179   4.027   6.073
 7807SOL    HW124320   0.193   3.953   6.007
 7807SOL    HW224321   0.107   4.001   6.137
 7808SOL     OW24322   1.129   0.996   4.582
 7808SOL    HW124323   1.142   0.899   4.560
 7808SOL    HW224324   1.033   1.020   4.570
 7809SOL     OW24325   2.741   5.732   4.618
 7809SOL    HW124326   2.706   5.648   4.576
 7809SOL    HW224327   2.670   5.803   4.616
 7810SOL     OW24328   2.577   0.719   6.157
 7810SOL    HW124329   2.607   0.792   6.218
 7810SOL    HW224330   2.611   0.631   6.190
 7811SOL     OW24331   5.761   4.339   4.414
 7811SOL    HW124332   5.668   4.357   4.446
 7811SOL    HW224333   5.826   4.376   4.480
 7812SOL     OW24334   1.981   1.565   3.626
 7812SOL    HW124335   1.901   1.614   3.593
 7812SOL    HW224336   1.970   1.467   3.610
 7813SOL     OW24337   7.009   3.015   0.019
 7813SOL    HW124338   0.019   2.927   0.057
 7813SOL    HW224339   6.936   3.054   0.075
 7814SOL     OW24340   6.972   3.815   3.121
 7814SOL    HW124341   0.025   3.800   3.050
 7814SOL    HW224342   6.884   3.781   3.088
 7815SOL     OW24343   6.213   1.666   6.089
 7815SOL    HW124344   6.131   1.664   6.145
 7815SOL    HW224345   6.276   1.735   6.124
 7816SOL     OW24346   1.273   3.706   4.873
 7816SOL    HW124347   1.187   3.757   4.863
 7816SOL    HW224348   1.296   3.663   4.786
 7817SOL     OW24349   5.297   4.348   4.650
 7817SOL    HW124350   5.256   4.413   4.586
 7817SOL    HW224351   5.226   4.288   4.687
 7818SOL     OW24352   5.565   6.377   1.842
 7818SOL    HW124353   5.468   6.362   1.826
 7818SOL    HW224354   5.615   6.291   1.827
 7819SOL     OW24355   0.005   2.302   1.687
 7819SOL    HW124356   0.093   2.258   1.669
 7819SOL    HW224357   6.959   2.281   1.612
 7820SOL     OW24358   1.702   1.207   6.640
 7820SOL    HW124359   1.726   1.281   6.703
 7820SOL    HW224360   1.651   1.245   6.563
 7821SOL     OW24361   3.185   5.266   1.461
 7821SOL    HW124362   3.264   5.325   1.441
 7821SOL    HW224363   3.105   5.324   1.479
 7822SOL     OW24364   1.570   5.923   5.162
 7822SOL    HW124365   1.603   5.974   5.242
 7822SOL    HW224366   1.646   5.907   5.100
 7823SOL     OW24367   1.500   4.679   4.938
 7823SOL    HW124368   1.528   4.676   5.034
 7823SOL    HW224369   1.535   4.598   4.891
 7824SOL     OW24370   0.584   3.162   5.076
 7824SOL    HW124371   0.546   3.087   5.022
 7824SOL    HW224372   0.555   3.249   5.035
 7825SOL     OW24373   3.031   1.493   6.181
 7825SOL    HW124374   2.943   1.537   6.167
 7825SOL    HW224375   3.042   1.470   6.278
 7826SOL     OW24376   0.187   2.734   6.564
 7826SOL    HW124377   0.171   2.645   6.607
 7826SOL    HW224378   0.101   2.784   6.559
 7827SOL     OW24379   7.000   6.326   4.331
 7827SOL    HW124380   6.904   6.349   4.347
 7827SOL    HW224381   0.034   6.334   4.417
 7828SOL     OW24382   0.530   4.155   6.958
 7828SOL    HW124383   0.545   4.254   6.951
 7828SOL    HW224384   0.481   4.134   0.026
 7829SOL     OW24385   3.720   2.607   0.661
 7829SOL    HW124386   3.656   2.669   0.617
 7829SOL    HW224387   3.787   2.659   0.714
 7830SOL     OW24388   2.738   4.788   4.284
 7830SOL    HW124389   2.646   4.826   4.284
 7830SOL    HW224390   2.758   4.749   4.374
 7831SOL     OW24391   1.530   1.544   0.283
 7831SOL    HW124392   1.622   1.551   0.322
 7831SOL    HW224393   1.536   1.499   0.193
 7832SOL     OW24394   6.330   0.830   4.340
 7832SOL    HW124395   6.291   0.799   4.254
 7832SOL    HW224396   6.330   0.930   4.343
 7833SOL     OW24397   2.080   0.979   4.355
 7833SOL    HW124398   2.112   1.054   4.413
 7833SOL    HW224399   2.013   1.014   4.289
 7834SOL     OW24400   6.163   3.262   4.559
 7834SOL    HW124401   6.242   3.202   4.565
 7834SOL    HW224402   6.120   3.253   4.469
 7835SOL     OW24403   4.195   1.912   5.106
 7835SOL    HW124404   4.126   1.975   5.070
 7835SOL    HW224405   4.286   1.946   5.085
 7836SOL     OW24406   3.830   3.859   4.823
 7836SOL    HW124407   3.806   3.944   4.775
 7836SOL    HW224408   3.766   3.787   4.797
 7837SOL     OW24409   6.145   5.368   6.713
 7837SOL    HW124410   6.182   5.352   6.622
 7837SOL    HW224411   6.060   5.421   6.706
 7838SOL     OW24412   5.480   5.447   1.413
 7838SOL    HW124413   5.527   5.477   1.331
 7838SOL    HW224414   5.486   5.348   1.421
 7839SOL     OW24415   5.653   3.706   4.221
 7839SOL    HW124416   5.631   3.613   4.191
 7839SOL    HW224417   5.572   3.748   4.263
 7840SOL     OW24418   1.897   2.895   4.001
 7840SOL    HW124419   1.913   2.954   3.922
 7840SOL    HW224420   1.963   2.917   4.073
 7841SOL     OW24421   4.855   2.280   6.297
 7841SOL    HW124422   4.877   2.236   6.384
 7841SOL    HW224423   4.880   2.219   6.222
 7842SOL     OW24424   1.817   1.299   2.034
 7842SOL    HW124425   1.839   1.252   2.119
 7842SOL    HW224426   1.750   1.245   1.982
 7843SOL     OW24427   0.115   6.704   2.773
 7843SOL    HW124428   0.138   6.684   2.869
 7843SOL    HW224429   0.189   6.755   2.731
 7844SOL     OW24430   3.485   1.531   2.859
 7844SOL    HW124431   3.581   1.553   2.877
 7844SOL    HW224432   3.475   1.497   2.766
 7845SOL     OW24433   6.683   2.707   1.106
 7845SOL    HW124434   6.674   2.724   1.204
 7845SOL    HW224435   6.781   2.700   1.083
 7846SOL     OW24436   0.751   2.639   0.527
 7846SOL    HW124437   0.818   2.613   0.457
 7846SOL    HW224438   0.798   2.654   0.613
 7847SOL     OW24439   5.573   3.105   4.901
 7847SOL    HW124440   5.490   3.133   4.951
 7847SOL    HW224441   5.611   3.184   4.853
 7848SOL     OW24442   3.252   4.919   0.903
 7848SOL    HW124443   3.289   4.828   0.917
 7848SOL    HW224444   3.220   4.957   0.990
 7849SOL     OW24445   4.482   4.478   6.180
 7849SOL    HW124446   4.511   4.459   6.087
 7849SOL    HW224447   4.563   4.488   6.239
 7850SOL     OW24448   0.223   0.761   3.961
 7850SOL    HW124449   0.279   0.700   4.018
 7850SOL    HW224450   0.207   0.717   3.872
 7851SOL     OW24451   0.734   4.248   2.048
 7851SOL    HW124452   0.792   4.169   2.067
 7851SOL    HW224453   0.657   4.219   1.990
 7852SOL     OW24454   0.935   2.304   6.280
 7852SOL    HW124455   0.848   2.256   6.282
 7852SOL    HW224456   1.010   2.239   6.296
 7853SOL     OW24457   4.038   2.897   1.753
 7853SOL    HW124458   3.965   2.920   1.816
 7853SOL    HW224459   4.097   2.976   1.739
 7854SOL     OW24460   5.301   2.645   6.696
 7854SOL    HW124461   5.217   2.698   6.704
 7854SOL    HW224462   5.281   2.548   6.707
 7855SOL     OW24463   5.150   6.883   4.323
 7855SOL    HW124464   5.096   6.964   4.347
 7855SOL    HW224465   5.119   6.805   4.377
 7856SOL     OW24466   2.094   6.421   4.808
 7856SOL    HW124467   2.163   6.480   4.765
 7856SOL    HW224468   2.055   6.468   4.887
 7857SOL     OW24469   5.458   4.013   1.081
 7857SOL    HW124470   5.411   3.960   1.151
 7857SOL    HW224471   5.477   3.956   1.002
 7858SOL     OW24472   0.899   5.285   5.639
 7858SOL    HW124473   0.909   5.242   5.729
 7858SOL    HW224474   0.807   5.270   5.605
 7859SOL     OW24475   5.404   2.730   0.314
 7859SOL    HW124476   5.365   2.659   0.255
 7859SOL    HW224477   5.335   2.758   0.382
 7860SOL     OW24478   2.779   0.379   4.359
 7860SOL    HW124479   2.863   0.346   4.317
 7860SOL    HW224480   2.773   0.478   4.347
 7861SOL     OW24481   2.850   6.130   0.535
 7861SOL    HW124482   2.778   6.199   0.543
 7861SOL    HW224483   2.925   6.153   0.597
 7862SOL     OW24484   2.580   5.898   0.320
 7862SOL    HW124485   2.675   5.894   0.289
 7862SOL    HW224486   2.525   5.946   0.251
 7863SOL     OW24487   6.756   4.376   3.381
 7863SOL    HW124488   6.771   4.384   3.282
 7863SOL    HW224489   6.842   4.390   3.429
 7864SOL     OW24490   2.108   6.764   5.108
 7864SOL    HW124491   2.181   6.829   5.082
 7864SOL    HW224492   2.122   6.736   5.203
 7865SOL     OW24493   5.670   5.715   3.645
 7865SOL    HW124494   5.720   5.648   3.590
 7865SOL    HW224495   5.576   5.682   3.660
 7866SOL     OW24496   0.950   6.754   5.824
 7866SOL    HW124497   0.991   6.771   5.734
 7866SOL    HW224498   0.893   6.832   5.849
 7867SOL     OW24499   5.343   6.159   3.682
 7867SOL    HW124500   5.390   6.080   3.643
 7867SOL    HW224501   5.410   6.222   3.721
 7868SOL     OW24502   3.446   6.215   1.189
 7868SOL    HW124503   3.545   6.222   1.175
 7868SOL    HW224504   3.413   6.296   1.237
 7869SOL     OW24505   5.357   4.559   6.209
 7869SOL    HW124506   5.378   4.657   6.209
 7869SOL    HW224507   5.266   4.545   6.171
 7870SOL     OW24508   5.523   6.149   5.357
 7870SOL    HW124509   5.574   6.232   5.335
 7870SOL    HW224510   5.442   6.144   5.298
 7871SOL     OW24511   4.674   1.474   1.445
 7871SOL    HW124512   4.722   1.540   1.388
 7871SOL    HW224513   4.650   1.393   1.391
 7872SOL     OW24514   1.918   6.203   2.807
 7872SOL    HW124515   1.880   6.128   2.753
 7872SOL    HW224516   1.924   6.285   2.752
 7873SOL     OW24517   6.396   0.914   0.034
 7873SOL    HW124518   6.442   0.981   0.092
 7873SOL    HW224519   6.463   0.849   7.015
 7874SOL     OW24520   5.466   2.382   1.046
 7874SOL    HW124521   5.405   2.379   0.967
 7874SOL    HW224522   5.493   2.477   1.064
 7875SOL     OW24523   4.907   4.287   6.915
 7875SOL    HW124524   4.897   4.199   6.869
 7875SOL    HW224525   4.909   4.360   6.847
 7876SOL     OW24526   0.908   0.077   2.210
 7876SOL    HW124527   0.944   0.042   2.296
 7876SOL    HW224528   0.980   0.126   2.161
 7877SOL     OW24529   0.298   2.306   3.085
 7877SOL    HW124530   0.319   2.349   3.173
 7877SOL    HW224531   0.265   2.376   3.022
 7878SOL     OW24532   4.396   5.054   3.600
 7878SOL    HW124533   4.313   5.040   3.546
 7878SOL    HW224534   4.473   5.007   3.556
 7879SOL     OW24535   2.466   4.657   3.274
 7879SOL    HW124536   2.446   4.578   3.216
 7879SOL    HW224537   2.469   4.739   3.217
 7880SOL     OW24538   1.403   4.021   1.995
 7880SOL    HW124539   1.462   3.940   1.990
 7880SOL    HW224540   1.453   4.097   2.036
 7881SOL     OW24541   5.092   4.029   3.938
 7881SOL    HW124542   5.085   3.949   3.998
 7881SOL    HW224543   5.015   4.031   3.875
 7882SOL     OW24544   1.422   2.941   0.922
 7882SOL    HW124545   1.345   3.001   0.900
 7882SOL    HW224546   1.407   2.851   0.880
 7883SOL     OW24547   1.210   1.302   5.077
 7883SOL    HW124548   1.159   1.307   5.163
 7883SOL    HW224549   1.201   1.211   5.039
 7884SOL     OW24550   0.725   3.114   4.454
 7884SOL    HW124551   0.825   3.119   4.447
 7884SOL    HW224552   0.684   3.199   4.420
 7885SOL     OW24553   5.935   6.006   0.141
 7885SOL    HW124554   5.895   6.054   0.064
 7885SOL    HW224555   6.021   5.963   0.113
 7886SOL     OW24556   4.742   5.315   6.784
 7886SOL    HW124557   4.753   5.362   6.697
 7886SOL    HW224558   4.644   5.310   6.807
 7887SOL     OW24559   5.173   1.735   0.096
 7887SOL    HW124560   5.130   1.646   0.111
 7887SOL    HW224561   5.209   1.740   0.003
 7888SOL     OW24562   5.012   0.976   4.450
 7888SOL    HW124563   5.095   0.922   4.465
 7888SOL    HW224564   4.932   0.920   4.472
 7889SOL     OW24565   1.152   6.777   2.218
 7889SOL    HW124566   1.192   6.868   2.232
 7889SOL    HW224567   1.213   6.708   2.258
 7890SOL     OW24568   1.637   3.107   2.998
 7890SOL    HW124569   1.606   3.061   3.081
 7890SOL    HW224570   1.593   3.197   2.992
 7891SOL     OW24571   2.416   5.017   2.278
 7891SOL    HW124572   2.359   4.936   2.291
 7891SOL    HW224573   2.361   5.099   2.295
 7892SOL     OW24574   1.761   2.304   5.712
 7892SOL    HW124575   1.664   2.279   5.721
 7892SOL    HW224576   1.801   2.317   5.802
 7893SOL     OW24577   6.135   6.307   1.219
 7893SOL    HW124578   6.143   6.371   1.143
 7893SOL    HW224579   6.221   6.258   1.231
 7894SOL     OW24580   2.883   7.017   1.620
 7894SOL    HW124581   2.875   6.958   1.539
 7894SOL    HW224582   2.934   0.082   1.595
 7895SOL     OW24583   0.244   1.465   4.051
 7895SOL    HW124584   0.337   1.463   4.015
 7895SOL    HW224585   0.197   1.381   4.024
 7896SOL     OW24586   4.563   2.697   5.752
 7896SOL    HW124587   4.574   2.627   5.823
 7896SOL    HW224588   4.466   2.708   5.731
 7897SOL     OW24589   3.069   2.856   6.173
 7897SOL    HW124590   3.074   2.953   6.196
 7897SOL    HW224591   2.979   2.835   6.135
 7898SOL     OW24592   4.233   2.300   3.538
 7898SOL    HW124593   4.160   2.241   3.571
 7898SOL    HW224594   4.315   2.245   3.521
 7899SOL     OW24595   5.753   1.885   2.951
 7899SOL    HW124596   5.668   1.881   3.004
 7899SOL    HW224597   5.736   1.851   2.858
 7900SOL     OW24598   1.670   5.123   0.751
 7900SOL    HW124599   1.605   5.119   0.827
 7900SOL    HW224600   1.619   5.120   0.665
 7901SOL     OW24601   6.042   6.290   6.848
 7901SOL    HW124602   6.074   6.211   6.795
 7901SOL    HW224603   6.005   6.359   6.786
 7902SOL     OW24604   4.403   3.697   6.830
 7902SOL    HW124605   4.438   3.746   6.751
 7902SOL    HW224606   4.413   3.598   6.816
 7903SOL     OW24607   6.899   1.816   6.641
 7903SOL    HW124608   6.933   1.892   6.697
 7903SOL    HW224609   6.976   1.760   6.611
 7904SOL     OW24610   6.498   0.803   2.769
 7904SOL    HW124611   6.452   0.731   2.717
 7904SOL    HW224612   6.535   0.871   2.706
 7905SOL     OW24613   3.890   0.957   0.985
 7905SOL    HW124614   3.886   0.857   0.983
 7905SOL    HW224615   3.973   0.987   1.032
 7906SOL     OW24616   6.180   5.901   0.120
 7906SOL    HW124617   6.210   5.806   0.108
 7906SOL    HW224618   6.174   5.945   0.030
 7907SOL     OW24619   6.692   2.823   2.287
 7907SOL    HW124620   6.669   2.863   2.198
 7907SOL    HW224621   6.697   2.724   2.278
 7908SOL     OW24622   6.362   2.409   3.745
 7908SOL    HW124623   6.326   2.316   3.752
 7908SOL    HW224624   6.332   2.450   3.658
 7909SOL     OW24625   4.717   4.651   5.103
 7909SOL    HW124626   4.809   4.627   5.070
 7909SOL    HW224627   4.683   4.731   5.054
 7910SOL     OW24628   5.497   3.264   5.817
 7910SOL    HW124629   5.461   3.357   5.823
 7910SOL    HW224630   5.578   3.264   5.758
 7911SOL     OW24631   5.649   4.496   0.128
 7911SOL    HW124632   5.658   4.522   0.225
 7911SOL    HW224633   5.561   4.527   0.094
 7912SOL     OW24634   6.343   4.794   5.861
 7912SOL    HW124635   6.374   4.875   5.810
 7912SOL    HW224636   6.421   4.735   5.881
 7913SOL     OW24637   6.769   5.731   5.971
 7913SOL    HW124638   6.677   5.768   5.955
 7913SOL    HW224639   6.810   5.777   6.050
 7914SOL     OW24640   6.715   4.443   1.792
 7914SOL    HW124641   6.625   4.448   1.836
 7914SOL    HW224642   6.786   4.435   1.862
 7915SOL     OW24643   3.505   1.825   3.224
 7915SOL    HW124644   3.597   1.865   3.225
 7915SOL    HW224645   3.453   1.863   3.148
 7916SOL     OW24646   5.278   3.650   5.439
 7916SOL    HW124647   5.228   3.697   5.367
 7916SOL    HW224648   5.216   3.627   5.514
 7917SOL     OW24649   3.117   3.613   4.124
 7917SOL    HW124650   3.102   3.684   4.055
 7917SOL    HW224651   3.065   3.636   4.207
 7918SOL     OW24652   6.386   1.623   2.797
 7918SOL    HW124653   6.454   1.678   2.749
 7918SOL    HW224654   6.313   1.684   2.831
 7919SOL     OW24655   6.036   4.966   2.146
 7919SOL    HW124656   6.013   4.954   2.049
 7919SOL    HW224657   6.129   4.935   2.162
 7920SOL     OW24658   0.906   5.327   1.762
 7920SOL    HW124659   0.819   5.302   1.719
 7920SOL    HW224660   0.981   5.305   1.700
 7921SOL     OW24661   3.071   6.708   1.535
 7921SOL    HW124662   3.086   6.626   1.479
 7921SOL    HW224663   3.142   6.775   1.516
 7922SOL     OW24664   0.731   4.992   6.586
 7922SOL    HW124665   0.740   5.005   6.685
 7922SOL    HW224666   0.790   5.057   6.539
 7923SOL     OW24667   1.888   2.032   3.094
 7923SOL    HW124668   1.944   2.112   3.114
 7923SOL    HW224669   1.816   2.058   3.029
 7924SOL     OW24670   2.059   0.007   4.018
 7924SOL    HW124671   2.078   7.002   3.922
 7924SOL    HW224672   2.064   0.106   4.031
 7925SOL     OW24673   6.738   1.173   6.596
 7925SOL    HW124674   6.708   1.267   6.583
 7925SOL    HW224675   6.724   1.147   6.692
 7926SOL     OW24676   3.947   0.086   1.795
 7926SOL    HW124677   3.890   0.077   1.713
 7926SOL    HW224678   3.992   7.016   1.814
 7927SOL     OW24679   5.019   5.235   4.804
 7927SOL    HW124680   4.994   5.232   4.707
 7927SOL    HW224681   5.086   5.308   4.819
 7928SOL     OW24682   1.447   5.053   1.337
 7928SOL    HW124683   1.452   5.144   1.380
 7928SOL    HW224684   1.354   5.017   1.344
 7929SOL     OW24685   3.433   4.071   4.076
 7929SOL    HW124686   3.492   4.109   4.146
 7929SOL    HW224687   3.486   4.010   4.016
 7930SOL     OW24688   4.862   6.028   3.816
 7930SOL    HW124689   4.870   6.084   3.899
 7930SOL    HW224690   4.783   5.967   3.824
 7931SOL     OW24691   2.112   1.788   0.642
 7931SOL    HW124692   2.206   1.816   0.621
 7931SOL    HW224693   2.073   1.852   0.709
 7932SOL     OW24694   2.460   6.967   1.215
 7932SOL    HW124695   2.393   6.899   1.243
 7932SOL    HW224696   2.443   6.994   1.121
 7933SOL     OW24697   1.586   0.634   0.109
 7933SOL    HW124698   1.660   0.676   0.161
 7933SOL    HW224699   1.552   0.699   0.041
 7934SOL     OW24700   2.860   3.686   6.297
 7934SOL    HW124701   2.853   3.596   6.254
 7934SOL    HW224702   2.770   3.729   6.302
 7935SOL     OW24703   4.353   6.199   1.238
 7935SOL    HW124704   4.366   6.263   1.314
 7935SOL    HW224705   4.409   6.118   1.253
 7936SOL     OW24706   4.430   5.990   3.384
 7936SOL    HW124707   4.468   6.044   3.309
 7936SOL    HW224708   4.358   6.043   3.430
 7937SOL     OW24709   6.311   6.253   5.354
 7937SOL    HW124710   6.222   6.280   5.317
 7937SOL    HW224711   6.331   6.159   5.328
 7938SOL     OW24712   5.305   5.060   4.802
 7938SOL    HW124713   5.315   5.139   4.741
 7938SOL    HW224714   5.214   5.063   4.844
 7939SOL     OW24715   0.833   1.097   4.906
 7939SOL    HW124716   0.898   1.043   4.960
 7939SOL    HW224717   0.826   1.189   4.945
 7940SOL     OW24718   1.516   5.682   1.059
 7940SOL    HW124719   1.602   5.669   1.108
 7940SOL    HW224720   1.535   5.695   0.962
 7941SOL     OW24721   0.757   0.406   0.718
 7941SOL    HW124722   0.679   0.344   0.729
 7941SOL    HW224723   0.820   0.394   0.794
 7942SOL     OW24724   0.949   0.933   1.315
 7942SOL    HW124725   0.997   0.868   1.375
 7942SOL    HW224726   0.851   0.928   1.333
 7943SOL     OW24727   5.264   1.823   1.209
 7943SOL    HW124728   5.322   1.827   1.291
 7943SOL    HW224729   5.285   1.740   1.158
 7944SOL     OW24730   1.038   4.872   1.888
 7944SOL    HW124731   1.058   4.801   1.956
 7944SOL    HW224732   0.966   4.932   1.923
 7945SOL     OW24733   5.123   6.473   2.098
 7945SOL    HW124734   5.034   6.468   2.144
 7945SOL    HW224735   5.139   6.390   2.045
 7946SOL     OW24736   1.488   2.292   5.699
 7946SOL    HW124737   1.464   2.346   5.619
 7946SOL    HW224738   1.410   2.289   5.762
 7947SOL     OW24739   3.849   3.736   6.237
 7947SOL    HW124740   3.802   3.649   6.220
 7947SOL    HW224741   3.824   3.771   6.327
 7948SOL     OW24742   0.003   6.348   0.468
 7948SOL    HW124743   6.953   6.334   0.542
 7948SOL    HW224744   0.090   6.376   0.508
 7949SOL     OW24745   5.292   4.300   4.273
 7949SOL    HW124746   5.336   4.215   4.302
 7949SOL    HW224747   5.362   4.371   4.264
 7950SOL     OW24748   3.539   5.018   4.276
 7950SOL    HW124749   3.615   4.969   4.320
 7950SOL    HW224750   3.452   4.982   4.309
 7951SOL     OW24751   3.535   3.298   0.913
 7951SOL    HW124752   3.586   3.349   0.982
 7951SOL    HW224753   3.446   3.270   0.951
 7952SOL     OW24754   5.717   3.004   1.070
 7952SOL    HW124755   5.633   2.956   1.045
 7952SOL    HW224756   5.724   3.089   1.019
 7953SOL     OW24757   2.103   2.808   3.063
 7953SOL    HW124758   2.136   2.718   3.088
 7953SOL    HW224759   2.162   2.847   2.992
 7954SOL     OW24760   4.128   5.115   5.092
 7954SOL    HW124761   4.049   5.176   5.097
 7954SOL    HW224762   4.174   5.127   5.003
 7955SOL     OW24763   0.954   6.828   6.189
 7955SOL    HW124764   1.012   6.907   6.208
 7955SOL    HW224765   0.860   6.848   6.215
 7956SOL     OW24766   6.290   0.047   3.728
 7956SOL    HW124767   6.206   0.065   3.779
 7956SOL    HW224768   6.343   6.994   3.775
 7957SOL     OW24769   0.696   2.473   0.900
 7957SOL    HW124770   0.658   2.560   0.929
 7957SOL    HW224771   0.795   2.472   0.914
 7958SOL     OW24772   2.649   5.505   2.797
 7958SOL    HW124773   2.696   5.593   2.786
 7958SOL    HW224774   2.550   5.520   2.795
 7959SOL     OW24775   5.755   5.094   0.744
 7959SOL    HW124776   5.837   5.110   0.799
 7959SOL    HW224777   5.713   5.181   0.720
 7960SOL     OW24778   2.483   2.379   1.317
 7960SOL    HW124779   2.455   2.311   1.385
 7960SOL    HW224780   2.568   2.351   1.274
 7961SOL     OW24781   1.783   5.264   6.261
 7961SOL    HW124782   1.788   5.242   6.164
 7961SOL    HW224783   1.789   5.180   6.315
 7962SOL     OW24784   1.163   0.651   2.307
 7962SOL    HW124785   1.203   0.742   2.316
 7962SOL    HW224786   1.119   0.642   2.218
 7963SOL     OW24787   0.236   0.544   5.094
 7963SOL    HW124788   0.267   0.477   5.161
 7963SOL    HW224789   0.179   0.499   5.025
 7964SOL     OW24790   5.878   5.598   3.488
 7964SOL    HW124791   5.895   5.501   3.475
 7964SOL    HW224792   5.945   5.636   3.552
 7965SOL     OW24793   5.583   1.458   7.008
 7965SOL    HW124794   5.675   1.489   0.016
 7965SOL    HW224795   5.516   1.498   0.054
 7966SOL     OW24796   0.126   4.903   4.000
 7966SOL    HW124797   0.032   4.929   4.024
 7966SOL    HW224798   0.142   4.925   3.904
 7967SOL     OW24799   3.077   6.294   2.593
 7967SOL    HW124800   3.175   6.291   2.576
 7967SOL    HW224801   3.047   6.390   2.599
 7968SOL     OW24802   2.124   1.467   2.096
 7968SOL    HW124803   2.149   1.558   2.061
 7968SOL    HW224804   2.057   1.477   2.169
 7969SOL     OW24805   2.788   2.222   3.266
 7969SOL    HW124806   2.805   2.274   3.350
 7969SOL    HW224807   2.715   2.266   3.213
 7970SOL     OW24808   0.697   4.167   3.023
 7970SOL    HW124809   0.618   4.169   2.961
 7970SOL    HW224810   0.665   4.159   3.117
 7971SOL     OW24811   2.683   1.510   1.585
 7971SOL    HW124812   2.630   1.579   1.536
 7971SOL    HW224813   2.724   1.552   1.667
 7972SOL     OW24814   0.336   4.443   1.886
 7972SOL    HW124815   0.428   4.482   1.890
 7972SOL    HW224816   0.324   4.378   1.961
 7973SOL     OW24817   4.760   2.832   3.266
 7973SOL    HW124818   4.716   2.802   3.182
 7973SOL    HW224819   4.710   2.795   3.345
 7974SOL     OW24820   5.198   0.412   4.087
 7974SOL    HW124821   5.267   0.423   4.016
 7974SOL    HW224822   5.178   0.315   4.098
 7975SOL     OW24823   3.060   1.261   4.334
 7975SOL    HW124824   2.984   1.327   4.335
 7975SOL    HW224825   3.120   1.279   4.412
 7976SOL     OW24826   0.923   5.470   6.501
 7976SOL    HW124827   0.873   5.555   6.490
 7976SOL    HW224828   1.021   5.489   6.506
 7977SOL     OW24829   5.646   6.090   1.766
 7977SOL    HW124830   5.582   6.039   1.709
 7977SOL    HW224831   5.664   6.038   1.850
 7978SOL     OW24832   4.329   2.775   5.698
 7978SOL    HW124833   4.248   2.730   5.661
 7978SOL    HW224834   4.312   2.873   5.707
 7979SOL     OW24835   3.627   6.797   4.400
 7979SOL    HW124836   3.632   6.731   4.474
 7979SOL    HW224837   3.534   6.834   4.394
 7980SOL     OW24838   3.123   6.326   1.015
 7980SOL    HW124839   3.063   6.271   1.073
 7980SOL    HW224840   3.178   6.266   0.958
 7981SOL     OW24841   1.078   5.358   2.710
 7981SOL    HW124842   1.130   5.439   2.736
 7981SOL    HW224843   0.980   5.380   2.710
 7982SOL     OW24844   6.541   2.951   1.039
 7982SOL    HW124845   6.594   2.868   1.053
 7982SOL    HW224846   6.569   3.020   1.106
 7983SOL     OW24847   5.134   2.560   2.863
 7983SOL    HW124848   5.183   2.639   2.826
 7983SOL    HW224849   5.052   2.590   2.910
 7984SOL     OW24850   0.346   1.872   1.836
 7984SOL    HW124851   0.374   1.956   1.881
 7984SOL    HW224852   0.256   1.845   1.869
 7985SOL     OW24853   6.990   1.704   1.914
 7985SOL    HW124854   0.044   1.746   1.971
 7985SOL    HW224855   6.905   1.698   1.966
 7986SOL     OW24856   3.927   1.344   0.040
 7986SOL    HW124857   3.951   1.419   0.102
 7986SOL    HW224858   3.949   1.257   0.083
 7987SOL     OW24859   0.579   3.163   4.689
 7987SOL    HW124860   0.582   3.085   4.753
 7987SOL    HW224861   0.606   3.132   4.598
 7988SOL     OW24862   2.811   1.560   4.705
 7988SOL    HW124863   2.739   1.491   4.713
 7988SOL    HW224864   2.791   1.636   4.767
 7989SOL     OW24865   2.832   2.564   5.412
 7989SOL    HW124866   2.801   2.470   5.426
 7989SOL    HW224867   2.753   2.625   5.409
 7990SOL     OW24868   1.480   2.280   5.089
 7990SOL    HW124869   1.422   2.275   5.170
 7990SOL    HW224870   1.441   2.224   5.016
 7991SOL     OW24871   0.773   3.244   5.871
 7991SOL    HW124872   0.704   3.193   5.922
 7991SOL    HW224873   0.857   3.250   5.924
 7992SOL     OW24874   2.702   1.249   0.516
 7992SOL    HW124875   2.698   1.161   0.564
 7992SOL    HW224876   2.796   1.268   0.489
 7993SOL     OW24877   2.018   6.355   6.793
 7993SOL    HW124878   2.052   6.393   6.707
 7993SOL    HW224879   2.071   6.393   6.869
 7994SOL     OW24880   5.606   1.027   3.159
 7994SOL    HW124881   5.701   1.003   3.140
 7994SOL    HW224882   5.585   1.009   3.255
 7995SOL     OW24883   3.076   5.160   3.596
 7995SOL    HW124884   3.131   5.237   3.562
 7995SOL    HW224885   3.012   5.193   3.665
 7996SOL     OW24886   3.714   0.045   5.245
 7996SOL    HW124887   3.714   6.976   5.194
 7996SOL    HW224888   3.772   0.111   5.198
 7997SOL     OW24889   5.592   2.536   1.515
 7997SOL    HW124890   5.628   2.575   1.599
 7997SOL    HW224891   5.636   2.578   1.436
 7998SOL     OW24892   6.025   4.841   6.896
 7998SOL    HW124893   6.010   4.939   6.905
 7998SOL    HW224894   5.952   4.792   6.944
 7999SOL     OW24895   2.086   0.309   5.413
 7999SOL    HW124896   2.131   0.397   5.396
 7999SOL    HW224897   2.022   0.319   5.489
 8000SOL     OW24898   6.325   6.885   5.394
 8000SOL    HW124899   6.359   6.854   5.305
 8000SOL    HW224900   6.251   6.951   5.381
 8001SOL     OW24901   1.783   6.918   1.029
 8001SOL    HW124902   1.779   6.850   1.102
 8001SOL    HW224903   1.811   6.873   0.944
 8002SOL     OW24904   5.850   2.952   5.296
 8002SOL    HW124905   5.821   2.878   5.357
 8002SOL    HW224906   5.840   2.923   5.201
 8003SOL     OW24907   3.556   4.947   3.239
 8003SOL    HW124908   3.487   5.009   3.277
 8003SOL    HW224909   3.630   4.936   3.305
 8004SOL     OW24910   2.160   3.813   2.612
 8004SOL    HW124911   2.149   3.753   2.533
 8004SOL    HW224912   2.256   3.838   2.622
 8005SOL     OW24913   3.128   0.874   1.702
 8005SOL    HW124914   3.209   0.863   1.644
 8005SOL    HW224915   3.121   0.796   1.764
 8006SOL     OW24916   3.362   5.997   0.186
 8006SOL    HW124917   3.284   6.060   0.186
 8006SOL    HW224918   3.339   5.916   0.133
 8007SOL     OW24919   0.569   0.506   4.449
 8007SOL    HW124920   0.579   0.428   4.512
 8007SOL    HW224921   0.644   0.506   4.383
 8008SOL     OW24922   6.367   6.700   0.509
 8008SOL    HW124923   6.406   6.776   0.562
 8008SOL    HW224924   6.290   6.733   0.455
 8009SOL     OW24925   0.071   6.741   3.641
 8009SOL    HW124926   0.165   6.728   3.610
 8009SOL    HW224927   0.020   6.794   3.573
 8010SOL     OW24928   2.050   2.736   7.010
 8010SOL    HW124929   2.024   2.658   0.049
 8010SOL    HW224930   2.073   2.813   0.052
 8011SOL     OW24931   3.175   2.108   0.404
 8011SOL    HW124932   3.141   2.014   0.410
 8011SOL    HW224933   3.228   2.129   0.486
 8012SOL     OW24934   2.867   6.700   1.703
 8012SOL    HW124935   2.949   6.724   1.651
 8012SOL    HW224936   2.869   6.603   1.726
 8013SOL     OW24937   6.540   4.055   4.715
 8013SOL    HW124938   6.482   3.998   4.773
 8013SOL    HW224939   6.493   4.141   4.695
 8014SOL     OW24940   2.080   6.699   0.084
 8014SOL    HW124941   2.178   6.693   0.068
 8014SOL    HW224942   2.038   6.609   0.068
 8015SOL     OW24943   2.367   2.734   6.963
 8015SOL    HW124944   2.271   2.716   6.943
 8015SOL    HW224945   2.379   2.830   6.985
 8016SOL     OW24946   3.835   6.701   0.697
 8016SOL    HW124947   3.773   6.632   0.659
 8016SOL    HW224948   3.918   6.656   0.731
 8017SOL     OW24949   5.778   4.817   4.876
 8017SOL    HW124950   5.753   4.895   4.934
 8017SOL    HW224951   5.790   4.847   4.782
 8018SOL     OW24952   5.401   2.036   4.907
 8018SOL    HW124953   5.455   2.104   4.957
 8018SOL    HW224954   5.326   2.004   4.964
 8019SOL     OW24955   2.979   5.879   0.521
 8019SOL    HW124956   2.942   5.967   0.551
 8019SOL    HW224957   2.925   5.805   0.561
 8020SOL     OW24958   5.274   5.620   6.854
 8020SOL    HW124959   5.324   5.656   6.933
 8020SOL    HW224960   5.331   5.555   6.804
 8021SOL     OW24961   0.751   0.623   1.153
 8021SOL    HW124962   0.752   0.680   1.236
 8021SOL    HW224963   0.693   0.666   1.084
 8022SOL     OW24964   4.348   6.175   2.885
 8022SOL    HW124965   4.362   6.233   2.965
 8022SOL    HW224966   4.310   6.230   2.810
 8023SOL     OW24967   5.860   6.890   2.626
 8023SOL    HW124968   5.775   6.938   2.647
 8023SOL    HW224969   5.850   6.793   2.649
 8024SOL     OW24970   4.604   5.123   5.112
 8024SOL    HW124971   4.565   5.183   5.042
 8024SOL    HW224972   4.534   5.101   5.180
 8025SOL     OW24973   4.194   5.521   6.968
 8025SOL    HW124974   4.141   5.599   7.003
 8025SOL    HW224975   4.197   5.526   6.868
 8026SOL     OW24976   1.099   3.140   0.409
 8026SOL    HW124977   1.056   3.082   0.339
 8026SOL    HW224978   1.076   3.236   0.392
 8027SOL     OW24979   4.776   2.121   5.359
 8027SOL    HW124980   4.848   2.094   5.423
 8027SOL    HW224981   4.723   2.196   5.399
 8028SOL     OW24982   5.478   4.425   6.860
 8028SOL    HW124983   5.497   4.334   6.898
 8028SOL    HW224984   5.483   4.421   6.760
 8029SOL     OW24985   3.979   4.100   0.664
 8029SOL    HW124986   4.060   4.122   0.610
 8029SOL    HW224987   3.932   4.184   0.690
 8030SOL     OW24988   5.728   4.202   6.283
 8030SOL    HW124989   5.680   4.283   6.249
 8030SOL    HW224990   5.735   4.206   6.383
 8031SOL     OW24991   3.723   5.386   1.480
 8031SOL    HW124992   3.682   5.378   1.571
 8031SOL    HW224993   3.699   5.475   1.440
 8032SOL     OW24994   5.338   3.583   5.804
 8032SOL    HW124995   5.389   3.517   5.749
 8032SOL    HW224996   5.293   3.649   5.743
 8033SOL     OW24997   5.890   2.892   6.941
 8033SOL    HW124998   5.898   2.871   0.021
 8033SOL    HW224999   5.863   2.987   6.929
 8034SOL     OW25000   5.686   6.948   4.895
 8034SOL    HW125001   5.699   6.940   4.994
 8034SOL    HW225002   5.601   6.904   4.868
 8035SOL     OW25003   5.844   6.838   6.408
 8035SOL    HW125004   5.754   6.797   6.422
 8035SOL    HW225005   5.914   6.768   6.417
 8036SOL     OW25006   1.673   4.326   1.837
 8036SOL    HW125007   1.594   4.341   1.777
 8036SOL    HW225008   1.651   4.355   1.930
 8037SOL     OW25009   1.882   3.083   1.127
 8037SOL    HW125010   1.923   3.104   1.216
 8037SOL    HW225011   1.835   2.995   1.132
 8038SOL     OW25012   0.362   2.367   4.307
 8038SOL    HW125013   0.291   2.422   4.263
 8038SOL    HW225014   0.377   2.401   4.400
 8039SOL     OW25015   2.801   0.064   3.400
 8039SOL    HW125016   2.872   0.051   3.332
 8039SOL    HW225017   2.839   0.046   3.491
 8040SOL     OW25018   6.851   5.994   1.198
 8040SOL    HW125019   6.794   5.939   1.259
 8040SOL    HW225020   6.802   6.010   1.112
 8041SOL     OW25021   4.405   1.407   0.530
 8041SOL    HW125022   4.498   1.372   0.545
 8041SOL    HW225023   4.383   1.399   0.433
 8042SOL     OW25024   2.976   3.263   1.530
 8042SOL    HW125025   2.955   3.168   1.553
 8042SOL    HW225026   3.024   3.307   1.606
 8043SOL     OW25027   2.570   6.777   1.790
 8043SOL    HW125028   2.664   6.787   1.756
 8043SOL    HW225029   2.562   6.691   1.840
 8044SOL     OW25030   2.876   3.772   1.736
 8044SOL    HW125031   2.939   3.819   1.797
 8044SOL    HW225032   2.876   3.674   1.757
 8045SOL     OW25033   5.749   2.549   3.072
 8045SOL    HW125034   5.836   2.525   3.115
 8045SOL    HW225035   5.741   2.648   3.066
 8046SOL     OW25036   6.914   4.931   6.064
 8046SOL    HW125037   6.904   4.883   5.977
 8046SOL    HW225038   7.009   4.960   6.075
 8047SOL     OW25039   3.537   5.918   4.409
 8047SOL    HW125040   3.547   5.819   4.417
 8047SOL    HW225041   3.626   5.962   4.422
 8048SOL     OW25042   6.524   0.125   5.453
 8048SOL    HW125043   6.597   0.191   5.471
 8048SOL    HW225044   6.545   0.073   5.370
 8049SOL     OW25045   1.104   5.918   0.532
 8049SOL    HW125046   1.172   5.990   0.515
 8049SOL    HW225047   1.138   5.856   0.603
 8050SOL     OW25048   2.033   2.977   1.372
 8050SOL    HW125049   2.110   2.932   1.327
 8050SOL    HW225050   1.949   2.926   1.353
 8051SOL     OW25051   4.732   0.766   3.814
 8051SOL    HW125052   4.701   0.671   3.812
 8051SOL    HW225053   4.748   0.799   3.721
 8052SOL     OW25054   2.827   1.394   2.867
 8052SOL    HW125055   2.867   1.484   2.852
 8052SOL    HW225056   2.780   1.393   2.955
 8053SOL     OW25057   3.993   3.762   2.337
 8053SOL    HW125058   4.018   3.684   2.393
 8053SOL    HW225059   3.988   3.844   2.395
 8054SOL     OW25060   4.219   6.561   4.920
 8054SOL    HW125061   4.260   6.637   4.970
 8054SOL    HW225062   4.123   6.581   4.903
 8055SOL     OW25063   1.677   6.635   6.163
 8055SOL    HW125064   1.610   6.705   6.188
 8055SOL    HW225065   1.630   6.548   6.150
 8056SOL     OW25066   4.595   1.656   2.879
 8056SOL    HW125067   4.666   1.694   2.820
 8056SOL    HW225068   4.552   1.578   2.833
 8057SOL     OW25069   3.240   6.812   3.154
 8057SOL    HW125070   3.294   6.728   3.150
 8057SOL    HW225071   3.276   6.871   3.226
 8058SOL     OW25072   2.652   1.286   2.665
 8058SOL    HW125073   2.729   1.316   2.722
 8058SOL    HW225074   2.595   1.366   2.642
 8059SOL     OW25075   2.925   1.696   4.091
 8059SOL    HW125076   2.937   1.623   4.025
 8059SOL    HW225077   2.977   1.776   4.062
 8060SOL     OW25078   0.609   1.473   4.381
 8060SOL    HW125079   0.628   1.560   4.426
 8060SOL    HW225080   0.675   1.404   4.412
 8061SOL     OW25081   6.863   5.129   2.360
 8061SOL    HW125082   6.827   5.162   2.447
 8061SOL    HW225083   6.961   5.148   2.355
 8062SOL     OW25084   1.964   4.074   3.303
 8062SOL    HW125085   2.062   4.094   3.311
 8062SOL    HW225086   1.922   4.075   3.393
 8063SOL     OW25087   3.182   3.026   0.139
 8063SOL    HW125088   3.282   3.018   0.138
 8063SOL    HW225089   3.157   3.122   0.130
 8064SOL     OW25090   6.737   3.955   0.013
 8064SOL    HW125091   6.823   3.918   6.994
 8064SOL    HW225092   6.660   3.910   6.985
 8065SOL     OW25093   4.722   0.233   5.310
 8065SOL    HW125094   4.625   0.255   5.313
 8065SOL    HW225095   4.737   0.157   5.247
 8066SOL     OW25096   1.734   0.232   1.222
 8066SOL    HW125097   1.707   0.156   1.163
 8066SOL    HW225098   1.677   0.312   1.201
 8067SOL     OW25099   5.129   2.693   2.556
 8067SOL    HW125100   5.182   2.640   2.490
 8067SOL    HW225101   5.035   2.659   2.559
 8068SOL     OW25102   1.269   4.360   4.534
 8068SOL    HW125103   1.202   4.299   4.576
 8068SOL    HW225104   1.259   4.452   4.572
 8069SOL     OW25105   1.526   6.574   1.693
 8069SOL    HW125106   1.605   6.534   1.646
 8069SOL    HW225107   1.468   6.620   1.626
 8070SOL     OW25108   3.660   6.788   1.359
 8070SOL    HW125109   3.681   6.756   1.451
 8070SOL    HW225110   3.653   6.887   1.358
 8071SOL     OW25111   4.113   6.323   6.670
 8071SOL    HW125112   4.090   6.226   6.658
 8071SOL    HW225113   4.176   6.333   6.746
 8072SOL     OW25114   5.455   1.147   0.626
 8072SOL    HW125115   5.501   1.195   0.700
 8072SOL    HW225116   5.442   1.209   0.549
 8073SOL     OW25117   4.130   6.446   5.653
 8073SOL    HW125118   4.071   6.465   5.732
 8073SOL    HW225119   4.076   6.452   5.569
 8074SOL     OW25120   3.505   3.746   6.919
 8074SOL    HW125121   3.551   3.665   6.883
 8074SOL    HW225122   3.564   3.792   6.986
 8075SOL     OW25123   0.380   1.817   3.128
 8075SOL    HW125124   0.386   1.892   3.062
 8075SOL    HW225125   0.361   1.732   3.079
 8076SOL     OW25126   6.074   3.154   5.942
 8076SOL    HW125127   6.058   3.241   5.989
 8076SOL    HW225128   5.997   3.135   5.880
 8077SOL     OW25129   1.534   0.543   0.955
 8077SOL    HW125130   1.504   0.619   0.897
 8077SOL    HW225131   1.454   0.494   0.989
 8078SOL     OW25132   6.339   3.378   0.530
 8078SOL    HW125133   6.432   3.404   0.555
 8078SOL    HW225134   6.285   3.460   0.509
 8079SOL     OW25135   6.582   2.295   2.368
 8079SOL    HW125136   6.497   2.317   2.417
 8079SOL    HW225137   6.574   2.205   2.326
 8080SOL     OW25138   3.337   4.873   0.293
 8080SOL    HW125139   3.387   4.931   0.357
 8080SOL    HW225140   3.266   4.927   0.247
 8081SOL     OW25141   5.881   0.885   5.506
 8081SOL    HW125142   5.978   0.898   5.527
 8081SOL    HW225143   5.871   0.845   5.415
 8082SOL     OW25144   6.842   3.026   3.818
 8082SOL    HW125145   6.787   2.963   3.874
 8082SOL    HW225146   6.926   3.050   3.868
 8083SOL     OW25147   4.533   2.231   4.198
 8083SOL    HW125148   4.617   2.239   4.145
 8083SOL    HW225149   4.548   2.169   4.275
 8084SOL     OW25150   6.896   0.526   1.352
 8084SOL    HW125151   6.928   0.604   1.298
 8084SOL    HW225152   6.962   0.506   1.424
 8085SOL     OW25153   5.335   1.546   1.421
 8085SOL    HW125154   5.361   1.488   1.499
 8085SOL    HW225155   5.358   1.641   1.441
 8086SOL     OW25156   3.351   0.288   5.359
 8086SOL    HW125157   3.387   0.196   5.350
 8086SOL    HW225158   3.324   0.323   5.269
 8087SOL     OW25159   2.891   2.667   1.497
 8087SOL    HW125160   2.818   2.717   1.450
 8087SOL    HW225161   2.968   2.656   1.435
 8088SOL     OW25162   4.329   1.132   3.021
 8088SOL    HW125163   4.380   1.208   3.062
 8088SOL    HW225164   4.233   1.136   3.050
 8089SOL     OW25165   6.209   3.173   0.066
 8089SOL    HW125166   6.150   3.154   7.006
 8089SOL    HW225167   6.155   3.210   0.142
 8090SOL     OW25168   4.376   2.188   5.509
 8090SOL    HW125169   4.333   2.275   5.483
 8090SOL    HW225170   4.438   2.204   5.587
 8091SOL     OW25171   3.106   4.933   5.526
 8091SOL    HW125172   3.057   4.998   5.468
 8091SOL    HW225173   3.197   4.968   5.546
 8092SOL     OW25174   1.511   1.737   4.477
 8092SOL    HW125175   1.599   1.779   4.498
 8092SOL    HW225176   1.526   1.648   4.434
 8093SOL     OW25177   5.758   6.055   1.286
 8093SOL    HW125178   5.704   6.011   1.357
 8093SOL    HW225179   5.856   6.044   1.305
 8094SOL     OW25180   0.920   3.940   5.836
 8094SOL    HW125181   0.963   3.860   5.794
 8094SOL    HW225182   0.957   4.023   5.795
 8095SOL     OW25183   5.420   3.509   3.993
 8095SOL    HW125184   5.339   3.452   3.980
 8095SOL    HW225185   5.482   3.464   4.057
 8096SOL     OW25186   3.560   6.180   1.943
 8096SOL    HW125187   3.569   6.238   1.862
 8096SOL    HW225188   3.493   6.109   1.926
 8097SOL     OW25189   5.294   1.147   3.676
 8097SOL    HW125190   5.204   1.112   3.650
 8097SOL    HW225191   5.364   1.100   3.624
 8098SOL     OW25192   2.480   6.854   3.759
 8098SOL    HW125193   2.435   6.942   3.774
 8098SOL    HW225194   2.578   6.865   3.769
 8099SOL     OW25195   4.713   6.332   5.086
 8099SOL    HW125196   4.645   6.308   5.155
 8099SOL    HW225197   4.801   6.348   5.130
 8100SOL     OW25198   0.557   6.608   0.977
 8100SOL    HW125199   0.585   6.609   1.073
 8100SOL    HW225200   0.464   6.644   0.969
 8101SOL     OW25201   1.474   6.052   2.994
 8101SOL    HW125202   1.505   6.123   3.057
 8101SOL    HW225203   1.502   6.075   2.901
 8102SOL     OW25204   6.966   5.765   5.754
 8102SOL    HW125205   6.889   5.741   5.812
 8102SOL    HW225206   6.940   5.756   5.658
 8103SOL     OW25207   3.234   1.400   2.588
 8103SOL    HW125208   3.228   1.300   2.582
 8103SOL    HW225209   3.329   1.428   2.572
 8104SOL     OW25210   2.691   6.713   6.372
 8104SOL    HW125211   2.705   6.694   6.469
 8104SOL    HW225212   2.780   6.712   6.325
 8105SOL     OW25213   2.029   2.254   3.194
 8105SOL    HW125214   2.019   2.307   3.278
 8105SOL    HW225215   2.112   2.199   3.198
 8106SOL     OW25216   1.307   4.099   4.162
 8106SOL    HW125217   1.250   4.176   4.191
 8106SOL    HW225218   1.316   4.101   4.062
 8107SOL     OW25219   1.911   6.247   6.130
 8107SOL    HW125220   1.885   6.263   6.225
 8107SOL    HW225221   1.845   6.292   6.069
 8108SOL     OW25222   0.769   2.914   3.941
 8108SOL    HW125223   0.689   2.933   3.997
 8108SOL    HW225224   0.763   2.820   3.906
 8109SOL     OW25225   1.644   5.304   5.035
 8109SOL    HW125226   1.580   5.334   4.964
 8109SOL    HW225227   1.700   5.229   4.999
 8110SOL     OW25228   2.174   5.172   0.759
 8110SOL    HW125229   2.085   5.154   0.801
 8110SOL    HW225230   2.225   5.235   0.817
 8111SOL     OW25231   2.571   5.461   4.042
 8111SOL    HW125232   2.578   5.506   4.131
 8111SOL    HW225233   2.540   5.367   4.053
 8112SOL     OW25234   2.860   0.984   4.787
 8112SOL    HW125235   2.799   0.953   4.860
 8112SOL    HW225236   2.947   1.013   4.826
 8113SOL     OW25237   3.675   2.243   6.167
 8113SOL    HW125238   3.623   2.327   6.151
 8113SOL    HW225239   3.684   2.228   6.266
 8114SOL     OW25240   2.499   3.048   1.513
 8114SOL    HW125241   2.474   3.114   1.583
 8114SOL    HW225242   2.429   2.977   1.507
 8115SOL     OW25243   3.492   0.964   1.277
 8115SOL    HW125244   3.451   1.055   1.268
 8115SOL    HW225245   3.590   0.970   1.263
 8116SOL     OW25246   5.958   0.468   5.394
 8116SOL    HW125247   5.886   0.505   5.453
 8116SOL    HW225248   5.926   0.464   5.300
 8117SOL     OW25249   1.935   1.852   5.708
 8117SOL    HW125250   1.932   1.779   5.640
 8117SOL    HW225251   1.908   1.938   5.666
 8118SOL     OW25252   0.906   3.477   4.739
 8118SOL    HW125253   0.986   3.480   4.679
 8118SOL    HW225254   0.891   3.384   4.770
 8119SOL     OW25255   1.183   6.479   2.513
 8119SOL    HW125256   1.198   6.381   2.500
 8119SOL    HW225257   1.105   6.492   2.575
 8120SOL     OW25258   4.534   3.815   1.591
 8120SOL    HW125259   4.608   3.759   1.628
 8120SOL    HW225260   4.560   3.848   1.500
 8121SOL     OW25261   5.767   0.562   2.954
 8121SOL    HW125262   5.833   0.618   3.005
 8121SOL    HW225263   5.815   0.508   2.886
 8122SOL     OW25264   6.693   6.486   2.387
 8122SOL    HW125265   6.682   6.394   2.425
 8122SOL    HW225266   6.643   6.551   2.444
 8123SOL     OW25267   1.062   6.369   6.863
 8123SOL    HW125268   1.022   6.421   6.788
 8123SOL    HW225269   0.992   6.350   6.931
 8124SOL     OW25270   0.779   5.739   2.591
 8124SOL    HW125271   0.878   5.753   2.593
 8124SOL    HW225272   0.737   5.782   2.671
 8125SOL     OW25273   5.413   5.118   3.234
 8125SOL    HW125274   5.484   5.167   3.184
 8125SOL    HW225275   5.399   5.160   3.323
 8126SOL     OW25276   5.339   5.110   2.313
 8126SOL    HW125277   5.290   5.023   2.300
 8126SOL    HW225278   5.417   5.095   2.374
 8127SOL     OW25279   2.661   4.712   0.353
 8127SOL    HW125280   2.756   4.688   0.331
 8127SOL    HW225281   2.626   4.775   0.283
 8128SOL     OW25282   4.040   2.382   5.338
 8128SOL    HW125283   4.099   2.344   5.409
 8128SOL    HW225284   4.093   2.441   5.278
 8129SOL     OW25285   5.013   0.201   6.679
 8129SOL    HW125286   5.012   0.298   6.703
 8129SOL    HW225287   4.962   0.150   6.748
 8130SOL     OW25288   1.864   6.437   0.166
 8130SOL    HW125289   1.768   6.449   0.192
 8130SOL    HW225290   1.880   6.341   0.142
 8131SOL     OW25291   2.055   1.536   0.492
 8131SOL    HW125292   2.066   1.624   0.537
 8131SOL    HW225293   2.048   1.550   0.393
 8132SOL     OW25294   6.425   4.873   3.916
 8132SOL    HW125295   6.373   4.788   3.910
 8132SOL    HW225296   6.383   4.933   3.984
 8133SOL     OW25297   1.121   5.672   1.795
 8133SOL    HW125298   1.160   5.764   1.805
 8133SOL    HW225299   1.192   5.610   1.762
 8134SOL     OW25300   2.034   2.374   2.614
 8134SOL    HW125301   1.996   2.335   2.530
 8134SOL    HW225302   2.092   2.453   2.590
 8135SOL     OW25303   4.425   5.966   1.737
 8135SOL    HW125304   4.401   5.870   1.728
 8135SOL    HW225305   4.354   6.014   1.789
 8136SOL     OW25306   4.488   5.629   1.275
 8136SOL    HW125307   4.389   5.626   1.260
 8136SOL    HW225308   4.510   5.704   1.337
 8137SOL     OW25309   2.337   4.064   5.522
 8137SOL    HW125310   2.281   3.993   5.480
 8137SOL    HW225311   2.433   4.052   5.495
 8138SOL     OW25312   5.044   0.934   3.777
 8138SOL    HW125313   4.973   0.904   3.715
 8138SOL    HW225314   5.060   0.864   3.847
 8139SOL     OW25315   1.871   2.608   3.830
 8139SOL    HW125316   1.842   2.601   3.734
 8139SOL    HW225317   1.937   2.682   3.840
 8140SOL     OW25318   4.244   0.184   0.849
 8140SOL    HW125319   4.272   0.125   0.925
 8140SOL    HW225320   4.221   0.127   0.770
 8141SOL     OW25321   4.625   0.949   4.997
 8141SOL    HW125322   4.609   1.036   4.950
 8141SOL    HW225323   4.723   0.929   4.999
 8142SOL     OW25324   1.826   5.865   0.819
 8142SOL    HW125325   1.893   5.918   0.871
 8142SOL    HW225326   1.824   5.771   0.853
 8143SOL     OW25327   6.257   4.869   0.553
 8143SOL    HW125328   6.180   4.898   0.496
 8143SOL    HW225329   6.330   4.937   0.547
 8144SOL     OW25330   0.061   4.983   6.728
 8144SOL    HW125331   0.088   4.940   6.642
 8144SOL    HW225332   7.001   4.932   6.768
 8145SOL     OW25333   5.539   5.837   6.953
 8145SOL    HW125334   5.512   5.769   0.004
 8145SOL    HW225335   5.576   5.790   6.873
 8146SOL     OW25336   6.019   0.348   4.228
 8146SOL    HW125337   5.925   0.317   4.216
 8146SOL    HW225338   6.041   0.354   4.325
 8147SOL     OW25339   1.667   0.766   6.288
 8147SOL    HW125340   1.658   0.700   6.213
 8147SOL    HW225341   1.653   0.858   6.253
 8148SOL     OW25342   4.573   5.002   0.208
 8148SOL    HW125343   4.546   4.973   0.116
 8148SOL    HW225344   4.521   5.083   0.234
 8149SOL     OW25345   0.959   5.910   5.311
 8149SOL    HW125346   0.970   5.837   5.379
 8149SOL    HW225347   0.916   5.989   5.354
 8150SOL     OW25348   0.623   3.313   0.935
 8150SOL    HW125349   0.645   3.258   1.016
 8150SOL    HW225350   0.558   3.385   0.961
 8151SOL     OW25351   6.581   5.477   3.242
 8151SOL    HW125352   6.600   5.396   3.186
 8151SOL    HW225353   6.663   5.533   3.247
 8152SOL     OW25354   4.774   1.314   3.736
 8152SOL    HW125355   4.787   1.408   3.706
 8152SOL    HW225356   4.739   1.259   3.661
 8153SOL     OW25357   0.507   1.170   2.677
 8153SOL    HW125358   0.428   1.183   2.737
 8153SOL    HW225359   0.498   1.082   2.629
 8154SOL     OW25360   1.839   0.684   2.982
 8154SOL    HW125361   1.838   0.623   3.061
 8154SOL    HW225362   1.909   0.653   2.917
 8155SOL     OW25363   2.159   5.401   2.659
 8155SOL    HW125364   2.129   5.318   2.611
 8155SOL    HW225365   2.099   5.418   2.737
 8156SOL     OW25366   6.729   5.274   1.519
 8156SOL    HW125367   6.726   5.209   1.595
 8156SOL    HW225368   6.818   5.269   1.474
 8157SOL     OW25369   0.289   3.311   5.466
 8157SOL    HW125370   0.383   3.335   5.442
 8157SOL    HW225371   0.254   3.244   5.401
 8158SOL     OW25372   5.707   5.282   6.624
 8158SOL    HW125373   5.686   5.328   6.538
 8158SOL    HW225374   5.684   5.343   6.700
 8159SOL     OW25375   3.296   6.361   5.529
 8159SOL    HW125376   3.198   6.357   5.508
 8159SOL    HW225377   3.313   6.437   5.592
 8160SOL     OW25378   4.817   0.930   3.222
 8160SOL    HW125379   4.863   0.845   3.247
 8160SOL    HW225380   4.718   0.919   3.234
 8161SOL     OW25381   5.680   3.157   1.655
 8161SOL    HW125382   5.664   3.063   1.627
 8161SOL    HW225383   5.657   3.167   1.752
 8162SOL     OW25384   0.195   5.508   6.050
 8162SOL    HW125385   0.216   5.432   6.112
 8162SOL    HW225386   0.098   5.503   6.023
 8163SOL     OW25387   4.532   4.459   5.400
 8163SOL    HW125388   4.583   4.500   5.476
 8163SOL    HW225389   4.469   4.390   5.436
 8164SOL     OW25390   4.801   1.710   0.575
 8164SOL    HW125391   4.891   1.738   0.607
 8164SOL    HW225392   4.734   1.782   0.596
 8165SOL     OW25393   6.620   1.452   6.778
 8165SOL    HW125394   6.717   1.433   6.761
 8165SOL    HW225395   6.574   1.369   6.809
 8166SOL     OW25396   1.940   1.942   4.844
 8166SOL    HW125397   1.903   1.914   4.933
 8166SOL    HW225398   1.906   2.034   4.822
 8167SOL     OW25399   1.093   2.624   4.475
 8167SOL    HW125400   1.012   2.604   4.530
 8167SOL    HW225401   1.091   2.569   4.391
 8168SOL     OW25402   2.653   1.068   2.060
 8168SOL    HW125403   2.587   1.013   2.009
 8168SOL    HW225404   2.607   1.112   2.137
 8169SOL     OW25405   5.443   2.626   0.594
 8169SOL    HW125406   5.456   2.660   0.500
 8169SOL    HW225407   5.478   2.693   0.659
 8170SOL     OW25408   6.321   5.160   2.389
 8170SOL    HW125409   6.226   5.178   2.414
 8170SOL    HW225410   6.350   5.224   2.318
 8171SOL     OW25411   1.979   0.933   0.890
 8171SOL    HW125412   2.067   0.957   0.929
 8171SOL    HW225413   1.910   0.998   0.921
 8172SOL     OW25414   0.623   2.721   0.982
 8172SOL    HW125415   0.558   2.703   1.056
 8172SOL    HW225416   0.715   2.733   1.020
 8173SOL     OW25417   5.940   1.289   2.249
 8173SOL    HW125418   5.908   1.253   2.162
 8173SOL    HW225419   5.997   1.219   2.295
 8174SOL     OW25420   2.713   4.847   2.868
 8174SOL    HW125421   2.718   4.766   2.927
 8174SOL    HW225422   2.802   4.893   2.868
 8175SOL     OW25423   0.382   1.604   4.941
 8175SOL    HW125424   0.470   1.597   4.988
 8175SOL    HW225425   0.389   1.561   4.851
 8176SOL     OW25426   2.668   4.135   0.578
 8176SOL    HW125427   2.699   4.049   0.617
 8176SOL    HW225428   2.743   4.176   0.525
 8177SOL     OW25429   3.770   0.860   3.216
 8177SOL    HW125430   3.711   0.935   3.248
 8177SOL    HW225431   3.785   0.795   3.291
 8178SOL     OW25432   2.299   6.771   1.262
 8178SOL    HW125433   2.213   6.767   1.312
 8178SOL    HW225434   2.291   6.719   1.177
 8179SOL     OW25435   5.813   1.199   3.589
 8179SOL    HW125436   5.802   1.101   3.574
 8179SOL    HW225437   5.727   1.245   3.565
 8180SOL     OW25438   4.797   6.603   6.972
 8180SOL    HW125439   4.751   6.692   6.971
 8180SOL    HW225440   4.848   6.593   0.040
 8181SOL     OW25441   0.455   1.100   0.752
 8181SOL    HW125442   0.481   1.113   0.847
 8181SOL    HW225443   0.474   1.005   0.725
 8182SOL     OW25444   3.052   3.722   4.987
 8182SOL    HW125445   3.007   3.684   5.068
 8182SOL    HW225446   3.029   3.818   4.978
 8183SOL     OW25447   0.494   0.257   4.989
 8183SOL    HW125448   0.455   0.208   5.066
 8183SOL    HW225449   0.533   0.344   5.020
 8184SOL     OW25450   6.902   6.108   6.822
 8184SOL    HW125451   6.947   6.021   6.803
 8184SOL    HW225452   6.803   6.095   6.824
 8185SOL     OW25453   1.007   6.024   0.001
 8185SOL    HW125454   0.911   6.014   0.026
 8185SOL    HW225455   1.050   6.092   0.060
 8186SOL     OW25456   1.215   5.423   6.729
 8186SOL    HW125457   1.202   5.485   6.651
 8186SOL    HW225458   1.228   5.476   6.812
 8187SOL     OW25459   0.517   0.894   5.709
 8187SOL    HW125460   0.533   0.833   5.632
 8187SOL    HW225461   0.448   0.854   5.769
 8188SOL     OW25462   2.136   2.747   3.807
 8188SOL    HW125463   2.188   2.760   3.723
 8188SOL    HW225464   2.188   2.690   3.870
 8189SOL     OW25465   5.424   4.784   3.747
 8189SOL    HW125466   5.516   4.791   3.783
 8189SOL    HW225467   5.428   4.752   3.652
 8190SOL     OW25468   6.461   3.728   3.299
 8190SOL    HW125469   6.539   3.760   3.353
 8190SOL    HW225470   6.486   3.644   3.251
 8191SOL     OW25471   3.419   5.482   0.847
 8191SOL    HW125472   3.510   5.487   0.805
 8191SOL    HW225473   3.364   5.415   0.798
 8192SOL     OW25474   1.012   4.743   3.532
 8192SOL    HW125475   1.097   4.790   3.505
 8192SOL    HW225476   0.953   4.808   3.580
 8193SOL     OW25477   0.730   4.414   4.642
 8193SOL    HW125478   0.820   4.451   4.620
 8193SOL    HW225479   0.702   4.350   4.571
 8194SOL     OW25480   4.916   6.400   1.586
 8194SOL    HW125481   4.868   6.318   1.618
 8194SOL    HW225482   4.959   6.445   1.664
 8195SOL     OW25483   5.473   6.655   3.070
 8195SOL    HW125484   5.423   6.589   3.015
 8195SOL    HW225485   5.475   6.624   3.165
 8196SOL     OW25486   5.018   0.836   0.423
 8196SOL    HW125487   4.927   0.817   0.386
 8196SOL    HW225488   5.040   0.770   0.494
 8197SOL     OW25489   4.734   1.625   2.618
 8197SOL    HW125490   4.822   1.578   2.629
 8197SOL    HW225491   4.675   1.572   2.557
 8198SOL     OW25492   1.470   0.308   2.438
 8198SOL    HW125493   1.527   0.308   2.520
 8198SOL    HW225494   1.395   0.373   2.449
 8199SOL     OW25495   5.627   3.079   6.031
 8199SOL    HW125496   5.724   3.076   6.058
 8199SOL    HW225497   5.598   3.174   6.022
 8200SOL     OW25498   4.301   2.745   1.085
 8200SOL    HW125499   4.351   2.705   1.008
 8200SOL    HW225500   4.261   2.832   1.058
 8201SOL     OW25501   6.771   6.747   5.289
 8201SOL    HW125502   6.672   6.743   5.278
 8201SOL    HW225503   6.795   6.726   5.384
 8202SOL     OW25504   0.863   5.952   1.967
 8202SOL    HW125505   0.955   5.968   2.004
 8202SOL    HW225506   0.852   6.004   1.882
 8203SOL     OW25507   1.096   3.511   1.375
 8203SOL    HW125508   1.105   3.551   1.466
 8203SOL    HW225509   0.999   3.505   1.351
 8204SOL     OW25510   3.391   2.970   0.778
 8204SOL    HW125511   3.381   2.928   0.868
 8204SOL    HW225512   3.405   2.899   0.709
 8205SOL     OW25513   1.174   3.560   0.876
 8205SOL    HW125514   1.172   3.468   0.913
 8205SOL    HW225515   1.241   3.615   0.925
 8206SOL     OW25516   3.527   0.536   6.925
 8206SOL    HW125517   3.477   0.542   7.011
 8206SOL    HW225518   3.557   0.628   6.898
 8207SOL     OW25519   3.794   2.977   4.921
 8207SOL    HW125520   3.872   3.028   4.883
 8207SOL    HW225521   3.710   3.005   4.875
 8208SOL     OW25522   2.128   0.637   0.533
 8208SOL    HW125523   2.132   0.552   0.482
 8208SOL    HW225524   2.054   0.632   0.601
 8209SOL     OW25525   6.384   1.035   5.462
 8209SOL    HW125526   6.389   1.064   5.558
 8209SOL    HW225527   6.451   0.962   5.446
 8210SOL     OW25528   1.452   2.961   0.042
 8210SOL    HW125529   1.468   3.005   0.130
 8210SOL    HW225530   1.455   3.030   6.987
 8211SOL     OW25531   3.504   4.657   1.162
 8211SOL    HW125532   3.424   4.655   1.103
 8211SOL    HW225533   3.479   4.624   1.253
 8212SOL     OW25534   1.686   2.425   3.398
 8212SOL    HW125535   1.753   2.486   3.442
 8212SOL    HW225536   1.654   2.467   3.313
 8213SOL     OW25537   6.984   5.286   1.396
 8213SOL    HW125538   0.047   5.323   1.349
 8213SOL    HW225539   7.014   5.227   1.472
 8214SOL     OW25540   5.039   4.206   3.341
 8214SOL    HW125541   4.943   4.211   3.313
 8214SOL    HW225542   5.044   4.207   3.440
 8215SOL     OW25543   3.165   5.202   4.464
 8215SOL    HW125544   3.249   5.231   4.509
 8215SOL    HW225545   3.090   5.261   4.492
 8216SOL     OW25546   4.558   4.517   3.797
 8216SOL    HW125547   4.464   4.548   3.811
 8216SOL    HW225548   4.587   4.463   3.875
 8217SOL     OW25549   2.289   6.171   0.248
 8217SOL    HW125550   2.279   6.101   0.319
 8217SOL    HW225551   2.335   6.131   0.168
 8218SOL     OW25552   0.720   1.379   0.090
 8218SOL    HW125553   0.752   1.295   0.134
 8218SOL    HW225554   0.786   1.407   0.020
 8219SOL     OW25555   6.122   2.109   6.275
 8219SOL    HW125556   6.207   2.112   6.329
 8219SOL    HW225557   6.059   2.178   6.309
 8220SOL     OW25558   3.464   3.175   3.029
 8220SOL    HW125559   3.458   3.097   2.968
 8220SOL    HW225560   3.527   3.243   2.991
 8221SOL     OW25561   5.257   5.682   3.465
 8221SOL    HW125562   5.327   5.679   3.394
 8221SOL    HW225563   5.197   5.761   3.449
 8222SOL     OW25564   5.339   1.950   2.424
 8222SOL    HW125565   5.393   1.965   2.507
 8222SOL    HW225566   5.400   1.924   2.350
 8223SOL     OW25567   0.566   4.750   6.070
 8223SOL    HW125568   0.598   4.668   6.116
 8223SOL    HW225569   0.475   4.774   6.105
 8224SOL     OW25570   1.238   2.825   4.071
 8224SOL    HW125571   1.252   2.787   3.979
 8224SOL    HW225572   1.291   2.910   4.080
 8225SOL     OW25573   4.944   1.531   6.907
 8225SOL    HW125574   4.876   1.597   6.877
 8225SOL    HW225575   5.020   1.578   6.952
 8226SOL     OW25576   5.008   0.907   1.037
 8226SOL    HW125577   5.032   0.811   1.021
 8226SOL    HW225578   4.920   0.911   1.085
 8227SOL     OW25579   6.345   2.958   3.340
 8227SOL    HW125580   6.373   2.979   3.247
 8227SOL    HW225581   6.246   2.971   3.350
 8228SOL     OW25582   6.546   2.614   5.457
 8228SOL    HW125583   6.641   2.644   5.469
 8228SOL    HW225584   6.487   2.665   5.519
 8229SOL     OW25585   3.567   5.176   6.950
 8229SOL    HW125586   3.533   5.088   6.984
 8229SOL    HW225587   3.574   5.240   0.009
 8230SOL     OW25588   5.728   0.484   4.489
 8230SOL    HW125589   5.638   0.500   4.448
 8230SOL    HW225590   5.726   0.397   4.538
 8231SOL     OW25591   5.179   5.974   0.513
 8231SOL    HW125592   5.168   5.971   0.612
 8231SOL    HW225593   5.248   5.908   0.485
 8232SOL     OW25594   3.681   1.661   6.785
 8232SOL    HW125595   3.736   1.741   6.762
 8232SOL    HW225596   3.614   1.686   6.855
 8233SOL     OW25597   0.692   5.225   6.200
 8233SOL    HW125598   0.609   5.193   6.154
 8233SOL    HW225599   0.772   5.198   6.147
 8234SOL     OW25600   3.287   2.837   6.851
 8234SOL    HW125601   3.216   2.809   6.916
 8234SOL    HW225602   3.245   2.872   6.767
 8235SOL     OW25603   4.448   3.582   1.341
 8235SOL    HW125604   4.470   3.554   1.435
 8235SOL    HW225605   4.350   3.594   1.332
 8236SOL     OW25606   6.326   2.917   0.082
 8236SOL    HW125607   6.341   2.880   7.007
 8236SOL    HW225608   6.296   3.011   0.075
 8237SOL     OW25609   3.929   6.188   5.473
 8237SOL    HW125610   3.885   6.258   5.529
 8237SOL    HW225611   3.993   6.232   5.410
 8238SOL     OW25612   1.787   2.803   6.354
 8238SOL    HW125613   1.735   2.718   6.366
 8238SOL    HW225614   1.792   2.851   6.442
 8239SOL     OW25615   6.975   1.291   5.808
 8239SOL    HW125616   6.936   1.378   5.777
 8239SOL    HW225617   7.000   1.236   5.729
 8240SOL     OW25618   3.579   4.146   2.985
 8240SOL    HW125619   3.508   4.113   2.923
 8240SOL    HW225620   3.667   4.108   2.959
 8241SOL     OW25621   3.585   6.796   0.106
 8241SOL    HW125622   3.497   6.749   0.103
 8241SOL    HW225623   3.587   6.867   0.035
 8242SOL     OW25624   1.179   4.551   5.300
 8242SOL    HW125625   1.207   4.521   5.209
 8242SOL    HW225626   1.095   4.504   5.327
 8243SOL     OW25627   0.773   3.247   5.599
 8243SOL    HW125628   0.788   3.249   5.698
 8243SOL    HW225629   0.754   3.154   5.570
 8244SOL     OW25630   0.693   6.463   3.984
 8244SOL    HW125631   0.732   6.498   4.069
 8244SOL    HW225632   0.616   6.402   4.006
 8245SOL     OW25633   4.154   2.175   1.160
 8245SOL    HW125634   4.076   2.150   1.218
 8245SOL    HW225635   4.229   2.207   1.218
 8246SOL     OW25636   5.270   3.329   6.084
 8246SOL    HW125637   5.187   3.334   6.029
 8246SOL    HW225638   5.268   3.245   6.139
 8247SOL     OW25639   0.841   0.285   1.614
 8247SOL    HW125640   0.763   0.222   1.608
 8247SOL    HW225641   0.920   0.244   1.569
 8248SOL     OW25642   5.323   4.268   3.647
 8248SOL    HW125643   5.346   4.252   3.743
 8248SOL    HW225644   5.223   4.268   3.637
 8249SOL     OW25645   1.515   4.699   3.925
 8249SOL    HW125646   1.548   4.790   3.898
 8249SOL    HW225647   1.583   4.656   3.984
 8250SOL     OW25648   4.040   3.519   2.754
 8250SOL    HW125649   4.074   3.610   2.730
 8250SOL    HW225650   3.949   3.526   2.794
 8251SOL     OW25651   5.705   1.551   4.946
 8251SOL    HW125652   5.731   1.501   5.029
 8251SOL    HW225653   5.779   1.545   4.880
 8252SOL     OW25654   2.035   2.633   5.640
 8252SOL    HW125655   1.988   2.601   5.722
 8252SOL    HW225656   2.025   2.732   5.633
 8253SOL     OW25657   3.282   2.767   5.419
 8253SOL    HW125658   3.211   2.702   5.393
 8253SOL    HW225659   3.255   2.859   5.390
 8254SOL     OW25660   4.092   4.800   3.808
 8254SOL    HW125661   4.161   4.747   3.857
 8254SOL    HW225662   4.025   4.836   3.874
 8255SOL     OW25663   4.292   6.133   4.230
 8255SOL    HW125664   4.267   6.059   4.166
 8255SOL    HW225665   4.391   6.147   4.227
 8256SOL     OW25666   6.658   1.652   4.600
 8256SOL    HW125667   6.725   1.721   4.626
 8256SOL    HW225668   6.704   1.575   4.556
 8257SOL     OW25669   5.600   4.949   3.378
 8257SOL    HW125670   5.536   5.005   3.325
 8257SOL    HW225671   5.591   4.853   3.351
 8258SOL     OW25672   4.013   1.525   0.218
 8258SOL    HW125673   3.999   1.469   0.300
 8258SOL    HW225674   3.963   1.611   0.227
 8259SOL     OW25675   3.454   2.123   3.566
 8259SOL    HW125676   3.442   2.031   3.605
 8259SOL    HW225677   3.549   2.134   3.536
 8260SOL     OW25678   2.773   6.539   0.385
 8260SOL    HW125679   2.731   6.480   0.454
 8260SOL    HW225680   2.770   6.634   0.416
 8261SOL     OW25681   5.425   1.304   1.582
 8261SOL    HW125682   5.393   1.210   1.589
 8261SOL    HW225683   5.515   1.306   1.540
 8262SOL     OW25684   0.913   3.171   1.820
 8262SOL    HW125685   0.972   3.225   1.880
 8262SOL    HW225686   0.947   3.176   1.726
 8263SOL     OW25687   6.477   1.553   1.133
 8263SOL    HW125688   6.512   1.643   1.158
 8263SOL    HW225689   6.524   1.483   1.188
 8264SOL     OW25690   1.775   5.352   2.721
 8264SOL    HW125691   1.851   5.392   2.772
 8264SOL    HW225692   1.810   5.307   2.639
 8265SOL     OW25693   1.598   0.406   1.984
 8265SOL    HW125694   1.588   0.497   2.023
 8265SOL    HW225695   1.585   0.410   1.885
 8266SOL     OW25696   3.168   6.654   2.328
 8266SOL    HW125697   3.104   6.619   2.259
 8266SOL    HW225698   3.201   6.744   2.300
 8267SOL     OW25699   1.547   3.344   1.320
 8267SOL    HW125700   1.630   3.357   1.266
 8267SOL    HW225701   1.469   3.384   1.272
 8268SOL     OW25702   2.314   6.563   5.917
 8268SOL    HW125703   2.264   6.561   6.004
 8268SOL    HW225704   2.331   6.657   5.890
 8269SOL     OW25705   5.628   1.408   1.204
 8269SOL    HW125706   5.662   1.470   1.274
 8269SOL    HW225707   5.668   1.317   1.218
 8270SOL     OW25708   3.538   5.973   4.046
 8270SOL    HW125709   3.574   6.055   4.091
 8270SOL    HW225710   3.605   5.899   4.055
 8271SOL     OW25711   0.128   1.563   3.112
 8271SOL    HW125712   0.104   1.635   3.177
 8271SOL    HW225713   0.193   1.500   3.156
 8272SOL     OW25714   4.002   1.113   2.605
 8272SOL    HW125715   3.985   1.042   2.536
 8272SOL    HW225716   4.042   1.193   2.561
 8273SOL     OW25717   2.862   6.881   0.886
 8273SOL    HW125718   2.954   6.912   0.909
 8273SOL    HW225719   2.829   6.819   0.958
 8274SOL     OW25720   4.844   5.243   2.809
 8274SOL    HW125721   4.757   5.210   2.771
 8274SOL    HW225722   4.905   5.165   2.824
 8275SOL     OW25723   4.967   2.096   6.119
 8275SOL    HW125724   5.020   2.021   6.159
 8275SOL    HW225725   5.010   2.126   6.034
 8276SOL     OW25726   0.766   2.140   4.167
 8276SOL    HW125727   0.704   2.076   4.121
 8276SOL    HW225728   0.720   2.228   4.179
 8277SOL     OW25729   6.931   6.944   6.730
 8277SOL    HW125730   6.968   6.953   6.822
 8277SOL    HW225731   6.990   6.994   6.666
 8278SOL     OW25732   2.237   2.070   0.555
 8278SOL    HW125733   2.289   2.054   0.472
 8278SOL    HW225734   2.299   2.089   0.631
 8279SOL     OW25735   0.661   6.301   4.363
 8279SOL    HW125736   0.741   6.317   4.305
 8279SOL    HW225737   0.590   6.368   4.340
 8280SOL     OW25738   3.533   2.616   5.920
 8280SOL    HW125739   3.484   2.670   5.852
 8280SOL    HW225740   3.603   2.674   5.964
 8281SOL     OW25741   0.223   6.122   1.579
 8281SOL    HW125742   0.210   6.092   1.484
 8281SOL    HW225743   0.259   6.047   1.634
 8282SOL     OW25744   5.358   2.792   6.220
 8282SOL    HW125745   5.424   2.866   6.228
 8282SOL    HW225746   5.407   2.707   6.199
 8283SOL     OW25747   1.677   3.836   6.070
 8283SOL    HW125748   1.762   3.824   6.019
 8283SOL    HW225749   1.688   3.910   6.137
 8284SOL     OW25750   6.596   4.260   2.431
 8284SOL    HW125751   6.579   4.246   2.528
 8284SOL    HW225752   6.592   4.358   2.410
 8285SOL     OW25753   3.961   3.224   5.081
 8285SOL    HW125754   3.989   3.310   5.125
 8285SOL    HW225755   3.971   3.149   5.146
 8286SOL     OW25756   6.436   2.256   6.158
 8286SOL    HW125757   6.527   2.217   6.149
 8286SOL    HW225758   6.421   2.323   6.084
 8287SOL     OW25759   0.908   5.684   4.715
 8287SOL    HW125760   0.978   5.704   4.646
 8287SOL    HW225761   0.828   5.643   4.671
 8288SOL     OW25762   2.250   2.994   2.881
 8288SOL    HW125763   2.320   3.047   2.928
 8288SOL    HW225764   2.292   2.916   2.835
 8289SOL     OW25765   0.909   0.254   0.501
 8289SOL    HW125766   0.948   0.289   0.586
 8289SOL    HW225767   0.959   0.291   0.424
 8290SOL     OW25768   6.149   1.790   0.638
 8290SOL    HW125769   6.060   1.823   0.606
 8290SOL    HW225770   6.163   1.819   0.733
 8291SOL     OW25771   3.928   6.701   6.100
 8291SOL    HW125772   3.996   6.676   6.031
 8291SOL    HW225773   3.847   6.739   6.055
 8292SOL     OW25774   3.422   6.465   6.606
 8292SOL    HW125775   3.411   6.367   6.622
 8292SOL    HW225776   3.512   6.482   6.567
 8293SOL     OW25777   4.361   6.392   5.898
 8293SOL    HW125778   4.374   6.367   5.802
 8293SOL    HW225779   4.445   6.371   5.949
 8294SOL     OW25780   5.978   2.607   6.596
 8294SOL    HW125781   6.067   2.615   6.641
 8294SOL    HW225782   5.992   2.602   6.497
 8295SOL     OW25783   5.310   4.399   1.468
 8295SOL    HW125784   5.404   4.386   1.436
 8295SOL    HW225785   5.291   4.334   1.542
 8296SOL     OW25786   1.565   5.805   6.921
 8296SOL    HW125787   1.509   5.789   6.840
 8296SOL    HW225788   1.511   5.854   6.990
 8297SOL     OW25789   6.232   2.507   3.532
 8297SOL    HW125790   6.234   2.450   3.450
 8297SOL    HW225791   6.141   2.501   3.574
 8298SOL     OW25792   4.818   1.104   1.729
 8298SOL    HW125793   4.768   1.045   1.791
 8298SOL    HW225794   4.812   1.199   1.760
 8299SOL     OW25795   6.463   3.054   1.745
 8299SOL    HW125796   6.493   3.056   1.650
 8299SOL    HW225797   6.390   2.986   1.756
 8300SOL     OW25798   0.574   4.655   4.679
 8300SOL    HW125799   0.653   4.708   4.710
 8300SOL    HW225800   0.605   4.568   4.641
 8301SOL     OW25801   4.423   2.926   1.534
 8301SOL    HW125802   4.333   2.884   1.531
 8301SOL    HW225803   4.485   2.869   1.589
 8302SOL     OW25804   6.189   6.078   6.681
 8302SOL    HW125805   6.238   6.155   6.640
 8302SOL    HW225806   6.252   6.024   6.737
 8303SOL     OW25807   0.297   0.257   4.787
 8303SOL    HW125808   0.382   0.269   4.838
 8303SOL    HW225809   0.301   0.310   4.702
 8304SOL     OW25810   0.649   3.995   6.364
 8304SOL    HW125811   0.665   3.935   6.442
 8304SOL    HW225812   0.575   3.958   6.308
 8305SOL     OW25813   3.680   5.493   4.094
 8305SOL    HW125814   3.680   5.453   4.002
 8305SOL    HW225815   3.618   5.441   4.153
 8306SOL     OW25816   0.832   3.255   4.890
 8306SOL    HW125817   0.842   3.292   4.983
 8306SOL    HW225818   0.741   3.214   4.880
 8307SOL     OW25819   3.736   5.474   0.333
 8307SOL    HW125820   3.815   5.438   0.283
 8307SOL    HW225821   3.734   5.574   0.325
 8308SOL     OW25822   3.741   6.803   1.905
 8308SOL    HW125823   3.712   6.722   1.955
 8308SOL    HW225824   3.671   6.874   1.912
 8309SOL     OW25825   5.721   6.038   2.318
 8309SOL    HW125826   5.701   5.977   2.395
 8309SOL    HW225827   5.783   5.992   2.254
 8310SOL     OW25828   0.492   5.130   0.455
 8310SOL    HW125829   0.582   5.134   0.498
 8310SOL    HW225830   0.503   5.139   0.356
 8311SOL     OW25831   6.902   0.812   6.877
 8311SOL    HW125832   6.830   0.839   6.812
 8311SOL    HW225833   6.883   0.852   6.966
 8312SOL     OW25834   5.459   6.613   1.670
 8312SOL    HW125835   5.493   6.567   1.753
 8312SOL    HW225836   5.382   6.562   1.633
 8313SOL     OW25837   3.805   1.439   2.993
 8313SOL    HW125838   3.854   1.371   2.939
 8313SOL    HW225839   3.784   1.519   2.936
 8314SOL     OW25840   5.957   0.116   1.876
 8314SOL    HW125841   5.926   0.147   1.786
 8314SOL    HW225842   5.878   0.092   1.932
 8315SOL     OW25843   4.692   3.472   0.764
 8315SOL    HW125844   4.594   3.466   0.745
 8315SOL    HW225845   4.727   3.383   0.793
 8316SOL     OW25846   1.310   4.438   0.853
 8316SOL    HW125847   1.388   4.406   0.799
 8316SOL    HW225848   1.314   4.537   0.863
 8317SOL     OW25849   1.874   4.450   2.402
 8317SOL    HW125850   1.967   4.425   2.372
 8317SOL    HW225851   1.826   4.369   2.432
 8318SOL     OW25852   3.989   1.257   4.841
 8318SOL    HW125853   4.050   1.336   4.844
 8318SOL    HW225854   3.954   1.247   4.748
 8319SOL     OW25855   3.406   0.949   5.523
 8319SOL    HW125856   3.408   0.901   5.611
 8319SOL    HW225857   3.460   0.899   5.456
 8320SOL     OW25858   2.784   4.819   1.214
 8320SOL    HW125859   2.836   4.800   1.297
 8320SOL    HW225860   2.812   4.907   1.177
 8321SOL     OW25861   0.695   0.688   0.329
 8321SOL    HW125862   0.643   0.753   0.274
 8321SOL    HW225863   0.687   0.597   0.288
 8322SOL     OW25864   0.332   0.426   0.143
 8322SOL    HW125865   0.252   0.372   0.170
 8322SOL    HW225866   0.368   0.391   0.056
 8323SOL     OW25867   0.802   0.895   2.871
 8323SOL    HW125868   0.747   0.827   2.920
 8323SOL    HW225869   0.899   0.882   2.894
 8324SOL     OW25870   6.076   0.706   2.280
 8324SOL    HW125871   5.992   0.686   2.228
 8324SOL    HW225872   6.057   0.697   2.378
 8325SOL     OW25873   3.449   2.879   4.089
 8325SOL    HW125874   3.354   2.868   4.117
 8325SOL    HW225875   3.489   2.958   4.137
 8326SOL     OW25876   4.204   3.063   5.896
 8326SOL    HW125877   4.194   3.160   5.915
 8326SOL    HW225878   4.301   3.038   5.899
 8327SOL     OW25879   5.797   2.436   6.186
 8327SOL    HW125880   5.892   2.464   6.174
 8327SOL    HW225881   5.774   2.439   6.283
 8328SOL     OW25882   2.216   2.879   6.141
 8328SOL    HW125883   2.311   2.894   6.115
 8328SOL    HW225884   2.189   2.946   6.211
 8329SOL     OW25885   6.776   2.855   5.224
 8329SOL    HW125886   6.763   2.846   5.322
 8329SOL    HW225887   6.768   2.765   5.181
 8330SOL     OW25888   1.640   6.381   0.703
 8330SOL    HW125889   1.684   6.425   0.625
 8330SOL    HW225890   1.702   6.383   0.781
 8331SOL     OW25891   2.955   0.629   1.492
 8331SOL    HW125892   2.922   0.551   1.439
 8331SOL    HW225893   3.009   0.595   1.569
 8332SOL     OW25894   4.519   5.223   1.988
 8332SOL    HW125895   4.433   5.247   2.032
 8332SOL    HW225896   4.520   5.126   1.966
 8333SOL     OW25897   0.727   5.878   0.464
 8333SOL    HW125898   0.803   5.933   0.430
 8333SOL    HW225899   0.703   5.808   0.397
 8334SOL     OW25900   6.648   2.188   3.839
 8334SOL    HW125901   6.681   2.095   3.824
 8334SOL    HW225902   6.591   2.216   3.761
 8335SOL     OW25903   6.159   5.814   5.566
 8335SOL    HW125904   6.158   5.754   5.646
 8335SOL    HW225905   6.163   5.909   5.596
 8336SOL     OW25906   0.561   1.682   1.891
 8336SOL    HW125907   0.657   1.684   1.862
 8336SOL    HW225908   0.517   1.769   1.866
 8337SOL     OW25909   0.783   6.247   2.394
 8337SOL    HW125910   0.830   6.214   2.476
 8337SOL    HW225911   0.738   6.335   2.414
 8338SOL     OW25912   2.078   4.919   1.269
 8338SOL    HW125913   2.128   4.987   1.323
 8338SOL    HW225914   2.081   4.945   1.172
 8339SOL     OW25915   5.753   1.316   2.754
 8339SOL    HW125916   5.829   1.267   2.797
 8339SOL    HW225917   5.789   1.384   2.691
 8340SOL     OW25918   4.973   4.135   0.593
 8340SOL    HW125919   5.043   4.064   0.602
 8340SOL    HW225920   4.955   4.175   0.683
 8341SOL     OW25921   1.932   6.606   1.145
 8341SOL    HW125922   1.898   6.518   1.178
 8341SOL    HW225923   1.997   6.590   1.071
 8342SOL     OW25924   3.588   0.722   0.628
 8342SOL    HW125925   3.638   0.806   0.650
 8342SOL    HW225926   3.634   0.644   0.671
 8343SOL     OW25927   1.178   5.556   6.504
 8343SOL    HW125928   1.182   5.655   6.487
 8343SOL    HW225929   1.207   5.507   6.422
 8344SOL     OW25930   4.162   6.280   6.108
 8344SOL    HW125931   4.223   6.302   6.031
 8344SOL    HW225932   4.144   6.362   6.160
 8345SOL     OW25933   5.892   1.450   3.234
 8345SOL    HW125934   5.909   1.355   3.258
 8345SOL    HW225935   5.953   1.477   3.160
 8346SOL     OW25936   2.752   5.055   0.995
 8346SOL    HW125937   2.708   4.967   0.979
 8346SOL    HW225938   2.698   5.109   1.060
 8347SOL     OW25939   3.032   6.713   5.443
 8347SOL    HW125940   3.090   6.672   5.373
 8347SOL    HW225941   2.946   6.742   5.403
 8348SOL     OW25942   1.323   0.763   1.369
 8348SOL    HW125943   1.267   0.718   1.299
 8348SOL    HW225944   1.420   0.755   1.345
 8349SOL     OW25945   6.181   3.649   0.600
 8349SOL    HW125946   6.215   3.630   0.692
 8349SOL    HW225947   6.193   3.746   0.579
 8350SOL     OW25948   6.128   0.921   5.446
 8350SOL    HW125949   6.105   0.967   5.360
 8350SOL    HW225950   6.215   0.957   5.480
 8351SOL     OW25951   3.112   6.039   4.073
 8351SOL    HW125952   3.145   6.074   3.986
 8351SOL    HW225953   3.184   5.986   4.117
 8352SOL     OW25954   6.657   6.853   2.342
 8352SOL    HW125955   6.599   6.791   2.396
 8352SOL    HW225956   6.627   6.947   2.357
 8353SOL     OW25957   6.295   3.612   1.784
 8353SOL    HW125958   6.232   3.665   1.840
 8353SOL    HW225959   6.382   3.661   1.776
 8354SOL     OW25960   3.076   1.383   6.885
 8354SOL    HW125961   3.007   1.449   6.853
 8354SOL    HW225962   3.031   1.299   6.913
 8355SOL     OW25963   3.222   6.991   0.024
 8355SOL    HW125964   3.248   7.013   0.118
 8355SOL    HW225965   3.215   0.058   6.988
 8356SOL     OW25966   1.670   5.992   0.237
 8356SOL    HW125967   1.711   5.906   0.266
 8356SOL    HW225968   1.719   6.069   0.280
 8357SOL     OW25969   4.099   5.832   4.744
 8357SOL    HW125970   4.115   5.734   4.733
 8357SOL    HW225971   4.148   5.865   4.825
 8358SOL     OW25972   2.007   2.903   5.622
 8358SOL    HW125973   2.074   2.914   5.695
 8358SOL    HW225974   1.945   2.981   5.621
 8359SOL     OW25975   4.340   5.278   4.210
 8359SOL    HW125976   4.358   5.363   4.161
 8359SOL    HW225977   4.253   5.240   4.179
 8360SOL     OW25978   4.681   6.796   2.777
 8360SOL    HW125979   4.735   6.744   2.710
 8360SOL    HW225980   4.585   6.796   2.749
 8361SOL     OW25981   1.530   0.999   2.784
 8361SOL    HW125982   1.626   0.992   2.812
 8361SOL    HW225983   1.511   1.092   2.752
 8362SOL     OW25984   2.184   2.412   0.052
 8362SOL    HW125985   2.238   2.349   0.107
 8362SOL    HW225986   2.221   2.416   6.976
 8363SOL     OW25987   0.590   3.010   0.332
 8363SOL    HW125988   0.594   2.972   0.240
 8363SOL    HW225989   0.501   3.053   0.346
 8364SOL     OW25990   6.178   3.661   3.212
 8364SOL    HW125991   6.258   3.659   3.272
 8364SOL    HW225992   6.208   3.654   3.117
 8365SOL     OW25993   1.491   3.399   0.197
 8365SOL    HW125994   1.469   3.360   0.287
 8365SOL    HW225995   1.467   3.496   0.197
 8366SOL     OW25996   4.601   6.194   2.430
 8366SOL    HW125997   4.595   6.179   2.332
 8366SOL    HW225998   4.683   6.248   2.451
 8367SOL     OW25999   4.917   6.336   3.567
 8367SOL    HW126000   4.853   6.265   3.538
 8367SOL    HW226001   4.999   6.293   3.606
 8368SOL     OW26002   2.513   5.445   5.987
 8368SOL    HW126003   2.431   5.465   5.933
 8368SOL    HW226004   2.500   5.359   6.037
 8369SOL     OW26005   2.329   1.436   0.126
 8369SOL    HW126006   2.248   1.454   0.069
 8369SOL    HW226007   2.307   1.456   0.221
 8370SOL     OW26008   1.381   1.961   6.259
 8370SOL    HW126009   1.470   1.922   6.283
 8370SOL    HW226010   1.339   1.906   6.187
 8371SOL     OW26011   1.290   2.863   0.498
 8371SOL    HW126012   1.205   2.880   0.448
 8371SOL    HW226013   1.269   2.841   0.593
 8372SOL     OW26014   0.023   0.552   2.445
 8372SOL    HW126015   6.974   0.506   2.505
 8372SOL    HW226016   0.052   0.637   2.487
 8373SOL     OW26017   1.041   6.061   5.647
 8373SOL    HW126018   1.128   6.108   5.627
 8373SOL    HW226019   1.050   5.964   5.625
 8374SOL     OW26020   6.561   0.513   0.067
 8374SOL    HW126021   6.658   0.497   0.052
 8374SOL    HW226022   6.546   0.545   0.160
 8375SOL     OW26023   3.406   0.058   6.142
 8375SOL    HW126024   3.394   0.137   6.203
 8375SOL    HW226025   3.333   7.009   6.158
 8376SOL     OW26026   2.762   0.412   3.907
 8376SOL    HW126027   2.785   0.508   3.888
 8376SOL    HW226028   2.784   0.390   4.002
 8377SOL     OW26029   6.248   5.119   1.827
 8377SOL    HW126030   6.234   5.024   1.797
 8377SOL    HW226031   6.163   5.153   1.866
 8378SOL     OW26032   5.618   3.165   3.090
 8378SOL    HW126033   5.690   3.205   3.033
 8378SOL    HW226034   5.586   3.233   3.156
 8379SOL     OW26035   6.354   3.232   1.422
 8379SOL    HW126036   6.294   3.301   1.382
 8379SOL    HW226037   6.301   3.149   1.440
 8380SOL     OW26038   5.181   1.572   2.549
 8380SOL    HW126039   5.265   1.626   2.558
 8380SOL    HW226040   5.144   1.554   2.640
 8381SOL     OW26041   1.240   5.467   4.613
 8381SOL    HW126042   1.185   5.465   4.529
 8381SOL    HW226043   1.182   5.491   4.690
 8382SOL     OW26044   1.150   2.575   2.628
 8382SOL    HW126045   1.056   2.559   2.659
 8382SOL    HW226046   1.155   2.663   2.583
 8383SOL     OW26047   2.845   2.102   6.903
 8383SOL    HW126048   2.932   2.142   6.874
 8383SOL    HW226049   2.770   2.155   6.865
 8384SOL     OW26050   6.900   6.691   1.974
 8384SOL    HW126051   6.931   6.610   1.924
 8384SOL    HW226052   6.958   6.769   1.951
 8385SOL     OW26053   4.876   2.588   2.588
 8385SOL    HW126054   4.883   2.542   2.500
 8385SOL    HW226055   4.831   2.527   2.654
 8386SOL     OW26056   0.477   4.042   2.769
 8386SOL    HW126057   0.534   4.099   2.710
 8386SOL    HW226058   0.381   4.067   2.757
 8387SOL     OW26059   0.697   2.010   1.404
 8387SOL    HW126060   0.732   1.995   1.496
 8387SOL    HW226061   0.691   1.923   1.356
 8388SOL     OW26062   2.844   0.264   2.062
 8388SOL    HW126063   2.853   0.178   2.013
 8388SOL    HW226064   2.759   0.309   2.036
 8389SOL     OW26065   5.239   3.162   2.076
 8389SOL    HW126066   5.322   3.112   2.102
 8389SOL    HW226067   5.230   3.245   2.131
 8390SOL     OW26068   4.687   2.005   5.711
 8390SOL    HW126069   4.641   2.047   5.789
 8390SOL    HW226070   4.624   1.942   5.666
 8391SOL     OW26071   6.342   1.130   1.268
 8391SOL    HW126072   6.247   1.131   1.236
 8391SOL    HW226073   6.404   1.133   1.190
 8392SOL     OW26074   5.790   3.299   4.377
 8392SOL    HW126075   5.778   3.265   4.471
 8392SOL    HW226076   5.776   3.225   4.312
 8393SOL     OW26077   4.899   0.103   1.524
 8393SOL    HW126078   4.813   0.094   1.473
 8393SOL    HW226079   4.976   0.093   1.461
 8394SOL     OW26080   6.326   4.144   2.401
 8394SOL    HW126081   6.296   4.212   2.335
 8394SOL    HW226082   6.426   4.139   2.402
 8395SOL     OW26083   2.514   1.036   5.190
 8395SOL    HW126084   2.489   1.121   5.235
 8395SOL    HW226085   2.440   0.969   5.201
 8396SOL     OW26086   4.134   5.414   4.942
 8396SOL    HW126087   4.079   5.494   4.963
 8396SOL    HW226088   4.217   5.414   4.999
 8397SOL     OW26089   6.407   0.993   3.436
 8397SOL    HW126090   6.488   1.015   3.492
 8397SOL    HW226091   6.408   1.049   3.353
 8398SOL     OW26092   5.658   2.384   5.812
 8398SOL    HW126093   5.700   2.348   5.896
 8398SOL    HW226094   5.594   2.457   5.835
 8399SOL     OW26095   0.212   5.913   0.669
 8399SOL    HW126096   0.173   5.985   0.612
 8399SOL    HW226097   0.298   5.881   0.629
 8400SOL     OW26098   1.159   2.281   3.985
 8400SOL    HW126099   1.132   2.224   4.063
 8400SOL    HW226100   1.232   2.343   4.012
 8401SOL     OW26101   2.957   0.427   5.959
 8401SOL    HW126102   3.003   0.455   6.042
 8401SOL    HW226103   2.879   0.488   5.942
 8402SOL     OW26104   4.061   1.070   5.880
 8402SOL    HW126105   3.977   1.120   5.860
 8402SOL    HW226106   4.095   1.097   5.971
 8403SOL     OW26107   5.794   4.853   4.605
 8403SOL    HW126108   5.866   4.901   4.555
 8403SOL    HW226109   5.714   4.844   4.547
 8404SOL     OW26110   1.924   1.762   6.436
 8404SOL    HW126111   1.971   1.816   6.366
 8404SOL    HW226112   1.832   1.798   6.450
 8405SOL     OW26113   3.924   1.286   5.393
 8405SOL    HW126114   4.009   1.266   5.344
 8405SOL    HW226115   3.859   1.329   5.330
 8406SOL     OW26116   5.124   1.036   6.632
 8406SOL    HW126117   5.143   0.977   6.553
 8406SOL    HW226118   5.200   1.031   6.697
 8407SOL     OW26119   3.542   6.524   4.052
 8407SOL    HW126120   3.601   6.504   4.131
 8407SOL    HW226121   3.592   6.579   3.986
 8408SOL     OW26122   4.879   0.654   1.189
 8408SOL    HW126123   4.909   0.562   1.216
 8408SOL    HW226124   4.837   0.649   1.098
 8409SOL     OW26125   4.754   2.848   2.510
 8409SOL    HW126126   4.772   2.907   2.589
 8409SOL    HW226127   4.781   2.755   2.531
 8410SOL     OW26128   6.813   1.977   1.756
 8410SOL    HW126129   6.893   1.989   1.815
 8410SOL    HW226130   6.783   1.882   1.759
 8411SOL     OW26131   1.257   5.845   0.796
 8411SOL    HW126132   1.258   5.933   0.843
 8411SOL    HW226133   1.351   5.818   0.775
 8412SOL     OW26134   3.114   2.768   0.080
 8412SOL    HW126135   3.146   2.858   0.106
 8412SOL    HW226136   3.017   2.759   0.101
 8413SOL     OW26137   4.081   5.296   5.478
 8413SOL    HW126138   4.162   5.244   5.506
 8413SOL    HW226139   4.035   5.333   5.559
 8414SOL     OW26140   1.125   1.249   2.773
 8414SOL    HW126141   1.041   1.273   2.723
 8414SOL    HW226142   1.104   1.177   2.839
 8415SOL     OW26143   2.581   0.429   5.035
 8415SOL    HW126144   2.643   0.427   4.957
 8415SOL    HW226145   2.496   0.381   5.012
 8416SOL     OW26146   6.512   1.804   5.097
 8416SOL    HW126147   6.459   1.722   5.117
 8416SOL    HW226148   6.587   1.811   5.163
 8417SOL     OW26149   1.394   3.604   4.654
 8417SOL    HW126150   1.388   3.591   4.555
 8417SOL    HW226151   1.453   3.683   4.673
 8418SOL     OW26152   1.023   5.875   2.634
 8418SOL    HW126153   1.054   5.817   2.559
 8418SOL    HW226154   1.096   5.884   2.702
 8419SOL     OW26155   5.415   0.820   4.168
 8419SOL    HW126156   5.462   0.842   4.082
 8419SOL    HW226157   5.341   0.885   4.183
 8420SOL     OW26158   3.163   0.146   2.381
 8420SOL    HW126159   3.120   0.235   2.369
 8420SOL    HW226160   3.231   0.131   2.310
 8421SOL     OW26161   4.023   5.784   6.062
 8421SOL    HW126162   3.925   5.770   6.072
 8421SOL    HW226163   4.040   5.866   6.008
 8422SOL     OW26164   4.648   2.684   3.436
 8422SOL    HW126165   4.619   2.605   3.381
 8422SOL    HW226166   4.640   2.661   3.533
 8423SOL     OW26167   5.661   4.789   6.072
 8423SOL    HW126168   5.738   4.738   6.111
 8423SOL    HW226169   5.630   4.743   5.989
 8424SOL     OW26170   2.156   0.260   3.711
 8424SOL    HW126171   2.208   0.333   3.756
 8424SOL    HW226172   2.104   0.299   3.635
 8425SOL     OW26173   3.389   3.430   3.262
 8425SOL    HW126174   3.445   3.348   3.248
 8425SOL    HW226175   3.435   3.509   3.222
 8426SOL     OW26176   3.603   2.901   2.025
 8426SOL    HW126177   3.591   2.996   2.051
 8426SOL    HW226178   3.697   2.885   1.995
 8427SOL     OW26179   2.972   3.454   3.528
 8427SOL    HW126180   3.057   3.406   3.508
 8427SOL    HW226181   2.918   3.400   3.593
 8428SOL     OW26182   6.808   0.860   0.970
 8428SOL    HW126183   6.800   0.956   0.945
 8428SOL    HW226184   6.717   0.821   0.982
 8429SOL     OW26185   1.517   5.496   6.567
 8429SOL    HW126186   1.516   5.434   6.646
 8429SOL    HW226187   1.463   5.457   6.493
 8430SOL     OW26188   4.388   6.395   4.777
 8430SOL    HW126189   4.346   6.305   4.768
 8430SOL    HW226190   4.317   6.462   4.802
 8431SOL     OW26191   3.093   3.802   5.749
 8431SOL    HW126192   3.182   3.847   5.758
 8431SOL    HW226193   3.104   3.704   5.767
 8432SOL     OW26194   6.448   5.796   6.616
 8432SOL    HW126195   6.433   5.700   6.639
 8432SOL    HW226196   6.421   5.854   6.693
 8433SOL     OW26197   5.157   2.584   0.622
 8433SOL    HW126198   5.256   2.586   0.635
 8433SOL    HW226199   5.112   2.613   0.707
 8434SOL     OW26200   2.043   5.375   5.257
 8434SOL    HW126201   2.023   5.365   5.160
 8434SOL    HW226202   2.090   5.462   5.273
 8435SOL     OW26203   4.865   0.952   2.875
 8435SOL    HW126204   4.813   0.984   2.955
 8435SOL    HW226205   4.904   1.031   2.828
 8436SOL     OW26206   2.358   6.684   2.640
 8436SOL    HW126207   2.357   6.779   2.609
 8436SOL    HW226208   2.439   6.669   2.697
 8437SOL     OW26209   2.093   3.201   2.289
 8437SOL    HW126210   2.135   3.115   2.260
 8437SOL    HW226211   2.045   3.187   2.375
 8438SOL     OW26212   1.507   4.389   2.578
 8438SOL    HW126213   1.431   4.332   2.548
 8438SOL    HW226214   1.499   4.480   2.537
 8439SOL     OW26215   5.867   5.940   3.607
 8439SOL    HW126216   5.801   5.888   3.662
 8439SOL    HW226217   5.945   5.881   3.584
 8440SOL     OW26218   1.798   1.305   3.329
 8440SOL    HW126219   1.714   1.256   3.308
 8440SOL    HW226220   1.821   1.366   3.254
 8441SOL     OW26221   5.690   0.651   5.325
 8441SOL    HW126222   5.676   0.562   5.368
 8441SOL    HW226223   5.629   0.718   5.368
 8442SOL     OW26224   3.592   1.585   5.375
 8442SOL    HW126225   3.586   1.517   5.449
 8442SOL    HW226226   3.605   1.676   5.414
 8443SOL     OW26227   1.734   4.588   2.913
 8443SOL    HW126228   1.758   4.595   2.816
 8443SOL    HW226229   1.665   4.656   2.935
 8444SOL     OW26230   5.029   5.499   3.529
 8444SOL    HW126231   4.982   5.427   3.479
 8444SOL    HW226232   5.095   5.545   3.469
 8445SOL     OW26233   4.340   6.275   6.834
 8445SOL    HW126234   4.438   6.259   6.829
 8445SOL    HW226235   4.313   6.291   6.929
 8446SOL     OW26236   0.435   6.070   5.361
 8446SOL    HW126237   0.403   5.992   5.416
 8446SOL    HW226238   0.386   6.152   5.389
 8447SOL     OW26239   4.393   1.523   3.250
 8447SOL    HW126240   4.395   1.600   3.187
 8447SOL    HW226241   4.312   1.466   3.231
 8448SOL     OW26242   4.573   6.677   3.037
 8448SOL    HW126243   4.616   6.731   3.110
 8448SOL    HW226244   4.640   6.661   2.964
 8449SOL     OW26245   1.807   2.495   2.926
 8449SOL    HW126246   1.902   2.465   2.925
 8449SOL    HW226247   1.791   2.557   2.849
 8450SOL     OW26248   6.637   0.599   0.337
 8450SOL    HW126249   6.589   0.575   0.422
 8450SOL    HW226250   6.725   0.553   0.333
 8451SOL     OW26251   4.763   2.095   1.281
 8451SOL    HW126252   4.718   2.134   1.361
 8451SOL    HW226253   4.787   1.999   1.300
 8452SOL     OW26254   5.229   1.721   5.347
 8452SOL    HW126255   5.139   1.760   5.329
 8452SOL    HW226256   5.252   1.657   5.274
 8453SOL     OW26257   0.363   6.084   0.424
 8453SOL    HW126258   0.399   5.995   0.452
 8453SOL    HW226259   0.267   6.091   0.450
 8454SOL     OW26260   0.562   4.251   0.464
 8454SOL    HW126261   0.621   4.176   0.433
 8454SOL    HW226262   0.468   4.217   0.473
 8455SOL     OW26263   0.872   0.364   2.917
 8455SOL    HW126264   0.796   0.427   2.934
 8455SOL    HW226265   0.888   0.357   2.819
 8456SOL     OW26266   5.851   1.249   3.922
 8456SOL    HW126267   5.906   1.172   3.953
 8456SOL    HW226268   5.868   1.264   3.825
 8457SOL     OW26269   6.132   5.986   4.341
 8457SOL    HW126270   6.181   5.956   4.260
 8457SOL    HW226271   6.128   5.911   4.407
 8458SOL     OW26272   0.260   0.256   6.922
 8458SOL    HW126273   0.178   0.214   6.959
 8458SOL    HW226274   0.295   0.200   6.846
 8459SOL     OW26275   1.826   5.456   3.140
 8459SOL    HW126276   1.816   5.356   3.134
 8459SOL    HW226277   1.737   5.499   3.130
 8460SOL     OW26278   3.269   4.050   4.971
 8460SOL    HW126279   3.256   4.064   4.873
 8460SOL    HW226280   3.191   4.089   5.020
 8461SOL     OW26281   6.052   3.803   3.898
 8461SOL    HW126282   5.994   3.870   3.853
 8461SOL    HW226283   5.995   3.736   3.946
 8462SOL     OW26284   2.343   2.592   1.649
 8462SOL    HW126285   2.314   2.682   1.616
 8462SOL    HW226286   2.413   2.603   1.720
 8463SOL     OW26287   5.531   0.850   2.329
 8463SOL    HW126288   5.589   0.770   2.307
 8463SOL    HW226289   5.490   0.837   2.419
 8464SOL     OW26290   5.982   2.874   4.864
 8464SOL    HW126291   5.886   2.885   4.890
 8464SOL    HW226292   6.032   2.957   4.886
 8465SOL     OW26293   1.480   2.674   0.468
 8465SOL    HW126294   1.401   2.735   0.456
 8465SOL    HW226295   1.564   2.729   0.472
 8466SOL     OW26296   1.024   6.211   3.370
 8466SOL    HW126297   0.993   6.256   3.286
 8466SOL    HW226298   1.065   6.279   3.431
 8467SOL     OW26299   2.969   5.565   0.776
 8467SOL    HW126300   2.984   5.467   0.761
 8467SOL    HW226301   2.895   5.578   0.842
 8468SOL     OW26302   4.471   2.035   6.870
 8468SOL    HW126303   4.390   2.056   6.814
 8468SOL    HW226304   4.514   2.120   6.900
 8469SOL     OW26305   3.406   2.431   6.773
 8469SOL    HW126306   3.430   2.367   6.700
 8469SOL    HW226307   3.487   2.485   6.798
 8470SOL     OW26308   2.611   3.175   6.509
 8470SOL    HW126309   2.518   3.209   6.493
 8470SOL    HW226310   2.621   3.153   6.606
 8471SOL     OW26311   3.654   0.845   4.156
 8471SOL    HW126312   3.693   0.753   4.154
 8471SOL    HW226313   3.723   0.911   4.125
 8472SOL     OW26314   1.348   6.452   4.341
 8472SOL    HW126315   1.368   6.479   4.435
 8472SOL    HW226316   1.264   6.398   4.339
 8473SOL     OW26317   6.437   5.266   0.074
 8473SOL    HW126318   6.462   5.181   0.028
 8473SOL    HW226319   6.392   5.327   0.009
 8474SOL     OW26320   3.544   3.882   1.534
 8474SOL    HW126321   3.575   3.904   1.627
 8474SOL    HW226322   3.444   3.875   1.533
 8475SOL     OW26323   5.602   1.572   2.842
 8475SOL    HW126324   5.569   1.614   2.927
 8475SOL    HW226325   5.624   1.476   2.859
 8476SOL     OW26326   4.759   0.723   2.161
 8476SOL    HW126327   4.778   0.641   2.107
 8476SOL    HW226328   4.837   0.785   2.156
 8477SOL     OW26329   3.033   0.966   1.439
 8477SOL    HW126330   2.941   0.955   1.478
 8477SOL    HW226331   3.096   0.992   1.512
 8478SOL     OW26332   1.262   0.159   5.807
 8478SOL    HW126333   1.182   0.119   5.852
 8478SOL    HW226334   1.288   0.244   5.853
 8479SOL     OW26335   5.892   1.002   1.316
 8479SOL    HW126336   5.900   0.936   1.391
 8479SOL    HW226337   5.820   0.973   1.253
 8480SOL     OW26338   2.679   1.367   1.378
 8480SOL    HW126339   2.767   1.336   1.342
 8480SOL    HW226340   2.690   1.399   1.472
 8481SOL     OW26341   3.620   0.443   4.282
 8481SOL    HW126342   3.613   0.530   4.332
 8481SOL    HW226343   3.531   0.421   4.242
 8482SOL     OW26344   1.800   6.876   2.115
 8482SOL    HW126345   1.704   6.877   2.086
 8482SOL    HW226346   1.859   6.892   2.036
 8483SOL     OW26347   3.987   6.147   0.924
 8483SOL    HW126348   4.019   6.190   1.008
 8483SOL    HW226349   3.887   6.152   0.919
 8484SOL     OW26350   0.747   5.249   4.460
 8484SOL    HW126351   0.709   5.157   4.457
 8484SOL    HW226352   0.821   5.253   4.528
 8485SOL     OW26353   2.349   2.997   0.040
 8485SOL    HW126354   2.292   3.078   0.034
 8485SOL    HW226355   2.439   3.022   0.075
 8486SOL     OW26356   5.205   0.848   2.358
 8486SOL    HW126357   5.226   0.945   2.347
 8486SOL    HW226358   5.184   0.830   2.454
 8487SOL     OW26359   4.683   0.083   0.648
 8487SOL    HW126360   4.630   0.098   0.565
 8487SOL    HW226361   4.651   0.145   0.720
 8488SOL     OW26362   4.872   3.230   4.177
 8488SOL    HW126363   4.853   3.136   4.147
 8488SOL    HW226364   4.867   3.292   4.099
 8489SOL     OW26365   4.571   4.930   1.954
 8489SOL    HW126366   4.497   4.868   1.926
 8489SOL    HW226367   4.646   4.924   1.888
 8490SOL     OW26368   4.373   5.303   2.444
 8490SOL    HW126369   4.371   5.222   2.384
 8490SOL    HW226370   4.279   5.334   2.460
 8491SOL     OW26371   2.373   0.459   2.141
 8491SOL    HW126372   2.334   0.474   2.232
 8491SOL    HW226373   2.402   0.363   2.133
 8492SOL     OW26374   6.076   3.461   5.031
 8492SOL    HW126375   6.134   3.382   5.009
 8492SOL    HW226376   5.982   3.431   5.045
 8493SOL     OW26377   4.538   1.779   6.964
 8493SOL    HW126378   4.601   1.778   0.025
 8493SOL    HW226379   4.528   1.873   6.930
 8494SOL     OW26380   3.851   5.438   6.279
 8494SOL    HW126381   3.878   5.404   6.369
 8494SOL    HW226382   3.751   5.443   6.275
 8495SOL     OW26383   0.084   2.634   1.231
 8495SOL    HW126384   0.001   2.586   1.203
 8495SOL    HW226385   0.069   2.732   1.225
 8496SOL     OW26386   0.059   2.921   3.661
 8496SOL    HW126387   6.983   2.920   3.697
 8496SOL    HW226388   0.122   2.882   3.728
 8497SOL     OW26389   5.807   5.736   3.050
 8497SOL    HW126390   5.828   5.828   3.017
 8497SOL    HW226391   5.766   5.741   3.141
 8498SOL     OW26392   0.303   0.871   0.961
 8498SOL    HW126393   0.221   0.832   0.921
 8498SOL    HW226394   0.383   0.818   0.933
 8499SOL     OW26395   3.595   3.952   6.292
 8499SOL    HW126396   3.545   4.037   6.307
 8499SOL    HW226397   3.619   3.944   6.195
 8500SOL     OW26398   2.933   6.571   5.976
 8500SOL    HW126399   2.835   6.589   5.965
 8500SOL    HW226400   2.946   6.487   6.028
 8501SOL     OW26401   1.522   3.610   6.656
 8501SOL    HW126402   1.475   3.522   6.648
 8501SOL    HW226403   1.615   3.596   6.689
 8502SOL     OW26404   6.316   0.092   1.434
 8502SOL    HW126405   6.231   0.143   1.438
 8502SOL    HW226406   6.384   0.143   1.381
 8503SOL     OW26407   2.881   4.770   3.467
 8503SOL    HW126408   2.898   4.786   3.370
 8503SOL    HW226409   2.967   4.778   3.518
 8504SOL     OW26410   1.513   5.314   3.270
 8504SOL    HW126411   1.516   5.354   3.179
 8504SOL    HW226412   1.446   5.240   3.273
 8505SOL     OW26413   5.020   3.460   3.390
 8505SOL    HW126414   4.988   3.379   3.341
 8505SOL    HW226415   4.951   3.531   3.385
 8506SOL     OW26416   1.626   6.514   0.219
 8506SOL    HW126417   1.627   6.448   0.144
 8506SOL    HW226418   1.532   6.525   0.252
 8507SOL     OW26419   1.373   1.005   5.640
 8507SOL    HW126420   1.280   0.969   5.643
 8507SOL    HW226421   1.402   1.030   5.732
 8508SOL     OW26422   0.854   1.840   5.744
 8508SOL    HW126423   0.786   1.828   5.817
 8508SOL    HW226424   0.926   1.771   5.753
 8509SOL     OW26425   6.560   1.977   4.622
 8509SOL    HW126426   6.487   1.926   4.667
 8509SOL    HW226427   6.529   2.070   4.602
 8510SOL     OW26428   5.520   6.215   2.340
 8510SOL    HW126429   5.596   6.156   2.314
 8510SOL    HW226430   5.514   6.218   2.440
 8511SOL     OW26431   6.386   4.803   1.947
 8511SOL    HW126432   6.481   4.835   1.947
 8511SOL    HW226433   6.341   4.832   1.863
 8512SOL     OW26434   5.593   2.396   0.171
 8512SOL    HW126435   5.635   2.421   0.258
 8512SOL    HW226436   5.612   2.467   0.103
 8513SOL     OW26437   6.320   4.990   1.421
 8513SOL    HW126438   6.367   5.078   1.417
 8513SOL    HW226439   6.378   4.920   1.379
 8514SOL     OW26440   2.762   1.974   4.768
 8514SOL    HW126441   2.824   2.015   4.835
 8514SOL    HW226442   2.668   1.988   4.796
 8515SOL     OW26443   1.093   0.703   0.922
 8515SOL    HW126444   1.111   0.690   0.824
 8515SOL    HW226445   1.106   0.800   0.945
 8516SOL     OW26446   6.324   2.600   2.387
 8516SOL    HW126447   6.363   2.691   2.377
 8516SOL    HW226448   6.330   2.551   2.300
 8517SOL     OW26449   1.422   2.716   5.197
 8517SOL    HW126450   1.405   2.798   5.144
 8517SOL    HW226451   1.339   2.692   5.249
 8518SOL     OW26452   5.196   4.869   6.618
 8518SOL    HW126453   5.266   4.810   6.658
 8518SOL    HW226454   5.187   4.849   6.521
 8519SOL     OW26455   1.490   3.928   0.678
 8519SOL    HW126456   1.493   3.868   0.598
 8519SOL    HW226457   1.582   3.958   0.702
 8520SOL     OW26458   4.154   3.616   4.962
 8520SOL    HW126459   4.087   3.554   4.920
 8520SOL    HW226460   4.165   3.697   4.903
 8521SOL     OW26461   1.552   5.976   5.489
 8521SOL    HW126462   1.506   5.916   5.554
 8521SOL    HW226463   1.510   5.965   5.399
 8522SOL     OW26464   1.400   6.437   0.754
 8522SOL    HW126465   1.487   6.397   0.724
 8522SOL    HW226466   1.325   6.397   0.702
 8523SOL     OW26467   2.766   0.732   6.594
 8523SOL    HW126468   2.801   0.769   6.508
 8523SOL    HW226469   2.686   0.675   6.576
 8524SOL     OW26470   1.606   5.756   4.669
 8524SOL    HW126471   1.641   5.699   4.743
 8524SOL    HW226472   1.581   5.846   4.705
 8525SOL     OW26473   0.294   4.912   1.642
 8525SOL    HW126474   0.216   4.923   1.581
 8525SOL    HW226475   0.370   4.869   1.592
 8526SOL     OW26476   2.471   6.359   0.402
 8526SOL    HW126477   2.434   6.450   0.384
 8526SOL    HW226478   2.433   6.294   0.336
 8527SOL     OW26479   3.432   0.503   6.077
 8527SOL    HW126480   3.417   0.505   6.176
 8527SOL    HW226481   3.416   0.411   6.042
 8528SOL     OW26482   5.334   2.377   0.074
 8528SOL    HW126483   5.328   2.322   7.008
 8528SOL    HW226484   5.410   2.344   0.130
 8529SOL     OW26485   1.183   6.245   6.407
 8529SOL    HW126486   1.177   6.342   6.385
 8529SOL    HW226487   1.174   6.233   6.506
 8530SOL     OW26488   2.993   3.885   4.400
 8530SOL    HW126489   2.985   3.872   4.499
 8530SOL    HW226490   2.958   3.804   4.353
 8531SOL     OW26491   6.760   5.973   3.227
 8531SOL    HW126492   6.846   5.947   3.183
 8531SOL    HW226493   6.749   6.072   3.222
 8532SOL     OW26494   3.080   5.917   4.464
 8532SOL    HW126495   3.029   5.988   4.416
 8532SOL    HW226496   3.066   5.829   4.417
 8533SOL     OW26497   0.982   6.587   6.025
 8533SOL    HW126498   0.985   6.619   6.120
 8533SOL    HW226499   0.984   6.666   5.963
 8534SOL     OW26500   4.212   2.224   3.859
 8534SOL    HW126501   4.234   2.126   3.854
 8534SOL    HW226502   4.180   2.255   3.770
 8535SOL     OW26503   5.928   1.200   3.331
 8535SOL    HW126504   5.881   1.172   3.414
 8535SOL    HW226505   5.911   1.133   3.259
 8536SOL     OW26506   0.185   0.855   4.448
 8536SOL    HW126507   0.134   0.846   4.362
 8536SOL    HW226508   0.278   0.821   4.436
 8537SOL     OW26509   7.008   0.955   2.890
 8537SOL    HW126510   6.924   0.958   2.945
 8537SOL    HW226511   0.070   0.953   2.951
 8538SOL     OW26512   1.199   2.685   0.169
 8538SOL    HW126513   1.138   2.621   0.122
 8538SOL    HW226514   1.294   2.667   0.142
 8539SOL     OW26515   6.732   2.636   2.952
 8539SOL    HW126516   6.822   2.657   2.912
 8539SOL    HW226517   6.734   2.544   2.991
 8540SOL     OW26518   4.274   0.010   0.346
 8540SOL    HW126519   4.226   6.959   0.402
 8540SOL    HW226520   4.260   0.101   0.385
 8541SOL     OW26521   2.172   2.405   3.666
 8541SOL    HW126522   2.242   2.411   3.738
 8541SOL    HW226523   2.126   2.316   3.672
 8542SOL     OW26524   3.868   4.038   6.652
 8542SOL    HW126525   3.956   3.991   6.663
 8542SOL    HW226526   3.879   4.114   6.589
 8543SOL     OW26527   1.715   2.461   6.802
 8543SOL    HW126528   1.776   2.495   6.730
 8543SOL    HW226529   1.755   2.379   6.843
 8544SOL     OW26530   5.563   2.380   4.348
 8544SOL    HW126531   5.528   2.326   4.425
 8544SOL    HW226532   5.583   2.320   4.271
 8545SOL     OW26533   5.088   6.533   4.851
 8545SOL    HW126534   5.131   6.611   4.895
 8545SOL    HW226535   5.129   6.518   4.761
 8546SOL     OW26536   4.999   1.493   4.525
 8546SOL    HW126537   4.906   1.526   4.540
 8546SOL    HW226538   5.046   1.554   4.461
 8547SOL     OW26539   0.933   4.644   3.243
 8547SOL    HW126540   0.952   4.704   3.321
 8547SOL    HW226541   0.904   4.554   3.275
 8548SOL     OW26542   5.764   1.091   5.249
 8548SOL    HW126543   5.766   1.178   5.199
 8548SOL    HW226544   5.793   1.106   5.344
 8549SOL     OW26545   6.625   3.386   4.607
 8549SOL    HW126546   6.599   3.307   4.550
 8549SOL    HW226547   6.664   3.457   4.549
 8550SOL     OW26548   1.501   4.540   6.551
 8550SOL    HW126549   1.578   4.559   6.611
 8550SOL    HW226550   1.533   4.529   6.457
 8551SOL     OW26551   3.192   3.954   6.925
 8551SOL    HW126552   3.168   3.980   6.831
 8551SOL    HW226553   3.198   3.855   6.931
 8552SOL     OW26554   2.066   6.588   3.847
 8552SOL    HW126555   2.157   6.606   3.885
 8552SOL    HW226556   2.007   6.550   3.919
 8553SOL     OW26557   5.043   6.866   0.815
 8553SOL    HW126558   5.073   6.780   0.773
 8553SOL    HW226559   4.967   6.905   0.762
 8554SOL     OW26560   6.826   3.915   6.649
 8554SOL    HW126561   6.746   3.969   6.676
 8554SOL    HW226562   6.839   3.841   6.715
 8555SOL     OW26563   1.402   6.736   3.698
 8555SOL    HW126564   1.487   6.755   3.649
 8555SOL    HW226565   1.422   6.714   3.793
 8556SOL     OW26566   6.275   0.537   3.467
 8556SOL    HW126567   6.218   0.457   3.484
 8556SOL    HW226568   6.286   0.588   3.552
 8557SOL     OW26569   7.003   0.430   1.593
 8557SOL    HW126570   0.058   0.445   1.661
 8557SOL    HW226571   6.967   0.337   1.603
 8558SOL     OW26572   1.224   5.013   2.033
 8558SOL    HW126573   1.147   4.973   1.982
 8558SOL    HW226574   1.191   5.084   2.094
 8559SOL     OW26575   1.345   0.248   1.170
 8559SOL    HW126576   1.417   0.255   1.102
 8559SOL    HW226577   1.289   0.167   1.152
 8560SOL     OW26578   6.326   1.935   0.487
 8560SOL    HW126579   6.265   2.003   0.445
 8560SOL    HW226580   6.272   1.874   0.545
 8561SOL     OW26581   4.491   6.422   3.567
 8561SOL    HW126582   4.584   6.388   3.556
 8561SOL    HW226583   4.469   6.482   3.490
 8562SOL     OW26584   3.537   6.223   4.173
 8562SOL    HW126585   3.486   6.301   4.137
 8562SOL    HW226586   3.502   6.199   4.264
 8563SOL     OW26587   3.122   2.487   6.717
 8563SOL    HW126588   3.047   2.545   6.748
 8563SOL    HW226589   3.206   2.511   6.766
 8564SOL     OW26590   1.147   0.042   3.645
 8564SOL    HW126591   1.217   0.104   3.680
 8564SOL    HW226592   1.191   6.980   3.602
 8565SOL     OW26593   3.490   6.647   1.192
 8565SOL    HW126594   3.546   6.618   1.115
 8565SOL    HW226595   3.545   6.704   1.253
 8566SOL     OW26596   1.811   2.621   3.576
 8566SOL    HW126597   1.906   2.632   3.544
 8566SOL    HW226598   1.752   2.686   3.527
 8567SOL     OW26599   5.191   1.126   1.322
 8567SOL    HW126600   5.180   1.067   1.402
 8567SOL    HW226601   5.287   1.126   1.294
 8568SOL     OW26602   5.754   1.030   0.324
 8568SOL    HW126603   5.741   1.127   0.343
 8568SOL    HW226604   5.789   1.019   0.231
 8569SOL     OW26605   4.178   1.324   4.495
 8569SOL    HW126606   4.177   1.225   4.507
 8569SOL    HW226607   4.215   1.347   4.405
 8570SOL     OW26608   0.406   4.168   0.188
 8570SOL    HW126609   0.368   4.257   0.212
 8570SOL    HW226610   0.332   4.101   0.181
 8571SOL     OW26611   0.129   4.271   4.892
 8571SOL    HW126612   0.123   4.362   4.851
 8571SOL    HW226613   0.213   4.263   4.945
 8572SOL     OW26614   2.562   5.090   5.056
 8572SOL    HW126615   2.586   5.112   5.151
 8572SOL    HW226616   2.605   5.004   5.030
 8573SOL     OW26617   3.072   5.876   5.727
 8573SOL    HW126618   3.100   5.850   5.819
 8573SOL    HW226619   3.144   5.849   5.662
 8574SOL     OW26620   1.002   3.710   5.680
 8574SOL    HW126621   1.092   3.748   5.660
 8574SOL    HW226622   1.012   3.635   5.746
 8575SOL     OW26623   3.367   2.460   0.443
 8575SOL    HW126624   3.313   2.474   0.360
 8575SOL    HW226625   3.320   2.501   0.521
 8576SOL     OW26626   1.553   6.972   1.560
 8576SOL    HW126627   1.540   0.046   1.520
 8576SOL    HW226628   1.646   6.941   1.541
 8577SOL     OW26629   6.304   6.088   3.115
 8577SOL    HW126630   6.345   5.997   3.111
 8577SOL    HW226631   6.374   6.156   3.094
 8578SOL     OW26632   4.049   6.787   3.497
 8578SOL    HW126633   4.130   6.844   3.509
 8578SOL    HW226634   4.077   6.697   3.462
 8579SOL     OW26635   1.356   5.089   3.284
 8579SOL    HW126636   1.260   5.081   3.311
 8579SOL    HW226637   1.414   5.092   3.366
 8580SOL     OW26638   1.802   5.278   0.393
 8580SOL    HW126639   1.705   5.289   0.371
 8580SOL    HW226640   1.823   5.326   0.478
 8581SOL     OW26641   3.334   1.928   1.248
 8581SOL    HW126642   3.373   1.852   1.197
 8581SOL    HW226643   3.398   1.956   1.320
 8582SOL     OW26644   4.069   4.203   1.588
 8582SOL    HW126645   4.163   4.231   1.608
 8582SOL    HW226646   4.055   4.109   1.618
 8583SOL     OW26647   6.209   0.464   5.934
 8583SOL    HW126648   6.256   0.408   5.866
 8583SOL    HW226649   6.147   0.406   5.987
 8584SOL     OW26650   6.810   6.020   0.565
 8584SOL    HW126651   6.869   5.943   0.590
 8584SOL    HW226652   6.729   5.985   0.518
 8585SOL     OW26653   0.161   1.002   0.026
 8585SOL    HW126654   0.093   1.032   0.092
 8585SOL    HW226655   0.241   1.062   0.031
 8586SOL     OW26656   3.911   5.445   3.164
 8586SOL    HW126657   4.004   5.439   3.126
 8586SOL    HW226658   3.898   5.535   3.205
 8587SOL     OW26659   0.065   2.053   1.883
 8587SOL    HW126660   0.162   2.057   1.907
 8587SOL    HW226661   0.034   2.144   1.854
 8588SOL     OW26662   4.691   2.730   0.208
 8588SOL    HW126663   4.670   2.693   0.118
 8588SOL    HW226664   4.741   2.661   0.261
 8589SOL     OW26665   3.275   2.096   4.483
 8589SOL    HW126666   3.224   2.133   4.561
 8589SOL    HW226667   3.312   2.006   4.507
 8590SOL     OW26668   5.915   4.811   5.431
 8590SOL    HW126669   5.889   4.871   5.507
 8590SOL    HW226670   5.993   4.755   5.457
 8591SOL     OW26671   1.298   3.300   0.011
 8591SOL    HW126672   1.347   3.323   0.095
 8591SOL    HW226673   1.240   3.376   7.002
 8592SOL     OW26674   6.044   4.454   0.100
 8592SOL    HW126675   6.091   4.530   0.144
 8592SOL    HW226676   6.105   4.413   0.031
 8593SOL     OW26677   1.133   0.534   2.722
 8593SOL    HW126678   1.106   0.629   2.737
 8593SOL    HW226679   1.064   0.473   2.762
 8594SOL     OW26680   3.382   3.820   4.335
 8594SOL    HW126681   3.452   3.877   4.378
 8594SOL    HW226682   3.308   3.878   4.300
 8595SOL     OW26683   1.563   1.872   2.772
 8595SOL    HW126684   1.609   1.956   2.800
 8595SOL    HW226685   1.502   1.842   2.845
 8596SOL     OW26686   6.258   5.270   1.615
 8596SOL    HW126687   6.162   5.265   1.588
 8596SOL    HW226688   6.274   5.214   1.696
 8597SOL     OW26689   2.775   1.415   0.954
 8597SOL    HW126690   2.716   1.358   1.011
 8597SOL    HW226691   2.871   1.395   0.974
 8598SOL     OW26692   5.513   5.424   1.100
 8598SOL    HW126693   5.557   5.492   1.158
 8598SOL    HW226694   5.571   5.343   1.093
 8599SOL     OW26695   1.742   2.812   3.042
 8599SOL    HW126696   1.669   2.762   2.995
 8599SOL    HW226697   1.785   2.876   2.979
 8600SOL     OW26698   6.400   4.389   6.638
 8600SOL    HW126699   6.309   4.425   6.616
 8600SOL    HW226700   6.394   4.289   6.646
 8601SOL     OW26701   0.303   0.045   4.629
 8601SOL    HW126702   0.277   0.114   4.696
 8601SOL    HW226703   0.222   0.019   4.576
 8602SOL     OW26704   2.853   5.632   2.128
 8602SOL    HW126705   2.903   5.672   2.205
 8602SOL    HW226706   2.774   5.689   2.106
 8603SOL     OW26707   4.128   3.254   0.600
 8603SOL    HW126708   4.178   3.186   0.546
 8603SOL    HW226709   4.185   3.287   0.675
 8604SOL     OW26710   5.499   2.748   3.608
 8604SOL    HW126711   5.412   2.705   3.586
 8604SOL    HW226712   5.560   2.742   3.529
 8605SOL     OW26713   2.247   6.412   2.660
 8605SOL    HW126714   2.244   6.512   2.657
 8605SOL    HW226715   2.198   6.375   2.582
 8606SOL     OW26716   4.013   4.526   5.452
 8606SOL    HW126717   4.097   4.505   5.502
 8606SOL    HW226718   3.943   4.560   5.515
 8607SOL     OW26719   4.598   5.783   1.492
 8607SOL    HW126720   4.683   5.832   1.515
 8607SOL    HW226721   4.591   5.701   1.549
 8608SOL     OW26722   4.571   5.772   1.945
 8608SOL    HW126723   4.641   5.735   2.005
 8608SOL    HW226724   4.509   5.831   1.997
 8609SOL     OW26725   3.386   0.485   5.581
 8609SOL    HW126726   3.375   0.414   5.511
 8609SOL    HW226727   3.467   0.540   5.560
 8610SOL     OW26728   0.576   6.095   3.986
 8610SOL    HW126729   0.520   6.018   4.018
 8610SOL    HW226730   0.561   6.174   4.046
 8611SOL     OW26731   1.906   2.222   4.154
 8611SOL    HW126732   1.826   2.258   4.203
 8611SOL    HW226733   1.909   2.261   4.062
 8612SOL     OW26734   4.284   2.914   5.393
 8612SOL    HW126735   4.225   2.984   5.352
 8612SOL    HW226736   4.352   2.958   5.451
 8613SOL     OW26737   1.622   1.413   1.073
 8613SOL    HW126738   1.694   1.465   1.119
 8613SOL    HW226739   1.534   1.432   1.117
 8614SOL     OW26740   1.131   2.043   3.383
 8614SOL    HW126741   1.117   2.004   3.474
 8614SOL    HW226742   1.146   2.142   3.392
 8615SOL     OW26743   4.414   2.412   5.247
 8615SOL    HW126744   4.355   2.418   5.328
 8615SOL    HW226745   4.364   2.446   5.167
 8616SOL     OW26746   0.985   4.397   0.412
 8616SOL    HW126747   1.019   4.480   0.366
 8616SOL    HW226748   0.920   4.424   0.483
 8617SOL     OW26749   6.198   2.698   1.083
 8617SOL    HW126750   6.254   2.775   1.114
 8617SOL    HW226751   6.243   2.612   1.106
 8618SOL     OW26752   4.546   0.006   3.244
 8618SOL    HW126753   4.461   0.015   3.296
 8618SOL    HW226754   4.592   6.938   3.269
 8619SOL     OW26755   4.485   5.269   6.881
 8619SOL    HW126756   4.470   5.338   6.952
 8619SOL    HW226757   4.458   5.180   6.916
 8620SOL     OW26758   6.481   6.273   3.047
 8620SOL    HW126759   6.504   6.315   2.960
 8620SOL    HW226760   6.565   6.250   3.096
 8621SOL     OW26761   5.763   0.513   3.444
 8621SOL    HW126762   5.731   0.473   3.358
 8621SOL    HW226763   5.858   0.542   3.434
 8622SOL     OW26764   4.813   5.407   0.228
 8622SOL    HW126765   4.815   5.371   0.321
 8622SOL    HW226766   4.901   5.449   0.206
 8623SOL     OW26767   0.078   3.811   2.873
 8623SOL    HW126768   0.057   3.864   2.791
 8623SOL    HW226769   0.061   3.714   2.855
 8624SOL     OW26770   0.437   4.316   2.997
 8624SOL    HW126771   0.404   4.272   3.080
 8624SOL    HW226772   0.376   4.294   2.921
 8625SOL     OW26773   3.462   0.501   4.581
 8625SOL    HW126774   3.506   0.577   4.533
 8625SOL    HW226775   3.385   0.468   4.526
 8626SOL     OW26776   3.002   3.715   3.448
 8626SOL    HW126777   2.973   3.619   3.452
 8626SOL    HW226778   3.102   3.719   3.447
 8627SOL     OW26779   1.741   0.259   0.136
 8627SOL    HW126780   1.707   0.169   0.164
 8627SOL    HW226781   1.669   0.307   0.086
 8628SOL     OW26782   5.282   0.987   6.863
 8628SOL    HW126783   5.236   1.027   6.941
 8628SOL    HW226784   5.339   0.911   6.893
 8629SOL     OW26785   1.388   4.078   3.907
 8629SOL    HW126786   1.454   4.121   3.845
 8629SOL    HW226787   1.436   4.016   3.969
 8630SOL     OW26788   5.662   4.660   3.869
 8630SOL    HW126789   5.723   4.690   3.942
 8630SOL    HW226790   5.617   4.575   3.896
 8631SOL     OW26791   3.772   5.826   5.087
 8631SOL    HW126792   3.693   5.852   5.031
 8631SOL    HW226793   3.771   5.879   5.172
 8632SOL     OW26794   3.855   0.271   3.394
 8632SOL    HW126795   3.878   0.351   3.338
 8632SOL    HW226796   3.813   0.301   3.479
 8633SOL     OW26797   6.099   1.114   3.694
 8633SOL    HW126798   6.149   1.146   3.614
 8633SOL    HW226799   6.025   1.053   3.665
 8634SOL     OW26800   6.792   5.299   2.138
 8634SOL    HW126801   6.804   5.244   2.221
 8634SOL    HW226802   6.860   5.271   2.070
 8635SOL     OW26803   6.039   3.624   5.446
 8635SOL    HW126804   5.978   3.695   5.409
 8635SOL    HW226805   5.985   3.554   5.491
 8636SOL     OW26806   6.643   5.751   0.746
 8636SOL    HW126807   6.605   5.828   0.796
 8636SOL    HW226808   6.620   5.666   0.793
 8637SOL     OW26809   2.191   0.552   1.044
 8637SOL    HW126810   2.291   0.543   1.047
 8637SOL    HW226811   2.149   0.474   1.089
 8638SOL     OW26812   3.454   5.077   0.471
 8638SOL    HW126813   3.474   5.059   0.567
 8638SOL    HW226814   3.356   5.092   0.460
 8639SOL     OW26815   6.391   3.887   1.585
 8639SOL    HW126816   6.378   3.986   1.592
 8639SOL    HW226817   6.444   3.855   1.663
 8640SOL     OW26818   4.822   5.327   0.980
 8640SOL    HW126819   4.736   5.362   0.945
 8640SOL    HW226820   4.894   5.396   0.968
 8641SOL     OW26821   6.170   4.213   3.289
 8641SOL    HW126822   6.243   4.211   3.358
 8641SOL    HW226823   6.182   4.292   3.229
 8642SOL     OW26824   4.378   1.496   1.375
 8642SOL    HW126825   4.400   1.400   1.356
 8642SOL    HW226826   4.458   1.541   1.415
 8643SOL     OW26827   5.088   0.284   5.868
 8643SOL    HW126828   5.125   0.325   5.785
 8643SOL    HW226829   5.077   0.185   5.855
 8644SOL     OW26830   6.229   3.046   5.227
 8644SOL    HW126831   6.304   3.105   5.256
 8644SOL    HW226832   6.146   3.069   5.277
 8645SOL     OW26833   5.979   4.679   1.521
 8645SOL    HW126834   6.075   4.678   1.548
 8645SOL    HW226835   5.940   4.769   1.543
 8646SOL     OW26836   5.556   0.856   0.618
 8646SOL    HW126837   5.650   0.870   0.650
 8646SOL    HW226838   5.502   0.937   0.637
 8647SOL     OW26839   4.327   5.225   0.333
 8647SOL    HW126840   4.257   5.189   0.394
 8647SOL    HW226841   4.389   5.284   0.385
 8648SOL     OW26842   5.504   1.196   4.041
 8648SOL    HW126843   5.537   1.273   3.988
 8648SOL    HW226844   5.405   1.198   4.046
 8649SOL     OW26845   6.686   4.088   5.664
 8649SOL    HW126846   6.661   4.145   5.742
 8649SOL    HW226847   6.660   4.134   5.579
 8650SOL     OW26848   2.078   4.909   3.316
 8650SOL    HW126849   2.127   4.839   3.368
 8650SOL    HW226850   2.026   4.865   3.242
 8651SOL     OW26851   3.300   0.880   0.388
 8651SOL    HW126852   3.246   0.822   0.450
 8651SOL    HW226853   3.286   0.976   0.412
 8652SOL     OW26854   1.831   3.655   3.462
 8652SOL    HW126855   1.887   3.677   3.382
 8652SOL    HW226856   1.872   3.697   3.543
 8653SOL     OW26857   0.374   2.599   7.003
 8653SOL    HW126858   0.422   2.678   0.022
 8653SOL    HW226859   0.290   2.628   6.957
 8654SOL     OW26860   0.787   0.126   3.474
 8654SOL    HW126861   0.844   0.044   3.469
 8654SOL    HW226862   0.807   0.175   3.559
 8655SOL     OW26863   6.134   6.244   4.700
 8655SOL    HW126864   6.100   6.268   4.791
 8655SOL    HW226865   6.142   6.144   4.693
 8656SOL     OW26866   6.369   1.397   0.927
 8656SOL    HW126867   6.393   1.483   0.973
 8656SOL    HW226868   6.415   1.321   0.972
 8657SOL     OW26869   4.389   4.256   6.877
 8657SOL    HW126870   4.317   4.280   6.942
 8657SOL    HW226871   4.348   4.222   6.793
 8658SOL     OW26872   5.907   5.516   6.689
 8658SOL    HW126873   5.873   5.578   6.759
 8658SOL    HW226874   5.874   5.545   6.600
 8659SOL     OW26875   5.430   0.575   4.292
 8659SOL    HW126876   5.407   0.669   4.268
 8659SOL    HW226877   5.460   0.527   4.209
 8660SOL     OW26878   5.743   3.865   0.914
 8660SOL    HW126879   5.650   3.828   0.916
 8660SOL    HW226880   5.762   3.903   0.824
 8661SOL     OW26881   0.034   4.018   1.537
 8661SOL    HW126882   0.133   4.019   1.550
 8661SOL    HW226883   7.017   3.925   1.549
 8662SOL     OW26884   6.939   6.917   0.997
 8662SOL    HW126885   6.936   6.914   1.097
 8662SOL    HW226886   6.961   7.010   0.967
 8663SOL     OW26887   2.560   5.652   0.443
 8663SOL    HW126888   2.654   5.619   0.444
 8663SOL    HW226889   2.556   5.742   0.400
 8664SOL     OW26890   4.483   6.048   6.944
 8664SOL    HW126891   4.527   6.094   0.004
 8664SOL    HW226892   4.546   5.980   6.905
 8665SOL     OW26893   5.003   5.516   5.675
 8665SOL    HW126894   4.965   5.607   5.693
 8665SOL    HW226895   5.049   5.516   5.586
 8666SOL     OW26896   5.256   2.580   4.557
 8666SOL    HW126897   5.281   2.659   4.502
 8666SOL    HW226898   5.196   2.609   4.632
 8667SOL     OW26899   4.870   1.211   4.354
 8667SOL    HW126900   4.907   1.124   4.386
 8667SOL    HW226901   4.872   1.278   4.428
 8668SOL     OW26902   4.099   1.973   4.622
 8668SOL    HW126903   4.059   1.999   4.533
 8668SOL    HW226904   4.173   1.907   4.607
 8669SOL     OW26905   4.107   0.488   5.423
 8669SOL    HW126906   4.095   0.587   5.435
 8669SOL    HW226907   4.022   0.448   5.387
 8670SOL     OW26908   3.723   5.368   4.393
 8670SOL    HW126909   3.804   5.351   4.337
 8670SOL    HW226910   3.648   5.308   4.362
 8671SOL     OW26911   5.943   6.669   3.658
 8671SOL    HW126912   5.956   6.717   3.745
 8671SOL    HW226913   6.016   6.695   3.595
 8672SOL     OW26914   3.790   4.981   4.380
 8672SOL    HW126915   3.828   5.061   4.426
 8672SOL    HW226916   3.864   4.921   4.349
 8673SOL     OW26917   6.196   2.122   0.756
 8673SOL    HW126918   6.279   2.132   0.811
 8673SOL    HW226919   6.139   2.050   0.795
 8674SOL     OW26920   6.664   0.066   2.821
 8674SOL    HW126921   6.754   0.049   2.781
 8674SOL    HW226922   6.627   6.998   2.858
 8675SOL     OW26923   2.231   1.113   2.704
 8675SOL    HW126924   2.237   1.087   2.800
 8675SOL    HW226925   2.296   1.186   2.685
 8676SOL     OW26926   4.466   6.903   2.645
 8676SOL    HW126927   4.392   6.925   2.709
 8676SOL    HW226928   4.428   6.893   2.553
 8677SOL     OW26929   2.359   4.677   5.736
 8677SOL    HW126930   2.281   4.679   5.673
 8677SOL    HW226931   2.434   4.625   5.694
 8678SOL     OW26932   1.023   0.277   6.862
 8678SOL    HW126933   1.074   0.347   6.912
 8678SOL    HW226934   1.073   0.252   6.779
 8679SOL     OW26935   6.470   2.295   5.446
 8679SOL    HW126936   6.562   2.331   5.430
 8679SOL    HW226937   6.402   2.365   5.424
 8680SOL     OW26938   1.083   3.880   7.010
 8680SOL    HW126939   1.084   3.965   6.957
 8680SOL    HW226940   1.006   3.824   6.981
 8681SOL     OW26941   3.922   4.091   0.173
 8681SOL    HW126942   3.960   4.082   0.265
 8681SOL    HW226943   3.823   4.082   0.177
 8682SOL     OW26944   2.635   6.269   3.135
 8682SOL    HW126945   2.683   6.357   3.139
 8682SOL    HW226946   2.687   6.206   3.077
 8683SOL     OW26947   0.024   3.261   0.612
 8683SOL    HW126948   0.096   3.288   0.676
 8683SOL    HW226949   0.066   3.223   0.529
 8684SOL     OW26950   5.967   3.407   4.717
 8684SOL    HW126951   6.035   3.349   4.673
 8684SOL    HW226952   5.968   3.497   4.675
 8685SOL     OW26953   0.578   2.579   6.210
 8685SOL    HW126954   0.569   2.678   6.210
 8685SOL    HW226955   0.628   2.549   6.291
 8686SOL     OW26956   6.928   2.163   2.937
 8686SOL    HW126957   6.980   2.233   2.888
 8686SOL    HW226958   6.976   2.076   2.934
 8687SOL     OW26959   3.762   6.878   2.679
 8687SOL    HW126960   3.784   6.821   2.758
 8687SOL    HW226961   3.806   6.967   2.689
 8688SOL     OW26962   2.289   0.415   1.614
 8688SOL    HW126963   2.317   0.320   1.628
 8688SOL    HW226964   2.197   0.429   1.651
 8689SOL     OW26965   4.803   5.980   0.055
 8689SOL    HW126966   4.785   5.918   0.132
 8689SOL    HW226967   4.769   5.938   6.988
 8690SOL     OW26968   0.609   1.192   3.170
 8690SOL    HW126969   0.649   1.200   3.079
 8690SOL    HW226970   0.605   1.283   3.213
 8691SOL     OW26971   5.336   2.223   6.842
 8691SOL    HW126972   5.313   2.266   6.755
 8691SOL    HW226973   5.404   2.151   6.827
 8692SOL     OW26974   2.314   2.036   3.964
 8692SOL    HW126975   2.274   2.075   4.047
 8692SOL    HW226976   2.244   1.986   3.913
 8693SOL     OW26977   5.525   1.946   0.868
 8693SOL    HW126978   5.430   1.937   0.898
 8693SOL    HW226979   5.534   2.026   0.808
 8694SOL     OW26980   4.861   6.932   5.982
 8694SOL    HW126981   4.791   6.994   6.019
 8694SOL    HW226982   4.819   6.845   5.957
 8695SOL     OW26983   5.036   4.035   6.044
 8695SOL    HW126984   5.072   4.034   5.951
 8695SOL    HW226985   5.084   4.105   6.098
 8696SOL     OW26986   2.359   5.989   1.175
 8696SOL    HW126987   2.264   6.010   1.150
 8696SOL    HW226988   2.416   5.991   1.093
 8697SOL     OW26989   6.450   4.096   0.404
 8697SOL    HW126990   6.446   4.042   0.488
 8697SOL    HW226991   6.357   4.110   0.369
 8698SOL     OW26992   5.384   6.191   4.344
 8698SOL    HW126993   5.465   6.194   4.285
 8698SOL    HW226994   5.308   6.238   4.300
 8699SOL     OW26995   1.363   1.561   5.599
 8699SOL    HW126996   1.349   1.635   5.532
 8699SOL    HW226997   1.309   1.482   5.571
 8700SOL     OW26998   2.865   1.256   5.359
 8700SOL    HW126999   2.936   1.189   5.382
 8700SOL    HW227000   2.888   1.345   5.399
 8701SOL     OW27001   0.630   1.534   4.779
 8701SOL    HW127002   0.626   1.540   4.878
 8701SOL    HW227003   0.722   1.555   4.748
 8702SOL     OW27004   5.435   5.337   7.011
 8702SOL    HW127005   5.475   5.265   0.052
 8702SOL    HW227006   5.377   5.295   6.942
 8703SOL     OW27007   2.552   5.745   0.886
 8703SOL    HW127008   2.605   5.665   0.860
 8703SOL    HW227009   2.610   5.807   0.939
 8704SOL     OW27010   0.225   4.569   2.237
 8704SOL    HW127011   0.211   4.470   2.238
 8704SOL    HW227012   0.314   4.589   2.194
 8705SOL     OW27013   4.911   0.383   6.199
 8705SOL    HW127014   4.986   0.428   6.248
 8705SOL    HW227015   4.887   0.437   6.118
 8706SOL     OW27016   5.256   1.981   0.157
 8706SOL    HW127017   5.220   1.888   0.150
 8706SOL    HW227018   5.267   2.006   0.253
 8707SOL     OW27019   4.875   2.680   6.281
 8707SOL    HW127020   4.814   2.711   6.354
 8707SOL    HW227021   4.930   2.757   6.249
 8708SOL     OW27022   3.931   1.248   1.308
 8708SOL    HW127023   3.981   1.230   1.393
 8708SOL    HW227024   3.887   1.338   1.314
 8709SOL     OW27025   6.740   4.059   0.628
 8709SOL    HW127026   6.640   4.059   0.622
 8709SOL    HW227027   6.768   4.042   0.722
 8710SOL     OW27028   2.017   3.591   3.083
 8710SOL    HW127029   2.045   3.513   3.140
 8710SOL    HW227030   2.085   3.605   3.011
 8711SOL     OW27031   6.802   1.006   3.046
 8711SOL    HW127032   6.723   0.945   3.038
 8711SOL    HW227033   6.779   1.080   3.110
 8712SOL     OW27034   3.523   1.249   4.800
 8712SOL    HW127035   3.539   1.325   4.737
 8712SOL    HW227036   3.608   1.225   4.846
 8713SOL     OW27037   6.706   4.857   3.905
 8713SOL    HW127038   6.613   4.883   3.880
 8713SOL    HW227039   6.742   4.792   3.838
 8714SOL     OW27040   1.516   0.796   5.519
 8714SOL    HW127041   1.475   0.761   5.435
 8714SOL    HW227042   1.447   0.846   5.572
 8715SOL     OW27043   6.227   1.977   1.655
 8715SOL    HW127044   6.250   2.061   1.702
 8715SOL    HW227045   6.265   1.899   1.705
 8716SOL     OW27046   1.158   1.281   1.423
 8716SOL    HW127047   1.229   1.345   1.455
 8716SOL    HW227048   1.152   1.204   1.486
 8717SOL     OW27049   4.176   3.758   1.862
 8717SOL    HW127050   4.223   3.846   1.868
 8717SOL    HW227051   4.124   3.741   1.945
 8718SOL     OW27052   6.313   2.815   5.098
 8718SOL    HW127053   6.299   2.902   5.147
 8718SOL    HW227054   6.405   2.814   5.057
 8719SOL     OW27055   1.070   0.220   5.202
 8719SOL    HW127056   1.145   0.285   5.215
 8719SOL    HW227057   0.986   0.269   5.178
 8720SOL     OW27058   5.651   4.292   5.468
 8720SOL    HW127059   5.677   4.387   5.448
 8720SOL    HW227060   5.692   4.231   5.401
 8721SOL     OW27061   6.837   2.460   4.690
 8721SOL    HW127062   6.748   2.453   4.735
 8721SOL    HW227063   6.909   2.431   4.753
 8722SOL     OW27064   3.827   2.366   0.561
 8722SOL    HW127065   3.902   2.398   0.502
 8722SOL    HW227066   3.792   2.442   0.615
 8723SOL     OW27067   6.640   5.551   1.115
 8723SOL    HW127068   6.631   5.551   1.214
 8723SOL    HW227069   6.708   5.619   1.087
 8724SOL     OW27070   5.635   0.165   5.616
 8724SOL    HW127071   5.548   0.116   5.616
 8724SOL    HW227072   5.692   0.132   5.691
 8725SOL     OW27073   2.046   6.774   0.362
 8725SOL    HW127074   1.952   6.754   0.388
 8725SOL    HW227075   2.066   6.734   0.273
 8726SOL     OW27076   5.854   0.402   1.599
 8726SOL    HW127077   5.933   0.414   1.659
 8726SOL    HW227078   5.789   0.476   1.614
 8727SOL     OW27079   6.527   6.477   1.439
 8727SOL    HW127080   6.541   6.383   1.408
 8727SOL    HW227081   6.569   6.541   1.373
 8728SOL     OW27082   2.641   6.758   4.903
 8728SOL    HW127083   2.709   6.694   4.867
 8728SOL    HW227084   2.650   6.846   4.856
 8729SOL     OW27085   4.326   5.765   3.572
 8729SOL    HW127086   4.409   5.709   3.567
 8729SOL    HW227087   4.260   5.731   3.506
 8730SOL     OW27088   0.117   5.943   2.073
 8730SOL    HW127089   0.098   5.853   2.112
 8730SOL    HW227090   0.216   5.960   2.075
 8731SOL     OW27091   1.206   2.000   2.826
 8731SOL    HW127092   1.245   1.920   2.871
 8731SOL    HW227093   1.126   2.032   2.876
 8732SOL     OW27094   5.646   3.757   1.433
 8732SOL    HW127095   5.567   3.712   1.393
 8732SOL    HW227096   5.725   3.746   1.372
 8733SOL     OW27097   1.242   6.429   1.572
 8733SOL    HW127098   1.294   6.462   1.651
 8733SOL    HW227099   1.257   6.490   1.494
 8734SOL     OW27100   6.976   6.244   1.096
 8734SOL    HW127101   6.958   6.159   1.145
 8734SOL    HW227102   6.899   6.307   1.107
 8735SOL     OW27103   6.673   1.907   6.794
 8735SOL    HW127104   6.731   1.875   6.719
 8735SOL    HW227105   6.701   1.862   6.879
 8736SOL     OW27106   0.798   4.690   6.764
 8736SOL    HW127107   0.744   4.770   6.788
 8736SOL    HW227108   0.881   4.718   6.718
 8737SOL     OW27109   3.689   5.922   6.366
 8737SOL    HW127110   3.598   5.884   6.352
 8737SOL    HW227111   3.743   5.910   6.282
 8738SOL     OW27112   1.399   3.600   3.601
 8738SOL    HW127113   1.299   3.601   3.602
 8738SOL    HW227114   1.433   3.589   3.694
 8739SOL     OW27115   0.215   3.758   5.427
 8739SOL    HW127116   0.120   3.775   5.400
 8739SOL    HW227117   0.218   3.682   5.493
 8740SOL     OW27118   3.066   6.612   0.081
 8740SOL    HW127119   3.018   6.531   0.048
 8740SOL    HW227120   3.035   6.693   0.031
 8741SOL     OW27121   1.740   3.406   2.775
 8741SOL    HW127122   1.763   3.364   2.863
 8741SOL    HW227123   1.824   3.419   2.722
 8742SOL     OW27124   4.384   7.015   1.419
 8742SOL    HW127125   4.369   0.071   1.486
 8742SOL    HW227126   4.308   6.950   1.424
 8743SOL     OW27127   2.856   5.390   2.288
 8743SOL    HW127128   2.821   5.470   2.240
 8743SOL    HW227129   2.894   5.325   2.222
 8744SOL     OW27130   4.224   2.717   6.092
 8744SOL    HW127131   4.216   2.637   6.151
 8744SOL    HW227132   4.197   2.799   6.144
 8745SOL     OW27133   6.348   2.769   5.618
 8745SOL    HW127134   6.347   2.863   5.584
 8745SOL    HW227135   6.424   2.758   5.681
 8746SOL     OW27136   5.041   4.860   5.552
 8746SOL    HW127137   4.982   4.832   5.477
 8746SOL    HW227138   5.135   4.869   5.520
 8747SOL     OW27139   1.699   2.629   4.322
 8747SOL    HW127140   1.722   2.656   4.228
 8747SOL    HW227141   1.603   2.650   4.340
 8748SOL     OW27142   1.261   0.666   6.882
 8748SOL    HW127143   1.222   0.757   6.897
 8748SOL    HW227144   1.241   0.638   6.788
 8749SOL     OW27145   4.178   0.442   3.493
 8749SOL    HW127146   4.176   0.496   3.409
 8749SOL    HW227147   4.172   0.502   3.573
 8750SOL     OW27148   1.873   1.867   5.088
 8750SOL    HW127149   1.958   1.887   5.136
 8750SOL    HW227150   1.808   1.824   5.151
 8751SOL     OW27151   1.291   0.053   2.682
 8751SOL    HW127152   1.332   7.007   2.616
 8751SOL    HW227153   1.352   0.131   2.695
 8752SOL     OW27154   1.663   2.990   5.940
 8752SOL    HW127155   1.568   2.959   5.941
 8752SOL    HW227156   1.719   2.924   5.889
 8753SOL     OW27157   5.181   1.544   4.726
 8753SOL    HW127158   5.105   1.544   4.661
 8753SOL    HW227159   5.191   1.453   4.767
 8754SOL     OW27160   1.645   2.007   5.958
 8754SOL    HW127161   1.724   1.947   5.970
 8754SOL    HW227162   1.619   2.008   5.862
 8755SOL     OW27163   2.268   1.413   0.398
 8755SOL    HW127164   2.249   1.315   0.404
 8755SOL    HW227165   2.203   1.463   0.456
 8756SOL     OW27166   2.170   3.099   4.062
 8756SOL    HW127167   2.151   3.064   3.970
 8756SOL    HW227168   2.222   3.030   4.113
 8757SOL     OW27169   4.651   6.351   4.820
 8757SOL    HW127170   4.662   6.367   4.918
 8757SOL    HW227171   4.565   6.391   4.789
 8758SOL     OW27172   6.262   6.691   1.505
 8758SOL    HW127173   6.230   6.686   1.599
 8758SOL    HW227174   6.354   6.731   1.502
 8759SOL     OW27175   4.864   0.640   5.668
 8759SOL    HW127176   4.891   0.604   5.579
 8759SOL    HW227177   4.927   0.606   5.738
 8760SOL     OW27178   1.794   1.516   4.236
 8760SOL    HW127179   1.774   1.558   4.148
 8760SOL    HW227180   1.709   1.486   4.279
 8761SOL     OW27181   4.355   6.983   0.085
 8761SOL    HW127182   4.322   0.004   0.171
 8761SOL    HW227183   4.431   0.021   0.051
 8762SOL     OW27184   1.214   4.002   1.190
 8762SOL    HW127185   1.172   3.913   1.170
 8762SOL    HW227186   1.230   4.052   1.105
 8763SOL     OW27187   0.108   6.555   6.162
 8763SOL    HW127188   0.032   6.508   6.118
 8763SOL    HW227189   0.077   6.595   6.248
 8764SOL     OW27190   4.472   1.947   4.569
 8764SOL    HW127191   4.434   2.028   4.614
 8764SOL    HW227192   4.538   1.975   4.500
 8765SOL     OW27193   5.597   0.183   4.347
 8765SOL    HW127194   5.509   0.148   4.314
 8765SOL    HW227195   5.603   0.170   4.446
 8766SOL     OW27196   1.926   4.972   2.582
 8766SOL    HW127197   1.988   4.964   2.660
 8766SOL    HW227198   1.979   4.968   2.497
 8767SOL     OW27199   4.453   0.547   3.538
 8767SOL    HW127200   4.397   0.629   3.552
 8767SOL    HW227201   4.481   0.510   3.627
 8768SOL     OW27202   1.985   3.103   0.333
 8768SOL    HW127203   2.008   3.010   0.305
 8768SOL    HW227204   1.900   3.132   0.289
 8769SOL     OW27205   2.075   6.957   5.905
 8769SOL    HW127206   2.097   0.035   5.927
 8769SOL    HW227207   1.979   6.949   5.880
 8770SOL     OW27208   5.434   3.160   1.357
 8770SOL    HW127209   5.396   3.175   1.448
 8770SOL    HW227210   5.385   3.216   1.290
 8771SOL     OW27211   1.331   1.344   6.390
 8771SOL    HW127212   1.325   1.442   6.367
 8771SOL    HW227213   1.239   1.309   6.409
 8772SOL     OW27214   5.658   1.416   6.500
 8772SOL    HW127215   5.738   1.475   6.512
 8772SOL    HW227216   5.674   1.329   6.545
 8773SOL     OW27217   2.428   2.291   2.912
 8773SOL    HW127218   2.444   2.314   3.008
 8773SOL    HW227219   2.338   2.247   2.902
 8774SOL     OW27220   1.274   1.325   1.060
 8774SOL    HW127221   1.196   1.265   1.044
 8774SOL    HW227222   1.332   1.327   0.978
 8775SOL     OW27223   6.625   6.983   3.534
 8775SOL    HW127224   6.683   7.012   3.610
 8775SOL    HW227225   6.547   0.028   3.526
 8776SOL     OW27226   3.492   2.790   5.242
 8776SOL    HW127227   3.453   2.866   5.190
 8776SOL    HW227228   3.425   2.757   5.308
 8777SOL     OW27229   6.690   6.032   1.717
 8777SOL    HW127230   6.632   5.971   1.664
 8777SOL    HW227231   6.785   6.001   1.712
 8778SOL     OW27232   0.532   2.162   3.824
 8778SOL    HW127233   0.553   2.084   3.882
 8778SOL    HW227234   0.487   2.233   3.879
 8779SOL     OW27235   0.602   4.802   0.591
 8779SOL    HW127236   0.575   4.782   0.685
 8779SOL    HW227237   0.700   4.787   0.580
 8780SOL     OW27238   1.092   5.462   4.395
 8780SOL    HW127239   0.997   5.460   4.364
 8780SOL    HW227240   1.153   5.436   4.321
 8781SOL     OW27241   0.611   1.999   2.721
 8781SOL    HW127242   0.615   2.099   2.730
 8781SOL    HW227243   0.630   1.974   2.626
 8782SOL     OW27244   4.503   1.266   3.195
 8782SOL    HW127245   4.525   1.360   3.222
 8782SOL    HW227246   4.568   1.235   3.126
 8783SOL     OW27247   5.850   3.709   4.389
 8783SOL    HW127248   5.913   3.635   4.368
 8783SOL    HW227249   5.783   3.719   4.315
 8784SOL     OW27250   5.402   5.124   5.461
 8784SOL    HW127251   5.416   5.149   5.557
 8784SOL    HW227252   5.488   5.135   5.411
 8785SOL     OW27253   5.935   4.590   6.660
 8785SOL    HW127254   5.898   4.612   6.751
 8785SOL    HW227255   5.863   4.602   6.592
 8786SOL     OW27256   2.087   0.019   0.306
 8786SOL    HW127257   2.176   0.058   0.332
 8786SOL    HW227258   2.090   6.937   0.317
 8787SOL     OW27259   1.365   3.727   0.966
 8787SOL    HW127260   1.425   3.656   1.003
 8787SOL    HW227261   1.416   3.813   0.960
 8788SOL     OW27262   0.845   1.483   5.556
 8788SOL    HW127263   0.915   1.534   5.504
 8788SOL    HW227264   0.836   1.391   5.518
 8789SOL     OW27265   6.928   0.703   6.633
 8789SOL    HW127266   6.868   0.623   6.637
 8789SOL    HW227267   6.949   0.733   6.727
 8790SOL     OW27268   5.969   1.759   6.990
 8790SOL    HW127269   5.870   1.750   6.996
 8790SOL    HW227270   5.992   1.842   6.940
 8791SOL     OW27271   4.759   6.619   5.636
 8791SOL    HW127272   4.707   6.686   5.689
 8791SOL    HW227273   4.718   6.528   5.648
 8792SOL     OW27274   4.969   0.091   2.670
 8792SOL    HW127275   4.952   0.101   2.572
 8792SOL    HW227276   4.882   0.092   2.720
 8793SOL     OW27277   1.610   5.923   3.606
 8793SOL    HW127278   1.590   5.941   3.510
 8793SOL    HW227279   1.678   5.989   3.639
 8794SOL     OW27280   1.564   0.210   2.212
 8794SOL    HW127281   1.589   0.272   2.139
 8794SOL    HW227282   1.513   0.259   2.283
 8795SOL     OW27283   1.799   5.956   5.651
 8795SOL    HW127284   1.872   6.022   5.635
 8795SOL    HW227285   1.718   5.982   5.598
 8796SOL     OW27286   4.627   2.329   5.434
 8796SOL    HW127287   4.567   2.306   5.510
 8796SOL    HW227288   4.572   2.360   5.356
 8797SOL     OW27289   0.500   6.885   0.042
 8797SOL    HW127290   0.553   6.838   0.113
 8797SOL    HW227291   0.519   6.983   0.045
 8798SOL     OW27292   4.876   3.701   5.468
 8798SOL    HW127293   4.865   3.785   5.520
 8798SOL    HW227294   4.800   3.691   5.403
 8799SOL     OW27295   2.879   5.320   3.453
 8799SOL    HW127296   2.876   5.344   3.550
 8799SOL    HW227297   2.959   5.264   3.435
 8800SOL     OW27298   4.385   5.012   6.939
 8800SOL    HW127299   4.371   5.020   6.840
 8800SOL    HW227300   4.326   4.940   6.975
 8801SOL     OW27301   2.571   1.215   4.964
 8801SOL    HW127302   2.523   1.164   5.035
 8801SOL    HW227303   2.652   1.258   5.002
 8802SOL     OW27304   3.054   6.050   2.452
 8802SOL    HW127305   3.107   5.976   2.493
 8802SOL    HW227306   3.057   6.130   2.512
 8803SOL     OW27307   2.991   5.239   0.178
 8803SOL    HW127308   2.999   5.339   0.178
 8803SOL    HW227309   2.901   5.213   0.213
 8804SOL     OW27310   4.846   0.645   0.909
 8804SOL    HW127311   4.924   0.589   0.881
 8804SOL    HW227312   4.809   0.694   0.829
 8805SOL     OW27313   0.368   0.337   2.908
 8805SOL    HW127314   0.269   0.352   2.908
 8805SOL    HW227315   0.400   0.332   3.002
 8806SOL     OW27316   1.693   4.584   6.745
 8806SOL    HW127317   1.790   4.601   6.727
 8806SOL    HW227318   1.683   4.497   6.794
 8807SOL     OW27319   0.617   6.099   6.270
 8807SOL    HW127320   0.587   6.190   6.241
 8807SOL    HW227321   0.626   6.098   6.370
 8808SOL     OW27322   5.169   1.469   1.041
 8808SOL    HW127323   5.195   1.380   1.005
 8808SOL    HW227324   5.251   1.520   1.067
 8809SOL     OW27325   5.740   3.761   1.167
 8809SOL    HW127326   5.786   3.787   1.082
 8809SOL    HW227327   5.653   3.716   1.145
 8810SOL     OW27328   3.871   1.123   4.277
 8810SOL    HW127329   3.786   1.144   4.326
 8810SOL    HW227330   3.919   1.208   4.256
 8811SOL     OW27331   1.470   1.519   2.829
 8811SOL    HW127332   1.499   1.507   2.734
 8811SOL    HW227333   1.378   1.559   2.831
 8812SOL     OW27334   2.020   1.073   0.655
 8812SOL    HW127335   2.003   1.007   0.728
 8812SOL    HW227336   2.095   1.133   0.680
 8813SOL     OW27337   2.220   6.588   2.002
 8813SOL    HW127338   2.284   6.560   1.931
 8813SOL    HW227339   2.238   6.683   2.027
 8814SOL     OW27340   6.404   0.947   6.197
 8814SOL    HW127341   6.350   0.881   6.143
 8814SOL    HW227342   6.343   1.017   6.234
 8815SOL     OW27343   0.218   6.165   2.718
 8815SOL    HW127344   0.192   6.070   2.703
 8815SOL    HW227345   0.161   6.225   2.662
 8816SOL     OW27346   1.302   6.049   0.986
 8816SOL    HW127347   1.334   5.986   1.056
 8816SOL    HW227348   1.348   6.137   0.997
 8817SOL     OW27349   1.498   5.202   5.228
 8817SOL    HW127350   1.401   5.225   5.223
 8817SOL    HW227351   1.548   5.254   5.158
 8818SOL     OW27352   0.333   5.635   4.095
 8818SOL    HW127353   0.332   5.607   4.191
 8818SOL    HW227354   0.276   5.716   4.082
 8819SOL     OW27355   4.237   6.577   4.272
 8819SOL    HW127356   4.174   6.501   4.257
 8819SOL    HW227357   4.201   6.660   4.229
 8820SOL     OW27358   1.245   1.874   3.774
 8820SOL    HW127359   1.232   1.958   3.721
 8820SOL    HW227360   1.231   1.893   3.871
 8821SOL     OW27361   2.074   0.892   6.601
 8821SOL    HW127362   2.153   0.843   6.639
 8821SOL    HW227363   2.062   0.868   6.505
 8822SOL     OW27364   0.511   2.157   3.542
 8822SOL    HW127365   0.428   2.208   3.519
 8822SOL    HW227366   0.525   2.160   3.641
 8823SOL     OW27367   1.645   5.933   1.244
 8823SOL    HW127368   1.652   5.835   1.225
 8823SOL    HW227369   1.554   5.966   1.218
 8824SOL     OW27370   3.591   3.722   0.935
 8824SOL    HW127371   3.622   3.785   0.864
 8824SOL    HW227372   3.505   3.754   0.973
 8825SOL     OW27373   0.917   1.499   2.185
 8825SOL    HW127374   0.861   1.446   2.249
 8825SOL    HW227375   0.910   1.459   2.093
 8826SOL     OW27376   4.855   1.771   6.488
 8826SOL    HW127377   4.791   1.773   6.411
 8826SOL    HW227378   4.804   1.759   6.573
 8827SOL     OW27379   1.403   1.481   3.624
 8827SOL    HW127380   1.475   1.425   3.584
 8827SOL    HW227381   1.325   1.485   3.562
 8828SOL     OW27382   3.145   7.010   2.907
 8828SOL    HW127383   3.114   6.947   2.836
 8828SOL    HW227384   3.179   6.957   2.986
 8829SOL     OW27385   6.999   2.027   0.381
 8829SOL    HW127386   6.997   2.002   0.478
 8829SOL    HW227387   0.076   2.049   0.355
 8830SOL     OW27388   0.792   1.741   0.695
 8830SOL    HW127389   0.819   1.787   0.780
 8830SOL    HW227390   0.854   1.768   0.622
 8831SOL     OW27391   6.783   0.727   2.818
 8831SOL    HW127392   6.694   0.713   2.774
 8831SOL    HW227393   6.769   0.761   2.911
 8832SOL     OW27394   6.287   0.717   2.500
 8832SOL    HW127395   6.253   0.809   2.521
 8832SOL    HW227396   6.350   0.721   2.422
 8833SOL     OW27397   2.182   4.914   3.927
 8833SOL    HW127398   2.260   4.882   3.874
 8833SOL    HW227399   2.154   5.005   3.895
 8834SOL     OW27400   5.784   3.822   5.340
 8834SOL    HW127401   5.704   3.800   5.396
 8834SOL    HW227402   5.782   3.766   5.257
 8835SOL     OW27403   6.995   0.126   6.262
 8835SOL    HW127404   6.966   0.198   6.199
 8835SOL    HW227405   0.045   0.067   6.218
 8836SOL     OW27406   4.558   1.194   6.989
 8836SOL    HW127407   4.525   1.265   0.034
 8836SOL    HW227408   4.604   1.236   6.911
 8837SOL     OW27409   0.058   1.403   1.837
 8837SOL    HW127410   0.014   1.351   1.910
 8837SOL    HW227411   0.002   1.483   1.814
 8838SOL     OW27412   2.604   5.108   3.448
 8838SOL    HW127413   2.634   5.200   3.422
 8838SOL    HW227414   2.663   5.040   3.405
 8839SOL     OW27415   6.679   6.753   3.951
 8839SOL    HW127416   6.773   6.724   3.935
 8839SOL    HW227417   6.675   6.809   4.034
 8840SOL     OW27418   5.788   2.485   1.960
 8840SOL    HW127419   5.834   2.400   1.985
 8840SOL    HW227420   5.767   2.537   2.043
 8841SOL     OW27421   1.246   1.335   5.498
 8841SOL    HW127422   1.292   1.265   5.443
 8841SOL    HW227423   1.147   1.322   5.493
 8842SOL     OW27424   2.394   2.855   1.807
 8842SOL    HW127425   2.330   2.871   1.731
 8842SOL    HW227426   2.487   2.850   1.771
 8843SOL     OW27427   1.114   3.113   5.213
 8843SOL    HW127428   1.066   3.025   5.215
 8843SOL    HW227429   1.106   3.158   5.302
 8844SOL     OW27430   6.668   1.178   6.326
 8844SOL    HW127431   6.688   1.179   6.424
 8844SOL    HW227432   6.573   1.150   6.312
 8845SOL     OW27433   5.805   4.396   6.957
 8845SOL    HW127434   5.737   4.394   0.013
 8845SOL    HW227435   5.887   4.443   6.989
 8846SOL     OW27436   1.778   4.604   4.074
 8846SOL    HW127437   1.834   4.686   4.077
 8846SOL    HW227438   1.788   4.553   4.159
 8847SOL     OW27439   3.338   0.451   2.218
 8847SOL    HW127440   3.272   0.414   2.283
 8847SOL    HW227441   3.292   0.477   2.133
 8848SOL     OW27442   1.126   0.521   3.023
 8848SOL    HW127443   1.054   0.456   3.003
 8848SOL    HW227444   1.215   0.482   2.998
 8849SOL     OW27445   2.804   6.665   1.168
 8849SOL    HW127446   2.718   6.700   1.133
 8849SOL    HW227447   2.813   6.568   1.145
 8850SOL     OW27448   3.498   2.702   6.605
 8850SOL    HW127449   3.405   2.668   6.616
 8850SOL    HW227450   3.552   2.635   6.553
 8851SOL     OW27451   0.966   3.584   2.851
 8851SOL    HW127452   0.911   3.519   2.797
 8851SOL    HW227453   1.058   3.548   2.862
 8852SOL     OW27454   1.063   1.869   6.180
 8852SOL    HW127455   0.976   1.846   6.136
 8852SOL    HW227456   1.137   1.855   6.115
 8853SOL     OW27457   3.987   0.702   0.541
 8853SOL    HW127458   3.923   0.769   0.503
 8853SOL    HW227459   3.964   0.686   0.637
 8854SOL     OW27460   1.147   3.423   4.621
 8854SOL    HW127461   1.154   3.344   4.560
 8854SOL    HW227462   1.220   3.420   4.689
 8855SOL     OW27463   5.743   5.734   1.034
 8855SOL    HW127464   5.800   5.816   1.030
 8855SOL    HW227465   5.728   5.699   0.941
 8856SOL     OW27466   0.390   6.029   5.881
 8856SOL    HW127467   0.352   5.950   5.834
 8856SOL    HW227468   0.376   6.021   5.979
 8857SOL     OW27469   6.501   1.662   5.430
 8857SOL    HW127470   6.458   1.738   5.478
 8857SOL    HW227471   6.455   1.648   5.343
 8858SOL     OW27472   6.494   5.432   4.453
 8858SOL    HW127473   6.508   5.444   4.354
 8858SOL    HW227474   6.479   5.521   4.495
 8859SOL     OW27475   0.901   0.579   3.560
 8859SOL    HW127476   0.977   0.636   3.590
 8859SOL    HW227477   0.886   0.591   3.462
 8860SOL     OW27478   0.027   2.900   2.190
 8860SOL    HW127479   7.013   2.983   2.237
 8860SOL    HW227480   0.030   2.917   2.092
 8861SOL     OW27481   4.459   2.158   1.948
 8861SOL    HW127482   4.374   2.208   1.963
 8861SOL    HW227483   4.535   2.223   1.942
 8862SOL     OW27484   4.745   4.917   4.983
 8862SOL    HW127485   4.716   4.994   5.040
 8862SOL    HW227486   4.843   4.926   4.963
 8863SOL     OW27487   2.190   4.062   3.536
 8863SOL    HW127488   2.245   4.098   3.612
 8863SOL    HW227489   2.093   4.075   3.557
 8864SOL     OW27490   6.046   1.925   5.455
 8864SOL    HW127491   5.980   1.858   5.422
 8864SOL    HW227492   6.100   1.885   5.529
 8865SOL     OW27493   2.127   1.558   6.706
 8865SOL    HW127494   2.175   1.626   6.650
 8865SOL    HW227495   2.118   1.472   6.656
 8866SOL     OW27496   5.949   6.094   2.076
 8866SOL    HW127497   5.974   6.096   2.173
 8866SOL    HW227498   5.939   6.000   2.045
 8867SOL     OW27499   6.119   3.978   2.762
 8867SOL    HW127500   6.039   3.953   2.816
 8867SOL    HW227501   6.094   4.050   2.697
 8868SOL     OW27502   0.076   3.544   3.324
 8868SOL    HW127503   0.010   3.572   3.393
 8868SOL    HW227504   0.027   3.513   3.242
 8869SOL     OW27505   3.544   6.910   3.169
 8869SOL    HW127506   3.557   6.881   3.074
 8869SOL    HW227507   3.592   6.997   3.184
 8870SOL     OW27508   1.574   0.643   3.316
 8870SOL    HW127509   1.559   0.545   3.304
 8870SOL    HW227510   1.601   0.661   3.410
 8871SOL     OW27511   0.479   0.584   2.524
 8871SOL    HW127512   0.408   0.545   2.465
 8871SOL    HW227513   0.440   0.658   2.579
 8872SOL     OW27514   0.194   5.380   5.028
 8872SOL    HW127515   0.236   5.468   5.003
 8872SOL    HW227516   0.262   5.322   5.071
 8873SOL     OW27517   1.735   1.328   2.519
 8873SOL    HW127518   1.701   1.421   2.534
 8873SOL    HW227519   1.834   1.326   2.536
 8874SOL     OW27520   3.640   6.485   0.686
 8874SOL    HW127521   3.702   6.407   0.694
 8874SOL    HW227522   3.571   6.465   0.617
 8875SOL     OW27523   6.748   3.149   3.587
 8875SOL    HW127524   6.667   3.094   3.567
 8875SOL    HW227525   6.799   3.108   3.662
 8876SOL     OW27526   3.624   1.070   6.594
 8876SOL    HW127527   3.691   1.145   6.594
 8876SOL    HW227528   3.591   1.055   6.687
 8877SOL     OW27529   1.627   3.931   1.280
 8877SOL    HW127530   1.586   3.883   1.202
 8877SOL    HW227531   1.699   3.992   1.247
 8878SOL     OW27532   5.028   3.793   0.861
 8878SOL    HW127533   4.958   3.788   0.790
 8878SOL    HW227534   5.006   3.867   0.924
 8879SOL     OW27535   5.639   4.856   2.943
 8879SOL    HW127536   5.730   4.895   2.960
 8879SOL    HW227537   5.636   4.763   2.978
 8880SOL     OW27538   4.259   0.560   4.182
 8880SOL    HW127539   4.330   0.492   4.166
 8880SOL    HW227540   4.182   0.518   4.230
 8881SOL     OW27541   4.224   4.775   4.720
 8881SOL    HW127542   4.189   4.821   4.802
 8881SOL    HW227543   4.315   4.738   4.740
 8882SOL     OW27544   4.488   0.382   0.559
 8882SOL    HW127545   4.429   0.396   0.638
 8882SOL    HW227546   4.531   0.469   0.534
 8883SOL     OW27547   6.541   6.350   4.651
 8883SOL    HW127548   6.492   6.265   4.631
 8883SOL    HW227549   6.487   6.405   4.714
 8884SOL     OW27550   5.234   3.473   5.095
 8884SOL    HW127551   5.185   3.393   5.127
 8884SOL    HW227552   5.171   3.550   5.088
 8885SOL     OW27553   6.610   5.837   0.498
 8885SOL    HW127554   6.555   5.920   0.490
 8885SOL    HW227555   6.601   5.799   0.590
 8886SOL     OW27556   4.118   5.398   6.117
 8886SOL    HW127557   4.117   5.298   6.106
 8886SOL    HW227558   4.052   5.424   6.188
 8887SOL     OW27559   4.913   1.141   1.255
 8887SOL    HW127560   4.995   1.112   1.304
 8887SOL    HW227561   4.939   1.194   1.175
 8888SOL     OW27562   2.487   1.871   3.170
 8888SOL    HW127563   2.565   1.890   3.111
 8888SOL    HW227564   2.481   1.941   3.242
 8889SOL     OW27565   0.341   5.942   6.758
 8889SOL    HW127566   0.275   5.947   6.684
 8889SOL    HW227567   0.428   5.906   6.723
 8890SOL     OW27568   0.252   6.482   0.566
 8890SOL    HW127569   0.272   6.580   0.558
 8890SOL    HW227570   0.288   6.448   0.653
 8891SOL     OW27571   5.939   3.725   6.819
 8891SOL    HW127572   5.949   3.806   6.876
 8891SOL    HW227573   5.932   3.643   6.877
 8892SOL     OW27574   3.328   5.179   3.774
 8892SOL    HW127575   3.399   5.217   3.715
 8892SOL    HW227576   3.285   5.252   3.827
 8893SOL     OW27577   1.310   5.192   4.631
 8893SOL    HW127578   1.314   5.163   4.727
 8893SOL    HW227579   1.295   5.290   4.627
 8894SOL     OW27580   4.514   1.746   0.329
 8894SOL    HW127581   4.582   1.675   0.312
 8894SOL    HW227582   4.423   1.705   0.330
 8895SOL     OW27583   6.936   3.798   1.098
 8895SOL    HW127584   6.866   3.733   1.128
 8895SOL    HW227585   7.016   3.747   1.064
 8896SOL     OW27586   0.434   2.690   4.909
 8896SOL    HW127587   0.402   2.650   4.823
 8896SOL    HW227588   0.361   2.686   4.977
 8897SOL     OW27589   2.145   3.768   3.588
 8897SOL    HW127590   2.171   3.848   3.533
 8897SOL    HW227591   2.120   3.798   3.680
 8898SOL     OW27592   4.776   4.123   2.693
 8898SOL    HW127593   4.827   4.038   2.677
 8898SOL    HW227594   4.774   4.177   2.609
 8899SOL     OW27595   0.990   3.780   5.074
 8899SOL    HW127596   0.992   3.868   5.123
 8899SOL    HW227597   1.019   3.707   5.136
 8900SOL     OW27598   4.770   2.221   4.024
 8900SOL    HW127599   4.845   2.169   3.984
 8900SOL    HW227600   4.800   2.260   4.112
 8901SOL     OW27601   1.700   3.267   4.459
 8901SOL    HW127602   1.625   3.209   4.430
 8901SOL    HW227603   1.686   3.296   4.554
 8902SOL     OW27604   0.359   4.475   0.815
 8902SOL    HW127605   0.432   4.425   0.767
 8902SOL    HW227606   0.273   4.461   0.767
 8903SOL     OW27607   1.567   6.585   5.534
 8903SOL    HW127608   1.575   6.488   5.516
 8903SOL    HW227609   1.472   6.614   5.519
 8904SOL     OW27610   0.305   0.555   3.365
 8904SOL    HW127611   0.333   0.616   3.439
 8904SOL    HW227612   0.273   0.468   3.402
 8905SOL     OW27613   1.653   3.699   2.448
 8905SOL    HW127614   1.698   3.701   2.538
 8905SOL    HW227615   1.722   3.709   2.376
 8906SOL     OW27616   6.340   0.228   0.719
 8906SOL    HW127617   6.262   0.263   0.668
 8906SOL    HW227618   6.320   0.136   0.752
 8907SOL     OW27619   3.044   3.214   4.728
 8907SOL    HW127620   3.090   3.289   4.680
 8907SOL    HW227621   2.972   3.176   4.670
 8908SOL     OW27622   1.097   5.361   0.066
 8908SOL    HW127623   1.025   5.312   0.017
 8908SOL    HW227624   1.159   5.295   0.109
 8909SOL     OW27625   2.831   0.432   0.200
 8909SOL    HW127626   2.925   0.452   0.227
 8909SOL    HW227627   2.827   0.420   0.101
 8910SOL     OW27628   2.433   1.331   3.885
 8910SOL    HW127629   2.506   1.393   3.914
 8910SOL    HW227630   2.349   1.382   3.869
 8911SOL     OW27631   4.440   1.981   3.981
 8911SOL    HW127632   4.460   1.945   4.072
 8911SOL    HW227633   4.365   1.929   3.940
 8912SOL     OW27634   3.457   3.886   4.704
 8912SOL    HW127635   3.393   3.961   4.722
 8912SOL    HW227636   3.405   3.804   4.677
 8913SOL     OW27637   5.302   6.619   6.704
 8913SOL    HW127638   5.298   6.608   6.803
 8913SOL    HW227639   5.304   6.716   6.681
 8914SOL     OW27640   4.241   5.533   6.695
 8914SOL    HW127641   4.340   5.529   6.682
 8914SOL    HW227642   4.207   5.621   6.663
 8915SOL     OW27643   1.505   1.375   3.973
 8915SOL    HW127644   1.457   1.462   3.964
 8915SOL    HW227645   1.488   1.337   4.064
 8916SOL     OW27646   4.264   1.030   6.999
 8916SOL    HW127647   4.218   1.050   6.912
 8916SOL    HW227648   4.350   1.080   7.004
 8917SOL     OW27649   5.631   2.060   0.432
 8917SOL    HW127650   5.677   2.080   0.345
 8917SOL    HW227651   5.537   2.094   0.429
 8918SOL     OW27652   0.987   3.830   2.727
 8918SOL    HW127653   1.050   3.890   2.777
 8918SOL    HW227654   0.994   3.737   2.764
 8919SOL     OW27655   6.022   3.801   0.926
 8919SOL    HW127656   6.039   3.885   0.875
 8919SOL    HW227657   6.008   3.726   0.862
 8920SOL     OW27658   6.278   1.711   0.324
 8920SOL    HW127659   6.275   1.792   0.383
 8920SOL    HW227660   6.326   1.733   0.239
 8921SOL     OW27661   1.815   2.647   1.610
 8921SOL    HW127662   1.840   2.650   1.513
 8921SOL    HW227663   1.896   2.626   1.665
 8922SOL     OW27664   3.482   0.063   3.554
 8922SOL    HW127665   3.536   0.082   3.636
 8922SOL    HW227666   3.455   0.149   3.511
 8923SOL     OW27667   1.818   2.183   4.801
 8923SOL    HW127668   1.857   2.222   4.718
 8923SOL    HW227669   1.718   2.192   4.798
 8924SOL     OW27670   5.145   5.591   5.154
 8924SOL    HW127671   5.190   5.606   5.066
 8924SOL    HW227672   5.205   5.620   5.228
 8925SOL     OW27673   1.041   0.298   3.257
 8925SOL    HW127674   1.115   0.332   3.314
 8925SOL    HW227675   1.011   0.209   3.292
 8926SOL     OW27676   5.979   2.677   6.324
 8926SOL    HW127677   6.047   2.748   6.304
 8926SOL    HW227678   5.891   2.703   6.285
 8927SOL     OW27679   0.811   0.914   6.036
 8927SOL    HW127680   0.836   0.895   6.131
 8927SOL    HW227681   0.743   0.986   6.032
 8928SOL     OW27682   2.115   6.318   5.160
 8928SOL    HW127683   2.170   6.288   5.082
 8928SOL    HW227684   2.023   6.343   5.128
 8929SOL     OW27685   6.448   2.843   4.788
 8929SOL    HW127686   6.385   2.770   4.763
 8929SOL    HW227687   6.395   2.923   4.818
 8930SOL     OW27688   1.564   4.367   3.299
 8930SOL    HW127689   1.659   4.379   3.268
 8930SOL    HW227690   1.542   4.438   3.367
 8931SOL     OW27691   3.832   2.244   1.142
 8931SOL    HW127692   3.874   2.260   1.231
 8931SOL    HW227693   3.874   2.164   1.099
 8932SOL     OW27694   0.124   3.162   3.528
 8932SOL    HW127695   0.164   3.125   3.443
 8932SOL    HW227696   0.089   3.086   3.583
 8933SOL     OW27697   3.398   1.639   5.611
 8933SOL    HW127698   3.333   1.663   5.539
 8933SOL    HW227699   3.485   1.685   5.595
 8934SOL     OW27700   3.104   5.790   3.428
 8934SOL    HW127701   3.045   5.821   3.503
 8934SOL    HW227702   3.110   5.690   3.431
 8935SOL     OW27703   0.008   4.445   0.886
 8935SOL    HW127704   0.047   4.473   0.798
 8935SOL    HW227705   6.972   4.521   0.924
 8936SOL     OW27706   2.124   2.848   0.275
 8936SOL    HW127707   2.221   2.869   0.269
 8936SOL    HW227708   2.112   2.754   0.309
 8937SOL     OW27709   0.631   5.856   5.933
 8937SOL    HW127710   0.560   5.919   5.900
 8937SOL    HW227711   0.698   5.907   5.986
 8938SOL     OW27712   5.951   5.445   1.298
 8938SOL    HW127713   6.019   5.456   1.226
 8938SOL    HW227714   5.899   5.530   1.309
 8939SOL     OW27715   5.514   1.483   4.748
 8939SOL    HW127716   5.444   1.552   4.766
 8939SOL    HW227717   5.575   1.476   4.827
 8940SOL     OW27718   5.887   1.014   3.105
 8940SOL    HW127719   5.969   1.061   3.073
 8940SOL    HW227720   5.901   0.915   3.102
 8941SOL     OW27721   5.306   2.381   6.290
 8941SOL    HW127722   5.215   2.421   6.278
 8941SOL    HW227723   5.376   2.452   6.278
 8942SOL     OW27724   0.708   2.258   5.546
 8942SOL    HW127725   0.628   2.219   5.501
 8942SOL    HW227726   0.764   2.306   5.479
 8943SOL     OW27727   5.226   3.710   1.023
 8943SOL    HW127728   5.234   3.761   1.109
 8943SOL    HW227729   5.141   3.735   0.977
 8944SOL     OW27730   4.293   5.585   0.568
 8944SOL    HW127731   4.281   5.540   0.656
 8944SOL    HW227732   4.268   5.682   0.576
 8945SOL     OW27733   2.677   0.646   4.360
 8945SOL    HW127734   2.580   0.669   4.373
 8945SOL    HW227735   2.726   0.725   4.324
 8946SOL     OW27736   3.306   1.756   4.345
 8946SOL    HW127737   3.368   1.796   4.412
 8946SOL    HW227738   3.230   1.710   4.392
 8947SOL     OW27739   4.139   3.804   5.549
 8947SOL    HW127740   4.163   3.893   5.586
 8947SOL    HW227741   4.091   3.815   5.462
 8948SOL     OW27742   5.935   5.006   3.483
 8948SOL    HW127743   5.964   4.965   3.397
 8948SOL    HW227744   5.843   5.043   3.473
 8949SOL     OW27745   1.874   6.182   0.097
 8949SOL    HW127746   1.912   6.115   0.160
 8949SOL    HW227747   1.831   6.134   0.020
 8950SOL     OW27748   4.362   2.441   4.005
 8950SOL    HW127749   4.329   2.406   3.918
 8950SOL    HW227750   4.435   2.382   4.040
 8951SOL     OW27751   1.659   2.695   5.347
 8951SOL    HW127752   1.690   2.603   5.371
 8951SOL    HW227753   1.588   2.689   5.277
 8952SOL     OW27754   0.253   1.385   2.400
 8952SOL    HW127755   0.201   1.390   2.485
 8952SOL    HW227756   0.208   1.441   2.330
 8953SOL     OW27757   1.693   3.120   6.719
 8953SOL    HW127758   1.616   3.149   6.776
 8953SOL    HW227759   1.667   3.125   6.623
 8954SOL     OW27760   1.789   5.919   6.304
 8954SOL    HW127761   1.746   5.993   6.356
 8954SOL    HW227762   1.803   5.839   6.363
 8955SOL     OW27763   6.317   4.029   3.595
 8955SOL    HW127764   6.253   4.086   3.647
 8955SOL    HW227765   6.407   4.032   3.638
 8956SOL     OW27766   1.061   0.394   6.093
 8956SOL    HW127767   1.120   0.331   6.144
 8956SOL    HW227768   0.992   0.342   6.043
 8957SOL     OW27769   2.943   4.864   2.610
 8957SOL    HW127770   2.965   4.913   2.526
 8957SOL    HW227771   2.896   4.778   2.587
 8958SOL     OW27772   1.660   6.657   4.218
 8958SOL    HW127773   1.674   6.561   4.197
 8958SOL    HW227774   1.746   6.707   4.202
 8959SOL     OW27775   1.749   4.291   0.305
 8959SOL    HW127776   1.695   4.268   0.386
 8959SOL    HW227777   1.782   4.207   0.263
 8960SOL     OW27778   3.835   5.629   1.325
 8960SOL    HW127779   3.915   5.569   1.320
 8960SOL    HW227780   3.864   5.724   1.313
 8961SOL     OW27781   1.185   2.137   3.644
 8961SOL    HW127782   1.131   2.165   3.724
 8961SOL    HW227783   1.184   2.211   3.576
 8962SOL     OW27784   5.700   0.410   3.185
 8962SOL    HW127785   5.713   0.478   3.113
 8962SOL    HW227786   5.743   0.324   3.159
 8963SOL     OW27787   6.219   0.739   4.071
 8963SOL    HW127788   6.188   0.794   3.994
 8963SOL    HW227789   6.141   0.692   4.112
 8964SOL     OW27790   5.045   4.522   2.449
 8964SOL    HW127791   4.985   4.443   2.440
 8964SOL    HW227792   5.140   4.493   2.438
 8965SOL     OW27793   1.693   5.300   2.029
 8965SOL    HW127794   1.724   5.312   1.935
 8965SOL    HW227795   1.607   5.349   2.042
 8966SOL     OW27796   2.120   2.475   5.999
 8966SOL    HW127797   2.219   2.468   6.011
 8966SOL    HW227798   2.093   2.571   5.995
 8967SOL     OW27799   4.433   0.764   0.294
 8967SOL    HW127800   4.368   0.768   0.370
 8967SOL    HW227801   4.413   0.684   0.238
 8968SOL     OW27802   4.786   6.161   1.595
 8968SOL    HW127803   4.807   6.063   1.593
 8968SOL    HW227804   4.719   6.179   1.667
 8969SOL     OW27805   6.601   0.675   4.311
 8969SOL    HW127806   6.645   0.709   4.228
 8969SOL    HW227807   6.508   0.711   4.316
 8970SOL     OW27808   3.512   1.646   1.783
 8970SOL    HW127809   3.417   1.678   1.784
 8970SOL    HW227810   3.570   1.718   1.745
 8971SOL     OW27811   4.172   5.459   2.514
 8971SOL    HW127812   4.234   5.525   2.556
 8971SOL    HW227813   4.122   5.410   2.585
 8972SOL     OW27814   5.410   6.625   5.386
 8972SOL    HW127815   5.481   6.642   5.455
 8972SOL    HW227816   5.355   6.546   5.413
 8973SOL     OW27817   1.507   4.445   0.066
 8973SOL    HW127818   1.542   4.374   0.004
 8973SOL    HW227819   1.446   4.506   0.016
 8974SOL     OW27820   0.705   3.624   5.136
 8974SOL    HW127821   0.658   3.597   5.052
 8974SOL    HW227822   0.778   3.559   5.156
 8975SOL     OW27823   3.167   6.809   0.655
 8975SOL    HW127824   3.095   6.813   0.586
 8975SOL    HW227825   3.256   6.819   0.611
 8976SOL     OW27826   1.483   5.584   4.265
 8976SOL    HW127827   1.463   5.584   4.363
 8976SOL    HW227828   1.580   5.565   4.251
 8977SOL     OW27829   6.039   1.641   5.836
 8977SOL    HW127830   5.969   1.702   5.800
 8977SOL    HW227831   6.089   1.686   5.910
 8978SOL     OW27832   5.652   6.889   0.507
 8978SOL    HW127833   5.673   6.856   0.415
 8978SOL    HW227834   5.733   6.934   0.545
 8979SOL     OW27835   1.935   4.136   4.980
 8979SOL    HW127836   1.957   4.147   5.078
 8979SOL    HW227837   1.877   4.056   4.968
 8980SOL     OW27838   3.653   2.873   4.617
 8980SOL    HW127839   3.597   2.837   4.690
 8980SOL    HW227840   3.722   2.806   4.591
 8981SOL     OW27841   3.726   1.399   5.194
 8981SOL    HW127842   3.799   1.459   5.161
 8981SOL    HW227843   3.663   1.451   5.252
 8982SOL     OW27844   3.000   4.372   0.665
 8982SOL    HW127845   2.973   4.462   0.699
 8982SOL    HW227846   2.991   4.304   0.738
 8983SOL     OW27847   4.174   5.547   0.309
 8983SOL    HW127848   4.235   5.566   0.232
 8983SOL    HW227849   4.228   5.516   0.388
 8984SOL     OW27850   2.120   6.009   3.041
 8984SOL    HW127851   2.178   6.013   2.960
 8984SOL    HW227852   2.161   6.064   3.114
 8985SOL     OW27853   4.078   2.675   6.633
 8985SOL    HW127854   4.136   2.724   6.569
 8985SOL    HW227855   4.134   2.629   6.702
 8986SOL     OW27856   3.874   4.812   3.065
 8986SOL    HW127857   3.810   4.830   2.990
 8986SOL    HW227858   3.823   4.805   3.151
 8987SOL     OW27859   5.572   5.905   1.976
 8987SOL    HW127860   5.520   5.820   1.969
 8987SOL    HW227861   5.536   5.960   2.052
 8988SOL     OW27862   0.485   5.414   4.449
 8988SOL    HW127863   0.396   5.389   4.487
 8988SOL    HW227864   0.555   5.355   4.489
 8989SOL     OW27865   4.276   2.831   6.518
 8989SOL    HW127866   4.265   2.907   6.455
 8989SOL    HW227867   4.361   2.783   6.499
 8990SOL     OW27868   0.111   5.069   3.419
 8990SOL    HW127869   0.072   5.160   3.436
 8990SOL    HW227870   0.144   5.065   3.324
 8991SOL     OW27871   1.337   2.291   5.302
 8991SOL    HW127872   1.333   2.383   5.343
 8991SOL    HW227873   1.296   2.225   5.365
 8992SOL     OW27874   6.326   1.980   6.922
 8992SOL    HW127875   6.406   2.032   6.891
 8992SOL    HW227876   6.272   2.037   6.985
 8993SOL     OW27877   4.391   2.455   6.495
 8993SOL    HW127878   4.443   2.509   6.561
 8993SOL    HW227879   4.366   2.513   6.417
 8994SOL     OW27880   1.998   4.609   4.343
 8994SOL    HW127881   2.052   4.659   4.411
 8994SOL    HW227882   2.035   4.626   4.252
 8995SOL     OW27883   0.227   1.575   1.665
 8995SOL    HW127884   0.172   1.658   1.651
 8995SOL    HW227885   0.175   1.510   1.721
 8996SOL     OW27886   5.432   4.167   6.125
 8996SOL    HW127887   5.345   4.214   6.143
 8996SOL    HW227888   5.507   4.225   6.156
 8997SOL     OW27889   5.646   1.195   4.908
 8997SOL    HW127890   5.723   1.221   4.850
 8997SOL    HW227891   5.644   1.096   4.918
 8998SOL     OW27892   6.038   4.474   4.754
 8998SOL    HW127893   5.996   4.489   4.665
 8998SOL    HW227894   6.066   4.378   4.763
 8999SOL     OW27895   5.001   6.754   6.136
 8999SOL    HW127896   4.997   6.800   6.225
 8999SOL    HW227897   4.981   6.819   6.064
 9000SOL     OW27898   2.133   4.287   1.598
 9000SOL    HW127899   2.169   4.204   1.555
 9000SOL    HW227900   2.036   4.296   1.578
 9001SOL     OW27901   0.191   5.007   2.121
 9001SOL    HW127902   0.169   4.918   2.161
 9001SOL    HW227903   0.153   5.012   2.028
 9002SOL     OW27904   1.136   4.323   5.921
 9002SOL    HW127905   1.085   4.261   5.860
 9002SOL    HW227906   1.089   4.328   6.009
 9003SOL     OW27907   5.788   1.579   1.360
 9003SOL    HW127908   5.819   1.532   1.442
 9003SOL    HW227909   5.801   1.677   1.371
 9004SOL     OW27910   4.070   4.618   0.510
 9004SOL    HW127911   3.996   4.666   0.556
 9004SOL    HW227912   4.048   4.520   0.504
 9005SOL     OW27913   5.474   0.987   5.748
 9005SOL    HW127914   5.558   0.936   5.763
 9005SOL    HW227915   5.419   0.985   5.832
 9006SOL     OW27916   3.905   0.086   0.819
 9006SOL    HW127917   3.888   0.180   0.789
 9006SOL    HW227918   3.972   0.043   0.759
 9007SOL     OW27919   2.584   1.540   2.637
 9007SOL    HW127920   2.682   1.555   2.634
 9007SOL    HW227921   2.550   1.558   2.730
 9008SOL     OW27922   0.315   5.777   2.900
 9008SOL    HW127923   0.333   5.825   2.986
 9008SOL    HW227924   0.237   5.716   2.912
 9009SOL     OW27925   4.014   5.593   0.534
 9009SOL    HW127926   4.074   5.646   0.594
 9009SOL    HW227927   4.068   5.554   0.459
 9010SOL     OW27928   1.504   6.703   3.960
 9010SOL    HW127929   1.537   6.701   4.054
 9010SOL    HW227930   1.468   6.612   3.936
 9011SOL     OW27931   4.462   0.550   3.264
 9011SOL    HW127932   4.362   0.543   3.261
 9011SOL    HW227933   4.492   0.556   3.359
 9012SOL     OW27934   2.398   5.583   0.229
 9012SOL    HW127935   2.471   5.561   0.294
 9012SOL    HW227936   2.318   5.615   0.279
 9013SOL     OW27937   1.578   6.376   4.185
 9013SOL    HW127938   1.616   6.298   4.235
 9013SOL    HW227939   1.500   6.413   4.236
 9014SOL     OW27940   6.148   2.403   2.197
 9014SOL    HW127941   6.084   2.445   2.262
 9014SOL    HW227942   6.151   2.456   2.113
 9015SOL     OW27943   5.560   2.135   0.686
 9015SOL    HW127944   5.578   2.223   0.730
 9015SOL    HW227945   5.604   2.133   0.596
 9016SOL     OW27946   5.993   5.356   5.892
 9016SOL    HW127947   5.997   5.447   5.934
 9016SOL    HW227948   6.020   5.363   5.797
 9017SOL     OW27949   3.367   0.554   4.960
 9017SOL    HW127950   3.278   0.592   4.936
 9017SOL    HW227951   3.355   0.477   5.022
 9018SOL     OW27952   4.157   3.031   6.683
 9018SOL    HW127953   4.219   3.042   6.761
 9018SOL    HW227954   4.193   2.961   6.621
 9019SOL     OW27955   0.852   2.531   2.997
 9019SOL    HW127956   0.803   2.457   3.044
 9019SOL    HW227957   0.843   2.615   3.050
 9020SOL     OW27958   6.345   5.780   1.836
 9020SOL    HW127959   6.275   5.734   1.892
 9020SOL    HW227960   6.436   5.754   1.869
 9021SOL     OW27961   0.089   0.589   4.239
 9021SOL    HW127962   0.064   0.685   4.227
 9021SOL    HW227963   0.188   0.579   4.231
 9022SOL     OW27964   4.041   2.432   6.921
 9022SOL    HW127965   4.041   2.373   6.840
 9022SOL    HW227966   3.973   2.399   6.986
 9023SOL     OW27967   4.555   3.272   1.273
 9023SOL    HW127968   4.516   3.180   1.276
 9023SOL    HW227969   4.494   3.333   1.222
 9024SOL     OW27970   1.578   5.069   6.069
 9024SOL    HW127971   1.528   5.141   6.019
 9024SOL    HW227972   1.676   5.081   6.055
 9025SOL     OW27973   0.350   5.689   1.088
 9025SOL    HW127974   0.312   5.599   1.067
 9025SOL    HW227975   0.285   5.739   1.145
 9026SOL     OW27976   3.953   1.782   0.220
 9026SOL    HW127977   4.000   1.821   0.141
 9026SOL    HW227978   4.006   1.802   0.303
 9027SOL     OW27979   0.626   3.543   3.888
 9027SOL    HW127980   0.531   3.561   3.861
 9027SOL    HW227981   0.640   3.445   3.900
 9028SOL     OW27982   3.575   3.903   5.479
 9028SOL    HW127983   3.659   3.884   5.531
 9028SOL    HW227984   3.589   3.876   5.383
 9029SOL     OW27985   4.058   0.085   4.772
 9029SOL    HW127986   4.139   0.027   4.775
 9029SOL    HW227987   4.085   0.180   4.783
 9030SOL     OW27988   2.817   2.299   3.550
 9030SOL    HW127989   2.897   2.246   3.579
 9030SOL    HW227990   2.776   2.344   3.630
 9031SOL     OW27991   4.680   0.169   4.599
 9031SOL    HW127992   4.615   0.241   4.621
 9031SOL    HW227993   4.650   0.122   4.516
 9032SOL     OW27994   4.716   3.569   1.629
 9032SOL    HW127995   4.697   3.481   1.586
 9032SOL    HW227996   4.760   3.555   1.718
 9033SOL     OW27997   1.155   5.584   2.842
 9033SOL    HW127998   1.209   5.522   2.899
 9033SOL    HW227999   1.131   5.665   2.897
 9034SOL     OW28000   3.097   6.283   4.763
 9034SOL    HW128001   3.080   6.184   4.761
 9034SOL    HW228002   3.107   6.317   4.669
 9035SOL     OW28003   1.734   4.860   0.712
 9035SOL    HW128004   1.797   4.867   0.634
 9035SOL    HW228005   1.716   4.951   0.749
 9036SOL     OW28006   1.311   3.759   5.737
 9036SOL    HW128007   1.353   3.781   5.826
 9036SOL    HW228008   1.323   3.662   5.718
 9037SOL     OW28009   0.759   2.305   3.080
 9037SOL    HW128010   0.852   2.269   3.071
 9037SOL    HW228011   0.716   2.265   3.161
 9038SOL     OW28012   4.722   3.258   6.157
 9038SOL    HW128013   4.816   3.227   6.174
 9038SOL    HW228014   4.707   3.269   6.059
 9039SOL     OW28015   2.912   5.129   6.949
 9039SOL    HW128016   2.941   5.123   0.027
 9039SOL    HW228017   2.992   5.123   6.889
 9040SOL     OW28018   1.932   1.951   1.254
 9040SOL    HW128019   1.983   1.941   1.339
 9040SOL    HW228020   1.993   1.934   1.176
 9041SOL     OW28021   0.193   2.466   0.834
 9041SOL    HW128022   0.188   2.406   0.754
 9041SOL    HW228023   0.118   2.531   0.832
 9042SOL     OW28024   3.749   5.778   6.090
 9042SOL    HW128025   3.674   5.745   6.147
 9042SOL    HW228026   3.715   5.852   6.031
 9043SOL     OW28027   3.097   1.300   0.293
 9043SOL    HW128028   3.046   1.246   0.226
 9043SOL    HW228029   3.194   1.283   0.282
 9044SOL     OW28030   0.899   0.281   6.429
 9044SOL    HW128031   0.808   0.238   6.437
 9044SOL    HW228032   0.888   0.378   6.407
 9045SOL     OW28033   4.196   0.491   2.579
 9045SOL    HW128034   4.174   0.454   2.488
 9045SOL    HW228035   4.112   0.518   2.624
 9046SOL     OW28036   3.113   3.851   2.771
 9046SOL    HW128037   3.106   3.865   2.673
 9046SOL    HW228038   3.047   3.782   2.800
 9047SOL     OW28039   1.454   4.197   5.954
 9047SOL    HW128040   1.381   4.143   5.995
 9047SOL    HW228041   1.424   4.229   5.864
 9048SOL     OW28042   6.373   2.441   5.942
 9048SOL    HW128043   6.284   2.423   5.901
 9048SOL    HW228044   6.444   2.394   5.890
 9049SOL     OW28045   3.040   6.419   6.420
 9049SOL    HW128046   2.959   6.457   6.375
 9049SOL    HW228047   3.072   6.339   6.369
 9050SOL     OW28048   0.315   4.171   1.347
 9050SOL    HW128049   0.241   4.204   1.288
 9050SOL    HW228050   0.326   4.234   1.424
 9051SOL     OW28051   2.597   1.958   0.984
 9051SOL    HW128052   2.653   1.875   0.991
 9051SOL    HW228053   2.630   2.026   1.049
 9052SOL     OW28054   1.704   3.094   5.012
 9052SOL    HW128055   1.639   3.170   5.007
 9052SOL    HW228056   1.680   3.033   5.087
 9053SOL     OW28057   1.781   1.729   1.085
 9053SOL    HW128058   1.789   1.786   1.003
 9053SOL    HW228059   1.873   1.707   1.119
 9054SOL     OW28060   2.565   5.732   3.388
 9054SOL    HW128061   2.591   5.825   3.364
 9054SOL    HW228062   2.608   5.667   3.324
 9055SOL     OW28063   0.470   4.149   4.713
 9055SOL    HW128064   0.468   4.230   4.771
 9055SOL    HW228065   0.377   4.126   4.685
 9056SOL     OW28066   6.578   1.826   2.705
 9056SOL    HW128067   6.627   1.744   2.673
 9056SOL    HW228068   6.627   1.908   2.675
 9057SOL     OW28069   4.450   1.187   4.385
 9057SOL    HW128070   4.486   1.118   4.447
 9057SOL    HW228071   4.398   1.143   4.312
 9058SOL     OW28072   1.676   0.720   6.553
 9058SOL    HW128073   1.626   0.646   6.598
 9058SOL    HW228074   1.637   0.738   6.464
 9059SOL     OW28075   1.401   1.813   2.567
 9059SOL    HW128076   1.350   1.895   2.541
 9059SOL    HW228077   1.481   1.839   2.620
 9060SOL     OW28078   5.281   3.195   4.942
 9060SOL    HW128079   5.197   3.166   4.896
 9060SOL    HW228080   5.259   3.224   5.035
 9061SOL     OW28081   5.141   5.406   2.340
 9061SOL    HW128082   5.044   5.415   2.317
 9061SOL    HW228083   5.154   5.328   2.401
 9062SOL     OW28084   1.393   4.854   1.070
 9062SOL    HW128085   1.325   4.897   1.130
 9062SOL    HW228086   1.485   4.867   1.109
 9063SOL     OW28087   3.457   2.056   2.545
 9063SOL    HW128088   3.405   2.042   2.460
 9063SOL    HW228089   3.393   2.066   2.621
 9064SOL     OW28090   6.693   3.128   6.583
 9064SOL    HW128091   6.620   3.188   6.615
 9064SOL    HW228092   6.712   3.059   6.652
 9065SOL     OW28093   2.412   1.050   0.627
 9065SOL    HW128094   2.387   0.954   0.633
 9065SOL    HW228095   2.336   1.103   0.589
 9066SOL     OW28096   4.697   6.853   7.016
 9066SOL    HW128097   4.757   6.860   0.078
 9066SOL    HW228098   4.631   6.929   0.000
 9067SOL     OW28099   1.567   6.920   3.460
 9067SOL    HW128100   1.590   6.927   3.363
 9067SOL    HW228101   1.483   6.973   3.477
 9068SOL     OW28102   1.587   5.339   6.847
 9068SOL    HW128103   1.667   5.392   6.874
 9068SOL    HW228104   1.615   5.263   6.788
 9069SOL     OW28105   1.630   2.627   6.162
 9069SOL    HW128106   1.596   2.713   6.202
 9069SOL    HW228107   1.643   2.639   6.064
 9070SOL     OW28108   1.235   4.701   4.247
 9070SOL    HW128109   1.180   4.664   4.172
 9070SOL    HW228110   1.324   4.656   4.248
 9071SOL     OW28111   6.220   6.783   6.966
 9071SOL    HW128112   6.319   6.771   6.962
 9071SOL    HW228113   6.185   6.805   6.875
 9072SOL     OW28114   6.008   3.953   6.625
 9072SOL    HW128115   5.992   3.889   6.700
 9072SOL    HW228116   5.923   3.969   6.576
 9073SOL     OW28117   1.814   0.620   1.833
 9073SOL    HW128118   1.788   0.693   1.770
 9073SOL    HW228119   1.774   0.637   1.923
 9074SOL     OW28120   1.537   7.016   2.848
 9074SOL    HW128121   1.509   0.095   2.838
 9074SOL    HW228122   1.459   6.957   2.829
 9075SOL     OW28123   6.736   0.908   2.305
 9075SOL    HW128124   6.827   0.873   2.283
 9075SOL    HW228125   6.729   1.004   2.278
 9076SOL     OW28126   6.490   1.072   5.758
 9076SOL    HW128127   6.475   0.974   5.763
 9076SOL    HW228128   6.494   1.110   5.851
 9077SOL     OW28129   6.009   6.515   2.364
 9077SOL    HW128130   6.069   6.536   2.441
 9077SOL    HW228131   5.916   6.546   2.386
 9078SOL     OW28132   3.773   2.858   5.171
 9078SOL    HW128133   3.801   2.892   5.081
 9078SOL    HW228134   3.674   2.844   5.171
 9079SOL     OW28135   3.425   0.265   5.955
 9079SOL    HW128136   3.507   0.243   5.902
 9079SOL    HW228137   3.402   0.188   6.015
 9080SOL     OW28138   5.264   1.929   0.942
 9080SOL    HW128139   5.199   1.856   0.919
 9080SOL    HW228140   5.281   1.929   1.040
 9081SOL     OW28141   5.766   6.301   2.033
 9081SOL    HW128142   5.809   6.212   2.041
 9081SOL    HW228143   5.806   6.351   1.957
 9082SOL     OW28144   3.315   1.291   3.629
 9082SOL    HW128145   3.227   1.306   3.674
 9082SOL    HW228146   3.315   1.200   3.587
 9083SOL     OW28147   4.536   4.789   4.572
 9083SOL    HW128148   4.575   4.715   4.518
 9083SOL    HW228149   4.529   4.760   4.668
 9084SOL     OW28150   2.869   3.697   3.121
 9084SOL    HW128151   2.880   3.612   3.172
 9084SOL    HW228152   2.918   3.771   3.168
 9085SOL     OW28153   1.453   2.066   0.510
 9085SOL    HW128154   1.536   2.114   0.537
 9085SOL    HW228155   1.391   2.060   0.588
 9086SOL     OW28156   0.384   4.355   1.069
 9086SOL    HW128157   0.384   4.371   0.970
 9086SOL    HW228158   0.412   4.261   1.088
 9087SOL     OW28159   5.042   3.604   1.995
 9087SOL    HW128160   5.014   3.538   2.065
 9087SOL    HW228161   5.012   3.696   2.022
 9088SOL     OW28162   4.919   0.362   0.230
 9088SOL    HW128163   4.980   0.380   0.308
 9088SOL    HW228164   4.957   0.405   0.148
 9089SOL     OW28165   4.555   6.990   5.200
 9089SOL    HW128166   4.571   0.029   5.118
 9089SOL    HW228167   4.624   6.917   5.203
 9090SOL     OW28168   5.916   1.611   4.814
 9090SOL    HW128169   5.951   1.696   4.853
 9090SOL    HW228170   5.982   1.537   4.831
 9091SOL     OW28171   3.153   3.503   6.998
 9091SOL    HW128172   3.196   3.416   6.974
 9091SOL    HW228173   3.098   3.491   0.064
 9092SOL     OW28174   0.161   2.161   0.052
 9092SOL    HW128175   0.153   2.226   6.994
 9092SOL    HW228176   0.073   2.153   0.098
 9093SOL     OW28177   1.367   6.117   5.865
 9093SOL    HW128178   1.327   6.193   5.813
 9093SOL    HW228179   1.467   6.123   5.859
 9094SOL     OW28180   0.549   4.111   1.884
 9094SOL    HW128181   0.591   4.022   1.905
 9094SOL    HW228182   0.544   4.123   1.785
 9095SOL     OW28183   5.818   6.281   4.810
 9095SOL    HW128184   5.734   6.227   4.814
 9095SOL    HW228185   5.890   6.226   4.766
 9096SOL     OW28186   6.051   6.100   3.232
 9096SOL    HW128187   6.132   6.105   3.173
 9096SOL    HW228188   5.968   6.100   3.175
 9097SOL     OW28189   1.145   3.030   6.163
 9097SOL    HW128190   1.069   3.006   6.102
 9097SOL    HW228191   1.109   3.046   6.255
 9098SOL     OW28192   1.502   3.898   4.061
 9098SOL    HW128193   1.579   3.910   4.125
 9098SOL    HW228194   1.468   3.804   4.068
 9099SOL     OW28195   2.793   2.954   6.930
 9099SOL    HW128196   2.819   2.921   0.004
 9099SOL    HW228197   2.861   2.923   6.864
 9100SOL     OW28198   0.793   4.866   3.127
 9100SOL    HW128199   0.854   4.791   3.152
 9100SOL    HW228200   0.837   4.924   3.059
 9101SOL     OW28201   1.058   2.795   1.894
 9101SOL    HW128202   1.138   2.845   1.927
 9101SOL    HW228203   1.084   2.702   1.870
 9102SOL     OW28204   4.149   6.287   3.236
 9102SOL    HW128205   4.051   6.297   3.248
 9102SOL    HW228206   4.187   6.235   3.313
 9103SOL     OW28207   6.410   1.641   0.541
 9103SOL    HW128208   6.358   1.618   0.459
 9103SOL    HW228209   6.347   1.674   0.612
 9104SOL     OW28210   5.909   0.939   6.546
 9104SOL    HW128211   6.006   0.962   6.549
 9104SOL    HW228212   5.898   0.839   6.546
 9105SOL     OW28213   2.101   0.233   6.037
 9105SOL    HW128214   2.029   0.249   6.104
 9105SOL    HW228215   2.172   0.303   6.046
 9106SOL     OW28216   1.809   4.125   1.107
 9106SOL    HW128217   1.899   4.168   1.103
 9106SOL    HW228218   1.738   4.195   1.114
 9107SOL     OW28219   2.393   1.157   0.161
 9107SOL    HW128220   2.382   1.256   0.153
 9107SOL    HW228221   2.312   1.111   0.124
 9108SOL     OW28222   5.699   5.255   6.278
 9108SOL    HW128223   5.726   5.179   6.220
 9108SOL    HW228224   5.758   5.258   6.359
 9109SOL     OW28225   5.184   3.328   2.530
 9109SOL    HW128226   5.283   3.314   2.538
 9109SOL    HW228227   5.163   3.423   2.554
 9110SOL     OW28228   1.340   6.005   4.977
 9110SOL    HW128229   1.305   6.096   5.000
 9110SOL    HW228230   1.403   5.974   5.047
 9111SOL     OW28231   4.046   2.837   5.898
 9111SOL    HW128232   4.104   2.773   5.948
 9111SOL    HW228233   4.094   2.924   5.887
 9112SOL     OW28234   1.010   5.321   2.009
 9112SOL    HW128235   1.018   5.415   2.043
 9112SOL    HW228236   0.967   5.321   1.919
 9113SOL     OW28237   5.623   1.421   3.920
 9113SOL    HW128238   5.645   1.516   3.939
 9113SOL    HW228239   5.707   1.370   3.902
 9114SOL     OW28240   1.552   6.202   5.236
 9114SOL    HW128241   1.618   6.273   5.211
 9114SOL    HW228242   1.467   6.217   5.185
 9115SOL     OW28243   5.072   4.248   4.122
 9115SOL    HW128244   5.148   4.273   4.182
 9115SOL    HW228245   5.103   4.183   4.053
 9116SOL     OW28246   1.336   7.001   3.266
 9116SOL    HW128247   1.406   6.948   3.219
 9116SOL    HW228248   1.268   6.939   3.305
 9117SOL     OW28249   3.356   0.135   0.564
 9117SOL    HW128250   3.331   0.125   0.660
 9117SOL    HW228251   3.456   0.140   0.556
 9118SOL     OW28252   6.252   4.648   1.607
 9118SOL    HW128253   6.316   4.602   1.545
 9118SOL    HW228254   6.223   4.583   1.678
 9119SOL     OW28255   3.583   0.284   0.889
 9119SOL    HW128256   3.550   0.373   0.920
 9119SOL    HW228257   3.649   0.248   0.955
 9120SOL     OW28258   5.772   3.624   5.141
 9120SOL    HW128259   5.740   3.643   5.049
 9120SOL    HW228260   5.793   3.526   5.150
 9121SOL     OW28261   3.031   0.533   5.054
 9121SOL    HW128262   2.995   0.478   4.978
 9121SOL    HW228263   3.007   0.629   5.039
 9122SOL     OW28264   1.827   3.690   2.210
 9122SOL    HW128265   1.905   3.710   2.151
 9122SOL    HW228266   1.785   3.604   2.181
 9123SOL     OW28267   0.581   0.052   3.979
 9123SOL    HW128268   0.502   0.034   3.920
 9123SOL    HW228269   0.590   6.997   4.046
 9124SOL     OW28270   2.689   5.457   1.238
 9124SOL    HW128271   2.776   5.441   1.192
 9124SOL    HW228272   2.667   5.554   1.235
 9125SOL     OW28273   4.511   5.925   0.930
 9125SOL    HW128274   4.420   5.958   0.904
 9125SOL    HW228275   4.563   5.904   0.847
 9126SOL     OW28276   3.999   4.699   0.201
 9126SOL    HW128277   3.945   4.617   0.183
 9126SOL    HW228278   4.056   4.686   0.282
 9127SOL     OW28279   6.896   4.653   4.405
 9127SOL    HW128280   6.808   4.701   4.402
 9127SOL    HW228281   6.953   4.693   4.478
 9128SOL     OW28282   5.706   3.582   6.141
 9128SOL    HW128283   5.695   3.679   6.123
 9128SOL    HW228284   5.690   3.563   6.237
 9129SOL     OW28285   1.308   2.738   0.758
 9129SOL    HW128286   1.321   2.639   0.762
 9129SOL    HW228287   1.218   2.762   0.796
 9130SOL     OW28288   2.937   3.975   4.938
 9130SOL    HW128289   2.988   4.025   5.009
 9130SOL    HW228290   2.840   4.000   4.943
 9131SOL     OW28291   4.997   2.648   0.826
 9131SOL    HW128292   4.947   2.583   0.883
 9131SOL    HW228293   4.934   2.694   0.764
 9132SOL     OW28294   6.541   4.345   3.547
 9132SOL    HW128295   6.608   4.344   3.473
 9132SOL    HW228296   6.469   4.411   3.526
 9133SOL     OW28297   4.452   1.088   0.941
 9133SOL    HW128298   4.528   1.146   0.968
 9133SOL    HW228299   4.382   1.144   0.896
 9134SOL     OW28300   4.354   4.896   0.346
 9134SOL    HW128301   4.424   4.908   0.276
 9134SOL    HW228302   4.281   4.963   0.333
 9135SOL     OW28303   6.482   6.714   2.489
 9135SOL    HW128304   6.431   6.774   2.550
 9135SOL    HW228305   6.428   6.632   2.469
 9136SOL     OW28306   6.508   4.538   0.051
 9136SOL    HW128307   6.409   4.552   0.056
 9136SOL    HW228308   6.541   4.504   0.140
 9137SOL     OW28309   5.132   6.164   6.261
 9137SOL    HW128310   5.167   6.097   6.326
 9137SOL    HW228311   5.064   6.222   6.305
 9138SOL     OW28312   3.318   3.179   0.616
 9138SOL    HW128313   3.384   3.129   0.672
 9138SOL    HW228314   3.229   3.133   0.621
 9139SOL     OW28315   6.352   0.383   0.946
 9139SOL    HW128316   6.354   0.328   0.862
 9139SOL    HW228317   6.281   0.348   1.006
 9140SOL     OW28318   1.348   3.991   3.217
 9140SOL    HW128319   1.256   3.970   3.183
 9140SOL    HW228320   1.346   3.994   3.317
 9141SOL     OW28321   6.789   5.960   5.059
 9141SOL    HW128322   6.860   5.894   5.083
 9141SOL    HW228323   6.724   5.967   5.135
 9142SOL     OW28324   1.700   4.322   4.617
 9142SOL    HW128325   1.688   4.388   4.691
 9142SOL    HW228326   1.791   4.281   4.623
 9143SOL     OW28327   6.767   4.285   2.928
 9143SOL    HW128328   6.667   4.278   2.937
 9143SOL    HW228329   6.808   4.194   2.933
 9144SOL     OW28330   2.650   4.825   5.062
 9144SOL    HW128331   2.735   4.773   5.072
 9144SOL    HW228332   2.599   4.789   4.984
 9145SOL     OW28333   1.415   5.854   5.700
 9145SOL    HW128334   1.469   5.791   5.756
 9145SOL    HW228335   1.397   5.937   5.753
 9146SOL     OW28336   5.709   2.951   3.439
 9146SOL    HW128337   5.632   2.919   3.383
 9146SOL    HW228338   5.674   2.987   3.525
 9147SOL     OW28339   4.136   6.918   5.046
 9147SOL    HW128340   4.228   6.928   5.009
 9147SOL    HW228341   4.141   6.893   5.143
 9148SOL     OW28342   5.630   5.934   1.473
 9148SOL    HW128343   5.548   5.884   1.447
 9148SOL    HW228344   5.685   5.878   1.536
 9149SOL     OW28345   0.142   3.541   1.332
 9149SOL    HW128346   0.142   3.573   1.427
 9149SOL    HW228347   0.177   3.614   1.273
 9150SOL     OW28348   2.237   3.129   0.512
 9150SOL    HW128349   2.274   3.045   0.553
 9150SOL    HW228350   2.154   3.108   0.461
 9151SOL     OW28351   1.630   3.448   3.535
 9151SOL    HW128352   1.555   3.503   3.572
 9151SOL    HW228353   1.636   3.462   3.436
 9152SOL     OW28354   1.560   4.187   2.186
 9152SOL    HW128355   1.566   4.203   2.285
 9152SOL    HW228356   1.615   4.107   2.161
 9153SOL     OW28357   0.693   3.626   6.150
 9153SOL    HW128358   0.755   3.696   6.114
 9153SOL    HW228359   0.599   3.651   6.130
 9154SOL     OW28360   5.348   5.079   2.854
 9154SOL    HW128361   5.396   5.009   2.802
 9154SOL    HW228362   5.340   5.162   2.799
 9155SOL     OW28363   1.483   6.646   2.950
 9155SOL    HW128364   1.574   6.610   2.929
 9155SOL    HW228365   1.453   6.705   2.875
 9156SOL     OW28366   6.697   3.962   6.018
 9156SOL    HW128367   6.666   3.882   6.069
 9156SOL    HW228368   6.621   4.026   6.008
 9157SOL     OW28369   1.658   4.131   6.505
 9157SOL    HW128370   1.568   4.176   6.507
 9157SOL    HW228371   1.645   4.032   6.496
 9158SOL     OW28372   6.820   3.859   4.686
 9158SOL    HW128373   6.778   3.926   4.624
 9158SOL    HW228374   6.759   3.843   4.763
 9159SOL     OW28375   2.895   1.488   4.337
 9159SOL    HW128376   2.901   1.547   4.257
 9159SOL    HW228377   2.809   1.507   4.385
 9160SOL     OW28378   0.709   4.372   1.636
 9160SOL    HW128379   0.645   4.298   1.614
 9160SOL    HW228380   0.797   4.332   1.661
 9161SOL     OW28381   6.768   4.100   2.274
 9161SOL    HW128382   6.711   4.163   2.326
 9161SOL    HW228383   6.710   4.042   2.216
 9162SOL     OW28384   4.478   1.999   1.497
 9162SOL    HW128385   4.414   1.932   1.458
 9162SOL    HW228386   4.542   1.952   1.558
 9163SOL     OW28387   2.094   2.445   3.377
 9163SOL    HW128388   2.059   2.538   3.377
 9163SOL    HW228389   2.134   2.424   3.466
 9164SOL     OW28390   2.917   6.395   0.033
 9164SOL    HW128391   2.912   6.376   0.131
 9164SOL    HW228392   2.834   6.441   0.004
 9165SOL     OW28393   5.836   1.857   6.004
 9165SOL    HW128394   5.755   1.908   6.033
 9165SOL    HW228395   5.917   1.915   6.014
 9166SOL     OW28396   5.225   6.281   1.344
 9166SOL    HW128397   5.230   6.292   1.244
 9166SOL    HW228398   5.129   6.266   1.370
 9167SOL     OW28399   1.765   1.180   4.969
 9167SOL    HW128400   1.762   1.272   4.930
 9167SOL    HW228401   1.846   1.170   5.026
 9168SOL     OW28402   6.612   6.114   4.411
 9168SOL    HW128403   6.596   6.058   4.330
 9168SOL    HW228404   6.697   6.086   4.455
 9169SOL     OW28405   6.786   6.290   1.711
 9169SOL    HW128406   6.876   6.284   1.755
 9169SOL    HW228407   6.739   6.203   1.721
 9170SOL     OW28408   1.332   0.890   6.310
 9170SOL    HW128409   1.344   0.793   6.292
 9170SOL    HW228410   1.391   0.943   6.249
 9171SOL     OW28411   3.262   5.213   6.347
 9171SOL    HW128412   3.360   5.196   6.349
 9171SOL    HW228413   3.235   5.265   6.428
 9172SOL     OW28414   4.797   1.751   4.403
 9172SOL    HW128415   4.788   1.727   4.306
 9172SOL    HW228416   4.756   1.680   4.459
 9173SOL     OW28417   5.655   3.615   4.896
 9173SOL    HW128418   5.576   3.672   4.920
 9173SOL    HW228419   5.688   3.641   4.806
 9174SOL     OW28420   6.870   4.865   1.009
 9174SOL    HW128421   6.866   4.807   1.090
 9174SOL    HW228422   6.908   4.813   0.932
 9175SOL     OW28423   2.397   0.123   0.271
 9175SOL    HW128424   2.399   0.120   0.371
 9175SOL    HW228425   2.457   0.196   0.239
 9176SOL     OW28426   1.698   1.682   2.262
 9176SOL    HW128427   1.610   1.665   2.217
 9176SOL    HW228428   1.746   1.755   2.214
 9177SOL     OW28429   0.128   5.202   3.699
 9177SOL    HW128430   0.029   5.191   3.709
 9177SOL    HW228431   0.173   5.114   3.709
 9178SOL     OW28432   2.072   4.853   0.921
 9178SOL    HW128433   2.016   4.833   1.002
 9178SOL    HW228434   2.141   4.921   0.945
 9179SOL     OW28435   3.106   5.542   4.297
 9179SOL    HW128436   3.055   5.486   4.363
 9179SOL    HW228437   3.189   5.577   4.340
 9180SOL     OW28438   0.236   0.984   5.102
 9180SOL    HW128439   0.142   0.985   5.066
 9180SOL    HW228440   0.299   0.964   5.027
 9181SOL     OW28441   2.500   2.104   3.370
 9181SOL    HW128442   2.589   2.122   3.411
 9181SOL    HW228443   2.459   2.024   3.414
 9182SOL     OW28444   0.639   1.753   3.129
 9182SOL    HW128445   0.682   1.688   3.191
 9182SOL    HW228446   0.542   1.761   3.151
 9183SOL     OW28447   1.306   1.835   6.019
 9183SOL    HW128448   1.358   1.791   5.946
 9183SOL    HW228449   1.258   1.915   5.981
 9184SOL     OW28450   3.978   3.438   0.444
 9184SOL    HW128451   4.018   3.384   0.517
 9184SOL    HW228452   3.878   3.440   0.454
 9185SOL     OW28453   1.248   0.681   6.605
 9185SOL    HW128454   1.339   0.639   6.598
 9185SOL    HW228455   1.255   0.778   6.582
 9186SOL     OW28456   5.064   0.894   5.992
 9186SOL    HW128457   5.149   0.912   6.042
 9186SOL    HW228458   5.086   0.863   5.900
 9187SOL     OW28459   5.630   2.435   0.638
 9187SOL    HW128460   5.544   2.480   0.616
 9187SOL    HW228461   5.700   2.463   0.573
 9188SOL     OW28462   1.310   0.113   2.063
 9188SOL    HW128463   1.235   0.176   2.085
 9188SOL    HW228464   1.397   0.154   2.089
 9189SOL     OW28465   4.411   1.213   5.453
 9189SOL    HW128466   4.391   1.127   5.501
 9189SOL    HW228467   4.506   1.212   5.421
 9190SOL     OW28468   5.408   1.895   5.433
 9190SOL    HW128469   5.337   1.829   5.408
 9190SOL    HW228470   5.483   1.891   5.367
 9191SOL     OW28471   5.418   0.253   1.027
 9191SOL    HW128472   5.428   0.350   1.052
 9191SOL    HW228473   5.498   0.224   0.975
 9192SOL     OW28474   4.999   3.668   3.780
 9192SOL    HW128475   4.934   3.740   3.753
 9192SOL    HW228476   4.989   3.590   3.718
 9193SOL     OW28477   3.055   3.151   3.420
 9193SOL    HW128478   3.123   3.222   3.404
 9193SOL    HW228479   2.988   3.151   3.345
 9194SOL     OW28480   4.212   5.786   2.556
 9194SOL    HW128481   4.272   5.736   2.618
 9194SOL    HW228482   4.120   5.791   2.594
 9195SOL     OW28483   6.971   3.121   2.812
 9195SOL    HW128484   6.954   3.172   2.897
 9195SOL    HW228485   6.885   3.081   2.779
 9196SOL     OW28486   5.252   6.491   3.702
 9196SOL    HW128487   5.186   6.450   3.766
 9196SOL    HW228488   5.306   6.559   3.751
 9197SOL     OW28489   3.789   2.896   5.771
 9197SOL    HW128490   3.728   2.950   5.830
 9197SOL    HW228491   3.880   2.891   5.812
 9198SOL     OW28492   5.769   2.376   5.547
 9198SOL    HW128493   5.832   2.443   5.508
 9198SOL    HW228494   5.744   2.403   5.640
 9199SOL     OW28495   1.823   3.402   6.206
 9199SOL    HW128496   1.773   3.315   6.203
 9199SOL    HW228497   1.764   3.476   6.174
 9200SOL     OW28498   5.834   6.266   0.917
 9200SOL    HW128499   5.764   6.267   0.988
 9200SOL    HW228500   5.801   6.311   0.835
 9201SOL     OW28501   1.530   4.133   2.951
 9201SOL    HW128502   1.576   4.051   2.917
 9201SOL    HW228503   1.491   4.115   3.041
 9202SOL     OW28504   3.070   5.539   3.509
 9202SOL    HW128505   3.029   5.537   3.600
 9202SOL    HW228506   3.120   5.454   3.493
 9203SOL     OW28507   4.840   0.713   6.076
 9203SOL    HW128508   4.914   0.682   6.017
 9203SOL    HW228509   4.797   0.794   6.036
 9204SOL     OW28510   5.103   4.157   2.223
 9204SOL    HW128511   5.097   4.251   2.191
 9204SOL    HW228512   5.195   4.121   2.207
 9205SOL     OW28513   4.860   3.086   2.315
 9205SOL    HW128514   4.907   3.000   2.335
 9205SOL    HW228515   4.815   3.079   2.227
 9206SOL     OW28516   0.881   6.722   2.911
 9206SOL    HW128517   0.881   6.765   2.821
 9206SOL    HW228518   0.791   6.682   2.930
 9207SOL     OW28519   4.087   6.411   6.983
 9207SOL    HW128520   4.133   6.399   0.054
 9207SOL    HW228521   4.036   6.496   6.983
 9208SOL     OW28522   4.785   4.385   1.922
 9208SOL    HW128523   4.705   4.351   1.971
 9208SOL    HW228524   4.757   4.424   1.834
 9209SOL     OW28525   3.826   0.099   2.937
 9209SOL    HW128526   3.829   0.108   3.037
 9209SOL    HW228527   3.748   0.149   2.901
 9210SOL     OW28528   1.362   6.883   0.262
 9210SOL    HW128529   1.412   6.875   0.176
 9210SOL    HW228530   1.417   6.845   0.336
 9211SOL     OW28531   4.989   1.507   5.781
 9211SOL    HW128532   5.032   1.569   5.715
 9211SOL    HW228533   4.978   1.554   5.869
 9212SOL     OW28534   5.437   3.764   4.960
 9212SOL    HW128535   5.422   3.785   5.057
 9212SOL    HW228536   5.459   3.849   4.911
 9213SOL     OW28537   6.400   0.067   2.585
 9213SOL    HW128538   6.490   0.086   2.546
 9213SOL    HW228539   6.341   0.029   2.514
 9214SOL     OW28540   2.534   2.480   5.558
 9214SOL    HW128541   2.482   2.410   5.510
 9214SOL    HW228542   2.517   2.569   5.516
 9215SOL     OW28543   0.179   2.802   2.920
 9215SOL    HW128544   0.175   2.861   3.000
 9215SOL    HW228545   0.173   2.859   2.837
 9216SOL     OW28546   2.873   5.825   3.882
 9216SOL    HW128547   2.821   5.904   3.916
 9216SOL    HW228548   2.904   5.770   3.959
 9217SOL     OW28549   4.290   0.750   6.536
 9217SOL    HW128550   4.202   0.702   6.532
 9217SOL    HW228551   4.277   0.846   6.512
 9218SOL     OW28552   5.832   5.727   6.112
 9218SOL    HW128553   5.766   5.733   6.187
 9218SOL    HW228554   5.925   5.738   6.149
 9219SOL     OW28555   3.589   2.330   5.757
 9219SOL    HW128556   3.588   2.388   5.838
 9219SOL    HW228557   3.549   2.381   5.680
 9220SOL     OW28558   0.332   0.054   2.796
 9220SOL    HW128559   0.319   0.036   2.894
 9220SOL    HW228560   0.248   0.095   2.759
 9221SOL     OW28561   2.029   1.619   0.231
 9221SOL    HW128562   1.991   1.554   0.165
 9221SOL    HW228563   2.010   1.713   0.201
 9222SOL     OW28564   1.848   3.112   4.249
 9222SOL    HW128565   1.875   3.189   4.191
 9222SOL    HW228566   1.805   3.147   4.333
 9223SOL     OW28567   0.296   3.117   5.234
 9223SOL    HW128568   0.319   3.117   5.137
 9223SOL    HW228569   0.301   3.024   5.270
 9224SOL     OW28570   2.670   4.602   3.506
 9224SOL    HW128571   2.609   4.609   3.427
 9224SOL    HW228572   2.764   4.622   3.478
 9225SOL     OW28573   5.600   5.790   6.473
 9225SOL    HW128574   5.512   5.785   6.426
 9225SOL    HW228575   5.619   5.885   6.497
 9226SOL     OW28576   0.739   0.679   0.595
 9226SOL    HW128577   0.751   0.581   0.611
 9226SOL    HW228578   0.743   0.698   0.497
 9227SOL     OW28579   2.850   4.293   0.454
 9227SOL    HW128580   2.900   4.246   0.381
 9227SOL    HW228581   2.911   4.308   0.532
 9228SOL     OW28582   3.613   3.559   5.406
 9228SOL    HW128583   3.520   3.529   5.426
 9228SOL    HW228584   3.611   3.634   5.341
 9229SOL     OW28585   6.799   4.980   0.084
 9229SOL    HW128586   6.865   5.042   0.127
 9229SOL    HW228587   6.730   5.033   0.036
 9230SOL     OW28588   4.750   1.625   4.857
 9230SOL    HW128589   4.738   1.552   4.925
 9230SOL    HW228590   4.746   1.714   4.903
 9231SOL     OW28591   6.389   5.989   2.852
 9231SOL    HW128592   6.458   6.049   2.810
 9231SOL    HW228593   6.428   5.946   2.933
 9232SOL     OW28594   1.315   5.234   2.201
 9232SOL    HW128595   1.356   5.201   2.286
 9232SOL    HW228596   1.383   5.284   2.148
 9233SOL     OW28597   0.665   6.596   6.521
 9233SOL    HW128598   0.586   6.538   6.545
 9233SOL    HW228599   0.712   6.623   6.605
 9234SOL     OW28600   2.272   3.992   0.016
 9234SOL    HW128601   2.292   3.904   6.990
 9234SOL    HW228602   2.179   4.020   7.010
 9235SOL     OW28603   1.965   1.762   3.120
 9235SOL    HW128604   2.040   1.761   3.053
 9235SOL    HW228605   1.931   1.855   3.130
 9236SOL     OW28606   1.689   3.170   6.444
 9236SOL    HW128607   1.694   3.166   6.344
 9236SOL    HW228608   1.730   3.256   6.476
 9237SOL     OW28609   5.196   5.060   3.071
 9237SOL    HW128610   5.242   5.064   2.982
 9237SOL    HW228611   5.264   5.064   3.144
 9238SOL     OW28612   1.583   2.920   4.784
 9238SOL    HW128613   1.604   2.911   4.687
 9238SOL    HW228614   1.610   3.011   4.816
 9239SOL     OW28615   1.192   4.488   6.818
 9239SOL    HW128616   1.222   4.395   6.837
 9239SOL    HW228617   1.209   4.511   6.722
 9240SOL     OW28618   4.673   1.485   3.097
 9240SOL    HW128619   4.668   1.533   3.184
 9240SOL    HW228620   4.623   1.537   3.027
 9241SOL     OW28621   5.157   0.566   1.001
 9241SOL    HW128622   5.099   0.487   0.982
 9241SOL    HW228623   5.196   0.557   1.093
 9242SOL     OW28624   1.988   2.547   0.202
 9242SOL    HW128625   2.063   2.516   0.143
 9242SOL    HW228626   1.906   2.494   0.181
 9243SOL     OW28627   1.532   0.380   0.029
 9243SOL    HW128628   1.555   0.473   0.058
 9243SOL    HW228629   1.460   0.343   0.089
 9244SOL     OW28630   3.720   6.774   5.955
 9244SOL    HW128631   3.664   6.809   6.030
 9244SOL    HW228632   3.739   6.847   5.890
 9245SOL     OW28633   1.246   5.006   3.009
 9245SOL    HW128634   1.295   4.936   3.061
 9245SOL    HW228635   1.159   5.026   3.054
 9246SOL     OW28636   5.469   0.370   6.392
 9246SOL    HW128637   5.411   0.293   6.419
 9246SOL    HW228638   5.527   0.343   6.315
 9247SOL     OW28639   4.046   5.439   2.838
 9247SOL    HW128640   4.131   5.431   2.890
 9247SOL    HW228641   3.990   5.511   2.878
 9248SOL     OW28642   2.514   0.626   6.557
 9248SOL    HW128643   2.466   0.710   6.583
 9248SOL    HW228644   2.462   0.579   6.486
 9249SOL     OW28645   3.074   6.218   0.687
 9249SOL    HW128646   3.036   6.307   0.710
 9249SOL    HW228647   3.168   6.229   0.654
 9250SOL     OW28648   0.290   2.848   4.592
 9250SOL    HW128649   0.232   2.822   4.515
 9250SOL    HW228650   0.236   2.899   4.659
 9251SOL     OW28651   2.767   2.292   0.570
 9251SOL    HW128652   2.866   2.301   0.583
 9251SOL    HW228653   2.723   2.269   0.657
 9252SOL     OW28654   5.792   1.767   5.361
 9252SOL    HW128655   5.877   1.717   5.345
 9252SOL    HW228656   5.716   1.702   5.367
 9253SOL     OW28657   1.153   6.228   5.262
 9253SOL    HW128658   1.206   6.275   5.191
 9253SOL    HW228659   1.087   6.291   5.302
 9254SOL     OW28660   0.369   4.907   2.541
 9254SOL    HW128661   0.395   4.813   2.517
 9254SOL    HW228662   0.281   4.907   2.588
 9255SOL     OW28663   6.693   4.524   0.955
 9255SOL    HW128664   6.638   4.459   1.007
 9255SOL    HW228665   6.633   4.590   0.909
 9256SOL     OW28666   2.691   6.116   0.806
 9256SOL    HW128667   2.748   6.197   0.823
 9256SOL    HW228668   2.654   6.122   0.713
 9257SOL     OW28669   6.399   5.647   4.018
 9257SOL    HW128670   6.484   5.647   4.071
 9257SOL    HW228671   6.347   5.565   4.039
 9258SOL     OW28672   3.542   5.227   0.918
 9258SOL    HW128673   3.600   5.307   0.935
 9258SOL    HW228674   3.556   5.159   0.990
 9259SOL     OW28675   1.571   2.161   6.887
 9259SOL    HW128676   1.554   2.219   6.807
 9259SOL    HW228677   1.536   2.069   6.870
 9260SOL     OW28678   5.421   3.594   4.723
 9260SOL    HW128679   5.353   3.521   4.731
 9260SOL    HW228680   5.426   3.645   4.809
 9261SOL     OW28681   3.331   2.349   1.448
 9261SOL    HW128682   3.264   2.314   1.382
 9261SOL    HW228683   3.402   2.401   1.399
 9262SOL     OW28684   6.650   6.145   5.412
 9262SOL    HW128685   6.676   6.241   5.398
 9262SOL    HW228686   6.705   6.106   5.486
 9263SOL     OW28687   2.244   4.494   3.581
 9263SOL    HW128688   2.163   4.462   3.629
 9263SOL    HW228689   2.217   4.559   3.510
 9264SOL     OW28690   5.355   4.362   6.395
 9264SOL    HW128691   5.270   4.342   6.443
 9264SOL    HW228692   5.343   4.442   6.336
 9265SOL     OW28693   5.922   1.607   1.108
 9265SOL    HW128694   5.857   1.664   1.057
 9265SOL    HW228695   5.881   1.579   1.195
 9266SOL     OW28696   1.490   4.555   1.441
 9266SOL    HW128697   1.540   4.493   1.502
 9266SOL    HW228698   1.393   4.531   1.441
 9267SOL     OW28699   6.891   0.452   4.122
 9267SOL    HW128700   6.965   0.501   4.168
 9267SOL    HW228701   6.820   0.429   4.188
 9268SOL     OW28702   0.077   0.341   1.304
 9268SOL    HW128703   0.142   0.414   1.285
 9268SOL    HW228704   0.115   0.278   1.372
 9269SOL     OW28705   2.958   1.097   0.166
 9269SOL    HW128706   2.897   1.037   0.218
 9269SOL    HW228707   2.942   1.084   0.068
 9270SOL     OW28708   2.466   0.255   6.289
 9270SOL    HW128709   2.462   0.294   6.197
 9270SOL    HW228710   2.410   0.173   6.294
 9271SOL     OW28711   1.298   5.803   4.780
 9271SOL    HW128712   1.296   5.868   4.856
 9271SOL    HW228713   1.348   5.844   4.704
 9272SOL     OW28714   6.921   6.608   6.367
 9272SOL    HW128715   6.939   6.567   6.457
 9272SOL    HW228716   6.842   6.563   6.325
 9273SOL     OW28717   5.026   4.186   3.620
 9273SOL    HW128718   4.946   4.188   3.679
 9273SOL    HW228719   5.063   4.093   3.617
 9274SOL     OW28720   0.691   3.016   1.106
 9274SOL    HW128721   0.667   3.074   1.183
 9274SOL    HW228722   0.619   2.948   1.091
 9275SOL     OW28723   6.685   0.898   0.655
 9275SOL    HW128724   6.670   0.819   0.714
 9275SOL    HW228725   6.676   0.982   0.709
 9276SOL     OW28726   2.354   5.266   0.259
 9276SOL    HW128727   2.340   5.190   0.322
 9276SOL    HW228728   2.331   5.352   0.305
 9277SOL     OW28729   5.277   5.293   2.127
 9277SOL    HW128730   5.366   5.259   2.158
 9277SOL    HW228731   5.227   5.332   2.204
 9278SOL     OW28732   1.153   0.031   5.456
 9278SOL    HW128733   1.112   0.087   5.528
 9278SOL    HW228734   1.126   0.066   5.367
 9279SOL     OW28735   3.535   5.595   1.612
 9279SOL    HW128736   3.534   5.503   1.652
 9279SOL    HW228737   3.601   5.651   1.661
 9280SOL     OW28738   1.705   6.490   2.809
 9280SOL    HW128739   1.794   6.466   2.769
 9280SOL    HW228740   1.638   6.420   2.785
 9281SOL     OW28741   2.000   5.301   0.211
 9281SOL    HW128742   1.910   5.282   0.249
 9281SOL    HW228743   2.058   5.341   0.282
 9282SOL     OW28744   3.223   0.164   5.561
 9282SOL    HW128745   3.208   0.222   5.641
 9282SOL    HW228746   3.269   0.217   5.489
 9283SOL     OW28747   4.091   6.450   1.392
 9283SOL    HW128748   4.189   6.467   1.402
 9283SOL    HW228749   4.040   6.526   1.432
 9284SOL     OW28750   4.680   4.050   5.497
 9284SOL    HW128751   4.710   4.005   5.413
 9284SOL    HW228752   4.718   4.002   5.576
 9285SOL     OW28753   0.658   5.214   2.606
 9285SOL    HW128754   0.604   5.265   2.539
 9285SOL    HW228755   0.657   5.262   2.694
 9286SOL     OW28756   4.420   6.749   1.576
 9286SOL    HW128757   4.394   6.689   1.500
 9286SOL    HW228758   4.509   6.791   1.556
 9287SOL     OW28759   3.764   4.123   5.880
 9287SOL    HW128760   3.730   4.204   5.832
 9287SOL    HW228761   3.848   4.092   5.837
 9288SOL     OW28762   3.951   1.733   2.473
 9288SOL    HW128763   3.968   1.677   2.392
 9288SOL    HW228764   3.860   1.713   2.509
 9289SOL     OW28765   4.902   6.752   0.438
 9289SOL    HW128766   4.883   6.794   0.527
 9289SOL    HW228767   4.973   6.682   0.448
 9290SOL     OW28768   5.093   1.265   4.642
 9290SOL    HW128769   5.185   1.247   4.607
 9290SOL    HW228770   5.054   1.344   4.595
 9291SOL     OW28771   1.296   4.072   6.166
 9291SOL    HW128772   1.283   3.996   6.230
 9291SOL    HW228773   1.274   4.158   6.212
 9292SOL     OW28774   1.041   1.417   0.024
 9292SOL    HW128775   0.983   1.421   6.960
 9292SOL    HW228776   1.087   1.329   0.027
 9293SOL     OW28777   4.972   2.425   4.495
 9293SOL    HW128778   5.065   2.446   4.526
 9293SOL    HW228779   4.910   2.497   4.526
 9294SOL     OW28780   4.503   7.017   6.297
 9294SOL    HW128781   4.413   6.999   6.336
 9294SOL    HW228782   4.494   0.028   6.202
 9295SOL     OW28783   0.335   0.881   4.850
 9295SOL    HW128784   0.293   0.953   4.794
 9295SOL    HW228785   0.320   0.792   4.806
 9296SOL     OW28786   2.535   4.944   6.172
 9296SOL    HW128787   2.564   4.933   6.268
 9296SOL    HW228788   2.555   4.859   6.122
 9297SOL     OW28789   6.440   6.048   2.478
 9297SOL    HW128790   6.403   5.963   2.514
 9297SOL    HW228791   6.389   6.075   2.396
 9298SOL     OW28792   1.188   4.403   6.474
 9298SOL    HW128793   1.098   4.437   6.501
 9298SOL    HW228794   1.224   4.460   6.399
 9299SOL     OW28795   2.362   2.745   4.458
 9299SOL    HW128796   2.314   2.658   4.456
 9299SOL    HW228797   2.454   2.731   4.495
 9300SOL     OW28798   1.809   5.947   5.008
 9300SOL    HW128799   1.867   5.976   4.932
 9300SOL    HW228800   1.864   5.938   5.091
 9301SOL     OW28801   0.108   4.356   4.118
 9301SOL    HW128802   0.175   4.399   4.179
 9301SOL    HW228803   0.074   4.424   4.053
 9302SOL     OW28804   1.969   3.706   4.902
 9302SOL    HW128805   1.998   3.747   4.816
 9302SOL    HW228806   1.994   3.766   4.978
 9303SOL     OW28807   2.411   4.593   0.278
 9303SOL    HW128808   2.486   4.658   0.293
 9303SOL    HW228809   2.448   4.503   0.258
 9304SOL     OW28810   4.983   5.532   6.726
 9304SOL    HW128811   4.949   5.564   6.637
 9304SOL    HW228812   5.078   5.560   6.737
 9305SOL     OW28813   1.798   2.093   0.878
 9305SOL    HW128814   1.854   2.094   0.961
 9305SOL    HW228815   1.776   2.186   0.851
 9306SOL     OW28816   6.821   6.468   5.183
 9306SOL    HW128817   6.800   6.443   5.088
 9306SOL    HW228818   6.807   6.566   5.196
 9307SOL     OW28819   1.495   3.424   1.685
 9307SOL    HW128820   1.562   3.352   1.666
 9307SOL    HW228821   1.514   3.503   1.627
 9308SOL     OW28822   2.175   3.135   1.874
 9308SOL    HW128823   2.118   3.205   1.917
 9308SOL    HW228824   2.164   3.049   1.924
 9309SOL     OW28825   4.969   5.258   6.594
 9309SOL    HW128826   4.957   5.346   6.640
 9309SOL    HW228827   4.965   5.270   6.495
 9310SOL     OW28828   5.826   6.145   6.965
 9310SOL    HW128829   5.903   6.193   6.922
 9310SOL    HW228830   5.767   6.212   7.010
 9311SOL     OW28831   4.651   4.084   0.615
 9311SOL    HW128832   4.702   4.037   0.687
 9311SOL    HW228833   4.692   4.064   0.526
 9312SOL     OW28834   0.781   2.728   3.172
 9312SOL    HW128835   0.703   2.791   3.179
 9312SOL    HW228836   0.851   2.755   3.238
 9313SOL     OW28837   0.579   0.806   2.120
 9313SOL    HW128838   0.550   0.893   2.160
 9313SOL    HW228839   0.569   0.733   2.187
 9314SOL     OW28840   5.291   4.164   0.695
 9314SOL    HW128841   5.219   4.216   0.741
 9314SOL    HW228842   5.277   4.066   0.712
 9315SOL     OW28843   4.664   6.803   6.286
 9315SOL    HW128844   4.578   6.844   6.318
 9315SOL    HW228845   4.740   6.861   6.315
 9316SOL     OW28846   5.170   0.966   5.597
 9316SOL    HW128847   5.100   1.038   5.592
 9316SOL    HW228848   5.213   0.956   5.507
 9317SOL     OW28849   3.541   5.958   3.075
 9317SOL    HW128850   3.485   5.882   3.109
 9317SOL    HW228851   3.494   6.003   2.999
 9318SOL     OW28852   4.018   6.846   1.869
 9318SOL    HW128853   4.072   6.844   1.953
 9318SOL    HW228854   3.922   6.830   1.890
 9319SOL     OW28855   3.272   2.589   6.499
 9319SOL    HW128856   3.262   2.553   6.406
 9319SOL    HW228857   3.213   2.538   6.561
 9320SOL     OW28858   6.339   6.346   6.608
 9320SOL    HW128859   6.280   6.425   6.593
 9320SOL    HW228860   6.376   6.349   6.700
 9321SOL     OW28861   0.295   3.166   4.926
 9321SOL    HW128862   0.352   3.089   4.894
 9321SOL    HW228863   0.346   3.251   4.914
 9322SOL     OW28864   6.225   3.498   6.977
 9322SOL    HW128865   6.133   3.536   6.981
 9322SOL    HW228866   6.274   3.539   6.900
 9323SOL     OW28867   0.536   2.047   5.833
 9323SOL    HW128868   0.533   2.145   5.850
 9323SOL    HW228869   0.445   2.007   5.849
 9324SOL     OW28870   0.847   3.986   2.103
 9324SOL    HW128871   0.938   4.008   2.139
 9324SOL    HW228872   0.822   3.893   2.128
 9325SOL     OW28873   0.968   4.258   2.975
 9325SOL    HW128874   0.882   4.221   3.009
 9325SOL    HW228875   1.037   4.256   3.047
 9326SOL     OW28876   4.701   4.026   1.784
 9326SOL    HW128877   4.777   4.091   1.775
 9326SOL    HW228878   4.614   4.076   1.779
 9327SOL     OW28879   3.250   0.895   3.052
 9327SOL    HW128880   3.164   0.885   3.102
 9327SOL    HW228881   3.327   0.870   3.111
 9328SOL     OW28882   2.276   0.476   3.856
 9328SOL    HW128883   2.266   0.454   3.953
 9328SOL    HW228884   2.363   0.522   3.842
 9329SOL     OW28885   0.142   5.456   6.688
 9329SOL    HW128886   0.212   5.512   6.644
 9329SOL    HW228887   0.083   5.513   6.745
 9330SOL     OW28888   6.858   6.269   0.024
 9330SOL    HW128889   6.889   6.229   6.955
 9330SOL    HW228890   6.847   6.368   0.013
 9331SOL     OW28891   2.223   3.108   3.596
 9331SOL    HW128892   2.151   3.175   3.611
 9331SOL    HW228893   2.221   3.077   3.501
 9332SOL     OW28894   5.124   5.984   0.783
 9332SOL    HW128895   5.059   5.908   0.791
 9332SOL    HW228896   5.096   6.059   0.843
 9333SOL     OW28897   3.956   3.611   1.182
 9333SOL    HW128898   3.953   3.515   1.209
 9333SOL    HW228899   3.937   3.619   1.084
 9334SOL     OW28900   6.119   6.255   5.883
 9334SOL    HW128901   6.089   6.162   5.907
 9334SOL    HW228902   6.039   6.314   5.873
 9335SOL     OW28903   0.821   3.441   2.094
 9335SOL    HW128904   0.849   3.353   2.131
 9335SOL    HW228905   0.766   3.427   2.012
 9336SOL     OW28906   5.846   6.777   5.999
 9336SOL    HW128907   5.882   6.838   5.927
 9336SOL    HW228908   5.783   6.711   5.958
 9337SOL     OW28909   2.176   0.757   6.012
 9337SOL    HW128910   2.195   0.806   6.097
 9337SOL    HW228911   2.202   0.661   6.023
 9338SOL     OW28912   5.758   6.574   0.351
 9338SOL    HW128913   5.663   6.582   0.319
 9338SOL    HW228914   5.802   6.497   0.306
 9339SOL     OW28915   6.820   4.016   5.314
 9339SOL    HW128916   6.760   4.094   5.292
 9339SOL    HW228917   6.793   3.937   5.258
 9340SOL     OW28918   3.762   5.064   0.828
 9340SOL    HW128919   3.671   5.101   0.813
 9340SOL    HW228920   3.793   5.089   0.920
 9341SOL     OW28921   5.185   4.807   6.359
 9341SOL    HW128922   5.283   4.792   6.348
 9341SOL    HW228923   5.138   4.782   6.274
 9342SOL     OW28924   3.352   0.184   4.176
 9342SOL    HW128925   3.448   0.207   4.161
 9342SOL    HW228926   3.305   0.175   4.088
 9343SOL     OW28927   4.355   4.309   0.997
 9343SOL    HW128928   4.255   4.313   0.993
 9343SOL    HW228929   4.389   4.258   0.918
 9344SOL     OW28930   6.258   0.034   5.142
 9344SOL    HW128931   6.285   0.100   5.213
 9344SOL    HW228932   6.334   0.022   5.078
 9345SOL     OW28933   0.798   5.243   0.053
 9345SOL    HW128934   0.780   5.339   0.031
 9345SOL    HW228935   0.832   5.235   0.147
 9346SOL     OW28936   5.959   6.501   1.402
 9346SOL    HW128937   5.994   6.563   1.332
 9346SOL    HW228938   6.015   6.418   1.404
 9347SOL     OW28939   3.563   5.796   0.764
 9347SOL    HW128940   3.574   5.861   0.840
 9347SOL    HW228941   3.492   5.830   0.702
 9348SOL     OW28942   2.645   5.815   1.715
 9348SOL    HW128943   2.626   5.914   1.714
 9348SOL    HW228944   2.676   5.786   1.625
 9349SOL     OW28945   6.558   6.353   2.123
 9349SOL    HW128946   6.637   6.396   2.165
 9349SOL    HW228947   6.558   6.255   2.146
 9350SOL     OW28948   6.567   0.455   6.205
 9350SOL    HW128949   6.651   0.501   6.236
 9350SOL    HW228950   6.488   0.496   6.250
 9351SOL     OW28951   3.442   3.039   6.081
 9351SOL    HW128952   3.431   3.125   6.131
 9351SOL    HW228953   3.468   2.966   6.145
 9352SOL     OW28954   3.553   2.485   6.177
 9352SOL    HW128955   3.457   2.481   6.203
 9352SOL    HW228956   3.562   2.536   6.091
 9353SOL     OW28957   0.504   3.717   1.263
 9353SOL    HW128958   0.507   3.815   1.281
 9353SOL    HW228959   0.538   3.667   1.343
 9354SOL     OW28960   5.026   1.839   1.926
 9354SOL    HW128961   5.065   1.751   1.897
 9354SOL    HW228962   4.951   1.864   1.866
 9355SOL     OW28963   5.961   0.711   3.102
 9355SOL    HW128964   6.034   0.676   3.043
 9355SOL    HW228965   5.976   0.682   3.196
 9356SOL     OW28966   4.602   4.601   2.555
 9356SOL    HW128967   4.599   4.582   2.653
 9356SOL    HW228968   4.511   4.585   2.516
 9357SOL     OW28969   3.207   2.779   0.560
 9357SOL    HW128970   3.274   2.796   0.488
 9357SOL    HW228971   3.170   2.866   0.591
 9358SOL     OW28972   5.607   4.558   1.650
 9358SOL    HW128973   5.657   4.471   1.653
 9358SOL    HW228974   5.625   4.610   1.734
 9359SOL     OW28975   5.771   3.991   6.124
 9359SOL    HW128976   5.834   4.010   6.048
 9359SOL    HW228977   5.759   4.074   6.178
 9360SOL     OW28978   1.940   0.372   5.869
 9360SOL    HW128979   1.983   0.311   5.935
 9360SOL    HW228980   2.007   0.438   5.835
 9361SOL     OW28981   3.053   0.585   2.165
 9361SOL    HW128982   3.080   0.546   2.076
 9361SOL    HW228983   2.954   0.587   2.172
 9362SOL     OW28984   2.306   1.659   3.078
 9362SOL    HW128985   2.319   1.607   3.163
 9362SOL    HW228986   2.362   1.741   3.080
 9363SOL     OW28987   2.910   6.025   2.204
 9363SOL    HW128988   2.923   5.958   2.130
 9363SOL    HW228989   2.960   5.995   2.285
 9364SOL     OW28990   5.317   5.085   6.951
 9364SOL    HW128991   5.394   5.107   6.891
 9364SOL    HW228992   5.234   5.073   6.896
 9365SOL     OW28993   2.186   1.299   5.013
 9365SOL    HW128994   2.156   1.344   4.928
 9365SOL    HW228995   2.267   1.344   5.048
 9366SOL     OW28996   3.219   1.602   0.600
 9366SOL    HW128997   3.192   1.635   0.691
 9366SOL    HW228998   3.152   1.535   0.568
 9367SOL     OW28999   6.982   5.874   3.101
 9367SOL    HW129000   7.016   5.834   3.016
 9367SOL    HW229001   0.027   5.850   3.176
 9368SOL     OW29002   3.419   2.873   1.443
 9368SOL    HW129003   3.337   2.929   1.459
 9368SOL    HW229004   3.452   2.889   1.350
 9369SOL     OW29005   0.039   2.431   4.916
 9369SOL    HW129006   6.995   2.496   4.962
 9369SOL    HW229007   7.006   2.346   4.896
 9370SOL     OW29008   6.169   1.050   3.116
 9370SOL    HW129009   6.208   0.978   3.059
 9370SOL    HW229010   6.200   1.139   3.083
 9371SOL     OW29011   0.328   6.740   0.858
 9371SOL    HW129012   0.232   6.740   0.884
 9371SOL    HW229013   0.341   6.800   0.779
 9372SOL     OW29014   6.426   6.677   5.525
 9372SOL    HW129015   6.390   6.746   5.463
 9372SOL    HW229016   6.376   6.591   5.513
 9373SOL     OW29017   4.270   1.399   3.562
 9373SOL    HW129018   4.188   1.341   3.560
 9373SOL    HW229019   4.300   1.411   3.657
 9374SOL     OW29020   5.127   3.918   0.653
 9374SOL    HW129021   5.189   3.864   0.595
 9374SOL    HW229022   5.110   3.867   0.738
 9375SOL     OW29023   0.994   1.177   3.896
 9375SOL    HW129024   0.927   1.176   3.970
 9375SOL    HW229025   1.081   1.214   3.929
 9376SOL     OW29026   1.473   3.436   1.959
 9376SOL    HW129027   1.502   3.434   1.864
 9376SOL    HW229028   1.551   3.416   2.019
 9377SOL     OW29029   6.074   5.719   3.662
 9377SOL    HW129030   6.169   5.705   3.635
 9377SOL    HW229031   6.068   5.722   3.762
 9378SOL     OW29032   3.057   6.716   0.329
 9378SOL    HW129033   2.982   6.678   0.382
 9378SOL    HW229034   3.059   6.674   0.238
 9379SOL     OW29035   5.135   4.863   4.512
 9379SOL    HW129036   5.117   4.957   4.482
 9379SOL    HW229037   5.088   4.799   4.452
 9380SOL     OW29038   6.053   6.829   6.183
 9380SOL    HW129039   5.966   6.803   6.140
 9380SOL    HW229040   6.128   6.777   6.141
 9381SOL     OW29041   2.463   1.246   6.333
 9381SOL    HW129042   2.413   1.318   6.285
 9381SOL    HW229043   2.505   1.283   6.416
 9382SOL     OW29044   4.528   2.380   2.812
 9382SOL    HW129045   4.553   2.426   2.897
 9382SOL    HW229046   4.434   2.346   2.819
 9383SOL     OW29047   4.218   5.932   4.942
 9383SOL    HW129048   4.304   5.983   4.941
 9383SOL    HW229049   4.211   5.882   5.029
 9384SOL     OW29050   4.855   5.875   1.526
 9384SOL    HW129051   4.884   5.865   1.431
 9384SOL    HW229052   4.932   5.859   1.587
 9385SOL     OW29053   3.643   1.169   3.445
 9385SOL    HW129054   3.670   1.207   3.357
 9385SOL    HW229055   3.594   1.238   3.498
 9386SOL     OW29056   3.262   6.634   4.623
 9386SOL    HW129057   3.240   6.723   4.663
 9386SOL    HW229058   3.205   6.563   4.664
 9387SOL     OW29059   3.801   0.098   6.783
 9387SOL    HW129060   3.829   0.018   6.729
 9387SOL    HW229061   3.816   0.181   6.730
 9388SOL     OW29062   6.514   0.406   3.032
 9388SOL    HW129063   6.561   0.436   3.115
 9388SOL    HW229064   6.453   0.479   3.000
 9389SOL     OW29065   2.708   0.794   5.923
 9389SOL    HW129066   2.644   0.751   5.987
 9389SOL    HW229067   2.744   0.724   5.860
 9390SOL     OW29068   3.252   5.206   2.537
 9390SOL    HW129069   3.244   5.178   2.442
 9390SOL    HW229070   3.189   5.283   2.554
 9391SOL     OW29071   0.750   1.008   5.563
 9391SOL    HW129072   0.792   0.971   5.480
 9391SOL    HW229073   0.709   0.933   5.615
 9392SOL     OW29074   1.058   5.753   4.497
 9392SOL    HW129075   1.027   5.670   4.450
 9392SOL    HW229076   1.124   5.801   4.439
 9393SOL     OW29077   3.652   2.235   5.275
 9393SOL    HW129078   3.652   2.164   5.206
 9393SOL    HW229079   3.563   2.280   5.277
 9394SOL     OW29080   6.172   2.665   2.611
 9394SOL    HW129081   6.204   2.620   2.527
 9394SOL    HW229082   6.072   2.663   2.613
 9395SOL     OW29083   2.092   3.334   0.181
 9395SOL    HW129084   2.083   3.255   0.242
 9395SOL    HW229085   2.061   3.308   0.089
 9396SOL     OW29086   6.381   0.216   6.143
 9396SOL    HW129087   6.301   0.262   6.182
 9396SOL    HW229088   6.460   0.276   6.145
 9397SOL     OW29089   2.658   0.540   0.907
 9397SOL    HW129090   2.601   0.616   0.874
 9397SOL    HW229091   2.687   0.559   1.001
 9398SOL     OW29092   2.708   1.528   6.170
 9398SOL    HW129093   2.687   1.544   6.266
 9398SOL    HW229094   2.624   1.537   6.116
 9399SOL     OW29095   6.935   0.452   5.480
 9399SOL    HW129096   6.968   0.490   5.393
 9399SOL    HW229097   6.965   0.511   5.555
 9400SOL     OW29098   5.787   2.787   2.784
 9400SOL    HW129099   5.765   2.806   2.880
 9400SOL    HW229100   5.785   2.873   2.732
 9401SOL     OW29101   3.193   0.250   2.955
 9401SOL    HW129102   3.239   0.225   3.041
 9401SOL    HW229103   3.175   0.168   2.902
 9402SOL     OW29104   2.134   5.262   6.324
 9402SOL    HW129105   2.146   5.345   6.269
 9402SOL    HW229106   2.210   5.199   6.306
 9403SOL     OW29107   5.701   1.209   4.259
 9403SOL    HW129108   5.634   1.196   4.186
 9403SOL    HW229109   5.750   1.295   4.245
 9404SOL     OW29110   1.301   3.998   6.608
 9404SOL    HW129111   1.380   3.938   6.597
 9404SOL    HW229112   1.328   4.081   6.656
 9405SOL     OW29113   5.906   0.083   0.967
 9405SOL    HW129114   5.952   0.014   1.022
 9405SOL    HW229115   5.839   0.131   1.022
 9406SOL     OW29116   0.262   1.690   5.260
 9406SOL    HW129117   0.263   1.689   5.360
 9406SOL    HW229118   0.326   1.622   5.226
 9407SOL     OW29119   3.222   6.073   3.049
 9407SOL    HW129120   3.179   6.030   3.128
 9407SOL    HW229121   3.286   6.144   3.081
 9408SOL     OW29122   3.449   1.831   6.015
 9408SOL    HW129123   3.402   1.755   6.059
 9408SOL    HW229124   3.414   1.841   5.921
 9409SOL     OW29125   5.611   4.208   3.791
 9409SOL    HW129126   5.705   4.211   3.825
 9409SOL    HW229127   5.608   4.249   3.699
 9410SOL     OW29128   4.258   6.592   2.508
 9410SOL    HW129129   4.160   6.606   2.522
 9410SOL    HW229130   4.299   6.676   2.474
 9411SOL     OW29131   4.469   4.957   0.616
 9411SOL    HW129132   4.565   4.929   0.610
 9411SOL    HW229133   4.424   4.942   0.528
 9412SOL     OW29134   6.902   2.533   1.086
 9412SOL    HW129135   6.843   2.452   1.081
 9412SOL    HW229136   6.924   2.563   0.993
 9413SOL     OW29137   3.646   6.011   6.002
 9413SOL    HW129138   3.565   6.068   6.019
 9413SOL    HW229139   3.699   6.052   5.928
 9414SOL     OW29140   2.311   1.828   1.325
 9414SOL    HW129141   2.303   1.852   1.228
 9414SOL    HW229142   2.236   1.870   1.376
 9415SOL     OW29143   2.941   6.948   2.380
 9415SOL    HW129144   2.992   0.006   2.423
 9415SOL    HW229145   2.882   6.985   2.308
 9416SOL     OW29146   0.952   2.475   1.747
 9416SOL    HW129147   0.854   2.491   1.758
 9416SOL    HW229148   0.990   2.544   1.684
 9417SOL     OW29149   2.338   5.766   5.071
 9417SOL    HW129150   2.388   5.771   4.984
 9417SOL    HW229151   2.400   5.735   5.143
 9418SOL     OW29152   3.603   5.449   0.555
 9418SOL    HW129153   3.654   5.461   0.470
 9418SOL    HW229154   3.660   5.479   0.632
 9419SOL     OW29155   3.162   6.598   5.689
 9419SOL    HW129156   3.256   6.627   5.708
 9419SOL    HW229157   3.114   6.672   5.642
 9420SOL     OW29158   0.136   1.552   4.465
 9420SOL    HW129159   0.189   1.631   4.497
 9420SOL    HW229160   0.171   1.469   4.508
 9421SOL     OW29161   1.131   4.679   5.573
 9421SOL    HW129162   1.094   4.670   5.481
 9421SOL    HW229163   1.188   4.761   5.579
 9422SOL     OW29164   4.601   1.197   2.411
 9422SOL    HW129165   4.680   1.154   2.455
 9422SOL    HW229166   4.517   1.162   2.453
 9423SOL     OW29167   3.914   0.810   4.459
 9423SOL    HW129168   3.943   0.878   4.526
 9423SOL    HW229169   3.961   0.826   4.373
 9424SOL     OW29170   2.801   6.133   4.620
 9424SOL    HW129171   2.764   6.207   4.676
 9424SOL    HW229172   2.810   6.164   4.525
 9425SOL     OW29173   1.396   3.037   4.139
 9425SOL    HW129174   1.493   3.039   4.114
 9425SOL    HW229175   1.357   3.128   4.126
 9426SOL     OW29176   3.561   0.027   6.951
 9426SOL    HW129177   3.643   0.021   6.894
 9426SOL    HW229178   3.494   0.087   6.908
 9427SOL     OW29179   2.962   5.381   4.517
 9427SOL    HW129180   2.874   5.338   4.496
 9427SOL    HW229181   2.949   5.452   4.585
 9428SOL     OW29182   4.866   0.184   3.104
 9428SOL    HW129183   4.766   0.189   3.096
 9428SOL    HW229184   4.907   0.250   3.041
 9429SOL     OW29185   0.248   3.725   2.498
 9429SOL    HW129186   0.345   3.752   2.498
 9429SOL    HW229187   0.240   3.630   2.528
 9430SOL     OW29188   6.270   6.426   1.499
 9430SOL    HW129189   6.245   6.521   1.483
 9430SOL    HW229190   6.369   6.416   1.494
 9431SOL     OW29191   6.585   4.318   2.112
 9431SOL    HW129192   6.518   4.357   2.049
 9431SOL    HW229193   6.675   4.358   2.095
 9432SOL     OW29194   6.751   6.465   3.523
 9432SOL    HW129195   6.762   6.407   3.604
 9432SOL    HW229196   6.706   6.550   3.548
 9433SOL     OW29197   3.188   5.257   5.243
 9433SOL    HW129198   3.115   5.312   5.284
 9433SOL    HW229199   3.193   5.276   5.145
 9434SOL     OW29200   5.100   5.204   2.592
 9434SOL    HW129201   5.109   5.147   2.673
 9434SOL    HW229202   5.043   5.158   2.524
 9435SOL     OW29203   1.605   0.593   4.513
 9435SOL    HW129204   1.570   0.501   4.528
 9435SOL    HW229205   1.660   0.621   4.592
 9436SOL     OW29206   2.675   3.167   6.768
 9436SOL    HW129207   2.604   3.212   6.823
 9436SOL    HW229208   2.717   3.093   6.821
 9437SOL     OW29209   1.283   4.681   3.804
 9437SOL    HW129210   1.371   4.677   3.850
 9437SOL    HW229211   1.236   4.766   3.829
 9438SOL     OW29212   1.148   6.408   2.194
 9438SOL    HW129213   1.163   6.365   2.105
 9438SOL    HW229214   1.232   6.452   2.225
 9439SOL     OW29215   0.222   2.725   1.962
 9439SOL    HW129216   0.167   2.709   2.044
 9439SOL    HW229217   0.316   2.694   1.978
 9440SOL     OW29218   4.990   6.500   6.073
 9440SOL    HW129219   5.028   6.457   6.155
 9440SOL    HW229220   4.987   6.599   6.085
 9441SOL     OW29221   1.557   4.945   5.602
 9441SOL    HW129222   1.596   4.867   5.553
 9441SOL    HW229223   1.579   5.030   5.553
 9442SOL     OW29224   0.180   3.308   1.193
 9442SOL    HW129225   0.186   3.347   1.101
 9442SOL    HW229226   0.171   3.382   1.260
 9443SOL     OW29227   1.510   3.791   1.926
 9443SOL    HW129228   1.515   3.735   2.009
 9443SOL    HW229229   1.594   3.780   1.873
 9444SOL     OW29230   0.381   3.598   6.948
 9444SOL    HW129231   0.331   3.572   6.865
 9444SOL    HW229232   0.478   3.577   6.937
 9445SOL     OW29233   5.306   3.656   1.408
 9445SOL    HW129234   5.229   3.597   1.386
 9445SOL    HW229235   5.340   3.634   1.500
 9446SOL     OW29236   6.787   5.803   1.475
 9446SOL    HW129237   6.869   5.845   1.515
 9446SOL    HW229238   6.728   5.769   1.548
 9447SOL     OW29239   5.776   3.216   2.226
 9447SOL    HW129240   5.864   3.260   2.242
 9447SOL    HW229241   5.758   3.214   2.128
 9448SOL     OW29242   6.000   6.655   0.440
 9448SOL    HW129243   5.900   6.655   0.439
 9448SOL    HW229244   6.034   6.655   0.345
 9449SOL     OW29245   6.271   5.021   5.514
 9449SOL    HW129246   6.350   4.978   5.469
 9449SOL    HW229247   6.196   4.956   5.519
 9450SOL     OW29248   3.296   4.922   4.371
 9450SOL    HW129249   3.241   4.885   4.446
 9450SOL    HW229250   3.247   4.998   4.328
 9451SOL     OW29251   4.973   5.359   6.043
 9451SOL    HW129252   4.983   5.270   5.999
 9451SOL    HW229253   5.043   5.422   6.009
 9452SOL     OW29254   2.375   4.824   1.710
 9452SOL    HW129255   2.461   4.772   1.709
 9452SOL    HW229256   2.311   4.781   1.774
 9453SOL     OW29257   2.980   5.058   2.796
 9453SOL    HW129258   2.946   5.002   2.721
 9453SOL    HW229259   2.911   5.127   2.819
 9454SOL     OW29260   2.012   3.124   5.364
 9454SOL    HW129261   2.063   3.157   5.285
 9454SOL    HW229262   2.010   3.024   5.362
 9455SOL     OW29263   3.696   1.598   2.306
 9455SOL    HW129264   3.612   1.650   2.291
 9455SOL    HW229265   3.748   1.593   2.221
 9456SOL     OW29266   1.326   3.503   1.246
 9456SOL    HW129267   1.246   3.491   1.305
 9456SOL    HW229268   1.303   3.473   1.153
 9457SOL     OW29269   0.734   3.542   0.824
 9457SOL    HW129270   0.712   3.560   0.728
 9457SOL    HW229271   0.702   3.451   0.849
 9458SOL     OW29272   6.725   5.586   5.578
 9458SOL    HW129273   6.787   5.662   5.557
 9458SOL    HW229274   6.705   5.534   5.495
 9459SOL     OW29275   6.275   5.650   1.611
 9459SOL    HW129276   6.227   5.567   1.640
 9459SOL    HW229277   6.304   5.702   1.692
 9460SOL     OW29278   1.028   2.112   5.169
 9460SOL    HW129279   1.094   2.142   5.238
 9460SOL    HW229280   1.053   2.150   5.080
 9461SOL     OW29281   1.349   0.804   3.813
 9461SOL    HW129282   1.435   0.823   3.766
 9461SOL    HW229283   1.368   0.770   3.905
 9462SOL     OW29284   0.929   3.252   2.468
 9462SOL    HW129285   1.026   3.257   2.495
 9462SOL    HW229286   0.877   3.206   2.540
 9463SOL     OW29287   5.697   1.297   0.357
 9463SOL    HW129288   5.727   1.320   0.449
 9463SOL    HW229289   5.599   1.318   0.348
 9464SOL     OW29290   5.904   0.386   6.014
 9464SOL    HW129291   5.855   0.460   5.967
 9464SOL    HW229292   5.839   0.325   6.058
 9465SOL     OW29293   6.409   0.895   3.912
 9465SOL    HW129294   6.327   0.951   3.928
 9465SOL    HW229295   6.439   0.855   3.999
 9466SOL     OW29296   2.953   2.168   6.474
 9466SOL    HW129297   3.044   2.189   6.437
 9466SOL    HW229298   2.893   2.247   6.461
 9467SOL     OW29299   2.011   3.315   2.025
 9467SOL    HW129300   2.087   3.379   2.020
 9467SOL    HW229301   2.014   3.265   2.111
 9468SOL     OW29302   0.041   3.314   5.623
 9468SOL    HW129303   0.134   3.350   5.635
 9468SOL    HW229304   7.015   3.359   5.545
 9469SOL     OW29305   6.303   4.860   2.212
 9469SOL    HW129306   6.341   4.849   2.120
 9469SOL    HW229307   6.376   4.884   2.276
 9470SOL     OW29308   4.827   3.783   0.694
 9470SOL    HW129309   4.825   3.806   0.596
 9470SOL    HW229310   4.734   3.784   0.730
 9471SOL     OW29311   0.543   1.959   5.544
 9471SOL    HW129312   0.582   1.995   5.629
 9471SOL    HW229313   0.537   2.032   5.477
 9472SOL     OW29314   6.341   4.490   4.198
 9472SOL    HW129315   6.381   4.415   4.144
 9472SOL    HW229316   6.395   4.503   4.281
 9473SOL     OW29317   2.883   5.474   6.182
 9473SOL    HW129318   2.810   5.419   6.223
 9473SOL    HW229319   2.955   5.413   6.149
 9474SOL     OW29320   4.178   4.913   2.046
 9474SOL    HW129321   4.170   4.934   1.949
 9474SOL    HW229322   4.203   4.996   2.096
 9475SOL     OW29323   2.424   3.451   1.428
 9475SOL    HW129324   2.451   3.536   1.474
 9475SOL    HW229325   2.490   3.430   1.356
 9476SOL     OW29326   3.653   3.535   5.674
 9476SOL    HW129327   3.648   3.536   5.574
 9476SOL    HW229328   3.748   3.520   5.703
 9477SOL     OW29329   1.181   2.654   1.565
 9477SOL    HW129330   1.204   2.713   1.487
 9477SOL    HW229331   1.253   2.587   1.578
 9478SOL     OW29332   5.794   4.555   5.570
 9478SOL    HW129333   5.828   4.604   5.650
 9478SOL    HW229334   5.802   4.613   5.489
 9479SOL     OW29335   6.159   6.052   6.326
 9479SOL    HW129336   6.257   6.062   6.344
 9479SOL    HW229337   6.107   6.103   6.395
 9480SOL     OW29338   5.804   4.714   7.007
 9480SOL    HW129339   5.742   4.771   6.953
 9480SOL    HW229340   5.770   4.620   7.008
 9481SOL     OW29341   0.124   3.847   2.164
 9481SOL    HW129342   0.061   3.806   2.230
 9481SOL    HW229343   0.169   3.776   2.111
 9482SOL     OW29344   4.706   0.933   1.907
 9482SOL    HW129345   4.714   0.982   1.994
 9482SOL    HW229346   4.635   0.862   1.915
 9483SOL     OW29347   1.634   1.810   6.343
 9483SOL    HW129348   1.661   1.775   6.253
 9483SOL    HW229349   1.594   1.736   6.397
 9484SOL     OW29350   6.742   1.455   3.889
 9484SOL    HW129351   6.652   1.488   3.917
 9484SOL    HW229352   6.803   1.533   3.874
 9485SOL     OW29353   0.944   0.441   2.297
 9485SOL    HW129354   0.894   0.458   2.383
 9485SOL    HW229355   0.952   0.527   2.247
 9486SOL     OW29356   3.041   6.157   1.211
 9486SOL    HW129357   2.989   6.084   1.166
 9486SOL    HW229358   3.005   6.172   1.303
 9487SOL     OW29359   3.216   3.346   4.055
 9487SOL    HW129360   3.210   3.427   4.115
 9487SOL    HW229361   3.241   3.375   3.963
 9488SOL     OW29362   1.272   6.602   1.364
 9488SOL    HW129363   1.203   6.646   1.306
 9488SOL    HW229364   1.310   6.670   1.427
 9489SOL     OW29365   4.013   4.942   0.985
 9489SOL    HW129366   3.977   5.002   1.056
 9489SOL    HW229367   4.089   4.987   0.938
 9490SOL     OW29368   5.060   0.983   1.561
 9490SOL    HW129369   5.002   0.999   1.641
 9490SOL    HW229370   5.060   0.886   1.538
 9491SOL     OW29371   5.543   4.630   5.874
 9491SOL    HW129372   5.506   4.640   5.782
 9491SOL    HW229373   5.606   4.553   5.877
 9492SOL     OW29374   3.355   4.180   1.526
 9492SOL    HW129375   3.429   4.207   1.465
 9492SOL    HW229376   3.285   4.131   1.474
 9493SOL     OW29377   4.626   6.093   2.938
 9493SOL    HW129378   4.530   6.100   2.909
 9493SOL    HW229379   4.669   6.182   2.934
 9494SOL     OW29380   4.469   3.306   5.324
 9494SOL    HW129381   4.490   3.402   5.340
 9494SOL    HW229382   4.370   3.291   5.330
 9495SOL     OW29383   5.706   2.510   5.204
 9495SOL    HW129384   5.658   2.426   5.225
 9495SOL    HW229385   5.642   2.578   5.168
 9496SOL     OW29386   5.638   4.161   6.914
 9496SOL    HW129387   5.608   4.180   6.821
 9496SOL    HW229388   5.721   4.213   6.934
 9497SOL     OW29389   5.628   6.045   6.794
 9497SOL    HW129390   5.578   5.983   6.854
 9497SOL    HW229391   5.714   6.071   6.837
 9498SOL     OW29392   3.768   0.110   6.265
 9498SOL    HW129393   3.797   0.167   6.189
 9498SOL    HW229394   3.719   0.030   6.231
 9499SOL     OW29395   3.204   3.954   5.425
 9499SOL    HW129396   3.263   4.035   5.420
 9499SOL    HW229397   3.113   3.981   5.456
 9500SOL     OW29398   5.016   5.912   1.761
 9500SOL    HW129399   4.968   5.835   1.803
 9500SOL    HW229400   5.115   5.898   1.771
 9501SOL     OW29401   3.194   1.315   4.567
 9501SOL    HW129402   3.115   1.301   4.626
 9501SOL    HW229403   3.270   1.260   4.600
 9502SOL     OW29404   5.868   2.666   5.370
 9502SOL    HW129405   5.962   2.642   5.346
 9502SOL    HW229406   5.804   2.615   5.312
 9503SOL     OW29407   1.087   6.854   1.618
 9503SOL    HW129408   1.010   6.808   1.574
 9503SOL    HW229409   1.069   6.863   1.716
 9504SOL     OW29410   0.666   2.610   6.769
 9504SOL    HW129411   0.597   2.570   6.708
 9504SOL    HW229412   0.620   2.650   6.849
 9505SOL     OW29413   5.901   2.730   3.486
 9505SOL    HW129414   5.861   2.819   3.466
 9505SOL    HW229415   5.989   2.721   3.440
 9506SOL     OW29416   6.766   3.837   0.436
 9506SOL    HW129417   6.729   3.913   0.490
 9506SOL    HW229418   6.703   3.815   0.361
 9507SOL     OW29419   1.038   1.560   3.790
 9507SOL    HW129420   1.032   1.546   3.691
 9507SOL    HW229421   1.133   1.549   3.820
 9508SOL     OW29422   6.058   1.881   0.885
 9508SOL    HW129423   6.094   1.812   0.949
 9508SOL    HW229424   5.958   1.877   0.885
 9509SOL     OW29425   2.214   6.292   5.944
 9509SOL    HW129426   2.222   6.238   6.028
 9509SOL    HW229427   2.118   6.295   5.915
 9510SOL     OW29428   6.035   4.664   3.456
 9510SOL    HW129429   6.056   4.709   3.543
 9510SOL    HW229430   6.012   4.733   3.388
 9511SOL     OW29431   0.760   1.446   0.682
 9511SOL    HW129432   0.768   1.402   0.771
 9511SOL    HW229433   0.728   1.540   0.693
 9512SOL     OW29434   0.941   2.347   3.835
 9512SOL    HW129435   0.856   2.297   3.851
 9512SOL    HW229436   1.010   2.315   3.900
 9513SOL     OW29437   2.169   3.898   4.423
 9513SOL    HW129438   2.218   3.983   4.407
 9513SOL    HW229439   2.135   3.861   4.336
 9514SOL     OW29440   1.998   3.166   7.002
 9514SOL    HW129441   1.909   3.124   6.985
 9514SOL    HW229442   2.016   3.235   6.932
 9515SOL     OW29443   1.569   5.773   6.158
 9515SOL    HW129444   1.560   5.816   6.068
 9515SOL    HW229445   1.654   5.804   6.201
 9516SOL     OW29446   5.111   3.706   4.032
 9516SOL    HW129447   5.205   3.677   4.052
 9516SOL    HW229448   5.094   3.695   3.934
 9517SOL     OW29449   0.141   5.695   1.811
 9517SOL    HW129450   0.137   5.704   1.910
 9517SOL    HW229451   0.219   5.638   1.786
 9518SOL     OW29452   0.488   2.370   6.017
 9518SOL    HW129453   0.553   2.365   5.941
 9518SOL    HW229454   0.519   2.436   6.084
 9519SOL     OW29455   3.450   3.804   3.202
 9519SOL    HW129456   3.428   3.770   3.111
 9519SOL    HW229457   3.536   3.762   3.233
 9520SOL     OW29458   6.853   0.314   5.067
 9520SOL    HW129459   6.862   0.215   5.072
 9520SOL    HW229460   6.758   0.339   5.085
 9521SOL     OW29461   3.182   0.479   1.011
 9521SOL    HW129462   3.272   0.514   0.984
 9521SOL    HW229463   3.119   0.555   1.023
 9522SOL     OW29464   3.327   6.015   1.790
 9522SOL    HW129465   3.318   5.982   1.696
 9522SOL    HW229466   3.329   5.936   1.852
 9523SOL     OW29467   2.404   5.255   4.020
 9523SOL    HW129468   2.348   5.320   3.970
 9523SOL    HW229469   2.426   5.177   3.962
 9524SOL     OW29470   1.806   4.091   1.864
 9524SOL    HW129471   1.751   4.174   1.854
 9524SOL    HW229472   1.891   4.101   1.812
 9525SOL     OW29473   2.074   2.832   5.372
 9525SOL    HW129474   2.046   2.849   5.466
 9525SOL    HW229475   2.162   2.876   5.355
 9526SOL     OW29476   5.339   4.522   0.131
 9526SOL    HW129477   5.343   4.483   0.039
 9526SOL    HW229478   5.279   4.467   0.188
 9527SOL     OW29479   3.831   6.542   3.297
 9527SOL    HW129480   3.909   6.586   3.251
 9527SOL    HW229481   3.748   6.595   3.280
 9528SOL     OW29482   5.580   1.842   1.127
 9528SOL    HW129483   5.544   1.759   1.086
 9528SOL    HW229484   5.560   1.920   1.069
 9529SOL     OW29485   6.094   1.668   1.625
 9529SOL    HW129486   6.081   1.577   1.585
 9529SOL    HW229487   6.152   1.722   1.564
 9530SOL     OW29488   0.632   5.675   3.741
 9530SOL    HW129489   0.708   5.734   3.768
 9530SOL    HW229490   0.612   5.688   3.644
 9531SOL     OW29491   3.790   4.863   2.776
 9531SOL    HW129492   3.715   4.826   2.722
 9531SOL    HW229493   3.766   4.955   2.808
 9532SOL     OW29494   5.783   5.124   2.419
 9532SOL    HW129495   5.865   5.150   2.368
 9532SOL    HW229496   5.793   5.030   2.452
 9533SOL     OW29497   2.263   4.741   3.448
 9533SOL    HW129498   2.293   4.835   3.461
 9533SOL    HW229499   2.331   4.691   3.395
 9534SOL     OW29500   5.340   4.558   5.322
 9534SOL    HW129501   5.406   4.603   5.261
 9534SOL    HW229502   5.310   4.472   5.280
 9535SOL     OW29503   0.951   0.876   5.419
 9535SOL    HW129504   1.007   0.837   5.492
 9535SOL    HW229505   0.881   0.811   5.391
 9536SOL     OW29506   3.864   3.887   4.420
 9536SOL    HW129507   3.886   3.913   4.327
 9536SOL    HW229508   3.948   3.867   4.470
 9537SOL     OW29509   1.505   1.055   4.037
 9537SOL    HW129510   1.513   1.096   3.947
 9537SOL    HW229511   1.533   1.121   4.107
 9538SOL     OW29512   3.166   0.682   4.788
 9538SOL    HW129513   3.107   0.622   4.734
 9538SOL    HW229514   3.120   0.769   4.802
 9539SOL     OW29515   3.429   2.892   3.265
 9539SOL    HW129516   3.493   2.948   3.317
 9539SOL    HW229517   3.459   2.796   3.268
 9540SOL     OW29518   4.772   4.907   4.154
 9540SOL    HW129519   4.752   4.812   4.130
 9540SOL    HW229520   4.860   4.933   4.114
 9541SOL     OW29521   1.710   5.682   4.935
 9541SOL    HW129522   1.734   5.776   4.960
 9541SOL    HW229523   1.675   5.634   5.015
 9542SOL     OW29524   5.930   4.552   4.514
 9542SOL    HW129525   5.864   4.627   4.510
 9542SOL    HW229526   6.010   4.576   4.459
 9543SOL     OW29527   2.656   1.082   6.008
 9543SOL    HW129528   2.644   1.145   5.931
 9543SOL    HW229529   2.656   0.988   5.975
 9544SOL     OW29530   5.490   3.244   3.891
 9544SOL    HW129531   5.448   3.209   3.975
 9544SOL    HW229532   5.423   3.242   3.817
 9545SOL     OW29533   1.151   4.686   2.076
 9545SOL    HW129534   1.244   4.691   2.037
 9545SOL    HW229535   1.150   4.621   2.152
 9546SOL     OW29536   2.723   1.628   6.428
 9546SOL    HW129537   2.813   1.669   6.441
 9546SOL    HW229538   2.664   1.653   6.505
 9547SOL     OW29539   3.680   6.004   3.789
 9547SOL    HW129540   3.608   6.037   3.851
 9547SOL    HW229541   3.769   6.026   3.828
 9548SOL     OW29542   1.233   4.711   6.522
 9548SOL    HW129543   1.295   4.640   6.488
 9548SOL    HW229544   1.159   4.724   6.456
 9549SOL     OW29545   4.554   2.257   1.496
 9549SOL    HW129546   4.617   2.286   1.568
 9549SOL    HW229547   4.526   2.163   1.512
 9550SOL     OW29548   5.107   2.982   1.698
 9550SOL    HW129549   5.176   2.967   1.769
 9550SOL    HW229550   5.018   2.950   1.730
 9551SOL     OW29551   6.638   2.168   6.522
 9551SOL    HW129552   6.670   2.074   6.512
 9551SOL    HW229553   6.547   2.176   6.481
 9552SOL     OW29554   2.746   1.097   6.509
 9552SOL    HW129555   2.739   1.190   6.546
 9552SOL    HW229556   2.654   1.059   6.497
 9553SOL     OW29557   5.898   2.062   6.988
 9553SOL    HW129558   5.882   2.026   6.896
 9553SOL    HW229559   5.886   2.162   6.988
 9554SOL     OW29560   1.920   6.789   4.258
 9554SOL    HW129561   1.996   6.772   4.196
 9554SOL    HW229562   1.939   6.749   4.347
 9555SOL     OW29563   6.360   0.519   3.938
 9555SOL    HW129564   6.350   0.602   3.993
 9555SOL    HW229565   6.343   0.438   3.995
 9556SOL     OW29566   2.318   4.064   0.956
 9556SOL    HW129567   2.364   4.121   1.024
 9556SOL    HW229568   2.383   4.036   0.886
 9557SOL     OW29569   4.801   0.534   1.973
 9557SOL    HW129570   4.833   0.502   1.883
 9557SOL    HW229571   4.721   0.481   2.001
 9558SOL     OW29572   5.371   6.562   6.363
 9558SOL    HW129573   5.358   6.480   6.309
 9558SOL    HW229574   5.352   6.643   6.307
 9559SOL     OW29575   2.022   3.692   0.827
 9559SOL    HW129576   2.006   3.740   0.913
 9559SOL    HW229577   2.114   3.712   0.794
 9560SOL     OW29578   3.227   6.865   2.031
 9560SOL    HW129579   3.231   6.767   2.050
 9560SOL    HW229580   3.158   6.882   1.961
 9561SOL     OW29581   1.148   0.959   0.976
 9561SOL    HW129582   1.140   1.028   1.048
 9561SOL    HW229583   1.160   1.006   0.888
 9562SOL     OW29584   2.780   5.266   3.692
 9562SOL    HW129585   2.693   5.286   3.646
 9562SOL    HW229586   2.788   5.322   3.775
 9563SOL     OW29587   1.069   6.306   0.821
 9563SOL    HW129588   1.071   6.397   0.863
 9563SOL    HW229589   1.007   6.247   0.872
 9564SOL     OW29590   1.660   0.013   0.526
 9564SOL    HW129591   1.612   6.964   0.584
 9564SOL    HW229592   1.755   0.020   0.555
 9565SOL     OW29593   3.604   1.288   4.062
 9565SOL    HW129594   3.565   1.249   3.978
 9565SOL    HW229595   3.679   1.230   4.093
 9566SOL     OW29596   2.176   6.614   0.596
 9566SOL    HW129597   2.220   6.552   0.531
 9566SOL    HW229598   2.142   6.694   0.548
 9567SOL     OW29599   6.247   4.655   0.754
 9567SOL    HW129600   6.217   4.714   0.829
 9567SOL    HW229601   6.230   4.701   0.667
 9568SOL     OW29602   4.101   1.859   7.015
 9568SOL    HW129603   4.088   1.904   6.926
 9568SOL    HW229604   4.105   1.760   7.002
 9569SOL     OW29605   5.551   0.256   1.886
 9569SOL    HW129606   5.519   0.339   1.840
 9569SOL    HW229607   5.482   0.226   1.952
 9570SOL     OW29608   6.904   2.887   1.197
 9570SOL    HW129609   6.871   2.916   1.107
 9570SOL    HW229610   6.966   2.956   1.234
 9571SOL     OW29611   2.726   2.450   0.112
 9571SOL    HW129612   2.656   2.521   0.123
 9571SOL    HW229613   2.757   2.450   0.017
 9572SOL     OW29614   2.252   4.126   3.265
 9572SOL    HW129615   2.264   4.101   3.361
 9572SOL    HW229616   2.253   4.044   3.209
 9573SOL     OW29617   6.959   1.185   4.851
 9573SOL    HW129618   6.938   1.161   4.946
 9573SOL    HW229619   6.987   1.280   4.847
 9574SOL     OW29620   3.931   3.026   1.311
 9574SOL    HW129621   3.971   3.110   1.348
 9574SOL    HW229622   3.990   2.949   1.332
 9575SOL     OW29623   5.928   6.566   1.922
 9575SOL    HW129624   5.977   6.646   1.955
 9575SOL    HW229625   5.981   6.520   1.851
 9576SOL     OW29626   1.155   0.927   0.234
 9576SOL    HW129627   1.067   0.944   0.190
 9576SOL    HW229628   1.198   1.013   0.258
 9577SOL     OW29629   6.606   5.726   1.642
 9577SOL    HW129630   6.512   5.757   1.629
 9577SOL    HW229631   6.607   5.629   1.666
 9578SOL     OW29632   1.133   2.483   3.021
 9578SOL    HW129633   1.211   2.497   2.960
 9578SOL    HW229634   1.048   2.489   2.968
 9579SOL     OW29635   5.747   6.566   2.426
 9579SOL    HW129636   5.703   6.655   2.441
 9579SOL    HW229637   5.701   6.518   2.351
 9580SOL     OW29638   4.840   4.648   1.366
 9580SOL    HW129639   4.758   4.665   1.311
 9580SOL    HW229640   4.886   4.566   1.333
 9581SOL     OW29641   6.054   0.608   0.048
 9581SOL    HW129642   5.976   0.632   7.007
 9581SOL    HW229643   6.100   0.692   0.078
 9582SOL     OW29644   3.940   5.559   4.054
 9582SOL    HW129645   3.990   5.576   4.140
 9582SOL    HW229646   3.847   5.530   4.075
 9583SOL     OW29647   3.334   4.707   1.737
 9583SOL    HW129648   3.428   4.715   1.770
 9583SOL    HW229649   3.321   4.619   1.690
 9584SOL     OW29650   1.923   4.201   4.276
 9584SOL    HW129651   1.963   4.198   4.185
 9584SOL    HW229652   1.849   4.268   4.279
 9585SOL     OW29653   5.105   6.119   1.560
 9585SOL    HW129654   5.042   6.196   1.550
 9585SOL    HW229655   5.074   6.060   1.635
 9586SOL     OW29656   4.498   4.946   1.424
 9586SOL    HW129657   4.547   4.868   1.463
 9586SOL    HW229658   4.553   5.029   1.434
 9587SOL     OW29659   2.531   6.343   1.554
 9587SOL    HW129660   2.516   6.265   1.493
 9587SOL    HW229661   2.530   6.428   1.500
 9588SOL     OW29662   6.425   6.296   0.484
 9588SOL    HW129663   6.493   6.335   0.421
 9588SOL    HW229664   6.446   6.200   0.501
 9589SOL     OW29665   1.527   3.864   6.484
 9589SOL    HW129666   1.534   3.775   6.528
 9589SOL    HW229667   1.443   3.868   6.429
 9590SOL     OW29668   5.183   1.496   2.039
 9590SOL    HW129669   5.162   1.490   2.137
 9590SOL    HW229670   5.201   1.404   2.004
 9591SOL     OW29671   3.198   0.041   6.331
 9591SOL    HW129672   3.111   7.011   6.316
 9591SOL    HW229673   3.265   6.994   6.368
 9592SOL     OW29674   2.630   4.145   6.836
 9592SOL    HW129675   2.706   4.207   6.852
 9592SOL    HW229676   2.570   4.144   6.916
 9593SOL     OW29677   1.848   1.492   5.654
 9593SOL    HW129678   1.887   1.581   5.627
 9593SOL    HW229679   1.812   1.498   5.747
 9594SOL     OW29680   1.412   5.905   3.826
 9594SOL    HW129681   1.430   5.819   3.875
 9594SOL    HW229682   1.491   5.929   3.770
 9595SOL     OW29683   0.330   3.064   3.865
 9595SOL    HW129684   0.355   3.127   3.791
 9595SOL    HW229685   0.356   3.103   3.953
 9596SOL     OW29686   0.146   5.803   1.248
 9596SOL    HW129687   0.169   5.892   1.289
 9596SOL    HW229688   0.101   5.746   1.316
 9597SOL     OW29689   1.227   3.989   2.839
 9597SOL    HW129690   1.199   4.074   2.795
 9597SOL    HW229691   1.306   3.950   2.791
 9598SOL     OW29692   1.760   3.677   2.985
 9598SOL    HW129693   1.744   3.763   3.033
 9598SOL    HW229694   1.841   3.633   3.023
 9599SOL     OW29695   3.063   6.911   3.535
 9599SOL    HW129696   3.012   6.957   3.607
 9599SOL    HW229697   3.038   6.814   3.533
 9600SOL     OW29698   3.080   0.723   0.907
 9600SOL    HW129699   3.002   0.737   0.968
 9600SOL    HW229700   3.117   0.811   0.879
 9601SOL     OW29701   6.257   4.689   1.198
 9601SOL    HW129702   6.339   4.745   1.209
 9601SOL    HW229703   6.272   4.599   1.241
 9602SOL     OW29704   4.753   4.296   5.425
 9602SOL    HW129705   4.670   4.352   5.429
 9602SOL    HW229706   4.733   4.204   5.457
 9603SOL     OW29707   5.592   6.915   5.788
 9603SOL    HW129708   5.638   6.985   5.841
 9603SOL    HW229709   5.529   6.958   5.723
 9604SOL     OW29710   5.078   0.635   0.584
 9604SOL    HW129711   5.053   0.546   0.545
 9604SOL    HW229712   5.092   0.626   0.682
 9605SOL     OW29713   6.796   4.721   3.449
 9605SOL    HW129714   6.739   4.797   3.418
 9605SOL    HW229715   6.757   4.681   3.531
 9606SOL     OW29716   1.057   1.279   6.478
 9606SOL    HW129717   1.079   1.261   6.574
 9606SOL    HW229718   0.998   1.359   6.471
 9607SOL     OW29719   3.139   1.879   6.212
 9607SOL    HW129720   3.169   1.898   6.305
 9607SOL    HW229721   3.041   1.896   6.204
 9608SOL     OW29722   6.502   4.307   2.936
 9608SOL    HW129723   6.474   4.398   2.906
 9608SOL    HW229724   6.423   4.256   2.967
 9609SOL     OW29725   3.883   2.489   6.627
 9609SOL    HW129726   3.930   2.411   6.670
 9609SOL    HW229727   3.947   2.565   6.616
 9610SOL     OW29728   2.095   4.326   2.570
 9610SOL    HW129729   2.165   4.261   2.601
 9610SOL    HW229730   2.007   4.279   2.563
 9611SOL     OW29731   1.832   6.381   1.247
 9611SOL    HW129732   1.922   6.337   1.241
 9611SOL    HW229733   1.762   6.314   1.221
 9612SOL     OW29734   0.575   3.262   2.266
 9612SOL    HW129735   0.539   3.342   2.217
 9612SOL    HW229736   0.669   3.244   2.236
 9613SOL     OW29737   6.132   6.001   3.485
 9613SOL    HW129738   6.122   6.020   3.387
 9613SOL    HW229739   6.047   6.023   3.533
 9614SOL     OW29740   4.198   2.186   3.287
 9614SOL    HW129741   4.206   2.261   3.353
 9614SOL    HW229742   4.194   2.099   3.336
 9615SOL     OW29743   2.418   2.416   0.733
 9615SOL    HW129744   2.396   2.380   0.824
 9615SOL    HW229745   2.517   2.410   0.718
 9616SOL     OW29746   3.753   2.669   1.037
 9616SOL    HW129747   3.704   2.710   1.114
 9616SOL    HW229748   3.851   2.675   1.053
 9617SOL     OW29749   2.110   3.010   3.822
 9617SOL    HW129750   2.149   3.055   3.741
 9617SOL    HW229751   2.106   2.912   3.807
 9618SOL     OW29752   3.423   1.102   0.962
 9618SOL    HW129753   3.398   1.197   0.944
 9618SOL    HW229754   3.503   1.077   0.908
 9619SOL     OW29755   1.750   0.671   5.695
 9619SOL    HW129756   1.845   0.646   5.676
 9619SOL    HW229757   1.719   0.738   5.628
 9620SOL     OW29758   4.961   0.250   4.949
 9620SOL    HW129759   4.862   0.249   4.933
 9620SOL    HW229760   4.999   0.336   4.916
 9621SOL     OW29761   1.811   2.695   2.347
 9621SOL    HW129762   1.800   2.678   2.250
 9621SOL    HW229763   1.724   2.723   2.387
 9622SOL     OW29764   5.867   1.272   0.967
 9622SOL    HW129765   5.904   1.358   0.930
 9622SOL    HW229766   5.860   1.279   1.066
 9623SOL     OW29767   3.262   2.878   6.406
 9623SOL    HW129768   3.283   2.781   6.421
 9623SOL    HW229769   3.199   2.887   6.329
 9624SOL     OW29770   5.786   3.333   2.962
 9624SOL    HW129771   5.858   3.292   2.906
 9624SOL    HW229772   5.825   3.405   3.019
 9625SOL     OW29773   5.764   6.109   0.349
 9625SOL    HW129774   5.818   6.060   0.281
 9625SOL    HW229775   5.720   6.044   0.410
 9626SOL     OW29776   4.015   5.184   0.777
 9626SOL    HW129777   4.016   5.269   0.830
 9626SOL    HW229778   3.931   5.133   0.797
 9627SOL     OW29779   0.808   5.977   6.119
 9627SOL    HW129780   0.730   6.015   6.168
 9627SOL    HW229781   0.891   6.027   6.144
 9628SOL     OW29782   4.564   6.255   1.016
 9628SOL    HW129783   4.582   6.193   0.939
 9628SOL    HW229784   4.475   6.234   1.056
 9629SOL     OW29785   2.530   0.539   1.378
 9629SOL    HW129786   2.553   0.552   1.475
 9629SOL    HW229787   2.486   0.451   1.365
 9630SOL     OW29788   6.679   0.872   5.988
 9630SOL    HW129789   6.589   0.908   6.013
 9630SOL    HW229790   6.669   0.798   5.922
 9631SOL     OW29791   6.603   0.091   6.306
 9631SOL    HW129792   6.549   0.090   6.222
 9631SOL    HW229793   6.633   0.184   6.326
 9632SOL     OW29794   1.823   6.232   2.156
 9632SOL    HW129795   1.759   6.160   2.184
 9632SOL    HW229796   1.885   6.196   2.086
 9633SOL     OW29797   5.821   5.541   0.101
 9633SOL    HW129798   5.797   5.625   0.150
 9633SOL    HW229799   5.875   5.482   0.161
 9634SOL     OW29800   1.523   6.327   4.836
 9634SOL    HW129801   1.488   6.348   4.745
 9634SOL    HW229802   1.623   6.333   4.835
 9635SOL     OW29803   2.600   5.523   4.547
 9635SOL    HW129804   2.620   5.427   4.566
 9635SOL    HW229805   2.535   5.557   4.615
 9636SOL     OW29806   3.918   1.580   5.155
 9636SOL    HW129807   3.945   1.621   5.242
 9636SOL    HW229808   3.993   1.524   5.120
 9637SOL     OW29809   1.704   1.967   6.557
 9637SOL    HW129810   1.735   2.060   6.538
 9637SOL    HW229811   1.671   1.926   6.472
 9638SOL     OW29812   6.536   3.386   5.148
 9638SOL    HW129813   6.479   3.454   5.102
 9638SOL    HW229814   6.606   3.353   5.085
 9639SOL     OW29815   4.906   1.379   2.616
 9639SOL    HW129816   4.822   1.331   2.640
 9639SOL    HW229817   4.940   1.430   2.696
 9640SOL     OW29818   2.434   2.648   3.103
 9640SOL    HW129819   2.521   2.611   3.135
 9640SOL    HW229820   2.359   2.592   3.137
 9641SOL     OW29821   5.516   0.179   0.612
 9641SOL    HW129822   5.471   0.123   0.542
 9641SOL    HW229823   5.612   0.193   0.587
 9642SOL     OW29824   3.208   0.356   4.765
 9642SOL    HW129825   3.216   0.373   4.667
 9642SOL    HW229826   3.280   0.407   4.813
 9643SOL     OW29827   5.209   4.602   3.782
 9643SOL    HW129828   5.168   4.559   3.702
 9643SOL    HW229829   5.267   4.678   3.753
 9644SOL     OW29830   1.055   2.811   6.576
 9644SOL    HW129831   1.034   2.867   6.496
 9644SOL    HW229832   0.980   2.747   6.592
 9645SOL     OW29833   2.856   5.172   5.417
 9645SOL    HW129834   2.902   5.255   5.449
 9645SOL    HW229835   2.806   5.130   5.493
 9646SOL     OW29836   4.017   4.851   2.651
 9646SOL    HW129837   4.009   4.901   2.565
 9646SOL    HW229838   3.926   4.844   2.694
 9647SOL     OW29839   6.516   3.534   1.023
 9647SOL    HW129840   6.535   3.462   0.956
 9647SOL    HW229841   6.427   3.519   1.064
 9648SOL     OW29842   4.720   2.664   0.906
 9648SOL    HW129843   4.790   2.735   0.902
 9648SOL    HW229844   4.755   2.586   0.958
 9649SOL     OW29845   2.158   5.705   0.342
 9649SOL    HW129846   2.121   5.735   0.430
 9649SOL    HW229847   2.152   5.780   0.276
 9650SOL     OW29848   6.561   5.731   1.991
 9650SOL    HW129849   6.649   5.734   1.944
 9650SOL    HW229850   6.555   5.648   2.046
 9651SOL     OW29851   0.645   1.450   6.486
 9651SOL    HW129852   0.573   1.433   6.418
 9651SOL    HW229853   0.731   1.470   6.439
 9652SOL     OW29854   0.409   4.962   3.254
 9652SOL    HW129855   0.450   4.932   3.168
 9652SOL    HW229856   0.340   5.032   3.236
 9653SOL     OW29857   5.339   5.238   4.615
 9653SOL    HW129858   5.275   5.234   4.538
 9653SOL    HW229859   5.433   5.232   4.579
 9654SOL     OW29860   2.252   2.747   2.080
 9654SOL    HW129861   2.229   2.655   2.051
 9654SOL    HW229862   2.318   2.787   2.016
 9655SOL     OW29863   6.887   1.441   6.669
 9655SOL    HW129864   6.925   1.361   6.624
 9655SOL    HW229865   6.854   1.506   6.600
 9656SOL     OW29866   3.523   0.418   2.512
 9656SOL    HW129867   3.455   0.346   2.500
 9656SOL    HW229868   3.477   0.506   2.526
 9657SOL     OW29869   6.361   1.023   4.780
 9657SOL    HW129870   6.275   0.991   4.820
 9657SOL    HW229871   6.394   0.955   4.714
 9658SOL     OW29872   6.508   2.678   1.746
 9658SOL    HW129873   6.486   2.584   1.717
 9658SOL    HW229874   6.476   2.742   1.676
 9659SOL     OW29875   0.597   4.474   0.309
 9659SOL    HW129876   0.584   4.406   0.381
 9659SOL    HW229877   0.527   4.545   0.318
 9660SOL     OW29878   0.903   5.172   0.313
 9660SOL    HW129879   0.835   5.224   0.365
 9660SOL    HW229880   0.989   5.169   0.364
 9661SOL     OW29881   4.291   6.664   0.665
 9661SOL    HW129882   4.384   6.627   0.660
 9661SOL    HW229883   4.291   6.746   0.722
 9662SOL     OW29884   6.140   1.393   4.564
 9662SOL    HW129885   6.236   1.368   4.575
 9662SOL    HW229886   6.085   1.353   4.637
 9663SOL     OW29887   2.230   5.122   2.747
 9663SOL    HW129888   2.309   5.123   2.808
 9663SOL    HW229889   2.258   5.152   2.656
 9664SOL     OW29890   3.709   6.608   2.111
 9664SOL    HW129891   3.642   6.569   2.049
 9664SOL    HW229892   3.693   6.574   2.203
 9665SOL     OW29893   5.547   4.443   4.598
 9665SOL    HW129894   5.556   4.527   4.651
 9665SOL    HW229895   5.456   4.404   4.612
 9666SOL     OW29896   5.279   4.303   2.876
 9666SOL    HW129897   5.184   4.271   2.881
 9666SOL    HW229898   5.300   4.358   2.957
 9667SOL     OW29899   4.129   3.696   4.321
 9667SOL    HW129900   4.088   3.641   4.248
 9667SOL    HW229901   4.207   3.747   4.284
 9668SOL     OW29902   0.674   0.850   5.195
 9668SOL    HW129903   0.645   0.940   5.162
 9668SOL    HW229904   0.608   0.781   5.166
 9669SOL     OW29905   1.153   6.316   0.586
 9669SOL    HW129906   1.126   6.411   0.566
 9669SOL    HW229907   1.119   6.290   0.676
 9670SOL     OW29908   5.091   5.060   6.778
 9670SOL    HW129909   5.026   5.124   6.736
 9670SOL    HW229910   5.122   4.995   6.710
 9671SOL     OW29911   6.947   5.738   5.474
 9671SOL    HW129912   0.008   5.675   5.473
 9671SOL    HW229913   6.979   5.832   5.458
 9672SOL     OW29914   0.702   6.341   4.769
 9672SOL    HW129915   0.703   6.265   4.703
 9672SOL    HW229916   0.648   6.416   4.732
 9673SOL     OW29917   3.231   4.106   6.674
 9673SOL    HW129918   3.258   4.202   6.671
 9673SOL    HW229919   3.313   4.049   6.670
 9674SOL     OW29920   3.363   5.939   2.227
 9674SOL    HW129921   3.378   5.943   2.326
 9674SOL    HW229922   3.280   5.990   2.204
 9675SOL     OW29923   6.465   2.585   1.991
 9675SOL    HW129924   6.547   2.538   2.023
 9675SOL    HW229925   6.483   2.628   1.903
 9676SOL     OW29926   0.873   3.715   4.371
 9676SOL    HW129927   0.814   3.792   4.351
 9676SOL    HW229928   0.827   3.630   4.345
 9677SOL     OW29929   1.920   3.100   6.040
 9677SOL    HW129930   2.019   3.094   6.034
 9677SOL    HW229931   1.885   3.156   5.965
 9678SOL     OW29932   3.925   3.778   3.323
 9678SOL    HW129933   3.977   3.698   3.293
 9678SOL    HW229934   3.969   3.819   3.403
 9679SOL     OW29935   1.314   2.595   1.912
 9679SOL    HW129936   1.367   2.522   1.870
 9679SOL    HW229937   1.331   2.681   1.864
 9680SOL     OW29938   6.194   5.730   3.202
 9680SOL    HW129939   6.096   5.731   3.225
 9680SOL    HW229940   6.234   5.820   3.224
 9681SOL     OW29941   2.127   0.967   2.364
 9681SOL    HW129942   2.103   0.986   2.459
 9681SOL    HW229943   2.225   0.947   2.358
 9682SOL     OW29944   5.350   4.740   3.032
 9682SOL    HW129945   5.322   4.722   2.938
 9682SOL    HW229946   5.426   4.805   3.032
 9683SOL     OW29947   4.450   6.716   0.184
 9683SOL    HW129948   4.456   6.804   0.136
 9683SOL    HW229949   4.534   6.700   0.235
 9684SOL     OW29950   1.105   4.081   4.926
 9684SOL    HW129951   1.114   4.118   4.833
 9684SOL    HW229952   1.194   4.080   4.970
 9685SOL     OW29953   1.040   2.774   0.864
 9685SOL    HW129954   1.041   2.830   0.946
 9685SOL    HW229955   0.951   2.782   0.819
 9686SOL     OW29956   6.235   1.065   1.805
 9686SOL    HW129957   6.186   1.074   1.719
 9686SOL    HW229958   6.193   0.993   1.860
 9687SOL     OW29959   2.867   0.025   3.673
 9687SOL    HW129960   2.807   6.998   3.741
 9687SOL    HW229961   2.870   0.123   3.690
 9688SOL     OW29962   0.264   1.248   2.819
 9688SOL    HW129963   0.176   1.295   2.822
 9688SOL    HW229964   0.291   1.221   2.911
 9689SOL     OW29965   2.731   6.414   6.673
 9689SOL    HW129966   2.719   6.512   6.660
 9689SOL    HW229967   2.789   6.377   6.600
 9690SOL     OW29968   6.362   4.999   0.868
 9690SOL    HW129969   6.318   5.059   0.801
 9690SOL    HW229970   6.451   4.969   0.833
 9691SOL     OW29971   1.847   5.556   2.238
 9691SOL    HW129972   1.761   5.558   2.289
 9691SOL    HW229973   1.829   5.539   2.142
 9692SOL     OW29974   2.861   5.333   1.514
 9692SOL    HW129975   2.769   5.337   1.475
 9692SOL    HW229976   2.865   5.391   1.596
 9693SOL     OW29977   6.301   6.284   1.731
 9693SOL    HW129978   6.276   6.328   1.645
 9693SOL    HW229979   6.356   6.346   1.786
 9694SOL     OW29980   1.364   2.571   6.560
 9694SOL    HW129981   1.275   2.538   6.528
 9694SOL    HW229982   1.385   2.531   6.649
 9695SOL     OW29983   6.679   4.673   1.608
 9695SOL    HW129984   6.691   4.578   1.638
 9695SOL    HW229985   6.722   4.735   1.674
 9696SOL     OW29986   3.758   2.938   1.569
 9696SOL    HW129987   3.688   2.973   1.631
 9696SOL    HW229988   3.795   3.013   1.515
 9697SOL     OW29989   0.442   5.275   6.941
 9697SOL    HW129990   0.374   5.210   6.905
 9697SOL    HW229991   0.498   5.230   7.010
 9698SOL     OW29992   5.680   1.966   5.235
 9698SOL    HW129993   5.685   1.911   5.151
 9698SOL    HW229994   5.705   1.909   5.313
 9699SOL     OW29995   1.818   3.558   0.015
 9699SOL    HW129996   1.751   3.612   0.066
 9699SOL    HW229997   1.821   3.466   0.053
 9700SOL     OW29998   3.826   4.188   5.035
 9700SOL    HW129999   3.879   4.153   4.958
 9700SOL    HW230000   3.730   4.160   5.026
 9701SOL     OW30001   4.535   5.447   4.714
 9701SOL    HW130002   4.446   5.471   4.677
 9701SOL    HW230003   4.564   5.517   4.780
 9702SOL     OW30004   4.487   1.374   0.872
 9702SOL    HW130005   4.582   1.403   0.872
 9702SOL    HW230006   4.433   1.438   0.817
 9703SOL     OW30007   2.620   5.588   4.277
 9703SOL    HW130008   2.690   5.658   4.262
 9703SOL    HW230009   2.633   5.546   4.366
 9704SOL     OW30010   3.701   0.085   3.297
 9704SOL    HW130011   3.633   0.080   3.370
 9704SOL    HW230012   3.771   0.153   3.321
 9705SOL     OW30013   3.235   4.626   0.191
 9705SOL    HW130014   3.269   4.719   0.207
 9705SOL    HW230015   3.230   4.577   0.278
 9706SOL     OW30016   5.932   2.803   2.350
 9706SOL    HW130017   5.982   2.793   2.264
 9706SOL    HW230018   5.996   2.829   2.423
 9707SOL     OW30019   2.645   4.985   2.472
 9707SOL    HW130020   2.720   5.045   2.498
 9707SOL    HW230021   2.599   5.022   2.391
 9708SOL     OW30022   2.303   1.504   3.288
 9708SOL    HW130023   2.331   1.518   3.383
 9708SOL    HW230024   2.235   1.432   3.283
 9709SOL     OW30025   1.839   6.534   3.035
 9709SOL    HW130026   1.826   6.459   3.100
 9709SOL    HW230027   1.776   6.523   2.958
 9710SOL     OW30028   0.360   1.139   3.051
 9710SOL    HW130029   0.438   1.169   3.105
 9710SOL    HW230030   0.287   1.108   3.111
 9711SOL     OW30031   1.348   3.695   5.131
 9711SOL    HW130032   1.323   3.772   5.189
 9711SOL    HW230033   1.308   3.708   5.040
 9712SOL     OW30034   5.164   1.668   4.393
 9712SOL    HW130035   5.198   1.644   4.301
 9712SOL    HW230036   5.164   1.768   4.403
 9713SOL     OW30037   6.850   4.863   2.754
 9713SOL    HW130038   6.843   4.941   2.815
 9713SOL    HW230039   6.946   4.837   2.744
 9714SOL     OW30040   2.231   2.468   1.409
 9714SOL    HW130041   2.318   2.445   1.365
 9714SOL    HW230042   2.248   2.511   1.497
 9715SOL     OW30043   5.070   5.753   4.859
 9715SOL    HW130044   5.027   5.724   4.774
 9715SOL    HW230045   5.157   5.704   4.871
 9716SOL     OW30046   4.263   1.794   6.350
 9716SOL    HW130047   4.274   1.706   6.305
 9716SOL    HW230048   4.228   1.780   6.443
 9717SOL     OW30049   6.038   5.736   3.938
 9717SOL    HW130050   5.962   5.713   3.999
 9717SOL    HW230051   6.060   5.833   3.949
 9718SOL     OW30052   3.968   3.279   1.519
 9718SOL    HW130053   4.061   3.246   1.539
 9718SOL    HW230054   3.919   3.294   1.604
 9719SOL     OW30055   0.621   2.085   0.312
 9719SOL    HW130056   0.584   2.106   0.221
 9719SOL    HW230057   0.681   2.005   0.306
 9720SOL     OW30058   0.058   6.886   1.968
 9720SOL    HW130059   0.143   6.864   2.015
 9720SOL    HW230060   0.015   6.966   2.011
 9721SOL     OW30061   6.600   3.958   2.111
 9721SOL    HW130062   6.516   4.003   2.080
 9721SOL    HW230063   6.586   3.859   2.114
 9722SOL     OW30064   0.670   0.599   4.119
 9722SOL    HW130065   0.573   0.589   4.096
 9722SOL    HW230066   0.698   0.522   4.176
 9723SOL     OW30067   0.009   0.964   3.660
 9723SOL    HW130068   0.108   0.951   3.668
 9723SOL    HW230069   6.989   0.896   3.598
 9724SOL     OW30070   3.199   2.354   1.053
 9724SOL    HW130071   3.152   2.269   1.079
 9724SOL    HW230072   3.283   2.332   1.004
 9725SOL     OW30073   4.745   3.274   5.380
 9725SOL    HW130074   4.657   3.306   5.345
 9725SOL    HW230075   4.759   3.179   5.353
 9726SOL     OW30076   4.816   6.575   4.746
 9726SOL    HW130077   4.905   6.567   4.790
 9726SOL    HW230078   4.754   6.504   4.782
 9727SOL     OW30079   1.086   3.181   5.836
 9727SOL    HW130080   1.121   3.270   5.807
 9727SOL    HW230081   1.107   3.112   5.766
 9728SOL     OW30082   2.588   5.622   6.583
 9728SOL    HW130083   2.520   5.681   6.540
 9728SOL    HW230084   2.669   5.617   6.526
 9729SOL     OW30085   2.030   4.971   2.838
 9729SOL    HW130086   2.108   5.025   2.806
 9729SOL    HW230087   2.063   4.897   2.896
 9730SOL     OW30088   6.514   3.213   2.617
 9730SOL    HW130089   6.502   3.116   2.639
 9730SOL    HW230090   6.611   3.234   2.609
 9731SOL     OW30091   3.669   5.098   0.301
 9731SOL    HW130092   3.672   5.181   0.245
 9731SOL    HW230093   3.577   5.088   0.340
 9732SOL     OW30094   6.110   6.045   2.886
 9732SOL    HW130095   6.208   6.027   2.877
 9732SOL    HW230096   6.097   6.134   2.930
 9733SOL     OW30097   4.819   4.802   5.387
 9733SOL    HW130098   4.889   4.785   5.317
 9733SOL    HW230099   4.757   4.724   5.392
 9734SOL     OW30100   5.701   2.265   4.120
 9734SOL    HW130101   5.698   2.334   4.048
 9734SOL    HW230102   5.763   2.192   4.093
 9735SOL     OW30103   1.853   4.328   1.616
 9735SOL    HW130104   1.817   4.350   1.707
 9735SOL    HW230105   1.777   4.307   1.554
 9736SOL     OW30106   4.118   0.807   6.832
 9736SOL    HW130107   4.053   0.780   6.903
 9736SOL    HW230108   4.211   0.783   6.860
 9737SOL     OW30109   4.112   2.190   5.062
 9737SOL    HW130110   4.133   2.285   5.086
 9737SOL    HW230111   4.086   2.185   4.965
 9738SOL     OW30112   1.747   0.929   3.134
 9738SOL    HW130113   1.798   0.858   3.086
 9738SOL    HW230114   1.808   1.005   3.157
 9739SOL     OW30115   5.894   4.958   1.584
 9739SOL    HW130116   5.939   4.988   1.500
 9739SOL    HW230117   5.811   5.013   1.599
 9740SOL     OW30118   6.077   4.807   3.001
 9740SOL    HW130119   6.170   4.834   3.027
 9740SOL    HW230120   6.013   4.880   3.023
 9741SOL     OW30121   4.457   2.203   2.356
 9741SOL    HW130122   4.488   2.298   2.362
 9741SOL    HW230123   4.394   2.184   2.432
 9742SOL     OW30124   5.509   1.049   3.544
 9742SOL    HW130125   5.532   1.134   3.496
 9742SOL    HW230126   5.449   0.994   3.487
 9743SOL     OW30127   1.766   3.288   5.881
 9743SOL    HW130128   1.776   3.213   5.817
 9743SOL    HW230129   1.806   3.371   5.842
 9744SOL     OW30130   1.995   1.033   2.149
 9744SOL    HW130131   1.902   1.004   2.172
 9744SOL    HW230132   2.055   1.021   2.228
 9745SOL     OW30133   0.293   2.440   5.213
 9745SOL    HW130134   0.241   2.513   5.169
 9745SOL    HW230135   0.230   2.366   5.239
 9746SOL     OW30136   6.203   0.666   4.517
 9746SOL    HW130137   6.250   0.703   4.436
 9746SOL    HW230138   6.124   0.613   4.489
 9747SOL     OW30139   0.732   0.165   6.081
 9747SOL    HW130140   0.662   0.111   6.034
 9747SOL    HW230141   0.781   0.222   6.015
 9748SOL     OW30142   1.026   6.211   3.843
 9748SOL    HW130143   1.091   6.136   3.858
 9748SOL    HW230144   0.949   6.202   3.907
 9749SOL     OW30145   0.182   3.965   4.457
 9749SOL    HW130146   0.268   3.921   4.433
 9749SOL    HW230147   0.195   4.022   4.539
 9750SOL     OW30148   4.625   4.822   3.892
 9750SOL    HW130149   4.688   4.756   3.932
 9750SOL    HW230150   4.671   4.873   3.820
 9751SOL     OW30151   1.687   1.867   0.506
 9751SOL    HW130152   1.601   1.919   0.507
 9751SOL    HW230153   1.758   1.921   0.461
 9752SOL     OW30154   4.231   1.094   5.678
 9752SOL    HW130155   4.208   1.049   5.765
 9752SOL    HW230156   4.170   1.061   5.606
 9753SOL     OW30157   6.981   6.032   5.396
 9753SOL    HW130158   6.948   6.099   5.330
 9753SOL    HW230159   0.020   6.078   5.465
 9754SOL     OW30160   1.314   1.655   6.749
 9754SOL    HW130161   1.391   1.705   6.711
 9754SOL    HW230162   1.245   1.642   6.678
 9755SOL     OW30163   3.763   4.610   5.527
 9755SOL    HW130164   3.760   4.578   5.432
 9755SOL    HW230165   3.670   4.623   5.560
 9756SOL     OW30166   6.068   2.455   6.193
 9756SOL    HW130167   6.036   2.544   6.224
 9756SOL    HW230168   6.061   2.389   6.268
 9757SOL     OW30169   6.042   2.216   3.855
 9757SOL    HW130170   6.021   2.313   3.865
 9757SOL    HW230171   6.125   2.194   3.907
 9758SOL     OW30172   2.514   0.482   6.802
 9758SOL    HW130173   2.522   0.501   6.705
 9758SOL    HW230174   2.439   0.536   6.841
 9759SOL     OW30175   2.830   6.345   0.856
 9759SOL    HW130176   2.796   6.434   0.825
 9759SOL    HW230177   2.918   6.358   0.903
 9760SOL     OW30178   6.130   4.311   5.735
 9760SOL    HW130179   6.208   4.355   5.692
 9760SOL    HW230180   6.161   4.239   5.796
 9761SOL     OW30181   5.837   5.591   1.933
 9761SOL    HW130182   5.745   5.561   1.907
 9761SOL    HW230183   5.831   5.663   2.002
 9762SOL     OW30184   2.347   1.992   4.664
 9762SOL    HW130185   2.331   2.063   4.732
 9762SOL    HW230186   2.445   1.977   4.653
 9763SOL     OW30187   2.697   1.666   1.021
 9763SOL    HW130188   2.746   1.588   0.983
 9763SOL    HW230189   2.753   1.710   1.091
 9764SOL     OW30190   0.906   1.731   2.607
 9764SOL    HW130191   0.999   1.709   2.576
 9764SOL    HW230192   0.907   1.754   2.704
 9765SOL     OW30193   1.013   1.837   5.527
 9765SOL    HW130194   1.090   1.816   5.587
 9765SOL    HW230195   0.931   1.853   5.582
 9766SOL     OW30196   3.088   0.406   2.367
 9766SOL    HW130197   3.051   0.424   2.458
 9766SOL    HW230198   3.059   0.478   2.304
 9767SOL     OW30199   5.302   0.458   4.883
 9767SOL    HW130200   5.283   0.448   4.981
 9767SOL    HW230201   5.223   0.501   4.838
 9768SOL     OW30202   4.415   2.009   2.800
 9768SOL    HW130203   4.445   2.104   2.798
 9768SOL    HW230204   4.494   1.950   2.782
 9769SOL     OW30205   0.860   1.779   0.985
 9769SOL    HW130206   0.936   1.742   0.933
 9769SOL    HW230207   0.889   1.799   1.078
 9770SOL     OW30208   5.955   4.694   5.780
 9770SOL    HW130209   5.990   4.727   5.868
 9770SOL    HW230210   5.966   4.595   5.774
 9771SOL     OW30211   4.599   5.319   6.148
 9771SOL    HW130212   4.568   5.287   6.059
 9771SOL    HW230213   4.526   5.370   6.193
 9772SOL     OW30214   6.621   0.705   1.793
 9772SOL    HW130215   6.678   0.652   1.730
 9772SOL    HW230216   6.677   0.741   1.867
 9773SOL     OW30217   6.419   5.418   3.748
 9773SOL    HW130218   6.449   5.395   3.655
 9773SOL    HW230219   6.323   5.393   3.759
 9774SOL     OW30220   6.294   5.066   3.733
 9774SOL    HW130221   6.202   5.027   3.736
 9774SOL    HW230222   6.359   5.001   3.773
 9775SOL     OW30223   1.832   2.627   4.986
 9775SOL    HW130224   1.883   2.692   5.042
 9775SOL    HW230225   1.738   2.621   5.019
 9776SOL     OW30226   0.444   6.305   5.105
 9776SOL    HW130227   0.474   6.370   5.035
 9776SOL    HW230228   0.516   6.238   5.121
 9777SOL     OW30229   5.601   4.414   6.155
 9777SOL    HW130230   5.525   4.474   6.179
 9777SOL    HW230231   5.621   4.424   6.057
 9778SOL     OW30232   4.568   7.016   2.333
 9778SOL    HW130233   4.600   0.003   2.238
 9778SOL    HW230234   4.530   0.088   2.359
 9779SOL     OW30235   2.581   2.135   5.536
 9779SOL    HW130236   2.612   2.040   5.544
 9779SOL    HW230237   2.660   2.195   5.526
 9780SOL     OW30238   3.270   4.539   6.959
 9780SOL    HW130239   3.265   4.596   0.024
 9780SOL    HW230240   3.319   4.589   6.887
 9781SOL     OW30241   1.550   4.800   4.490
 9781SOL    HW130242   1.500   4.795   4.576
 9781SOL    HW230243   1.636   4.751   4.498
 9782SOL     OW30244   6.326   0.425   1.545
 9782SOL    HW130245   6.399   0.478   1.502
 9782SOL    HW230246   6.362   0.377   1.625
 9783SOL     OW30247   5.237   1.339   1.776
 9783SOL    HW130248   5.167   1.410   1.765
 9783SOL    HW230249   5.292   1.334   1.692
 9784SOL     OW30250   4.584   0.466   3.769
 9784SOL    HW130251   4.600   0.369   3.748
 9784SOL    HW230252   4.499   0.475   3.821
 9785SOL     OW30253   0.880   2.964   2.017
 9785SOL    HW130254   0.935   2.888   1.984
 9785SOL    HW230255   0.879   3.037   1.948
 9786SOL     OW30256   2.924   5.893   5.199
 9786SOL    HW130257   2.871   5.812   5.174
 9786SOL    HW230258   2.998   5.905   5.133
 9787SOL     OW30259   5.011   4.409   2.110
 9787SOL    HW130260   5.062   4.493   2.126
 9787SOL    HW230261   4.962   4.415   2.023
 9788SOL     OW30262   6.311   1.607   5.744
 9788SOL    HW130263   6.226   1.598   5.796
 9788SOL    HW230264   6.347   1.516   5.723
 9789SOL     OW30265   2.158   5.526   4.592
 9789SOL    HW130266   2.076   5.559   4.638
 9789SOL    HW230267   2.192   5.597   4.530
 9790SOL     OW30268   6.060   2.374   4.391
 9790SOL    HW130269   6.049   2.283   4.350
 9790SOL    HW230270   5.992   2.436   4.354
 9791SOL     OW30271   0.513   2.186   1.374
 9791SOL    HW130272   0.430   2.132   1.386
 9791SOL    HW230273   0.593   2.127   1.384
 9792SOL     OW30274   4.271   5.439   1.175
 9792SOL    HW130275   4.268   5.495   1.092
 9792SOL    HW230276   4.332   5.361   1.161
 9793SOL     OW30277   5.257   6.005   1.975
 9793SOL    HW130278   5.337   6.062   1.998
 9793SOL    HW230279   5.289   5.918   1.938
 9794SOL     OW30280   4.524   2.715   6.577
 9794SOL    HW130281   4.621   2.738   6.568
 9794SOL    HW230282   4.489   2.752   6.664
 9795SOL     OW30283   1.600   3.320   4.042
 9795SOL    HW130284   1.646   3.232   4.056
 9795SOL    HW230285   1.643   3.389   4.100
 9796SOL     OW30286   2.638   5.014   6.773
 9796SOL    HW130287   2.700   5.012   6.852
 9796SOL    HW230288   2.559   5.071   6.794
 9797SOL     OW30289   4.457   3.091   5.504
 9797SOL    HW130290   4.438   3.157   5.576
 9797SOL    HW230291   4.480   3.139   5.419
 9798SOL     OW30292   2.369   1.816   1.054
 9798SOL    HW130293   2.400   1.724   1.076
 9798SOL    HW230294   2.445   1.869   1.015
 9799SOL     OW30295   3.024   3.941   1.911
 9799SOL    HW130296   3.028   4.037   1.885
 9799SOL    HW230297   3.007   3.933   2.009
 9800SOL     OW30298   4.394   4.974   6.667
 9800SOL    HW130299   4.375   4.876   6.661
 9800SOL    HW230300   4.493   4.989   6.665
 9801SOL     OW30301   3.999   5.338   6.902
 9801SOL    HW130302   4.081   5.396   6.899
 9801SOL    HW230303   4.015   5.255   6.847
 9802SOL     OW30304   6.839   3.607   0.880
 9802SOL    HW130305   6.757   3.618   0.823
 9802SOL    HW230306   6.820   3.643   0.971
 9803SOL     OW30307   6.182   0.558   6.645
 9803SOL    HW130308   6.088   0.586   6.627
 9803SOL    HW230309   6.182   0.484   6.713
 9804SOL     OW30310   6.269   5.864   4.125
 9804SOL    HW130311   6.296   5.777   4.083
 9804SOL    HW230312   6.209   5.915   4.063
 9805SOL     OW30313   1.786   5.061   6.747
 9805SOL    HW130314   1.885   5.076   6.745
 9805SOL    HW230315   1.752   5.048   6.654
 9806SOL     OW30316   0.004   1.733   2.559
 9806SOL    HW130317   7.016   1.833   2.559
 9806SOL    HW230318   0.100   1.706   2.551
 9807SOL     OW30319   4.025   2.634   0.750
 9807SOL    HW130320   4.001   2.567   0.820
 9807SOL    HW230321   4.103   2.688   0.781
 9808SOL     OW30322   0.892   1.516   4.668
 9808SOL    HW130323   0.950   1.597   4.662
 9808SOL    HW230324   0.946   1.437   4.696
 9809SOL     OW30325   0.561   0.702   4.682
 9809SOL    HW130326   0.487   0.636   4.696
 9809SOL    HW230327   0.557   0.772   4.752
 9810SOL     OW30328   3.715   1.001   3.647
 9810SOL    HW130329   3.627   0.972   3.684
 9810SOL    HW230330   3.701   1.053   3.563
 9811SOL     OW30331   0.599   6.696   2.599
 9811SOL    HW130332   0.501   6.715   2.595
 9811SOL    HW230333   0.650   6.774   2.565
 9812SOL     OW30334   4.846   2.409   5.870
 9812SOL    HW130335   4.751   2.439   5.879
 9812SOL    HW230336   4.850   2.309   5.880
 9813SOL     OW30337   6.729   4.694   0.206
 9813SOL    HW130338   6.661   4.759   0.172
 9813SOL    HW230339   6.686   4.633   0.273
 9814SOL     OW30340   0.273   0.105   5.412
 9814SOL    HW130341   0.206   0.039   5.447
 9814SOL    HW230342   0.335   0.133   5.486
 9815SOL     OW30343   6.129   3.502   2.478
 9815SOL    HW130344   6.160   3.563   2.406
 9815SOL    HW230345   6.096   3.555   2.556
 9816SOL     OW30346   0.425   6.618   6.692
 9816SOL    HW130347   0.471   6.706   6.709
 9816SOL    HW230348   0.336   6.635   6.651
 9817SOL     OW30349   3.004   6.834   6.972
 9817SOL    HW130350   3.058   6.910   7.006
 9817SOL    HW230351   3.023   6.819   6.875
 9818SOL     OW30352   0.682   6.654   3.529
 9818SOL    HW130353   0.601   6.712   3.529
 9818SOL    HW230354   0.664   6.572   3.583
 9819SOL     OW30355   0.363   3.695   4.844
 9819SOL    HW130356   0.397   3.702   4.938
 9819SOL    HW230357   0.434   3.722   4.780
 9820SOL     OW30358   3.715   1.837   5.788
 9820SOL    HW130359   3.676   1.813   5.700
 9820SOL    HW230360   3.671   1.784   5.860
 9821SOL     OW30361   4.261   2.519   1.594
 9821SOL    HW130362   4.231   2.611   1.568
 9821SOL    HW230363   4.332   2.525   1.664
 9822SOL     OW30364   3.414   6.123   5.588
 9822SOL    HW130365   3.421   6.063   5.508
 9822SOL    HW230366   3.387   6.215   5.559
 9823SOL     OW30367   1.953   0.279   2.879
 9823SOL    HW130368   1.993   0.370   2.866
 9823SOL    HW230369   2.006   0.228   2.946
 9824SOL     OW30370   0.989   6.417   5.436
 9824SOL    HW130371   0.967   6.427   5.533
 9824SOL    HW230372   0.919   6.463   5.381
 9825SOL     OW30373   5.403   6.314   5.711
 9825SOL    HW130374   5.426   6.362   5.626
 9825SOL    HW230375   5.321   6.355   5.751
 9826SOL     OW30376   1.944   5.641   4.722
 9826SOL    HW130377   1.981   5.659   4.813
 9826SOL    HW230378   1.868   5.576   4.730
 9827SOL     OW30379   1.750   5.407   1.782
 9827SOL    HW130380   1.677   5.437   1.721
 9827SOL    HW230381   1.827   5.470   1.777
 9828SOL     OW30382   4.347   2.226   4.484
 9828SOL    HW130383   4.435   2.268   4.462
 9828SOL    HW230384   4.309   2.271   4.565
 9829SOL     OW30385   4.303   5.489   5.518
 9829SOL    HW130386   4.327   5.431   5.596
 9829SOL    HW230387   4.386   5.531   5.482
 9830SOL     OW30388   6.228   2.298   2.850
 9830SOL    HW130389   6.262   2.204   2.847
 9830SOL    HW230390   6.146   2.302   2.907
 9831SOL     OW30391   0.507   3.909   3.002
 9831SOL    HW130392   0.477   3.963   2.923
 9831SOL    HW230393   0.606   3.900   3.000
 9832SOL     OW30394   4.647   5.016   4.742
 9832SOL    HW130395   4.679   4.974   4.827
 9832SOL    HW230396   4.611   4.946   4.680
 9833SOL     OW30397   3.876   3.929   3.669
 9833SOL    HW130398   3.879   3.962   3.763
 9833SOL    HW230399   3.824   3.992   3.612
 9834SOL     OW30400   2.735   6.391   6.397
 9834SOL    HW130401   2.640   6.376   6.423
 9834SOL    HW230402   2.777   6.303   6.375
 9835SOL     OW30403   3.816   3.942   3.948
 9835SOL    HW130404   3.716   3.944   3.946
 9835SOL    HW230405   3.847   3.850   3.973
 9836SOL     OW30406   0.221   4.300   6.156
 9836SOL    HW130407   0.310   4.311   6.199
 9836SOL    HW230408   0.208   4.204   6.131
 9837SOL     OW30409   5.454   2.231   3.425
 9837SOL    HW130410   5.522   2.248   3.496
 9837SOL    HW230411   5.471   2.142   3.383
 9838SOL     OW30412   1.656   6.820   1.239
 9838SOL    HW130413   1.563   6.850   1.263
 9838SOL    HW230414   1.722   6.866   1.298
 9839SOL     OW30415   5.054   6.823   3.881
 9839SOL    HW130416   5.048   6.921   3.862
 9839SOL    HW230417   5.029   6.772   3.798
 9840SOL     OW30418   6.087   1.119   0.050
 9840SOL    HW130419   6.069   1.172   0.133
 9840SOL    HW230420   6.173   1.149   0.010
 9841SOL     OW30421   0.150   6.623   3.020
 9841SOL    HW130422   0.056   6.625   3.052
 9841SOL    HW230423   0.185   6.529   3.024
 9842SOL     OW30424   3.379   1.425   6.459
 9842SOL    HW130425   3.311   1.370   6.411
 9842SOL    HW230426   3.383   1.396   6.555
 9843SOL     OW30427   0.942   0.516   1.307
 9843SOL    HW130428   0.883   0.538   1.229
 9843SOL    HW230429   0.988   0.429   1.290
 9844SOL     OW30430   4.774   6.778   4.127
 9844SOL    HW130431   4.697   6.725   4.091
 9844SOL    HW230432   4.859   6.727   4.113
 9845SOL     OW30433   1.838   3.209   2.453
 9845SOL    HW130434   1.878   3.144   2.517
 9845SOL    HW230435   1.807   3.160   2.372
 9846SOL     OW30436   6.118   2.417   1.164
 9846SOL    HW130437   6.092   2.321   1.155
 9846SOL    HW230438   6.123   2.441   1.261
 9847SOL     OW30439   4.482   4.100   0.087
 9847SOL    HW130440   4.454   4.156   0.009
 9847SOL    HW230441   4.447   4.007   0.076
 9848SOL     OW30442   3.166   4.425   5.783
 9848SOL    HW130443   3.109   4.453   5.861
 9848SOL    HW230444   3.109   4.382   5.713
 9849SOL     OW30445   0.523   2.602   4.522
 9849SOL    HW130446   0.569   2.577   4.607
 9849SOL    HW230447   0.556   2.691   4.492
 9850SOL     OW30448   1.169   0.290   4.548
 9850SOL    HW130449   1.213   0.374   4.580
 9850SOL    HW230450   1.196   0.273   4.453
 9851SOL     OW30451   3.449   5.020   4.656
 9851SOL    HW130452   3.541   4.981   4.657
 9851SOL    HW230453   3.386   4.958   4.611
 9852SOL     OW30454   2.120   0.518   6.234
 9852SOL    HW130455   2.078   0.606   6.256
 9852SOL    HW230456   2.049   0.448   6.226
 9853SOL     OW30457   6.273   4.414   3.774
 9853SOL    HW130458   6.174   4.397   3.771
 9853SOL    HW230459   6.322   4.327   3.780
 9854SOL     OW30460   0.737   4.291   5.694
 9854SOL    HW130461   0.687   4.217   5.740
 9854SOL    HW230462   0.712   4.293   5.597
 9855SOL     OW30463   1.153   4.748   1.480
 9855SOL    HW130464   1.068   4.756   1.532
 9855SOL    HW230465   1.222   4.808   1.520
 9856SOL     OW30466   5.804   4.273   3.222
 9856SOL    HW130467   5.809   4.358   3.169
 9856SOL    HW230468   5.708   4.250   3.239
 9857SOL     OW30469   4.149   0.213   5.087
 9857SOL    HW130470   4.126   0.122   5.051
 9857SOL    HW230471   4.172   0.206   5.184
 9858SOL     OW30472   6.361   6.449   2.549
 9858SOL    HW130473   6.385   6.442   2.452
 9858SOL    HW230474   6.314   6.365   2.578
 9859SOL     OW30475   0.198   5.124   3.164
 9859SOL    HW130476   0.140   5.068   3.104
 9859SOL    HW230477   0.237   5.199   3.111
 9860SOL     OW30478   0.946   2.871   4.336
 9860SOL    HW130479   1.034   2.826   4.321
 9860SOL    HW230480   0.945   2.911   4.428
 9861SOL     OW30481   3.119   2.201   3.226
 9861SOL    HW130482   3.074   2.235   3.143
 9861SOL    HW230483   3.098   2.263   3.302
 9862SOL     OW30484   0.823   4.265   0.242
 9862SOL    HW130485   0.893   4.302   0.303
 9862SOL    HW230486   0.737   4.315   0.255
 9863SOL     OW30487   3.723   6.108   0.822
 9863SOL    HW130488   3.703   6.015   0.853
 9863SOL    HW230489   3.651   6.170   0.852
 9864SOL     OW30490   2.668   5.477   5.277
 9864SOL    HW130491   2.633   5.536   5.349
 9864SOL    HW230492   2.751   5.431   5.308
 9865SOL     OW30493   0.696   5.535   5.261
 9865SOL    HW130494   0.642   5.534   5.345
 9865SOL    HW230495   0.793   5.533   5.284
 9866SOL     OW30496   6.391   4.583   5.235
 9866SOL    HW130497   6.291   4.590   5.230
 9866SOL    HW230498   6.416   4.488   5.254
 9867SOL     OW30499   4.094   1.670   2.227
 9867SOL    HW130500   4.075   1.760   2.187
 9867SOL    HW230501   4.192   1.664   2.250
 9868SOL     OW30502   2.040   3.809   3.896
 9868SOL    HW130503   1.975   3.884   3.905
 9868SOL    HW230504   1.990   3.722   3.893
 9869SOL     OW30505   6.104   2.895   0.888
 9869SOL    HW130506   6.096   2.988   0.922
 9869SOL    HW230507   6.130   2.834   0.963
 9870SOL     OW30508   2.590   2.147   2.294
 9870SOL    HW130509   2.534   2.090   2.353
 9870SOL    HW230510   2.533   2.217   2.251
 9871SOL     OW30511   5.972   5.000   4.481
 9871SOL    HW130512   6.037   5.012   4.556
 9871SOL    HW230513   5.970   5.083   4.425
 9872SOL     OW30514   0.478   5.061   6.111
 9872SOL    HW130515   0.470   5.055   6.210
 9872SOL    HW230516   0.496   4.970   6.073
 9873SOL     OW30517   1.446   1.750   5.783
 9873SOL    HW130518   1.476   1.829   5.730
 9873SOL    HW230519   1.420   1.676   5.721
 9874SOL     OW30520   0.171   2.672   5.150
 9874SOL    HW130521   0.209   2.743   5.210
 9874SOL    HW230522   0.102   2.713   5.090
 9875SOL     OW30523   6.509   5.908   0.934
 9875SOL    HW130524   6.534   5.955   1.018
 9875SOL    HW230525   6.415   5.932   0.909
 9876SOL     OW30526   0.953   6.568   3.461
 9876SOL    HW130527   0.964   6.492   3.525
 9876SOL    HW230528   0.867   6.616   3.481
 9877SOL     OW30529   0.757   5.019   5.108
 9877SOL    HW130530   0.729   5.109   5.140
 9877SOL    HW230531   0.747   4.952   5.181
 9878SOL     OW30532   2.954   2.718   6.778
 9878SOL    HW130533   2.875   2.676   6.734
 9878SOL    HW230534   3.009   2.765   6.710
 9879SOL     OW30535   6.686   4.829   6.517
 9879SOL    HW130536   6.697   4.843   6.418
 9879SOL    HW230537   6.628   4.750   6.533
 9880SOL     OW30538   3.162   1.182   0.698
 9880SOL    HW130539   3.097   1.113   0.663
 9880SOL    HW230540   3.143   1.200   0.794
 9881SOL     OW30541   6.182   1.249   3.431
 9881SOL    HW130542   6.092   1.226   3.395
 9881SOL    HW230543   6.252   1.216   3.368
 9882SOL     OW30544   3.440   3.040   5.120
 9882SOL    HW130545   3.510   3.107   5.096
 9882SOL    HW230546   3.356   3.059   5.069
 9883SOL     OW30547   2.615   0.378   1.953
 9883SOL    HW130548   2.676   0.388   1.875
 9883SOL    HW230549   2.556   0.458   1.961
 9884SOL     OW30550   3.156   2.744   5.878
 9884SOL    HW130551   3.233   2.805   5.862
 9884SOL    HW230552   3.147   2.681   5.801
 9885SOL     OW30553   5.375   2.910   5.106
 9885SOL    HW130554   5.280   2.882   5.096
 9885SOL    HW230555   5.380   3.010   5.111
 9886SOL     OW30556   3.625   6.120   1.465
 9886SOL    HW130557   3.628   6.020   1.462
 9886SOL    HW230558   3.532   6.150   1.487
 9887SOL     OW30559   3.327   0.531   6.319
 9887SOL    HW130560   3.271   0.598   6.270
 9887SOL    HW230561   3.355   0.568   6.407
 9888SOL     OW30562   6.510   5.966   3.591
 9888SOL    HW130563   6.583   6.028   3.621
 9888SOL    HW230564   6.424   5.992   3.635
 9889SOL     OW30565   0.144   5.829   3.295
 9889SOL    HW130566   0.211   5.885   3.344
 9889SOL    HW230567   0.165   5.733   3.307
 9890SOL     OW30568   0.890   3.440   1.610
 9890SOL    HW130569   0.861   3.446   1.514
 9890SOL    HW230570   0.963   3.507   1.626
 9891SOL     OW30571   5.966   5.766   1.406
 9891SOL    HW130572   6.057   5.725   1.406
 9891SOL    HW230573   5.973   5.862   1.378
 9892SOL     OW30574   1.837   5.132   4.082
 9892SOL    HW130575   1.821   5.076   4.164
 9892SOL    HW230576   1.916   5.192   4.098
 9893SOL     OW30577   5.042   5.398   3.799
 9893SOL    HW130578   5.075   5.305   3.813
 9893SOL    HW230579   5.037   5.417   3.700
 9894SOL     OW30580   4.419   2.913   5.998
 9894SOL    HW130581   4.394   2.823   6.034
 9894SOL    HW230582   4.516   2.913   5.973
 9895SOL     OW30583   5.845   1.988   6.721
 9895SOL    HW130584   5.835   2.075   6.673
 9895SOL    HW230585   5.775   1.924   6.689
 9896SOL     OW30586   4.467   3.415   0.210
 9896SOL    HW130587   4.437   3.320   0.220
 9896SOL    HW230588   4.566   3.419   0.221
 9897SOL     OW30589   6.936   1.951   3.947
 9897SOL    HW130590   6.841   1.941   3.916
 9897SOL    HW230591   6.954   1.888   4.021
 9898SOL     OW30592   1.071   5.593   5.537
 9898SOL    HW130593   1.122   5.671   5.500
 9898SOL    HW230594   1.020   5.549   5.463
 9899SOL     OW30595   5.015   5.079   1.896
 9899SOL    HW130596   4.993   4.982   1.907
 9899SOL    HW230597   4.933   5.128   1.865
 9900SOL     OW30598   0.798   3.665   3.178
 9900SOL    HW130599   0.847   3.619   3.252
 9900SOL    HW230600   0.842   3.645   3.091
 9901SOL     OW30601   2.941   1.711   5.147
 9901SOL    HW130602   2.881   1.734   5.071
 9901SOL    HW230603   2.893   1.651   5.211
 9902SOL     OW30604   4.571   4.035   6.734
 9902SOL    HW130605   4.523   3.959   6.690
 9902SOL    HW230606   4.504   4.101   6.768
 9903SOL     OW30607   3.735   1.092   1.202
 9903SOL    HW130608   3.797   1.166   1.227
 9903SOL    HW230609   3.765   1.051   1.116
 9904SOL     OW30610   6.260   0.506   1.963
 9904SOL    HW130611   6.240   0.586   1.906
 9904SOL    HW230612   6.238   0.526   2.058
 9905SOL     OW30613   1.631   6.141   5.795
 9905SOL    HW130614   1.674   6.055   5.766
 9905SOL    HW230615   1.702   6.205   5.824
 9906SOL     OW30616   3.124   3.541   5.837
 9906SOL    HW130617   3.092   3.477   5.907
 9906SOL    HW230618   3.203   3.503   5.790
 9907SOL     OW30619   1.577   6.460   2.387
 9907SOL    HW130620   1.576   6.416   2.477
 9907SOL    HW230621   1.649   6.529   2.384
 9908SOL     OW30622   0.967   3.740   4.799
 9908SOL    HW130623   0.957   3.756   4.897
 9908SOL    HW230624   0.948   3.643   4.779
 9909SOL     OW30625   3.980   6.626   2.575
 9909SOL    HW130626   3.933   6.540   2.553
 9909SOL    HW230627   3.935   6.669   2.654
 9910SOL     OW30628   0.358   4.206   2.093
 9910SOL    HW130629   0.416   4.275   2.137
 9910SOL    HW230630   0.415   4.143   2.040
 9911SOL     OW30631   3.203   4.907   3.308
 9911SOL    HW130632   3.234   5.001   3.294
 9911SOL    HW230633   3.183   4.893   3.405
 9912SOL     OW30634   4.603   6.962   0.955
 9912SOL    HW130635   4.690   6.913   0.965
 9912SOL    HW230636   4.616   0.041   0.982
 9913SOL     OW30637   4.648   1.878   2.643
 9913SOL    HW130638   4.692   1.789   2.637
 9913SOL    HW230639   4.718   1.950   2.643
 9914SOL     OW30640   1.842   5.679   5.594
 9914SOL    HW130641   1.854   5.772   5.629
 9914SOL    HW230642   1.852   5.679   5.494
 9915SOL     OW30643   5.556   3.750   4.559
 9915SOL    HW130644   5.513   3.689   4.626
 9915SOL    HW230645   5.655   3.736   4.561
 9916SOL     OW30646   2.417   3.185   1.156
 9916SOL    HW130647   2.487   3.255   1.146
 9916SOL    HW230648   2.328   3.223   1.131
 9917SOL     OW30649   2.460   3.350   5.334
 9917SOL    HW130650   2.546   3.306   5.307
 9917SOL    HW230651   2.413   3.293   5.402
 9918SOL     OW30652   1.954   1.596   5.003
 9918SOL    HW130653   1.939   1.694   5.017
 9918SOL    HW230654   1.997   1.557   5.084
 9919SOL     OW30655   6.891   5.255   2.873
 9919SOL    HW130656   6.799   5.217   2.863
 9919SOL    HW230657   6.893   5.315   2.953
 9920SOL     OW30658   4.036   6.534   1.789
 9920SOL    HW130659   4.032   6.525   1.889
 9920SOL    HW230660   4.128   6.566   1.763
 9921SOL     OW30661   4.553   0.104   2.979
 9921SOL    HW130662   4.476   0.168   2.985
 9921SOL    HW230663   4.560   0.052   3.064
 9922SOL     OW30664   4.689   3.326   1.507
 9922SOL    HW130665   4.664   3.287   1.596
 9922SOL    HW230666   4.634   3.282   1.435
 9923SOL     OW30667   6.346   1.285   6.272
 9923SOL    HW130668   6.378   1.319   6.361
 9923SOL    HW230669   6.254   1.246   6.283
 9924SOL     OW30670   5.381   0.894   3.368
 9924SOL    HW130671   5.326   0.904   3.285
 9924SOL    HW230672   5.356   0.809   3.415
 9925SOL     OW30673   2.497   2.633   4.700
 9925SOL    HW130674   2.400   2.649   4.683
 9925SOL    HW230675   2.509   2.603   4.794
 9926SOL     OW30676   1.291   1.451   0.456
 9926SOL    HW130677   1.370   1.470   0.398
 9926SOL    HW230678   1.272   1.530   0.514
 9927SOL     OW30679   0.881   2.629   2.548
 9927SOL    HW130680   0.813   2.651   2.478
 9927SOL    HW230681   0.902   2.711   2.601
 9928SOL     OW30682   6.787   3.262   2.595
 9928SOL    HW130683   6.882   3.292   2.594
 9928SOL    HW230684   6.781   3.168   2.560
 9929SOL     OW30685   2.310   3.870   5.966
 9929SOL    HW130686   2.278   3.818   5.887
 9929SOL    HW230687   2.373   3.942   5.935
 9930SOL     OW30688   0.233   5.903   0.223
 9930SOL    HW130689   0.282   5.929   0.307
 9930SOL    HW230690   0.278   5.945   0.144
 9931SOL     OW30691   2.767   5.397   6.901
 9931SOL    HW130692   2.671   5.414   6.881
 9931SOL    HW230693   2.778   5.305   6.937
 9932SOL     OW30694   1.751   2.440   0.127
 9932SOL    HW130695   1.654   2.418   0.131
 9932SOL    HW230696   1.787   2.418   0.037
 9933SOL     OW30697   0.861   1.805   3.472
 9933SOL    HW130698   0.871   1.892   3.423
 9933SOL    HW230699   0.952   1.769   3.494
 9934SOL     OW30700   4.528   1.812   6.622
 9934SOL    HW130701   4.477   1.792   6.706
 9934SOL    HW230702   4.518   1.736   6.558
 9935SOL     OW30703   2.674   2.214   0.827
 9935SOL    HW130704   2.723   2.176   0.905
 9935SOL    HW230705   2.619   2.143   0.784
 9936SOL     OW30706   6.205   6.548   6.004
 9936SOL    HW130707   6.229   6.476   6.070
 9936SOL    HW230708   6.173   6.506   5.919
 9937SOL     OW30709   0.517   0.701   3.515
 9937SOL    HW130710   0.571   0.639   3.572
 9937SOL    HW230711   0.563   0.790   3.511
 9938SOL     OW30712   0.075   1.818   3.294
 9938SOL    HW130713   0.052   1.914   3.301
 9938SOL    HW230714   0.047   1.770   3.377
 9939SOL     OW30715   3.494   4.219   1.282
 9939SOL    HW130716   3.416   4.251   1.227
 9939SOL    HW230717   3.517   4.126   1.256
 9940SOL     OW30718   7.013   1.307   3.306
 9940SOL    HW130719   0.053   1.382   3.341
 9940SOL    HW230720   6.981   1.251   3.383
 9941SOL     OW30721   5.489   4.977   0.150
 9941SOL    HW130722   5.411   5.011   0.099
 9941SOL    HW230723   5.457   4.922   0.227
 9942SOL     OW30724   4.999   5.005   2.785
 9942SOL    HW130725   4.921   4.943   2.772
 9942SOL    HW230726   5.084   4.951   2.789
 9943SOL     OW30727   1.915   4.117   5.701
 9943SOL    HW130728   1.883   4.023   5.690
 9943SOL    HW230729   1.902   4.146   5.796
 9944SOL     OW30730   0.728   4.878   5.899
 9944SOL    HW130731   0.656   4.838   5.956
 9944SOL    HW230732   0.816   4.871   5.946
 9945SOL     OW30733   6.686   3.540   5.936
 9945SOL    HW130734   6.639   3.615   5.982
 9945SOL    HW230735   6.659   3.538   5.840
 9946SOL     OW30736   5.267   1.893   1.717
 9946SOL    HW130737   5.178   1.912   1.758
 9946SOL    HW230738   5.337   1.946   1.765
 9947SOL     OW30739   0.973   1.977   4.066
 9947SOL    HW130740   0.968   1.980   3.966
 9947SOL    HW230741   0.893   2.022   4.105
 9948SOL     OW30742   5.428   6.993   4.501
 9948SOL    HW130743   5.478   0.025   4.571
 9948SOL    HW230744   5.492   6.948   4.439
 9949SOL     OW30745   6.461   5.100   3.486
 9949SOL    HW130746   6.500   5.193   3.490
 9949SOL    HW230747   6.411   5.082   3.571
 9950SOL     OW30748   5.363   3.871   5.202
 9950SOL    HW130749   5.268   3.864   5.234
 9950SOL    HW230750   5.378   3.962   5.164
 9951SOL     OW30751   0.604   1.904   3.532
 9951SOL    HW130752   0.696   1.882   3.501
 9951SOL    HW230753   0.588   2.002   3.522
 9952SOL     OW30754   0.865   5.021   2.006
 9952SOL    HW130755   0.872   5.076   2.088
 9952SOL    HW230756   0.770   5.019   1.974
 9953SOL     OW30757   5.869   2.942   3.751
 9953SOL    HW130758   5.871   3.040   3.733
 9953SOL    HW230759   5.786   2.918   3.802
 9954SOL     OW30760   3.711   1.386   6.683
 9954SOL    HW130761   3.615   1.361   6.691
 9954SOL    HW230762   3.722   1.484   6.695
 9955SOL     OW30763   5.417   4.401   0.791
 9955SOL    HW130764   5.456   4.351   0.868
 9955SOL    HW230765   5.367   4.337   0.732
 9956SOL     OW30766   2.101   3.345   3.208
 9956SOL    HW130767   2.050   3.301   3.133
 9956SOL    HW230768   2.116   3.279   3.281
 9957SOL     OW30769   5.511   0.323   0.275
 9957SOL    HW130770   5.582   0.368   0.329
 9957SOL    HW230771   5.554   0.258   0.212
 9958SOL     OW30772   5.421   6.260   0.205
 9958SOL    HW130773   5.363   6.201   0.150
 9958SOL    HW230774   5.437   6.218   0.295
 9959SOL     OW30775   4.781   5.023   0.679
 9959SOL    HW130776   4.794   5.053   0.773
 9959SOL    HW230777   4.840   4.944   0.661
 9960SOL     OW30778   0.509   0.144   0.278
 9960SOL    HW130779   0.448   0.078   0.322
 9960SOL    HW230780   0.516   0.123   0.181
 9961SOL     OW30781   2.964   5.399   1.116
 9961SOL    HW130782   2.947   5.303   1.097
 9961SOL    HW230783   3.062   5.414   1.129
 9962SOL     OW30784   2.803   0.345   1.507
 9962SOL    HW130785   2.795   0.417   1.576
 9962SOL    HW230786   2.712   0.321   1.472
 9963SOL     OW30787   0.767   0.657   5.954
 9963SOL    HW130788   0.712   0.618   6.028
 9963SOL    HW230789   0.811   0.741   5.987
 9964SOL     OW30790   4.533   4.378   5.925
 9964SOL    HW130791   4.542   4.467   5.879
 9964SOL    HW230792   4.590   4.311   5.878
 9965SOL     OW30793   2.478   5.616   3.842
 9965SOL    HW130794   2.520   5.565   3.917
 9965SOL    HW230795   2.550   5.655   3.784
 9966SOL     OW30796   3.627   4.992   2.527
 9966SOL    HW130797   3.601   4.996   2.430
 9966SOL    HW230798   3.545   4.978   2.582
 9967SOL     OW30799   6.542   6.720   3.146
 9967SOL    HW130800   6.599   6.726   3.064
 9967SOL    HW230801   6.539   6.626   3.179
 9968SOL     OW30802   3.718   6.185   0.244
 9968SOL    HW130803   3.749   6.279   0.225
 9968SOL    HW230804   3.790   6.121   0.220
 9969SOL     OW30805   1.154   5.968   3.353
 9969SOL    HW130806   1.092   6.047   3.357
 9969SOL    HW230807   1.214   5.968   3.433
 9970SOL     OW30808   6.392   3.721   1.272
 9970SOL    HW130809   6.448   3.787   1.222
 9970SOL    HW230810   6.349   3.766   1.350
 9971SOL     OW30811   0.901   5.351   3.612
 9971SOL    HW130812   0.919   5.261   3.573
 9971SOL    HW230813   0.806   5.377   3.595
 9972SOL     OW30814   2.834   3.948   6.770
 9972SOL    HW130815   2.900   3.948   6.695
 9972SOL    HW230816   2.763   4.017   6.753
 9973SOL     OW30817   2.482   2.317   3.218
 9973SOL    HW130818   2.511   2.396   3.273
 9973SOL    HW230819   2.465   2.239   3.279
 9974SOL     OW30820   1.244   2.965   2.699
 9974SOL    HW130821   1.299   3.022   2.637
 9974SOL    HW230822   1.230   3.014   2.785
 9975SOL     OW30823   2.237   4.676   6.850
 9975SOL    HW130824   2.221   4.584   6.885
 9975SOL    HW230825   2.313   4.674   6.785
 9976SOL     OW30826   3.432   4.511   6.281
 9976SOL    HW130827   3.406   4.457   6.201
 9976SOL    HW230828   3.478   4.452   6.347
 9977SOL     OW30829   4.706   6.665   5.367
 9977SOL    HW130830   4.743   6.753   5.337
 9977SOL    HW230831   4.726   6.652   5.464
 9978SOL     OW30832   0.983   3.490   6.663
 9978SOL    HW130833   0.946   3.513   6.574
 9978SOL    HW230834   1.057   3.552   6.687
 9979SOL     OW30835   3.682   3.278   5.014
 9979SOL    HW130836   3.688   3.378   5.011
 9979SOL    HW230837   3.775   3.240   5.019
 9980SOL     OW30838   2.454   1.521   0.785
 9980SOL    HW130839   2.442   1.547   0.881
 9980SOL    HW230840   2.414   1.431   0.769
 9981SOL     OW30841   6.526   2.404   1.223
 9981SOL    HW130842   6.593   2.387   1.150
 9981SOL    HW230843   6.541   2.496   1.260
 9982SOL     OW30844   1.917   2.197   4.515
 9982SOL    HW130845   1.893   2.292   4.531
 9982SOL    HW230846   1.886   2.169   4.424
 9983SOL     OW30847   0.832   3.188   2.214
 9983SOL    HW130848   0.881   3.213   2.297
 9983SOL    HW230849   0.847   3.091   2.193
 9984SOL     OW30850   0.189   5.379   1.266
 9984SOL    HW130851   0.172   5.284   1.241
 9984SOL    HW230852   0.287   5.394   1.278
 9985SOL     OW30853   5.110   4.813   7.001
 9985SOL    HW130854   5.060   4.826   0.070
 9985SOL    HW230855   5.092   4.891   6.941
 9986SOL     OW30856   5.531   5.133   6.794
 9986SOL    HW130857   5.622   5.169   6.774
 9986SOL    HW230858   5.474   5.137   6.712
 9987SOL     OW30859   5.222   2.908   1.469
 9987SOL    HW130860   5.286   2.977   1.435
 9987SOL    HW230861   5.174   2.943   1.549
 9988SOL     OW30862   5.810   6.069   3.856
 9988SOL    HW130863   5.839   6.047   3.763
 9988SOL    HW230864   5.781   6.165   3.859
 9989SOL     OW30865   6.824   5.282   2.582
 9989SOL    HW130866   6.781   5.361   2.628
 9989SOL    HW230867   6.891   5.240   2.643
 9990SOL     OW30868   0.336   6.612   4.086
 9990SOL    HW130869   0.322   6.685   4.152
 9990SOL    HW230870   0.357   6.652   3.996
 9991SOL     OW30871   1.750   4.908   3.249
 9991SOL    HW130872   1.821   4.892   3.179
 9991SOL    HW230873   1.792   4.952   3.328
 9992SOL     OW30874   3.098   4.386   0.969
 9992SOL    HW130875   3.024   4.437   1.012
 9992SOL    HW230876   3.062   4.304   0.926
 9993SOL     OW30877   3.431   6.282   4.464
 9993SOL    HW130878   3.436   6.255   4.560
 9993SOL    HW230879   3.501   6.350   4.444
 9994SOL     OW30880   5.629   5.510   4.953
 9994SOL    HW130881   5.727   5.495   4.942
 9994SOL    HW230882   5.583   5.423   4.968
 9995SOL     OW30883   3.033   0.195   5.133
 9995SOL    HW130884   2.981   0.224   5.213
 9995SOL    HW230885   2.997   0.241   5.052
 9996SOL     OW30886   3.039   3.066   0.874
 9996SOL    HW130887   3.036   3.030   0.968
 9996SOL    HW230888   2.966   3.134   0.863
 9997SOL     OW30889   5.980   2.503   3.633
 9997SOL    HW130890   5.955   2.585   3.582
 9997SOL    HW230891   5.930   2.501   3.720
 9998SOL     OW30892   4.698   4.277   2.438
 9998SOL    HW130893   4.610   4.256   2.396
 9998SOL    HW230894   4.720   4.374   2.424
 9999SOL     OW30895   0.788   6.915   3.790
 9999SOL    HW130896   0.701   6.926   3.837
 9999SOL    HW230897   0.773   6.911   3.691
10000SOL     OW30898   4.905   2.381   1.476
10000SOL    HW130899   5.002   2.398   1.490
10000SOL    HW230900   4.871   2.441   1.403
10001SOL     OW30901   4.190   6.293   1.997
10001SOL    HW130902   4.249   6.248   2.064
10001SOL    HW230903   4.108   6.326   2.042
10002SOL     OW30904   3.115   1.289   2.062
10002SOL    HW130905   3.043   1.229   2.095
10002SOL    HW230906   3.202   1.264   2.105
10003SOL     OW30907   1.698   0.883   3.971
10003SOL    HW130908   1.683   0.790   4.004
10003SOL    HW230909   1.630   0.944   4.011
10004SOL     OW30910   6.503   3.937   5.057
10004SOL    HW130911   6.415   3.970   5.023
10004SOL    HW230912   6.546   3.877   4.990
10005SOL     OW30913   2.440   5.157   3.206
10005SOL    HW130914   2.504   5.141   3.281
10005SOL    HW230915   2.486   5.208   3.133
10006SOL     OW30916   5.366   0.140   4.732
10006SOL    HW130917   5.442   0.199   4.759
10006SOL    HW230918   5.330   0.169   4.644
10007SOL     OW30919   1.638   5.074   4.489
10007SOL    HW130920   1.575   5.138   4.443
10007SOL    HW230921   1.601   4.982   4.483
10008SOL     OW30922   4.162   1.125   6.134
10008SOL    HW130923   4.109   1.060   6.189
10008SOL    HW230924   4.259   1.112   6.153
10009SOL     OW30925   1.477   3.100   2.394
10009SOL    HW130926   1.489   3.106   2.295
10009SOL    HW230927   1.524   3.176   2.438
10010SOL     OW30928   2.502   3.772   0.525
10010SOL    HW130929   2.500   3.760   0.425
10010SOL    HW230930   2.512   3.869   0.547
10011SOL     OW30931   2.049   3.721   0.063
10011SOL    HW130932   1.975   3.676   0.014
10011SOL    HW230933   2.058   3.682   0.154
10012SOL     OW30934   5.966   2.249   2.990
10012SOL    HW130935   5.939   2.181   3.058
10012SOL    HW230936   5.930   2.222   2.901
10013SOL     OW30937   0.442   5.651   5.240
10013SOL    HW130938   0.452   5.633   5.338
10013SOL    HW230939   0.516   5.607   5.191
10014SOL     OW30940   0.727   0.124   3.196
10014SOL    HW130941   0.751   0.102   3.291
10014SOL    HW230942   0.801   0.095   3.135
10015SOL     OW30943   4.268   4.455   5.698
10015SOL    HW130944   4.339   4.417   5.639
10015SOL    HW230945   4.309   4.517   5.765
10016SOL     OW30946   2.356   0.038   3.101
10016SOL    HW130947   2.426   0.071   3.164
10016SOL    HW230948   2.305   6.981   3.144
10017SOL     OW30949   2.391   1.998   2.425
10017SOL    HW130950   2.336   2.047   2.492
10017SOL    HW230951   2.447   1.929   2.471
10018SOL     OW30952   6.962   3.542   5.873
10018SOL    HW130953   6.965   3.544   5.773
10018SOL    HW230954   6.867   3.548   5.904
10019SOL     OW30955   0.358   2.155   2.432
10019SOL    HW130956   0.337   2.237   2.379
10019SOL    HW230957   0.275   2.124   2.480
10020SOL     OW30958   6.200   0.465   2.221
10020SOL    HW130959   6.124   0.529   2.225
10020SOL    HW230960   6.214   0.423   2.311
10021SOL     OW30961   1.288   3.986   2.367
10021SOL    HW130962   1.365   3.936   2.327
10021SOL    HW230963   1.225   3.922   2.411
10022SOL     OW30964   2.551   5.536   6.855
10022SOL    HW130965   2.460   5.553   6.893
10022SOL    HW230966   2.547   5.541   6.755
10023SOL     OW30967   1.812   6.905   5.865
10023SOL    HW130968   1.772   6.896   5.956
10023SOL    HW230969   1.759   6.971   5.812
10024SOL     OW30970   1.268   4.897   2.363
10024SOL    HW130971   1.189   4.854   2.319
10024SOL    HW230972   1.331   4.931   2.293
10025SOL     OW30973   1.031   4.413   1.987
10025SOL    HW130974   0.999   4.382   2.076
10025SOL    HW230975   1.050   4.511   1.990
10026SOL     OW30976   5.302   1.588   4.141
10026SOL    HW130977   5.401   1.583   4.131
10026SOL    HW230978   5.265   1.497   4.160
10027SOL     OW30979   2.596   1.871   5.507
10027SOL    HW130980   2.508   1.845   5.546
10027SOL    HW230981   2.604   1.833   5.415
10028SOL     OW30982   4.715   0.895   1.120
10028SOL    HW130983   4.688   0.869   1.027
10028SOL    HW230984   4.727   0.813   1.176
10029SOL     OW30985   0.371   3.673   5.178
10029SOL    HW130986   0.448   3.732   5.155
10029SOL    HW230987   0.323   3.710   5.258
10030SOL     OW30988   2.324   6.940   5.077
10030SOL    HW130989   2.353   6.955   4.982
10030SOL    HW230990   2.371   7.005   5.137
10031SOL     OW30991   2.787   4.999   3.999
10031SOL    HW130992   2.790   4.982   3.901
10031SOL    HW230993   2.841   4.930   4.047
10032SOL     OW30994   3.306   6.165   5.156
10032SOL    HW130995   3.383   6.226   5.176
10032SOL    HW230996   3.245   6.162   5.236
10033SOL     OW30997   3.534   1.011   3.146
10033SOL    HW130998   3.544   1.030   3.049
10033SOL    HW230999   3.569   1.088   3.199
10034SOL     OW31000   2.627   0.807   3.843
10034SOL    HW131001   2.613   0.882   3.778
10034SOL    HW231002   2.589   0.723   3.806
10035SOL     OW31003   5.666   2.822   2.358
10035SOL    HW131004   5.765   2.812   2.349
10035SOL    HW231005   5.645   2.917   2.383
10036SOL     OW31006   0.203   0.503   6.807
10036SOL    HW131007   0.135   0.530   6.875
10036SOL    HW231008   0.240   0.413   6.830
10037SOL     OW31009   6.276   0.204   0.139
10037SOL    HW131010   6.268   0.299   0.172
10037SOL    HW231011   6.285   0.142   0.217
10038SOL     OW31012   4.203   0.122   6.896
10038SOL    HW131013   4.227   0.047   6.957
10038SOL    HW231014   4.282   0.182   6.884
10039SOL     OW31015   6.111   5.097   3.104
10039SOL    HW131016   6.137   5.194   3.107
10039SOL    HW231017   6.140   5.053   3.189
10040SOL     OW31018   3.448   6.961   0.985
10040SOL    HW131019   3.438   0.020   0.921
10040SOL    HW231020   3.535   6.915   0.970
10041SOL     OW31021   6.963   5.330   4.976
10041SOL    HW131022   6.908   5.381   4.911
10041SOL    HW231023   0.036   5.373   4.986
10042SOL     OW31024   0.438   0.767   4.424
10042SOL    HW131025   0.488   0.705   4.364
10042SOL    HW231026   0.461   0.748   4.519
10043SOL     OW31027   0.651   0.939   3.504
10043SOL    HW131028   0.696   0.939   3.415
10043SOL    HW231029   0.703   0.997   3.568
10044SOL     OW31030   2.477   1.584   6.022
10044SOL    HW131031   2.410   1.560   6.092
10044SOL    HW231032   2.469   1.681   6.000
10045SOL     OW31033   3.956   6.606   4.772
10045SOL    HW131034   3.947   6.688   4.829
10045SOL    HW231035   3.913   6.528   4.819
10046SOL     OW31036   0.307   2.692   1.698
10046SOL    HW131037   0.236   2.644   1.648
10046SOL    HW231038   0.269   2.725   1.785
10047SOL     OW31039   6.747   1.857   4.933
10047SOL    HW131040   6.650   1.854   4.959
10047SOL    HW231041   6.802   1.878   5.014
10048SOL     OW31042   3.597   1.390   1.685
10048SOL    HW131043   3.543   1.455   1.738
10048SOL    HW231044   3.633   1.320   1.747
10049SOL     OW31045   1.849   0.068   5.424
10049SOL    HW131046   1.844   0.120   5.510
10049SOL    HW231047   1.930   0.097   5.373
10050SOL     OW31048   5.019   2.870   4.303
10050SOL    HW131049   4.941   2.807   4.304
10050SOL    HW231050   5.092   2.833   4.247
10051SOL     OW31051   6.100   3.109   4.992
10051SOL    HW131052   6.141   3.079   5.078
10051SOL    HW231053   6.140   3.197   4.965
10052SOL     OW31054   1.109   3.619   1.650
10052SOL    HW131055   1.181   3.687   1.640
10052SOL    HW231056   1.094   3.600   1.747
10053SOL     OW31057   3.683   5.352   3.369
10053SOL    HW131058   3.699   5.433   3.425
10053SOL    HW231059   3.757   5.286   3.383
10054SOL     OW31060   3.942   5.600   5.064
10054SOL    HW131061   3.948   5.542   5.145
10054SOL    HW231062   3.919   5.693   5.092
10055SOL     OW31063   6.086   2.515   5.263
10055SOL    HW131064   6.079   2.544   5.167
10055SOL    HW231065   6.118   2.421   5.267
10056SOL     OW31066   6.219   4.903   1.670
10056SOL    HW131067   6.232   4.807   1.642
10056SOL    HW231068   6.253   4.963   1.598
10057SOL     OW31069   3.756   2.072   4.505
10057SOL    HW131070   3.839   2.113   4.468
10057SOL    HW231071   3.769   2.052   4.602
10058SOL     OW31072   0.505   5.490   3.904
10058SOL    HW131073   0.479   5.539   3.986
10058SOL    HW231074   0.542   5.554   3.837
10059SOL     OW31075   5.678   0.912   1.182
10059SOL    HW131076   5.583   0.920   1.210
10059SOL    HW231077   5.686   0.929   1.084
10060SOL     OW31078   2.783   2.571   1.716
10060SOL    HW131079   2.836   2.588   1.633
10060SOL    HW231080   2.842   2.530   1.785
10061SOL     OW31081   6.303   1.528   4.290
10061SOL    HW131082   6.231   1.532   4.360
10061SOL    HW231083   6.261   1.515   4.200
10062SOL     OW31084   6.808   5.641   3.206
10062SOL    HW131085   6.800   5.740   3.202
10062SOL    HW231086   6.872   5.616   3.279
10063SOL     OW31087   1.092   3.227   3.610
10063SOL    HW131088   1.102   3.154   3.543
10063SOL    HW231089   1.138   3.201   3.695
10064SOL     OW31090   5.416   6.059   4.623
10064SOL    HW131091   5.358   6.117   4.680
10064SOL    HW231092   5.395   6.076   4.526
10065SOL     OW31093   1.564   6.305   2.672
10065SOL    HW131094   1.602   6.214   2.683
10065SOL    HW231095   1.475   6.311   2.718
10066SOL     OW31096   0.841   0.098   4.082
10066SOL    HW131097   0.751   0.069   4.049
10066SOL    HW231098   0.902   0.112   4.005
10067SOL     OW31099   4.492   4.588   4.240
10067SOL    HW131100   4.484   4.685   4.219
10067SOL    HW231101   4.409   4.556   4.286
10068SOL     OW31102   5.049   3.826   4.950
10068SOL    HW131103   4.994   3.816   4.866
10068SOL    HW231104   5.053   3.739   4.997
10069SOL     OW31105   2.979   1.601   3.491
10069SOL    HW131106   3.066   1.608   3.540
10069SOL    HW231107   2.904   1.623   3.554
10070SOL     OW31108   1.135   6.583   4.638
10070SOL    HW131109   1.122   6.624   4.547
10070SOL    HW231110   1.055   6.530   4.663
10071SOL     OW31111   4.685   5.789   4.164
10071SOL    HW131112   4.743   5.743   4.097
10071SOL    HW231113   4.633   5.720   4.215
10072SOL     OW31114   0.332   6.731   3.249
10072SOL    HW131115   0.272   6.719   3.169
10072SOL    HW231116   0.425   6.747   3.218
10073SOL     OW31117   0.059   4.844   5.533
10073SOL    HW131118   0.090   4.805   5.619
10073SOL    HW231119   0.138   4.878   5.481
10074SOL     OW31120   1.921   0.333   6.236
10074SOL    HW131121   1.927   0.236   6.258
10074SOL    HW231122   1.831   0.369   6.261
10075SOL     OW31123   1.243   2.527   3.823
10075SOL    HW131124   1.176   2.567   3.762
10075SOL    HW231125   1.275   2.440   3.785
10076SOL     OW31126   4.650   6.752   4.575
10076SOL    HW131127   4.557   6.740   4.542
10076SOL    HW231128   4.662   6.700   4.660
10077SOL     OW31129   4.016   2.074   6.083
10077SOL    HW131130   4.040   2.086   6.179
10077SOL    HW231131   3.969   2.156   6.050
10078SOL     OW31132   5.872   0.096   5.412
10078SOL    HW131133   5.950   0.054   5.458
10078SOL    HW231134   5.810   0.134   5.480
10079SOL     OW31135   1.107   3.153   1.565
10079SOL    HW131136   1.144   3.237   1.605
10079SOL    HW231137   1.178   3.083   1.562
10080SOL     OW31138   1.816   2.840   0.243
10080SOL    HW131139   1.799   2.835   0.341
10080SOL    HW231140   1.889   2.776   0.219
10081SOL     OW31141   0.743   0.558   6.574
10081SOL    HW131142   0.795   0.568   6.659
10081SOL    HW231143   0.795   0.597   6.498
10082SOL     OW31144   6.114   2.466   1.690
10082SOL    HW131145   6.046   2.392   1.689
10082SOL    HW231146   6.206   2.426   1.689
10083SOL     OW31147   4.322   0.405   3.805
10083SOL    HW131148   4.272   0.389   3.890
10083SOL    HW231149   4.267   0.376   3.727
10084SOL     OW31150   2.169   1.091   6.021
10084SOL    HW131151   2.162   1.024   5.947
10084SOL    HW231152   2.263   1.093   6.055
10085SOL     OW31153   0.587   5.823   2.805
10085SOL    HW131154   0.497   5.783   2.818
10085SOL    HW231155   0.582   5.896   2.736
10086SOL     OW31156   5.703   4.347   1.882
10086SOL    HW131157   5.681   4.441   1.906
10086SOL    HW231158   5.772   4.345   1.809
10087SOL     OW31159   1.255   0.288   4.279
10087SOL    HW131160   1.299   0.377   4.285
10087SOL    HW231161   1.201   0.283   4.195
10088SOL     OW31162   1.093   6.850   4.759
10088SOL    HW131163   1.132   6.922   4.702
10088SOL    HW231164   1.114   6.761   4.719
10089SOL     OW31165   1.872   2.163   1.996
10089SOL    HW131166   1.848   2.199   2.086
10089SOL    HW231167   1.930   2.082   2.007
10090SOL     OW31168   1.230   4.191   0.958
10090SOL    HW131169   1.241   4.287   0.933
10090SOL    HW231170   1.250   4.133   0.878
10091SOL     OW31171   0.966   3.254   4.297
10091SOL    HW131172   0.951   3.208   4.210
10091SOL    HW231173   1.057   3.232   4.333
10092SOL     OW31174   1.828   3.538   5.229
10092SOL    HW131175   1.786   3.528   5.139
10092SOL    HW231176   1.825   3.635   5.256
10093SOL     OW31177   6.525   5.618   5.769
10093SOL    HW131178   6.447   5.564   5.737
10093SOL    HW231179   6.603   5.603   5.709
10094SOL     OW31180   2.053   1.287   2.609
10094SOL    HW131181   2.087   1.366   2.659
10094SOL    HW231182   2.116   1.211   2.620
10095SOL     OW31183   7.012   1.146   6.247
10095SOL    HW131184   7.000   1.100   6.335
10095SOL    HW231185   6.963   1.233   6.248
10096SOL     OW31186   0.176   5.480   2.445
10096SOL    HW131187   0.087   5.454   2.409
10096SOL    HW231188   0.246   5.466   2.375
10097SOL     OW31189   1.818   0.918   1.170
10097SOL    HW131190   1.733   0.922   1.117
10097SOL    HW231191   1.874   0.843   1.137
10098SOL     OW31192   2.132   5.767   6.432
10098SOL    HW131193   2.204   5.783   6.365
10098SOL    HW231194   2.164   5.795   6.523
10099SOL     OW31195   6.887   4.089   5.005
10099SOL    HW131196   6.968   4.128   4.961
10099SOL    HW231197   6.806   4.141   4.978
10100SOL     OW31198   4.781   0.482   4.785
10100SOL    HW131199   4.750   0.395   4.826
10100SOL    HW231200   4.760   0.557   4.848
10101SOL     OW31201   6.731   4.615   2.573
10101SOL    HW131202   6.748   4.708   2.604
10101SOL    HW231203   6.778   4.550   2.633
10102SOL     OW31204   2.999   1.806   2.246
10102SOL    HW131205   2.945   1.888   2.267
10102SOL    HW231206   2.975   1.772   2.156
10103SOL     OW31207   2.341   1.505   5.568
10103SOL    HW131208   2.438   1.525   5.558
10103SOL    HW231209   2.321   1.485   5.664
10104SOL     OW31210   0.834   5.276   5.005
10104SOL    HW131211   0.776   5.204   4.968
10104SOL    HW231212   0.808   5.364   4.965
10105SOL     OW31213   1.920   0.598   6.522
10105SOL    HW131214   1.985   0.663   6.482
10105SOL    HW231215   1.842   0.649   6.560
10106SOL     OW31216   5.046   6.162   1.004
10106SOL    HW131217   4.961   6.216   1.001
10106SOL    HW231218   5.119   6.214   0.960
10107SOL     OW31219   5.878   1.122   6.034
10107SOL    HW131220   5.878   1.213   5.992
10107SOL    HW231221   5.946   1.119   6.108
10108SOL     OW31222   6.490   0.029   0.407
10108SOL    HW131223   6.449   6.978   0.345
10108SOL    HW231224   6.544   7.000   0.477
10109SOL     OW31225   4.724   5.766   3.603
10109SOL    HW131226   4.700   5.822   3.683
10109SOL    HW231227   4.650   5.702   3.584
10110SOL     OW31228   3.697   0.246   5.855
10110SOL    HW131229   3.765   0.209   5.918
10110SOL    HW231230   3.736   0.323   5.805
10111SOL     OW31231   6.551   3.252   3.262
10111SOL    HW131232   6.489   3.173   3.261
10111SOL    HW231233   6.613   3.246   3.184
10112SOL     OW31234   5.267   3.976   5.551
10112SOL    HW131235   5.227   3.949   5.639
10112SOL    HW231236   5.366   3.988   5.562
10113SOL     OW31237   3.941   0.090   7.005
10113SOL    HW131238   4.035   0.118   6.986
10113SOL    HW231239   3.886   0.097   6.922
10114SOL     OW31240   5.052   1.159   0.430
10114SOL    HW131241   5.140   1.144   0.385
10114SOL    HW231242   5.051   1.110   0.518
10115SOL     OW31243   1.916   2.331   3.896
10115SOL    HW131244   1.948   2.271   3.823
10115SOL    HW231245   1.918   2.426   3.866
10116SOL     OW31246   0.223   0.563   1.239
10116SOL    HW131247   0.250   0.543   1.145
10116SOL    HW231248   0.182   0.654   1.243
10117SOL     OW31249   6.129   0.298   5.502
10117SOL    HW131250   6.190   0.289   5.423
10117SOL    HW231251   6.052   0.358   5.479
10118SOL     OW31252   6.651   5.102   2.784
10118SOL    HW131253   6.656   5.087   2.685
10118SOL    HW231254   6.572   5.160   2.805
10119SOL     OW31255   2.538   0.592   5.486
10119SOL    HW131256   2.587   0.586   5.399
10119SOL    HW231257   2.559   0.512   5.542
10120SOL     OW31258   0.603   3.154   3.648
10120SOL    HW131259   0.679   3.170   3.586
10120SOL    HW231260   0.557   3.068   3.622
10121SOL     OW31261   5.521   4.725   5.174
10121SOL    HW131262   5.487   4.665   5.102
10121SOL    HW231263   5.551   4.811   5.135
10122SOL     OW31264   5.122   3.008   6.788
10122SOL    HW131265   5.170   3.076   6.733
10122SOL    HW231266   5.132   3.030   6.884
10123SOL     OW31267   0.053   6.286   0.824
10123SOL    HW131268   0.150   6.311   0.831
10123SOL    HW231269   0.016   6.273   0.916
10124SOL     OW31270   3.148   3.865   0.234
10124SOL    HW131271   3.206   3.818   0.302
10124SOL    HW231272   3.171   3.833   0.143
10125SOL     OW31273   1.379   0.496   2.866
10125SOL    HW131274   1.298   0.527   2.816
10125SOL    HW231275   1.459   0.548   2.834
10126SOL     OW31276   6.462   5.164   0.514
10126SOL    HW131277   6.518   5.110   0.451
10126SOL    HW231278   6.477   5.261   0.496
10127SOL     OW31279   3.321   5.416   5.452
10127SOL    HW131280   3.395   5.354   5.478
10127SOL    HW231281   3.251   5.365   5.401
10128SOL     OW31282   6.592   1.954   0.508
10128SOL    HW131283   6.493   1.939   0.515
10128SOL    HW231284   6.638   1.904   0.581
10129SOL     OW31285   5.349   2.404   3.751
10129SOL    HW131286   5.344   2.471   3.824
10129SOL    HW231287   5.372   2.450   3.665
10130SOL     OW31288   0.039   5.830   2.835
10130SOL    HW131289   7.009   5.755   2.788
10130SOL    HW231290   0.134   5.833   2.805
10131SOL     OW31291   0.543   1.593   2.292
10131SOL    HW131292   0.505   1.565   2.203
10131SOL    HW231293   0.536   1.518   2.357
10132SOL     OW31294   3.134   6.566   2.960
10132SOL    HW131295   3.152   6.506   3.039
10132SOL    HW231296   3.098   6.653   2.993
10133SOL     OW31297   4.463   5.986   3.677
10133SOL    HW131298   4.388   6.011   3.738
10133SOL    HW231299   4.430   5.922   3.608
10134SOL     OW31300   6.894   1.168   3.521
10134SOL    HW131301   6.803   1.129   3.534
10134SOL    HW231302   6.961   1.113   3.571
10135SOL     OW31303   4.208   5.069   2.857
10135SOL    HW131304   4.173   5.003   2.924
10135SOL    HW231305   4.135   5.098   2.797
10136SOL     OW31306   6.127   0.199   3.529
10136SOL    HW131307   6.210   0.158   3.568
10136SOL    HW231308   6.097   0.275   3.587
10137SOL     OW31309   6.549   5.784   4.450
10137SOL    HW131310   6.491   5.839   4.510
10137SOL    HW231311   6.620   5.739   4.504
10138SOL     OW31312   6.100   2.049   0.347
10138SOL    HW131313   6.071   2.081   0.437
10138SOL    HW231314   6.040   1.975   0.317
10139SOL     OW31315   3.265   2.947   3.502
10139SOL    HW131316   3.199   3.017   3.476
10139SOL    HW231317   3.337   2.942   3.432
10140SOL     OW31318   6.523   5.612   6.875
10140SOL    HW131319   6.547   5.569   6.787
10140SOL    HW231320   6.559   5.556   6.950
10141SOL     OW31321   2.159   1.492   4.844
10141SOL    HW131322   2.094   1.550   4.894
10141SOL    HW231323   2.219   1.550   4.789
10142SOL     OW31324   4.238   6.298   5.045
10142SOL    HW131325   4.264   6.383   4.999
10142SOL    HW231326   4.310   6.230   5.032
10143SOL     OW31327   4.875   6.976   1.201
10143SOL    HW131328   4.960   0.009   1.212
10143SOL    HW231329   4.800   0.022   1.183
10144SOL     OW31330   3.053   5.595   5.125
10144SOL    HW131331   3.087   5.677   5.079
10144SOL    HW231332   3.064   5.606   5.224
10145SOL     OW31333   2.832   6.062   6.089
10145SOL    HW131334   2.772   5.992   6.050
10145SOL    HW231335   2.878   6.111   6.016
10146SOL     OW31336   3.998   5.550   4.334
10146SOL    HW131337   4.033   5.471   4.384
10146SOL    HW231338   3.963   5.618   4.398
10147SOL     OW31339   4.718   4.120   4.058
10147SOL    HW131340   4.762   4.138   4.145
10147SOL    HW231341   4.766   4.047   4.010
10148SOL     OW31342   6.259   5.757   0.723
10148SOL    HW131343   6.233   5.766   0.627
10148SOL    HW231344   6.254   5.846   0.767
10149SOL     OW31345   4.503   1.803   1.156
10149SOL    HW131346   4.428   1.839   1.212
10149SOL    HW231347   4.465   1.757   1.076
10150SOL     OW31348   4.770   4.605   0.664
10150SOL    HW131349   4.765   4.563   0.574
10150SOL    HW231350   4.859   4.649   0.675
10151SOL     OW31351   1.100   0.173   6.576
10151SOL    HW131352   1.069   0.078   6.577
10151SOL    HW231353   1.032   0.230   6.532
10152SOL     OW31354   1.255   4.826   3.460
10152SOL    HW131355   1.347   4.863   3.473
10152SOL    HW231356   1.248   4.787   3.368
10153SOL     OW31357   4.714   6.165   3.507
10153SOL    HW131358   4.656   6.208   3.438
10153SOL    HW231359   4.662   6.095   3.555
10154SOL     OW31360   6.697   6.167   5.962
10154SOL    HW131361   6.648   6.203   5.883
10154SOL    HW231362   6.778   6.117   5.931
10155SOL     OW31363   3.911   0.520   5.946
10155SOL    HW131364   3.907   0.614   5.979
10155SOL    HW231365   3.874   0.514   5.854
10156SOL     OW31366   5.222   0.127   2.692
10156SOL    HW131367   5.123   0.121   2.684
10156SOL    HW231368   5.263   0.129   2.601
10157SOL     OW31369   6.039   1.316   6.225
10157SOL    HW131370   6.021   1.383   6.298
10157SOL    HW231371   6.020   1.358   6.136
10158SOL     OW31372   4.804   3.598   0.010
10158SOL    HW131373   4.777   3.683   0.055
10158SOL    HW231374   4.904   3.595   0.004
10159SOL     OW31375   2.449   2.931   6.018
10159SOL    HW131376   2.451   2.891   5.926
10159SOL    HW231377   2.512   3.008   6.022
10160SOL     OW31378   0.535   4.582   3.324
10160SOL    HW131379   0.462   4.643   3.355
10160SOL    HW231380   0.587   4.627   3.252
10161SOL     OW31381   3.165   4.805   6.753
10161SOL    HW131382   3.241   4.770   6.698
10161SOL    HW231383   3.113   4.728   6.791
10162SOL     OW31384   2.348   3.243   6.483
10162SOL    HW131385   2.336   3.242   6.384
10162SOL    HW231386   2.287   3.175   6.525
10163SOL     OW31387   6.280   3.801   6.158
10163SOL    HW131388   6.275   3.899   6.181
10163SOL    HW231389   6.198   3.755   6.192
10164SOL     OW31390   6.459   3.132   4.806
10164SOL    HW131391   6.423   3.104   4.717
10164SOL    HW231392   6.556   3.109   4.812
10165SOL     OW31393   0.762   2.364   4.579
10165SOL    HW131394   0.737   2.416   4.661
10165SOL    HW231395   0.733   2.413   4.497
10166SOL     OW31396   3.221   1.488   1.569
10166SOL    HW131397   3.244   1.417   1.635
10166SOL    HW231398   3.141   1.540   1.601
10167SOL     OW31399   5.397   1.482   6.406
10167SOL    HW131400   5.483   1.473   6.455
10167SOL    HW231401   5.409   1.546   6.330
10168SOL     OW31402   6.880   4.273   4.712
10168SOL    HW131403   6.916   4.342   4.775
10168SOL    HW231404   6.944   4.260   4.636
10169SOL     OW31405   6.295   4.948   3.299
10169SOL    HW131406   6.356   5.019   3.334
10169SOL    HW231407   6.300   4.868   3.358
10170SOL     OW31408   1.041   4.255   5.118
10170SOL    HW131409   1.074   4.185   5.054
10170SOL    HW231410   1.071   4.231   5.210
10171SOL     OW31411   6.892   4.170   6.023
10171SOL    HW131412   6.991   4.181   6.016
10171SOL    HW231413   6.869   4.073   6.031
10172SOL     OW31414   5.416   0.823   2.667
10172SOL    HW131415   5.420   0.870   2.756
10172SOL    HW231416   5.348   0.869   2.609
10173SOL     OW31417   1.971   1.646   0.817
10173SOL    HW131418   1.998   1.671   0.910
10173SOL    HW231419   2.029   1.694   0.751
10174SOL     OW31420   5.608   4.450   3.063
10174SOL    HW131421   5.509   4.437   3.072
10174SOL    HW231422   5.629   4.478   2.969
10175SOL     OW31423   6.297   2.636   4.264
10175SOL    HW131424   6.365   2.673   4.328
10175SOL    HW231425   6.243   2.711   4.225
10176SOL     OW31426   1.687   3.153   6.190
10176SOL    HW131427   1.750   3.105   6.128
10176SOL    HW231428   1.616   3.198   6.136
10177SOL     OW31429   3.284   0.080   0.313
10177SOL    HW131430   3.191   0.047   0.327
10177SOL    HW231431   3.313   0.133   0.393
10178SOL     OW31432   5.976   2.987   4.404
10178SOL    HW131433   6.017   2.896   4.408
10178SOL    HW231434   5.885   2.984   4.445
10179SOL     OW31435   0.741   2.143   6.399
10179SOL    HW131436   0.716   2.063   6.344
10179SOL    HW231437   0.658   2.191   6.428
10180SOL     OW31438   3.017   5.563   5.927
10180SOL    HW131439   2.965   5.490   5.973
10180SOL    HW231440   2.998   5.561   5.829
10181SOL     OW31441   5.435   3.514   1.643
10181SOL    HW131442   5.528   3.479   1.634
10181SOL    HW231443   5.388   3.463   1.715
10182SOL     OW31444   5.730   1.201   1.357
10182SOL    HW131445   5.816   1.151   1.342
10182SOL    HW231446   5.739   1.256   1.440
10183SOL     OW31447   1.259   1.945   6.688
10183SOL    HW131448   1.228   2.040   6.686
10183SOL    HW231449   1.206   1.891   6.622
10184SOL     OW31450   4.684   2.056   6.147
10184SOL    HW131451   4.667   2.051   6.245
10184SOL    HW231452   4.782   2.058   6.130
10185SOL     OW31453   4.819   6.827   0.978
10185SOL    HW131454   4.900   6.797   0.928
10185SOL    HW231455   4.845   6.861   1.068
10186SOL     OW31456   5.505   2.888   3.262
10186SOL    HW131457   5.474   2.811   3.208
10186SOL    HW231458   5.525   2.966   3.202
10187SOL     OW31459   0.618   2.154   1.773
10187SOL    HW131460   0.616   2.099   1.857
10187SOL    HW231461   0.700   2.132   1.721
10188SOL     OW31462   3.746   6.539   0.373
10188SOL    HW131463   3.779   6.520   0.466
10188SOL    HW231464   3.786   6.472   0.310
10189SOL     OW31465   2.314   6.316   5.348
10189SOL    HW131466   2.375   6.339   5.272
10189SOL    HW231467   2.223   6.295   5.311
10190SOL     OW31468   4.933   2.309   0.710
10190SOL    HW131469   4.877   2.389   0.690
10190SOL    HW231470   4.961   2.309   0.806
10191SOL     OW31471   5.212   4.543   6.772
10191SOL    HW131472   5.126   4.589   6.752
10191SOL    HW231473   5.283   4.611   6.790
10192SOL     OW31474   3.660   0.484   4.814
10192SOL    HW131475   3.735   0.521   4.759
10192SOL    HW231476   3.574   0.494   4.764
10193SOL     OW31477   4.305   4.146   1.193
10193SOL    HW131478   4.209   4.124   1.172
10193SOL    HW231479   4.340   4.209   1.124
10194SOL     OW31480   5.763   4.421   4.962
10194SOL    HW131481   5.822   4.464   4.893
10194SOL    HW231482   5.820   4.375   5.030
10195SOL     OW31483   6.030   4.424   1.446
10195SOL    HW131484   5.993   4.517   1.441
10195SOL    HW231485   6.017   4.378   1.359
10196SOL     OW31486   6.536   1.487   4.793
10196SOL    HW131487   6.531   1.550   4.715
10196SOL    HW231488   6.448   1.484   4.839
10197SOL     OW31489   6.653   0.806   4.815
10197SOL    HW131490   6.688   0.880   4.757
10197SOL    HW231491   6.682   0.718   4.776
10198SOL     OW31492   3.913   0.837   2.468
10198SOL    HW131493   3.977   0.818   2.394
10198SOL    HW231494   3.916   0.762   2.535
10199SOL     OW31495   0.968   2.866   5.259
10199SOL    HW131496   1.013   2.786   5.218
10199SOL    HW231497   0.888   2.836   5.310
10200SOL     OW31498   5.277   2.712   1.251
10200SOL    HW131499   5.305   2.623   1.287
10200SOL    HW231500   5.265   2.776   1.327
10201SOL     OW31501   1.649   4.329   1.114
10201SOL    HW131502   1.682   4.416   1.150
10201SOL    HW231503   1.596   4.347   1.030
10202SOL     OW31504   3.971   1.672   5.408
10202SOL    HW131505   3.995   1.644   5.501
10202SOL    HW231506   3.986   1.771   5.398
10203SOL     OW31507   5.544   2.210   5.097
10203SOL    HW131508   5.584   2.229   5.187
10203SOL    HW231509   5.612   2.228   5.026
10204SOL     OW31510   5.321   6.912   6.552
10204SOL    HW131511   5.334   6.998   6.502
10204SOL    HW231512   5.224   6.892   6.559
10205SOL     OW31513   0.935   0.823   6.919
10205SOL    HW131514   1.018   0.871   6.947
10205SOL    HW231515   0.856   0.884   6.933
10206SOL     OW31516   1.121   0.587   5.871
10206SOL    HW131517   1.097   0.598   5.967
10206SOL    HW231518   1.198   0.524   5.863
10207SOL     OW31519   1.540   1.993   5.681
10207SOL    HW131520   1.587   2.019   5.597
10207SOL    HW231521   1.508   2.075   5.729
10208SOL     OW31522   5.224   4.970   5.176
10208SOL    HW131523   5.145   4.966   5.115
10208SOL    HW231524   5.200   5.022   5.258
10209SOL     OW31525   6.764   0.206   5.788
10209SOL    HW131526   6.749   0.287   5.845
10209SOL    HW231527   6.765   0.124   5.845
10210SOL     OW31528   4.158   6.092   1.807
10210SOL    HW131529   4.159   6.169   1.871
10210SOL    HW231530   4.117   6.012   1.852
10211SOL     OW31531   3.896   6.485   5.470
10211SOL    HW131532   3.799   6.495   5.493
10211SOL    HW231533   3.941   6.575   5.476
10212SOL     OW31534   1.025   0.087   5.933
10212SOL    HW131535   0.961   0.015   5.906
10212SOL    HW231536   1.034   0.087   6.033
10213SOL     OW31537   5.508   1.908   0.104
10213SOL    HW131538   5.412   1.917   0.129
10213SOL    HW231539   5.565   1.954   0.172
10214SOL     OW31540   1.361   2.991   1.575
10214SOL    HW131541   1.359   2.893   1.594
10214SOL    HW231542   1.363   3.005   1.476
10215SOL     OW31543   3.730   3.584   2.694
10215SOL    HW131544   3.794   3.558   2.621
10215SOL    HW231545   3.755   3.536   2.778
10216SOL     OW31546   5.996   0.332   2.096
10216SOL    HW131547   5.996   0.281   2.010
10216SOL    HW231548   6.088   0.366   2.115
10217SOL     OW31549   3.024   1.372   3.629
10217SOL    HW131550   3.010   1.277   3.601
10217SOL    HW231551   3.005   1.433   3.552
10218SOL     OW31552   0.950   2.830   2.713
10218SOL    HW131553   1.026   2.896   2.715
10218SOL    HW231554   0.902   2.832   2.801
10219SOL     OW31555   0.530   1.329   2.456
10219SOL    HW131556   0.527   1.268   2.536
10219SOL    HW231557   0.437   1.340   2.419
10220SOL     OW31558   3.813   2.484   1.671
10220SOL    HW131559   3.819   2.582   1.693
10220SOL    HW231560   3.771   2.435   1.748
10221SOL     OW31561   1.313   6.384   2.750
10221SOL    HW131562   1.263   6.450   2.807
10221SOL    HW231563   1.319   6.418   2.657
10222SOL     OW31564   3.285   3.697   4.593
10222SOL    HW131565   3.301   3.737   4.503
10222SOL    HW231566   3.187   3.694   4.611
10223SOL     OW31567   0.827   5.500   1.125
10223SOL    HW131568   0.830   5.553   1.210
10223SOL    HW231569   0.734   5.468   1.109
10224SOL     OW31570   5.850   4.228   3.525
10224SOL    HW131571   5.860   4.323   3.556
10224SOL    HW231572   5.757   4.213   3.494
10225SOL     OW31573   2.144   3.607   5.906
10225SOL    HW131574   2.238   3.639   5.920
10225SOL    HW231575   2.130   3.584   5.810
10226SOL     OW31576   4.499   2.494   0.203
10226SOL    HW131577   4.569   2.487   0.274
10226SOL    HW231578   4.446   2.409   0.200
10227SOL     OW31579   6.022   4.062   0.805
10227SOL    HW131580   6.018   4.162   0.811
10227SOL    HW231581   5.931   4.026   0.783
10228SOL     OW31582   5.212   1.195   0.993
10228SOL    HW131583   5.271   1.201   1.074
10228SOL    HW231584   5.222   1.104   0.952
10229SOL     OW31585   0.669   3.556   4.822
10229SOL    HW131586   0.664   3.653   4.798
10229SOL    HW231587   0.763   3.523   4.812
10230SOL     OW31588   6.730   6.031   2.231
10230SOL    HW131589   6.753   5.938   2.258
10230SOL    HW231590   6.690   6.030   2.139
10231SOL     OW31591   1.496   6.276   3.199
10231SOL    HW131592   1.432   6.353   3.193
10231SOL    HW231593   1.584   6.303   3.161
10232SOL     OW31594   4.910   6.885   2.912
10232SOL    HW131595   4.933   6.981   2.894
10232SOL    HW231596   4.841   6.854   2.847
10233SOL     OW31597   4.345   4.155   6.616
10233SOL    HW131598   4.279   4.216   6.572
10233SOL    HW231599   4.404   4.115   6.546
10234SOL     OW31600   6.901   0.832   1.523
10234SOL    HW131601   6.905   0.824   1.423
10234SOL    HW231602   6.853   0.752   1.560
10235SOL     OW31603   0.973   1.185   3.463
10235SOL    HW131604   1.012   1.127   3.392
10235SOL    HW231605   0.938   1.127   3.537
10236SOL     OW31606   2.162   0.055   1.209
10236SOL    HW131607   2.261   0.049   1.226
10236SOL    HW231608   2.120   6.983   1.226
10237SOL     OW31609   0.687   3.692   6.532
10237SOL    HW131610   0.751   3.763   6.562
10237SOL    HW231611   0.660   3.637   6.610
10238SOL     OW31612   3.891   5.688   0.910
10238SOL    HW131613   3.831   5.692   0.989
10238SOL    HW231614   3.944   5.773   0.904
10239SOL     OW31615   1.523   2.309   4.498
10239SOL    HW131616   1.469   2.393   4.508
10239SOL    HW231617   1.618   2.328   4.519
10240SOL     OW31618   2.653   6.605   0.746
10240SOL    HW131619   2.562   6.587   0.709
10240SOL    HW231620   2.651   6.690   0.800
10241SOL     OW31621   4.008   2.500   1.504
10241SOL    HW131622   3.945   2.509   1.581
10241SOL    HW231623   4.101   2.515   1.535
10242SOL     OW31624   6.796   2.611   0.268
10242SOL    HW131625   6.878   2.586   0.319
10242SOL    HW231626   6.731   2.535   0.269
10243SOL     OW31627   2.581   5.112   1.190
10243SOL    HW131628   2.537   5.030   1.226
10243SOL    HW231629   2.617   5.166   1.266
10244SOL     OW31630   2.431   4.012   1.569
10244SOL    HW131631   2.526   3.988   1.590
10244SOL    HW231632   2.378   4.014   1.654
10245SOL     OW31633   3.836   4.475   0.460
10245SOL    HW131634   3.834   4.438   0.367
10245SOL    HW231635   3.804   4.570   0.459
10246SOL     OW31636   3.331   3.163   4.647
10246SOL    HW131637   3.241   3.167   4.690
10246SOL    HW231638   3.400   3.201   4.709
10247SOL     OW31639   1.139   3.624   4.402
10247SOL    HW131640   1.139   3.555   4.475
10247SOL    HW231641   1.046   3.657   4.387
10248SOL     OW31642   1.172   0.340   3.540
10248SOL    HW131643   1.213   0.430   3.553
10248SOL    HW231644   1.094   0.329   3.601
10249SOL     OW31645   2.188   4.546   6.417
10249SOL    HW131646   2.209   4.520   6.511
10249SOL    HW231647   2.220   4.475   6.355
10250SOL     OW31648   5.080   2.747   6.813
10250SOL    HW131649   5.102   2.843   6.793
10250SOL    HW231650   4.993   2.742   6.862
10251SOL     OW31651   1.977   0.373   4.544
10251SOL    HW131652   2.057   0.332   4.587
10251SOL    HW231653   2.005   0.454   4.492
10252SOL     OW31654   5.030   4.064   5.733
10252SOL    HW131655   5.094   4.008   5.786
10252SOL    HW231656   5.076   4.148   5.704
10253SOL     OW31657   4.224   6.590   6.800
10253SOL    HW131658   4.210   6.492   6.817
10253SOL    HW231659   4.235   6.637   6.888
10254SOL     OW31660   5.600   1.748   4.602
10254SOL    HW131661   5.544   1.666   4.608
10254SOL    HW231662   5.617   1.783   4.695
10255SOL     OW31663   3.558   5.328   1.690
10255SOL    HW131664   3.555   5.373   1.779
10255SOL    HW231665   3.482   5.264   1.682
10256SOL     OW31666   4.425   0.645   2.827
10256SOL    HW131667   4.335   0.623   2.792
10256SOL    HW231668   4.450   0.580   2.899
10257SOL     OW31669   3.216   5.177   2.871
10257SOL    HW131670   3.296   5.127   2.838
10257SOL    HW231671   3.134   5.123   2.851
10258SOL     OW31672   1.805   1.506   1.856
10258SOL    HW131673   1.766   1.589   1.896
10258SOL    HW231674   1.827   1.441   1.928
10259SOL     OW31675   0.873   3.579   4.033
10259SOL    HW131676   0.833   3.527   4.108
10259SOL    HW231677   0.805   3.590   3.960
10260SOL     OW31678   1.523   1.174   3.797
10260SOL    HW131679   1.522   1.257   3.853
10260SOL    HW231680   1.545   1.198   3.702
10261SOL     OW31681   6.544   3.715   0.790
10261SOL    HW131682   6.575   3.777   0.862
10261SOL    HW231683   6.459   3.670   0.820
10262SOL     OW31684   3.517   1.000   6.876
10262SOL    HW131685   3.564   1.070   6.930
10262SOL    HW231686   3.576   0.920   6.866
10263SOL     OW31687   5.860   0.716   2.127
10263SOL    HW131688   5.788   0.689   2.192
10263SOL    HW231689   5.857   0.656   2.048
10264SOL     OW31690   6.308   5.364   6.412
10264SOL    HW131691   6.334   5.271   6.437
10264SOL    HW231692   6.240   5.361   6.339
10265SOL     OW31693   1.956   1.876   0.149
10265SOL    HW131694   2.030   1.864   0.083
10265SOL    HW231695   1.877   1.918   0.104
10266SOL     OW31696   3.019   3.835   2.189
10266SOL    HW131697   2.964   3.766   2.235
10266SOL    HW231698   3.064   3.892   2.258
10267SOL     OW31699   6.019   1.041   0.888
10267SOL    HW131700   6.004   1.137   0.913
10267SOL    HW231701   5.984   1.025   0.796
10268SOL     OW31702   4.687   0.211   0.982
10268SOL    HW131703   4.786   0.195   0.985
10268SOL    HW231704   4.669   0.292   0.927
10269SOL     OW31705   2.021   2.448   6.347
10269SOL    HW131706   2.038   2.361   6.392
10269SOL    HW231707   1.993   2.432   6.252
10270SOL     OW31708   2.950   5.927   1.624
10270SOL    HW131709   2.986   5.979   1.702
10270SOL    HW231710   3.024   5.907   1.560
10271SOL     OW31711   1.518   2.320   0.110
10271SOL    HW131712   1.535   2.281   0.019
10271SOL    HW231713   1.444   2.270   0.154
10272SOL     OW31714   6.804   0.703   4.504
10272SOL    HW131715   6.706   0.684   4.503
10272SOL    HW231716   6.819   0.801   4.510
10273SOL     OW31717   2.376   4.983   3.591
10273SOL    HW131718   2.390   4.919   3.667
10273SOL    HW231719   2.463   5.002   3.547
10274SOL     OW31720   0.412   5.270   4.836
10274SOL    HW131721   0.330   5.223   4.803
10274SOL    HW231722   0.410   5.275   4.936
10275SOL     OW31723   0.106   0.393   2.904
10275SOL    HW131724   0.098   0.344   2.817
10275SOL    HW231725   0.076   0.488   2.891
10276SOL     OW31726   4.296   5.815   6.125
10276SOL    HW131727   4.295   5.907   6.164
10276SOL    HW231728   4.203   5.790   6.096
10277SOL     OW31729   1.136   6.231   4.343
10277SOL    HW131730   1.039   6.236   4.364
10277SOL    HW231731   1.185   6.189   4.419
10278SOL     OW31732   0.296   0.336   5.273
10278SOL    HW131733   0.357   0.381   5.338
10278SOL    HW231734   0.271   0.246   5.308
10279SOL     OW31735   1.751   5.588   4.153
10279SOL    HW131736   1.709   5.501   4.127
10279SOL    HW231737   1.816   5.617   4.083
10280SOL     OW31738   5.416   4.292   0.493
10280SOL    HW131739   5.469   4.258   0.416
10280SOL    HW231740   5.411   4.221   0.564
10281SOL     OW31741   6.550   2.210   3.581
10281SOL    HW131742   6.549   2.287   3.517
10281SOL    HW231743   6.609   2.138   3.545
10282SOL     OW31744   4.871   3.961   3.403
10282SOL    HW131745   4.830   4.047   3.375
10282SOL    HW231746   4.960   3.950   3.358
10283SOL     OW31747   0.248   4.052   1.016
10283SOL    HW131748   0.346   4.045   1.034
10283SOL    HW231749   0.198   4.032   1.100
10284SOL     OW31750   0.429   2.631   3.449
10284SOL    HW131751   0.389   2.714   3.409
10284SOL    HW231752   0.426   2.638   3.549
10285SOL     OW31753   4.603   6.065   4.182
10285SOL    HW131754   4.611   6.088   4.085
10285SOL    HW231755   4.600   5.966   4.193
10286SOL     OW31756   2.937   1.307   4.719
10286SOL    HW131757   2.870   1.245   4.678
10286SOL    HW231758   2.906   1.401   4.708
10287SOL     OW31759   2.178   5.637   2.490
10287SOL    HW131760   2.197   5.696   2.569
10287SOL    HW231761   2.137   5.552   2.522
10288SOL     OW31762   3.875   0.275   5.155
10288SOL    HW131763   3.845   0.341   5.223
10288SOL    HW231764   3.973   0.285   5.139
10289SOL     OW31765   2.465   6.517   6.962
10289SOL    HW131766   2.526   6.484   0.017
10289SOL    HW231767   2.464   6.451   6.887
10290SOL     OW31768   3.280   2.876   2.483
10290SOL    HW131769   3.206   2.829   2.529
10290SOL    HW231770   3.264   2.875   2.384
10291SOL     OW31771   3.068   1.479   2.333
10291SOL    HW131772   3.108   1.412   2.395
10291SOL    HW231773   3.088   1.454   2.238
10292SOL     OW31774   6.638   6.834   6.383
10292SOL    HW131775   6.617   6.930   6.397
10292SOL    HW231776   6.689   6.799   6.462
10293SOL     OW31777   0.648   3.817   3.883
10293SOL    HW131778   0.626   3.725   3.852
10293SOL    HW231779   0.642   3.881   3.807
10294SOL     OW31780   3.701   1.836   2.596
10294SOL    HW131781   3.714   1.934   2.587
10294SOL    HW231782   3.612   1.810   2.560
10295SOL     OW31783   0.959   2.198   0.032
10295SOL    HW131784   0.997   2.288   0.051
10295SOL    HW231785   0.911   2.200   6.961
10296SOL     OW31786   5.815   1.149   5.523
10296SOL    HW131787   5.835   1.059   5.561
10296SOL    HW231788   5.716   1.166   5.530
10297SOL     OW31789   2.937   1.775   6.542
10297SOL    HW131790   3.030   1.810   6.555
10297SOL    HW231791   2.875   1.851   6.524
10298SOL     OW31792   0.580   3.152   2.517
10298SOL    HW131793   0.569   3.190   2.425
10298SOL    HW231794   0.566   3.053   2.513
10299SOL     OW31795   4.497   6.453   2.117
10299SOL    HW131796   4.490   6.393   2.037
10299SOL    HW231797   4.453   6.540   2.097
10300SOL     OW31798   0.738   3.503   1.832
10300SOL    HW131799   0.809   3.565   1.865
10300SOL    HW231800   0.765   3.466   1.743
10301SOL     OW31801   4.499   0.833   6.272
10301SOL    HW131802   4.505   0.733   6.271
10301SOL    HW231803   4.557   0.869   6.345
10302SOL     OW31804   2.452   6.095   4.383
10302SOL    HW131805   2.462   6.009   4.332
10302SOL    HW231806   2.356   6.125   4.379
10303SOL     OW31807   1.000   6.141   4.772
10303SOL    HW131808   0.939   6.148   4.851
10303SOL    HW231809   1.010   6.232   4.730
10304SOL     OW31810   6.021   6.922   0.199
10304SOL    HW131811   6.052   6.834   0.164
10304SOL    HW231812   6.089   6.959   0.263
10305SOL     OW31813   2.685   3.868   5.949
10305SOL    HW131814   2.610   3.905   5.895
10305SOL    HW231815   2.692   3.919   6.035
10306SOL     OW31816   5.694   0.213   1.146
10306SOL    HW131817   5.641   0.130   1.162
10306SOL    HW231818   5.748   0.234   1.228
10307SOL     OW31819   3.053   0.570   4.556
10307SOL    HW131820   3.012   0.661   4.555
10307SOL    HW231821   3.056   0.534   4.462
10308SOL     OW31822   2.532   4.662   2.717
10308SOL    HW131823   2.509   4.580   2.769
10308SOL    HW231824   2.599   4.717   2.768
10309SOL     OW31825   6.424   1.377   5.655
10309SOL    HW131826   6.487   1.316   5.703
10309SOL    HW231827   6.453   1.387   5.560
10310SOL     OW31828   2.772   2.663   6.565
10310SOL    HW131829   2.693   2.696   6.617
10310SOL    HW231830   2.789   2.725   6.488
10311SOL     OW31831   5.482   6.273   6.848
10311SOL    HW131832   5.532   6.186   6.840
10311SOL    HW231833   5.510   6.334   6.775
10312SOL     OW31834   4.667   0.377   2.128
10312SOL    HW131835   4.676   0.348   2.223
10312SOL    HW231836   4.590   0.441   2.120
10313SOL     OW31837   4.581   6.498   2.761
10313SOL    HW131838   4.621   6.414   2.799
10313SOL    HW231839   4.484   6.502   2.783
10314SOL     OW31840   0.617   6.722   0.255
10314SOL    HW131841   0.698   6.749   0.306
10314SOL    HW231842   0.614   6.623   0.245
10315SOL     OW31843   5.375   6.390   3.477
10315SOL    HW131844   5.356   6.436   3.564
10315SOL    HW231845   5.380   6.291   3.493
10316SOL     OW31846   6.968   2.535   6.458
10316SOL    HW131847   0.049   2.515   6.465
10316SOL    HW231848   6.944   2.550   6.362
10317SOL     OW31849   3.214   5.911   5.972
10317SOL    HW131850   3.142   5.919   6.041
10317SOL    HW231851   3.268   5.995   5.971
10318SOL     OW31852   5.709   0.126   0.240
10318SOL    HW131853   5.717   0.026   0.241
10318SOL    HW231854   5.795   0.166   0.273
10319SOL     OW31855   0.317   4.640   4.279
10319SOL    HW131856   0.340   4.725   4.327
10319SOL    HW231857   0.400   4.603   4.236
10320SOL     OW31858   7.005   0.506   3.414
10320SOL    HW131859   0.060   0.556   3.367
10320SOL    HW231860   0.005   0.408   3.407
10321SOL     OW31861   5.655   2.181   1.678
10321SOL    HW131862   5.629   2.232   1.760
10321SOL    HW231863   5.615   2.225   1.597
10322SOL     OW31864   4.537   4.500   4.549
10322SOL    HW131865   4.551   4.472   4.644
10322SOL    HW231866   4.531   4.419   4.491
10323SOL     OW31867   0.339   4.516   5.258
10323SOL    HW131868   0.256   4.571   5.246
10323SOL    HW231869   0.336   4.469   5.346
10324SOL     OW31870   3.318   3.366   2.346
10324SOL    HW131871   3.321   3.277   2.391
10324SOL    HW231872   3.379   3.429   2.394
10325SOL     OW31873   0.172   5.669   2.064
10325SOL    HW131874   0.263   5.687   2.102
10325SOL    HW231875   0.147   5.574   2.084
10326SOL     OW31876   5.388   3.866   0.109
10326SOL    HW131877   5.293   3.895   0.094
10326SOL    HW231878   5.437   3.936   0.160
10327SOL     OW31879   2.941   4.111   1.339
10327SOL    HW131880   2.857   4.064   1.310
10327SOL    HW231881   2.929   4.146   1.432
10328SOL     OW31882   6.653   2.996   1.523
10328SOL    HW131883   6.732   3.031   1.572
10328SOL    HW231884   6.635   3.053   1.443
10329SOL     OW31885   3.250   1.681   2.922
10329SOL    HW131886   3.338   1.640   2.897
10329SOL    HW231887   3.266   1.766   2.973
10330SOL     OW31888   4.995   0.434   0.804
10330SOL    HW131889   5.071   0.372   0.785
10330SOL    HW231890   4.916   0.408   0.747
10331SOL     OW31891   6.405   5.810   0.244
10331SOL    HW131892   6.327   5.872   0.252
10331SOL    HW231893   6.380   5.721   0.282
10332SOL     OW31894   1.429   1.006   0.824
10332SOL    HW131895   1.329   1.013   0.821
10332SOL    HW231896   1.468   1.061   0.751
10333SOL     OW31897   0.910   5.975   4.279
10333SOL    HW131898   0.937   5.960   4.374
10333SOL    HW231899   0.962   5.914   4.219
10334SOL     OW31900   2.778   6.793   3.822
10334SOL    HW131901   2.760   6.789   3.920
10334SOL    HW231902   2.874   6.772   3.805
10335SOL     OW31903   0.458   4.127   6.049
10335SOL    HW131904   0.541   4.106   5.998
10335SOL    HW231905   0.378   4.117   5.990
10336SOL     OW31906   5.734   0.176   2.950
10336SOL    HW131907   5.687   0.096   2.986
10336SOL    HW231908   5.667   0.236   2.905
10337SOL     OW31909   6.280   5.582   0.358
10337SOL    HW131910   6.366   5.538   0.382
10337SOL    HW231911   6.236   5.533   0.284
10338SOL     OW31912   1.939   6.103   1.929
10338SOL    HW131913   1.887   6.023   1.959
10338SOL    HW231914   1.896   6.142   1.847
10339SOL     OW31915   6.895   2.824   5.809
10339SOL    HW131916   6.940   2.899   5.761
10339SOL    HW231917   6.887   2.848   5.906
10340SOL     OW31918   1.235   3.569   6.474
10340SOL    HW131919   1.198   3.511   6.401
10340SOL    HW231920   1.324   3.533   6.503
10341SOL     OW31921   2.202   2.894   2.507
10341SOL    HW131922   2.262   2.949   2.566
10341SOL    HW231923   2.107   2.920   2.522
10342SOL     OW31924   1.952   0.750   3.987
10342SOL    HW131925   1.990   0.693   3.914
10342SOL    HW231926   1.854   0.761   3.972
10343SOL     OW31927   2.182   5.596   0.748
10343SOL    HW131928   2.252   5.629   0.684
10343SOL    HW231929   2.227   5.562   0.831
10344SOL     OW31930   3.433   3.880   6.700
10344SOL    HW131931   3.440   3.842   6.792
10344SOL    HW231932   3.522   3.875   6.655
10345SOL     OW31933   1.440   2.917   5.033
10345SOL    HW131934   1.414   3.002   5.079
10345SOL    HW231935   1.515   2.935   4.970
10346SOL     OW31936   0.279   5.917   1.735
10346SOL    HW131937   0.376   5.899   1.749
10346SOL    HW231938   0.225   5.843   1.776
10347SOL     OW31939   4.291   1.068   4.157
10347SOL    HW131940   4.248   1.003   4.220
10347SOL    HW231941   4.345   1.018   4.090
10348SOL     OW31942   5.900   3.274   0.164
10348SOL    HW131943   5.898   3.315   0.255
10348SOL    HW231944   5.859   3.183   0.168
10349SOL     OW31945   0.670   0.114   6.378
10349SOL    HW131946   0.663   0.140   6.282
10349SOL    HW231947   0.653   0.016   6.388
10350SOL     OW31948   3.022   6.309   5.484
10350SOL    HW131949   2.972   6.321   5.398
10350SOL    HW231950   2.977   6.362   5.556
10351SOL     OW31951   4.344   5.169   5.998
10351SOL    HW131952   4.367   5.072   5.999
10351SOL    HW231953   4.245   5.180   5.998
10352SOL     OW31954   3.459   1.672   6.473
10352SOL    HW131955   3.394   1.598   6.488
10352SOL    HW231956   3.545   1.635   6.439
10353SOL     OW31957   6.388   2.774   4.489
10353SOL    HW131958   6.441   2.696   4.522
10353SOL    HW231959   6.309   2.789   4.548
10354SOL     OW31960   5.317   1.054   1.609
10354SOL    HW131961   5.358   0.993   1.677
10354SOL    HW231962   5.218   1.040   1.609
10355SOL     OW31963   2.567   6.064   2.342
10355SOL    HW131964   2.572   6.164   2.335
10355SOL    HW231965   2.626   6.023   2.274
10356SOL     OW31966   0.055   4.434   5.243
10356SOL    HW131967   7.003   4.389   5.186
10356SOL    HW231968   0.146   4.403   5.217
10357SOL     OW31969   2.266   2.230   6.402
10357SOL    HW131970   2.184   2.208   6.454
10357SOL    HW231971   2.281   2.161   6.332
10358SOL     OW31972   0.540   2.482   2.427
10358SOL    HW131973   0.465   2.439   2.377
10358SOL    HW231974   0.503   2.534   2.504
10359SOL     OW31975   0.482   1.522   1.663
10359SOL    HW131976   0.382   1.523   1.655
10359SOL    HW231977   0.510   1.567   1.747
10360SOL     OW31978   5.618   6.012   3.320
10360SOL    HW131979   5.649   6.103   3.290
10360SOL    HW231980   5.554   6.021   3.396
10361SOL     OW31981   2.970   5.721   2.355
10361SOL    HW131982   2.904   5.711   2.429
10361SOL    HW231983   3.053   5.766   2.390
10362SOL     OW31984   2.208   4.607   4.779
10362SOL    HW131985   2.300   4.570   4.768
10362SOL    HW231986   2.165   4.567   4.860
10363SOL     OW31987   4.920   0.301   3.478
10363SOL    HW131988   5.003   0.321   3.426
10363SOL    HW231989   4.918   0.358   3.561
10364SOL     OW31990   2.077   4.240   1.114
10364SOL    HW131991   2.152   4.174   1.104
10364SOL    HW231992   2.089   4.314   1.047
10365SOL     OW31993   5.002   5.443   0.022
10365SOL    HW131994   5.017   5.540   0.004
10365SOL    HW231995   4.963   5.400   6.959
10366SOL     OW31996   2.967   0.060   3.192
10366SOL    HW131997   3.040   7.011   3.178
10366SOL    HW231998   2.992   0.147   3.150
10367SOL     OW31999   5.881   2.276   3.376
10367SOL    HW132000   5.962   2.230   3.414
10367SOL    HW232001   5.909   2.338   3.304
10368SOL     OW32002   2.077   1.043   1.713
10368SOL    HW132003   2.064   1.135   1.751
10368SOL    HW232004   2.069   0.975   1.785
10369SOL     OW32005   4.033   2.686   0.250
10369SOL    HW132006   3.969   2.705   0.175
10369SOL    HW232007   4.011   2.745   0.328
10370SOL     OW32008   4.062   0.793   5.248
10370SOL    HW132009   4.056   0.716   5.183
10370SOL    HW232010   4.128   0.860   5.214
10371SOL     OW32011   4.957   5.849   5.317
10371SOL    HW132012   4.971   5.751   5.332
10371SOL    HW232013   4.917   5.863   5.226
10372SOL     OW32014   2.465   0.949   4.326
10372SOL    HW132015   2.441   1.031   4.275
10372SOL    HW232016   2.414   0.871   4.289
10373SOL     OW32017   1.001   6.600   4.122
10373SOL    HW132018   1.044   6.688   4.101
10373SOL    HW232019   1.053   6.526   4.078
10374SOL     OW32020   2.973   2.266   2.997
10374SOL    HW132021   2.997   2.249   2.902
10374SOL    HW232022   2.877   2.296   3.003
10375SOL     OW32023   6.000   2.168   1.076
10375SOL    HW132024   5.953   2.225   1.008
10375SOL    HW232025   5.932   2.121   1.132
10376SOL     OW32026   0.819   0.817   3.796
10376SOL    HW132027   0.790   0.835   3.891
10376SOL    HW232028   0.890   0.747   3.796
10377SOL     OW32029   0.398   0.370   3.945
10377SOL    HW132030   0.341   0.364   3.863
10377SOL    HW232031   0.492   0.343   3.923
10378SOL     OW32032   0.014   0.409   6.492
10378SOL    HW132033   0.104   0.440   6.462
10378SOL    HW232034   7.002   0.462   6.572
10379SOL     OW32035   5.240   1.158   4.404
10379SOL    HW132036   5.310   1.178   4.473
10379SOL    HW232037   5.156   1.128   4.449
10380SOL     OW32038   5.100   0.199   1.979
10380SOL    HW132039   5.002   0.180   1.971
10380SOL    HW232040   5.112   0.294   2.009
10381SOL     OW32041   4.486   4.608   5.776
10381SOL    HW132042   4.474   4.707   5.788
10381SOL    HW232043   4.562   4.591   5.714
10382SOL     OW32044   2.063   5.120   7.014
10382SOL    HW132045   2.074   5.165   6.925
10382SOL    HW232046   2.045   5.190   0.066
10383SOL     OW32047   0.853   2.701   1.118
10383SOL    HW132048   0.887   2.621   1.167
10383SOL    HW232049   0.888   2.784   1.160
10384SOL     OW32050   6.189   0.062   0.385
10384SOL    HW132051   6.143   7.004   0.432
10384SOL    HW232052   6.287   0.059   0.404
10385SOL     OW32053   6.391   1.398   6.506
10385SOL    HW132054   6.343   1.471   6.555
10385SOL    HW232055   6.422   1.329   6.571
10386SOL     OW32056   6.064   2.874   5.605
10386SOL    HW132057   6.117   2.833   5.530
10386SOL    HW232058   5.988   2.813   5.629
10387SOL     OW32059   1.589   2.524   3.151
10387SOL    HW132060   1.657   2.539   3.080
10387SOL    HW232061   1.539   2.439   3.132
10388SOL     OW32062   1.228   5.134   2.758
10388SOL    HW132063   1.239   5.084   2.844
10388SOL    HW232064   1.170   5.214   2.775
10389SOL     OW32065   1.084   4.707   3.000
10389SOL    HW132066   1.040   4.795   2.982
10389SOL    HW232067   1.022   4.650   3.054
10390SOL     OW32068   0.936   2.944   3.717
10390SOL    HW132069   1.002   3.010   3.752
10390SOL    HW232070   0.854   2.943   3.775
10391SOL     OW32071   2.463   6.338   6.448
10391SOL    HW132072   2.371   6.363   6.477
10391SOL    HW232073   2.468   6.240   6.431
10392SOL     OW32074   6.499   5.479   0.498
10392SOL    HW132075   6.588   5.520   0.478
10392SOL    HW232076   6.475   5.495   0.593
10393SOL     OW32077   1.452   1.258   4.239
10393SOL    HW132078   1.381   1.319   4.205
10393SOL    HW232079   1.411   1.179   4.283
10394SOL     OW32080   2.348   6.692   0.087
10394SOL    HW132081   2.370   6.789   0.074
10394SOL    HW232082   2.397   6.637   0.020
10395SOL     OW32083   0.306   1.203   4.843
10395SOL    HW132084   0.251   1.150   4.778
10395SOL    HW232085   0.342   1.284   4.797
10396SOL     OW32086   1.176   0.014   4.961
10396SOL    HW132087   1.178   0.114   4.955
10396SOL    HW232088   1.148   6.993   4.873
10397SOL     OW32089   4.159   1.456   3.081
10397SOL    HW132090   4.097   1.387   3.118
10397SOL    HW232091   4.177   1.438   2.985
10398SOL     OW32092   6.384   2.885   2.357
10398SOL    HW132093   6.478   2.880   2.325
10398SOL    HW232094   6.323   2.900   2.279
10399SOL     OW32095   5.634   2.274   5.333
10399SOL    HW132096   5.693   2.193   5.326
10399SOL    HW232097   5.609   2.289   5.428
10400SOL     OW32098   2.255   5.514   1.640
10400SOL    HW132099   2.205   5.507   1.726
10400SOL    HW232100   2.321   5.439   1.633
10401SOL     OW32101   0.526   6.211   1.860
10401SOL    HW132102   0.548   6.274   1.933
10401SOL    HW232103   0.452   6.250   1.804
10402SOL     OW32104   0.371   3.154   4.158
10402SOL    HW132105   0.352   3.247   4.124
10402SOL    HW232106   0.304   3.130   4.228
10403SOL     OW32107   5.335   0.874   2.099
10403SOL    HW132108   5.342   0.825   2.186
10403SOL    HW232109   5.403   0.947   2.096
10404SOL     OW32110   0.478   6.362   3.744
10404SOL    HW132111   0.465   6.276   3.793
10404SOL    HW232112   0.576   6.376   3.728
10405SOL     OW32113   1.970   6.311   5.788
10405SOL    HW132114   1.903   6.342   5.856
10405SOL    HW232115   2.005   6.390   5.737
10406SOL     OW32116   2.262   4.876   6.151
10406SOL    HW132117   2.249   4.906   6.057
10406SOL    HW232118   2.360   4.863   6.169
10407SOL     OW32119   0.999   1.615   0.367
10407SOL    HW132120   1.074   1.640   0.305
10407SOL    HW232121   0.916   1.599   0.314
10408SOL     OW32122   4.448   5.873   2.720
10408SOL    HW132123   4.404   5.883   2.810
10408SOL    HW232124   4.439   5.779   2.689
10409SOL     OW32125   6.079   4.528   2.552
10409SOL    HW132126   6.060   4.605   2.492
10409SOL    HW232127   6.065   4.555   2.647
10410SOL     OW32128   5.210   0.276   0.729
10410SOL    HW132129   5.224   0.235   0.820
10410SOL    HW232130   5.283   0.343   0.712
10411SOL     OW32131   2.430   4.883   3.110
10411SOL    HW132132   2.400   4.887   3.014
10411SOL    HW232133   2.415   4.972   3.153
10412SOL     OW32134   0.739   2.054   0.582
10412SOL    HW132135   0.679   2.025   0.508
10412SOL    HW232136   0.828   2.079   0.545
10413SOL     OW32137   0.561   1.699   6.944
10413SOL    HW132138   0.584   1.617   6.892
10413SOL    HW232139   0.487   1.679   7.008
10414SOL     OW32140   5.729   6.574   5.797
10414SOL    HW132141   5.643   6.539   5.835
10414SOL    HW232142   5.790   6.497   5.777
10415SOL     OW32143   0.464   5.680   3.252
10415SOL    HW132144   0.450   5.735   3.170
10415SOL    HW232145   0.535   5.722   3.308
10416SOL     OW32146   5.165   1.337   6.072
10416SOL    HW132147   5.132   1.301   5.985
10416SOL    HW232148   5.256   1.376   6.060
10417SOL     OW32149   3.649   4.984   3.983
10417SOL    HW132150   3.582   4.988   4.058
10417SOL    HW232151   3.603   5.002   3.896
10418SOL     OW32152   6.076   3.687   6.273
10418SOL    HW132153   6.009   3.754   6.304
10418SOL    HW232154   6.035   3.596   6.276
10419SOL     OW32155   2.568   1.413   4.763
10419SOL    HW132156   2.555   1.329   4.817
10419SOL    HW232157   2.512   1.408   4.680
10420SOL     OW32158   6.030   3.563   2.784
10420SOL    HW132159   6.032   3.467   2.810
10420SOL    HW232160   6.082   3.617   2.850
10421SOL     OW32161   0.798   4.584   4.337
10421SOL    HW132162   0.827   4.667   4.289
10421SOL    HW232163   0.839   4.583   4.428
10422SOL     OW32164   6.666   3.779   4.901
10422SOL    HW132165   6.641   3.693   4.857
10422SOL    HW232166   6.747   3.766   4.958
10423SOL     OW32167   3.255   5.264   4.215
10423SOL    HW132168   3.182   5.309   4.163
10423SOL    HW232169   3.219   5.231   4.302
10424SOL     OW32170   3.560   0.778   0.362
10424SOL    HW132171   3.468   0.813   0.345
10424SOL    HW232172   3.574   0.768   0.460
10425SOL     OW32173   1.152   2.256   0.810
10425SOL    HW132174   1.058   2.236   0.837
10425SOL    HW232175   1.198   2.171   0.786
10426SOL     OW32176   6.388   2.196   6.403
10426SOL    HW132177   6.352   2.272   6.457
10426SOL    HW232178   6.381   2.218   6.306
10427SOL     OW32179   5.327   6.660   4.635
10427SOL    HW132180   5.272   6.742   4.620
10427SOL    HW232181   5.277   6.580   4.602
10428SOL     OW32182   2.589   0.212   3.816
10428SOL    HW132183   2.663   0.260   3.864
10428SOL    HW232184   2.585   0.243   3.721
10429SOL     OW32185   1.510   2.725   1.701
10429SOL    HW132186   1.527   2.636   1.657
10429SOL    HW232187   1.587   2.786   1.683
10430SOL     OW32188   3.158   0.188   3.469
10430SOL    HW132189   3.094   0.243   3.415
10430SOL    HW232190   3.117   0.101   3.493
10431SOL     OW32191   3.897   0.413   2.832
10431SOL    HW132192   3.841   0.402   2.914
10431SOL    HW232193   3.923   0.324   2.796
10432SOL     OW32194   1.218   5.416   6.243
10432SOL    HW132195   1.148   5.351   6.213
10432SOL    HW232196   1.206   5.503   6.194
10433SOL     OW32197   2.280   0.403   2.912
10433SOL    HW132198   2.258   0.319   2.961
10433SOL    HW232199   2.360   0.446   2.953
10434SOL     OW32200   5.426   0.310   5.388
10434SOL    HW132201   5.328   0.295   5.404
10434SOL    HW232202   5.452   0.263   5.303
10435SOL     OW32203   2.129   1.760   6.995
10435SOL    HW132204   2.107   1.666   6.969
10435SOL    HW232205   2.128   1.818   6.914
10436SOL     OW32206   6.328   3.520   5.492
10436SOL    HW132207   6.307   3.434   5.445
10436SOL    HW232208   6.267   3.530   5.571
10437SOL     OW32209   5.680   6.376   5.090
10437SOL    HW132210   5.715   6.445   5.027
10437SOL    HW232211   5.726   6.289   5.073
10438SOL     OW32212   6.627   6.102   6.869
10438SOL    HW132213   6.542   6.155   6.864
10438SOL    HW232214   6.642   6.071   6.962
10439SOL     OW32215   6.368   6.179   5.086
10439SOL    HW132216   6.328   6.088   5.082
10439SOL    HW232217   6.463   6.173   5.119
10440SOL     OW32218   6.672   2.447   0.705
10440SOL    HW132219   6.651   2.472   0.799
10440SOL    HW232220   6.652   2.524   0.644
10441SOL     OW32221   4.601   2.014   0.280
10441SOL    HW132222   4.600   2.063   0.367
10441SOL    HW232223   4.540   1.935   0.285
10442SOL     OW32224   1.865   2.097   5.540
10442SOL    HW132225   1.782   2.087   5.485
10442SOL    HW232226   1.848   2.162   5.614
10443SOL     OW32227   0.196   1.845   2.082
10443SOL    HW132228   0.273   1.904   2.108
10443SOL    HW232229   0.116   1.868   2.138
10444SOL     OW32230   4.053   5.180   4.188
10444SOL    HW132231   3.964   5.223   4.201
10444SOL    HW232232   4.059   5.096   4.242
10445SOL     OW32233   0.747   3.186   3.063
10445SOL    HW132234   0.684   3.170   2.987
10445SOL    HW232235   0.698   3.178   3.150
10446SOL     OW32236   2.055   4.497   5.694
10446SOL    HW132237   2.082   4.514   5.600
10446SOL    HW232238   2.125   4.442   5.740
10447SOL     OW32239   0.359   2.355   2.744
10447SOL    HW132240   0.442   2.310   2.775
10447SOL    HW232241   0.329   2.420   2.814
10448SOL     OW32242   2.411   6.557   2.354
10448SOL    HW132243   2.354   6.553   2.436
10448SOL    HW232244   2.366   6.507   2.280
10449SOL     OW32245   3.752   4.960   5.050
10449SOL    HW132246   3.782   4.928   4.959
10449SOL    HW232247   3.776   5.056   5.060
10450SOL     OW32248   0.017   0.470   6.011
10450SOL    HW132249   0.073   0.527   6.071
10450SOL    HW232250   6.955   0.436   6.062
10451SOL     OW32251   3.282   1.355   3.268
10451SOL    HW132252   3.200   1.393   3.226
10451SOL    HW232253   3.257   1.296   3.345
10452SOL     OW32254   6.242   3.871   4.460
10452SOL    HW132255   6.228   3.810   4.539
10452SOL    HW232256   6.307   3.829   4.397
10453SOL     OW32257   3.693   6.133   3.443
10453SOL    HW132258   3.680   6.211   3.504
10453SOL    HW232259   3.668   6.159   3.350
10454SOL     OW32260   6.638   1.445   5.965
10454SOL    HW132261   6.538   1.443   5.972
10454SOL    HW232262   6.667   1.386   5.890
10455SOL     OW32263   6.780   5.422   3.616
10455SOL    HW132264   6.799   5.520   3.615
10455SOL    HW232265   6.819   5.381   3.699
10456SOL     OW32266   1.179   5.173   6.504
10456SOL    HW132267   1.082   5.150   6.489
10456SOL    HW232268   1.228   5.165   6.418
10457SOL     OW32269   3.688   2.574   6.831
10457SOL    HW132270   3.762   2.565   6.764
10457SOL    HW232271   3.669   2.671   6.847
10458SOL     OW32272   0.597   6.197   6.955
10458SOL    HW132273   0.575   6.191   0.035
10458SOL    HW232274   0.585   6.291   6.923
10459SOL     OW32275   0.261   4.957   0.801
10459SOL    HW132276   0.267   4.871   0.851
10459SOL    HW232277   0.283   4.941   0.705
10460SOL     OW32278   0.146   1.180   1.197
10460SOL    HW132279   0.193   1.129   1.125
10460SOL    HW232280   0.047   1.164   1.191
10461SOL     OW32281   6.721   5.119   6.457
10461SOL    HW132282   6.664   5.097   6.378
10461SOL    HW232283   6.721   5.218   6.472
10462SOL     OW32284   4.618   2.182   0.511
10462SOL    HW132285   4.520   2.190   0.528
10462SOL    HW232286   4.649   2.258   0.454
10463SOL     OW32287   5.098   2.401   6.783
10463SOL    HW132288   5.052   2.313   6.774
10463SOL    HW232289   5.041   2.473   6.744
10464SOL     OW32290   6.468   4.891   2.446
10464SOL    HW132291   6.404   4.967   2.446
10464SOL    HW232292   6.557   4.922   2.480
10465SOL     OW32293   5.555   4.323   1.369
10465SOL    HW132294   5.618   4.251   1.399
10465SOL    HW232295   5.607   4.400   1.332
10466SOL     OW32296   6.178   4.390   6.311
10466SOL    HW132297   6.178   4.489   6.297
10466SOL    HW232298   6.165   4.344   6.224
10467SOL     OW32299   0.915   3.445   0.545
10467SOL    HW132300   0.843   3.510   0.569
10467SOL    HW232301   0.896   3.405   0.456
10468SOL     OW32302   1.919   4.632   3.687
10468SOL    HW132303   1.960   4.721   3.708
10468SOL    HW232304   1.962   4.595   3.605
10469SOL     OW32305   0.489   1.439   3.885
10469SOL    HW132306   0.522   1.498   3.812
10469SOL    HW232307   0.426   1.371   3.848
10470SOL     OW32308   2.040   3.045   2.705
10470SOL    HW132309   2.082   3.040   2.795
10470SOL    HW232310   1.941   3.032   2.714
10471SOL     OW32311   3.032   6.561   6.771
10471SOL    HW132312   3.000   6.470   6.746
10471SOL    HW232313   3.125   6.556   6.807
10472SOL     OW32314   4.022   4.852   6.673
10472SOL    HW132315   4.008   4.843   6.575
10472SOL    HW232316   3.970   4.781   6.721
10473SOL     OW32317   5.765   4.880   0.570
10473SOL    HW132318   5.825   4.821   0.624
10473SOL    HW232319   5.757   4.969   0.614
10474SOL     OW32320   5.604   1.123   4.499
10474SOL    HW132321   5.664   1.044   4.508
10474SOL    HW232322   5.618   1.166   4.410
10475SOL     OW32323   1.803   5.667   1.161
10475SOL    HW132324   1.870   5.661   1.235
10475SOL    HW232325   1.839   5.621   1.080
10476SOL     OW32326   4.723   5.755   0.214
10476SOL    HW132327   4.666   5.681   0.180
10476SOL    HW232328   4.680   5.795   0.295
10477SOL     OW32329   6.575   5.322   4.212
10477SOL    HW132330   6.656   5.296   4.264
10477SOL    HW232331   6.601   5.343   4.118
10478SOL     OW32332   6.307   1.385   6.957
10478SOL    HW132333   6.298   1.475   6.915
10478SOL    HW232334   6.362   1.392   0.023
10479SOL     OW32335   0.984   2.490   2.016
10479SOL    HW132336   0.944   2.410   2.061
10479SOL    HW232337   0.966   2.484   1.917
10480SOL     OW32338   2.084   0.268   2.496
10480SOL    HW132339   2.074   0.352   2.548
10480SOL    HW232340   2.025   0.272   2.415
10481SOL     OW32341   6.623   1.191   2.223
10481SOL    HW132342   6.545   1.131   2.207
10481SOL    HW232343   6.632   1.210   2.321
10482SOL     OW32344   5.014   3.436   4.310
10482SOL    HW132345   4.956   3.375   4.257
10482SOL    HW232346   4.976   3.448   4.402
10483SOL     OW32347   6.121   6.640   0.150
10483SOL    HW132348   6.137   6.541   0.143
10483SOL    HW232349   6.141   6.684   0.062
10484SOL     OW32350   6.434   1.162   2.560
10484SOL    HW132351   6.474   1.233   2.503
10484SOL    HW232352   6.502   1.091   2.578
10485SOL     OW32353   5.942   3.916   5.578
10485SOL    HW132354   6.033   3.956   5.593
10485SOL    HW232355   5.932   3.891   5.482
10486SOL     OW32356   5.259   2.895   1.932
10486SOL    HW132357   5.211   2.891   2.020
10486SOL    HW232358   5.332   2.963   1.938
10487SOL     OW32359   6.021   6.468   1.672
10487SOL    HW132360   5.985   6.377   1.693
10487SOL    HW232361   6.009   6.487   1.575
10488SOL     OW32362   2.508   2.386   6.451
10488SOL    HW132363   2.500   2.477   6.412
10488SOL    HW232364   2.421   2.337   6.438
10489SOL     OW32365   0.721   5.701   6.444
10489SOL    HW132366   0.679   5.791   6.432
10489SOL    HW232367   0.720   5.651   6.358
10490SOL     OW32368   6.783   0.603   3.891
10490SOL    HW132369   6.797   0.536   3.963
10490SOL    HW232370   6.855   0.594   3.822
10491SOL     OW32371   1.554   4.092   5.542
10491SOL    HW132372   1.603   4.179   5.541
10491SOL    HW232373   1.557   4.053   5.634
10492SOL     OW32374   4.427   3.222   5.736
10492SOL    HW132375   4.334   3.258   5.728
10492SOL    HW232376   4.492   3.289   5.698
10493SOL     OW32377   2.639   0.863   1.571
10493SOL    HW132378   2.567   0.849   1.503
10493SOL    HW232379   2.688   0.777   1.587
10494SOL     OW32380   5.776   2.145   4.477
10494SOL    HW132381   5.861   2.151   4.425
10494SOL    HW232382   5.726   2.063   4.449
10495SOL     OW32383   1.181   6.763   6.888
10495SOL    HW132384   1.112   6.748   6.958
10495SOL    HW232385   1.259   6.702   6.904
10496SOL     OW32386   0.065   6.965   5.497
10496SOL    HW132387   0.023   0.039   5.505
10496SOL    HW232388   0.043   6.911   5.577
10497SOL     OW32389   1.617   1.060   1.593
10497SOL    HW132390   1.687   1.021   1.533
10497SOL    HW232391   1.651   1.145   1.634
10498SOL     OW32392   2.831   5.568   6.436
10498SOL    HW132393   2.889   5.649   6.434
10498SOL    HW232394   2.828   5.527   6.344
10499SOL     OW32395   3.409   5.772   3.204
10499SOL    HW132396   3.338   5.800   3.268
10499SOL    HW232397   3.384   5.684   3.163
10500SOL     OW32398   1.108   2.095   6.330
10500SOL    HW132399   1.079   2.021   6.270
10500SOL    HW232400   1.192   2.070   6.377
10501SOL     OW32401   1.536   3.390   3.007
10501SOL    HW132402   1.450   3.435   3.032
10501SOL    HW232403   1.594   3.456   2.958
10502SOL     OW32404   3.101   5.738   6.473
10502SOL    HW132405   3.149   5.825   6.487
10502SOL    HW232406   3.166   5.667   6.446
10503SOL     OW32407   2.838   3.238   6.308
10503SOL    HW132408   2.806   3.322   6.264
10503SOL    HW232409   2.766   3.201   6.366
10504SOL     OW32410   3.063   3.005   0.632
10504SOL    HW132411   3.064   3.039   0.725
10504SOL    HW232412   2.986   3.045   0.582
10505SOL     OW32413   6.616   6.479   1.695
10505SOL    HW132414   6.595   6.493   1.598
10505SOL    HW232415   6.664   6.391   1.706
10506SOL     OW32416   0.388   4.234   5.489
10506SOL    HW132417   0.480   4.219   5.453
10506SOL    HW232418   0.323   4.176   5.440
10507SOL     OW32419   1.320   0.399   5.916
10507SOL    HW132420   1.297   0.377   6.011
10507SOL    HW232421   1.409   0.447   5.914
10508SOL     OW32422   5.477   3.963   3.072
10508SOL    HW132423   5.481   3.876   3.121
10508SOL    HW232424   5.383   3.997   3.072
10509SOL     OW32425   1.623   0.236   6.134
10509SOL    HW132426   1.601   0.283   6.220
10509SOL    HW232427   1.612   0.299   6.058
10510SOL     OW32428   6.979   5.924   0.249
10510SOL    HW132429   0.054   5.925   0.212
10510SOL    HW232430   6.922   5.862   0.195
10511SOL     OW32431   4.984   3.113   0.396
10511SOL    HW132432   4.962   3.116   0.493
10511SOL    HW232433   4.930   3.041   0.351
10512SOL     OW32434   3.806   6.466   6.174
10512SOL    HW132435   3.839   6.560   6.161
10512SOL    HW232436   3.851   6.425   6.253
10513SOL     OW32437   0.252   2.035   0.283
10513SOL    HW132438   0.228   2.072   0.193
10513SOL    HW232439   0.314   2.098   0.330
10514SOL     OW32440   0.088   4.903   1.382
10514SOL    HW132441   0.126   4.816   1.351
10514SOL    HW232442   0.017   4.885   1.451
10515SOL     OW32443   6.893   2.337   3.854
10515SOL    HW132444   6.879   2.436   3.848
10515SOL    HW232445   6.809   2.292   3.883
10516SOL     OW32446   4.170   0.472   6.007
10516SOL    HW132447   4.079   0.491   5.969
10516SOL    HW232448   4.195   0.544   6.071
10517SOL     OW32449   0.198   1.672   2.883
10517SOL    HW132450   0.246   1.610   2.823
10517SOL    HW232451   0.176   1.625   2.969
10518SOL     OW32452   0.860   6.763   1.492
10518SOL    HW132453   0.782   6.703   1.507
10518SOL    HW232454   0.829   6.846   1.444
10519SOL     OW32455   2.884   3.636   5.229
10519SOL    HW132456   2.871   3.540   5.257
10519SOL    HW232457   2.796   3.683   5.232
10520SOL     OW32458   4.589   2.246   6.999
10520SOL    HW132459   4.528   2.199   0.047
10520SOL    HW232460   4.534   2.306   6.941
10521SOL     OW32461   6.588   5.964   1.340
10521SOL    HW132462   6.524   5.927   1.273
10521SOL    HW232463   6.633   5.889   1.388
10522SOL     OW32464   6.301   1.022   2.297
10522SOL    HW132465   6.211   1.027   2.338
10522SOL    HW232466   6.352   1.106   2.316
10523SOL     OW32467   7.000   5.865   6.693
10523SOL    HW132468   6.910   5.847   6.653
10523SOL    HW232469   0.052   5.866   6.621
10524SOL     OW32470   3.059   0.886   3.650
10524SOL    HW132471   3.066   0.947   3.729
10524SOL    HW232472   3.031   0.937   3.570
10525SOL     OW32473   2.252   6.039   4.713
10525SOL    HW132474   2.185   5.977   4.671
10525SOL    HW232475   2.335   5.988   4.736
10526SOL     OW32476   6.618   0.091   2.418
10526SOL    HW132477   6.709   0.126   2.396
10526SOL    HW232478   6.551   0.128   2.354
10527SOL     OW32479   0.988   2.257   4.712
10527SOL    HW132480   0.904   2.307   4.689
10527SOL    HW232481   0.996   2.177   4.653
10528SOL     OW32482   0.191   4.984   4.656
10528SOL    HW132483   0.270   4.928   4.680
10528SOL    HW232484   0.158   5.032   4.737
10529SOL     OW32485   6.974   6.934   3.813
10529SOL    HW132486   0.000   6.870   3.749
10529SOL    HW232487   0.022   7.006   3.838
10530SOL     OW32488   2.298   1.474   6.216
10530SOL    HW132489   2.261   1.515   6.300
10530SOL    HW232490   2.222   1.448   6.156
10531SOL     OW32491   1.716   2.940   5.235
10531SOL    HW132492   1.701   2.853   5.281
10531SOL    HW232493   1.713   3.015   5.302
10532SOL     OW32494   3.820   2.441   5.629
10532SOL    HW132495   3.799   2.538   5.617
10532SOL    HW232496   3.776   2.408   5.712
10533SOL     OW32497   2.581   1.278   5.843
10533SOL    HW132498   2.603   1.298   5.747
10533SOL    HW232499   2.528   1.353   5.882
10534SOL     OW32500   6.415   5.432   0.994
10534SOL    HW132501   6.488   5.467   1.053
10534SOL    HW232502   6.379   5.347   1.032
10535SOL     OW32503   0.493   1.053   2.203
10535SOL    HW132504   0.515   1.110   2.123
10535SOL    HW232505   0.405   1.081   2.241
10536SOL     OW32506   4.364   0.286   2.997
10536SOL    HW132507   4.318   0.267   2.910
10536SOL    HW232508   4.295   0.308   3.066
10537SOL     OW32509   1.194   4.983   1.668
10537SOL    HW132510   1.285   4.962   1.701
10537SOL    HW232511   1.126   4.947   1.732
10538SOL     OW32512   4.356   3.735   0.531
10538SOL    HW132513   4.456   3.728   0.527
10538SOL    HW232514   4.330   3.810   0.591
10539SOL     OW32515   0.438   3.699   6.078
10539SOL    HW132516   0.456   3.762   6.153
10539SOL    HW232517   0.344   3.665   6.085
10540SOL     OW32518   2.156   0.239   6.377
10540SOL    HW132519   2.145   0.329   6.335
10540SOL    HW232520   2.181   0.251   6.473
10541SOL     OW32521   3.442   3.017   0.225
10541SOL    HW132522   3.524   2.992   0.173
10541SOL    HW232523   3.469   3.073   0.304
10542SOL     OW32524   0.381   2.406   0.222
10542SOL    HW132525   0.345   2.370   0.136
10542SOL    HW232526   0.362   2.504   0.227
10543SOL     OW32527   1.126   0.736   5.626
10543SOL    HW132528   1.139   0.673   5.550
10543SOL    HW232529   1.149   0.689   5.712
10544SOL     OW32530   1.233   2.387   2.135
10544SOL    HW132531   1.147   2.356   2.096
10544SOL    HW232532   1.262   2.472   2.090
10545SOL     OW32533   6.420   0.387   2.522
10545SOL    HW132534   6.447   0.346   2.609
10545SOL    HW232535   6.324   0.366   2.503
10546SOL     OW32536   2.913   0.631   3.816
10546SOL    HW132537   3.012   0.648   3.821
10546SOL    HW232538   2.864   0.718   3.817
10547SOL     OW32539   4.072   1.542   1.249
10547SOL    HW132540   4.140   1.471   1.267
10547SOL    HW232541   4.076   1.571   1.154
10548SOL     OW32542   5.296   4.168   5.376
10548SOL    HW132543   5.372   4.212   5.423
10548SOL    HW232544   5.263   4.091   5.430
10549SOL     OW32545   1.172   1.114   1.656
10549SOL    HW132546   1.242   1.052   1.620
10549SOL    HW232547   1.215   1.178   1.721
10550SOL     OW32548   5.030   6.707   4.119
10550SOL    HW132549   5.023   6.751   4.030
10550SOL    HW232550   5.096   6.757   4.176
10551SOL     OW32551   1.278   2.759   6.191
10551SOL    HW132552   1.223   2.836   6.159
10551SOL    HW232553   1.370   2.791   6.215
10552SOL     OW32554   3.379   2.296   5.329
10552SOL    HW132555   3.354   2.254   5.416
10552SOL    HW232556   3.295   2.319   5.278
10553SOL     OW32557   1.373   4.835   0.139
10553SOL    HW132558   1.436   4.860   0.065
10553SOL    HW232559   1.299   4.778   0.102
10554SOL     OW32560   6.900   4.801   6.928
10554SOL    HW132561   6.924   4.745   7.007
10554SOL    HW232562   6.872   4.892   6.959
10555SOL     OW32563   3.100   1.901   1.434
10555SOL    HW132564   3.110   1.990   1.479
10555SOL    HW232565   3.180   1.884   1.377
10556SOL     OW32566   2.137   3.234   4.715
10556SOL    HW132567   2.147   3.302   4.787
10556SOL    HW232568   2.165   3.144   4.749
10557SOL     OW32569   0.073   2.684   3.500
10557SOL    HW132570   7.008   2.630   3.518
10557SOL    HW232571   0.072   2.766   3.558
10558SOL     OW32572   4.993   6.055   5.509
10558SOL    HW132573   5.002   5.975   5.449
10558SOL    HW232574   5.057   6.047   5.585
10559SOL     OW32575   4.387   2.314   0.498
10559SOL    HW132576   4.367   2.301   0.595
10559SOL    HW232577   4.371   2.409   0.474
10560SOL     OW32578   0.982   3.013   4.114
10560SOL    HW132579   0.911   2.998   4.045
10560SOL    HW232580   0.962   2.957   4.194
10561SOL     OW32581   2.496   4.129   0.077
10561SOL    HW132582   2.411   4.093   0.037
10561SOL    HW232583   2.545   4.055   0.123
10562SOL     OW32584   4.002   1.134   0.178
10562SOL    HW132585   4.063   1.149   0.256
10562SOL    HW232586   3.954   1.047   0.191
10563SOL     OW32587   1.339   1.715   5.365
10563SOL    HW132588   1.374   1.793   5.314
10563SOL    HW232589   1.404   1.640   5.361
10564SOL     OW32590   5.913   2.272   1.684
10564SOL    HW132591   5.952   2.220   1.760
10564SOL    HW232592   5.823   2.235   1.662
10565SOL     OW32593   5.680   1.831   4.986
10565SOL    HW132594   5.658   1.738   4.957
10565SOL    HW232595   5.719   1.882   4.909
10566SOL     OW32596   3.403   4.204   6.382
10566SOL    HW132597   3.357   4.267   6.446
10566SOL    HW232598   3.334   4.149   6.336
10567SOL     OW32599   1.910   4.047   3.980
10567SOL    HW132600   1.969   4.124   4.005
10567SOL    HW232601   1.839   4.078   3.918
10568SOL     OW32602   4.649   1.132   3.569
10568SOL    HW132603   4.563   1.128   3.518
10568SOL    HW232604   4.722   1.164   3.509
10569SOL     OW32605   5.513   3.041   4.453
10569SOL    HW132606   5.518   3.134   4.490
10569SOL    HW232607   5.522   3.044   4.353
10570SOL     OW32608   1.475   5.160   2.416
10570SOL    HW132609   1.487   5.197   2.509
10570SOL    HW232610   1.543   5.087   2.401
10571SOL     OW32611   6.180   6.547   3.060
10571SOL    HW132612   6.081   6.550   3.054
10571SOL    HW232613   6.216   6.640   3.065
10572SOL     OW32614   6.205   3.888   1.879
10572SOL    HW132615   6.132   3.855   1.819
10572SOL    HW232616   6.293   3.882   1.831
10573SOL     OW32617   6.190   5.441   4.894
10573SOL    HW132618   6.255   5.393   4.952
10573SOL    HW232619   6.228   5.529   4.867
10574SOL     OW32620   0.488   1.688   3.366
10574SOL    HW132621   0.424   1.735   3.305
10574SOL    HW232622   0.529   1.754   3.428
10575SOL     OW32623   1.421   0.155   5.377
10575SOL    HW132624   1.435   0.201   5.465
10575SOL    HW232625   1.345   0.090   5.386
10576SOL     OW32626   1.712   5.425   3.679
10576SOL    HW132627   1.736   5.370   3.600
10576SOL    HW232628   1.660   5.369   3.744
10577SOL     OW32629   1.613   2.652   5.865
10577SOL    HW132630   1.638   2.685   5.774
10577SOL    HW232631   1.518   2.620   5.864
10578SOL     OW32632   6.400   0.831   5.803
10578SOL    HW132633   6.424   0.760   5.736
10578SOL    HW232634   6.329   0.796   5.864
10579SOL     OW32635   4.388   1.834   0.681
10579SOL    HW132636   4.474   1.867   0.641
10579SOL    HW232637   4.322   1.909   0.682
10580SOL     OW32638   6.365   5.940   6.839
10580SOL    HW132639   6.275   5.897   6.849
10580SOL    HW232640   6.432   5.890   6.894
10581SOL     OW32641   5.322   0.674   3.621
10581SOL    HW132642   5.388   0.607   3.586
10581SOL    HW232643   5.370   0.749   3.665
10582SOL     OW32644   3.405   5.003   6.636
10582SOL    HW132645   3.419   5.006   6.537
10582SOL    HW232646   3.378   5.094   6.669
10583SOL     OW32647   4.347   1.402   0.270
10583SOL    HW132648   4.412   1.403   0.194
10583SOL    HW232649   4.255   1.389   0.235
10584SOL     OW32650   5.684   0.202   1.454
10584SOL    HW132651   5.738   0.135   1.403
10584SOL    HW232652   5.745   0.262   1.505
10585SOL     OW32653   1.154   3.276   6.641
10585SOL    HW132654   1.128   3.372   6.633
10585SOL    HW232655   1.080   3.226   6.687
10586SOL     OW32656   3.386   6.862   6.436
10586SOL    HW132657   3.479   6.850   6.470
10586SOL    HW232658   3.322   6.815   6.498
10587SOL     OW32659   6.040   4.326   0.854
10587SOL    HW132660   6.122   4.367   0.894
10587SOL    HW232661   5.967   4.394   0.850
10588SOL     OW32662   0.282   5.305   3.005
10588SOL    HW132663   0.316   5.223   2.958
10588SOL    HW232664   0.358   5.349   3.053
10589SOL     OW32665   6.354   1.783   3.909
10589SOL    HW132666   6.363   1.796   4.008
10589SOL    HW232667   6.281   1.718   3.891
10590SOL     OW32668   0.954   0.243   3.677
10590SOL    HW132669   0.944   0.263   3.774
10590SOL    HW232670   1.011   0.161   3.665
10591SOL     OW32671   1.041   2.655   0.597
10591SOL    HW132672   1.016   2.559   0.610
10591SOL    HW232673   1.040   2.701   0.686
10592SOL     OW32674   6.440   1.438   0.164
10592SOL    HW132675   6.393   1.524   0.148
10592SOL    HW232676   6.537   1.456   0.184
10593SOL     OW32677   1.859   4.793   1.366
10593SOL    HW132678   1.879   4.762   1.459
10593SOL    HW232679   1.935   4.850   1.334
10594SOL     OW32680   0.216   2.137   4.333
10594SOL    HW132681   0.251   2.056   4.286
10594SOL    HW232682   0.260   2.219   4.296
10595SOL     OW32683   3.518   6.199   6.458
10595SOL    HW132684   3.451   6.185   6.531
10595SOL    HW232685   3.555   6.111   6.430
10596SOL     OW32686   3.741   0.653   2.186
10596SOL    HW132687   3.677   0.654   2.264
10596SOL    HW232688   3.789   0.740   2.182
10597SOL     OW32689   1.586   0.584   5.246
10597SOL    HW132690   1.675   0.537   5.253
10597SOL    HW232691   1.599   0.675   5.206
10598SOL     OW32692   1.862   2.233   6.901
10598SOL    HW132693   1.812   2.152   6.871
10598SOL    HW232694   1.959   2.213   6.906
10599SOL     OW32695   5.825   1.434   0.099
10599SOL    HW132696   5.806   1.376   0.178
10599SOL    HW232697   5.912   1.481   0.112
10600SOL     OW32698   2.329   3.277   6.211
10600SOL    HW132699   2.257   3.339   6.178
10600SOL    HW232700   2.418   3.315   6.187
10601SOL     OW32701   3.131   6.204   6.283
10601SOL    HW132702   3.225   6.221   6.253
10601SOL    HW232703   3.124   6.113   6.322
10602SOL     OW32704   4.743   1.097   2.160
10602SOL    HW132705   4.759   1.195   2.168
10602SOL    HW232706   4.668   1.069   2.220
10603SOL     OW32707   1.409   5.682   4.527
10603SOL    HW132708   1.489   5.717   4.576
10603SOL    HW232709   1.361   5.616   4.585
10604SOL     OW32710   6.808   4.665   5.100
10604SOL    HW132711   6.885   4.720   5.135
10604SOL    HW232712   6.728   4.724   5.089
10605SOL     OW32713   1.556   4.861   6.860
10605SOL    HW132714   1.585   4.771   6.829
10605SOL    HW232715   1.631   4.927   6.849
10606SOL     OW32716   0.905   0.473   1.956
10606SOL    HW132717   0.806   0.484   1.950
10606SOL    HW232718   0.932   0.385   1.916
10607SOL     OW32719   5.675   4.896   6.856
10607SOL    HW132720   5.671   4.850   6.767
10607SOL    HW232721   5.628   4.984   6.850
10608SOL     OW32722   6.492   1.535   3.854
10608SOL    HW132723   6.440   1.470   3.911
10608SOL    HW232724   6.444   1.623   3.853
10609SOL     OW32725   3.882   6.584   1.166
10609SOL    HW132726   3.882   6.683   1.152
10609SOL    HW232727   3.959   6.559   1.224
10610SOL     OW32728   1.479   3.255   5.787
10610SOL    HW132729   1.568   3.264   5.832
10610SOL    HW232730   1.465   3.159   5.760
10611SOL     OW32731   5.670   2.925   5.637
10611SOL    HW132732   5.644   2.966   5.550
10611SOL    HW232733   5.589   2.895   5.687
10612SOL     OW32734   1.929   0.232   0.319
10612SOL    HW132735   1.945   0.133   0.314
10612SOL    HW232736   1.833   0.251   0.300
10613SOL     OW32737   0.349   6.208   5.645
10613SOL    HW132738   0.422   6.275   5.653
10613SOL    HW232739   0.366   6.131   5.707
10614SOL     OW32740   6.678   1.066   4.193
10614SOL    HW132741   6.611   1.130   4.231
10614SOL    HW232742   6.770   1.095   4.218
10615SOL     OW32743   5.150   5.537   5.445
10615SOL    HW132744   5.237   5.584   5.460
10615SOL    HW232745   5.166   5.454   5.393
10616SOL     OW32746   2.747   5.523   0.147
10616SOL    HW132747   2.741   5.450   0.216
10616SOL    HW232748   2.733   5.484   0.056
10617SOL     OW32749   1.265   2.295   6.910
10617SOL    HW132750   1.330   2.369   6.929
10617SOL    HW232751   1.240   2.250   6.996
10618SOL     OW32752   6.110   3.240   0.453
10618SOL    HW132753   6.107   3.140   0.443
10618SOL    HW232754   6.205   3.269   0.458
10619SOL     OW32755   0.930   4.208   3.645
10619SOL    HW132756   0.842   4.164   3.660
10619SOL    HW232757   0.984   4.207   3.729
10620SOL     OW32758   1.571   6.035   4.743
10620SOL    HW132759   1.508   6.084   4.803
10620SOL    HW232760   1.653   6.091   4.728
10621SOL     OW32761   2.094   5.785   1.049
10621SOL    HW132762   2.074   5.721   1.123
10621SOL    HW232763   2.183   5.761   1.008
10622SOL     OW32764   3.775   0.782   1.538
10622SOL    HW132765   3.792   0.876   1.510
10622SOL    HW232766   3.738   0.781   1.631
10623SOL     OW32767   6.451   1.755   3.419
10623SOL    HW132768   6.519   1.690   3.453
10623SOL    HW232769   6.388   1.779   3.492
10624SOL     OW32770   2.158   0.477   4.298
10624SOL    HW132771   2.108   0.454   4.215
10624SOL    HW232772   2.255   0.490   4.276
10625SOL     OW32773   0.440   3.303   7.006
10625SOL    HW132774   0.378   3.240   6.958
10625SOL    HW232775   0.401   3.395   7.004
10626SOL     OW32776   0.479   2.587   1.454
10626SOL    HW132777   0.500   2.506   1.509
10626SOL    HW232778   0.421   2.649   1.506
10627SOL     OW32779   6.255   5.986   3.725
10627SOL    HW132780   6.219   5.976   3.817
10627SOL    HW232781   6.220   5.912   3.667
10628SOL     OW32782   5.917   5.755   5.848
10628SOL    HW132783   5.874   5.836   5.809
10628SOL    HW232784   5.895   5.749   5.946
10629SOL     OW32785   2.827   5.758   6.002
10629SOL    HW132786   2.892   5.683   6.001
10629SOL    HW232787   2.749   5.733   6.060
10630SOL     OW32788   6.721   1.669   3.547
10630SOL    HW132789   6.777   1.591   3.577
10630SOL    HW232790   6.776   1.729   3.489
10631SOL     OW32791   0.590   6.851   4.134
10631SOL    HW132792   0.650   6.778   4.167
10631SOL    HW232793   0.496   6.832   4.162
10632SOL     OW32794   0.332   1.993   5.224
10632SOL    HW132795   0.378   1.991   5.135
10632SOL    HW232796   0.325   1.900   5.260
10633SOL     OW32797   1.390   5.250   1.506
10633SOL    HW132798   1.426   5.202   1.586
10633SOL    HW232799   1.291   5.258   1.515
10634SOL     OW32800   2.922   6.468   1.396
10634SOL    HW132801   2.979   6.466   1.314
10634SOL    HW232802   2.871   6.554   1.399
10635SOL     OW32803   2.667   1.196   1.068
10635SOL    HW132804   2.752   1.201   1.120
10635SOL    HW232805   2.622   1.109   1.086
10636SOL     OW32806   0.704   2.543   1.776
10636SOL    HW132807   0.673   2.636   1.757
10636SOL    HW232808   0.674   2.483   1.702
10637SOL     OW32809   3.339   4.183   5.399
10637SOL    HW132810   3.320   4.281   5.399
10637SOL    HW232811   3.401   4.161   5.475
10638SOL     OW32812   0.035   6.775   5.709
10638SOL    HW132813   0.018   6.746   5.803
10638SOL    HW232814   0.111   6.722   5.671
10639SOL     OW32815   2.506   0.325   4.373
10639SOL    HW132816   2.605   0.337   4.381
10639SOL    HW232817   2.460   0.376   4.446
10640SOL     OW32818   4.079   0.528   6.968
10640SOL    HW132819   3.984   0.496   6.976
10640SOL    HW232820   4.132   0.462   6.914
10641SOL     OW32821   5.705   1.759   7.016
10641SOL    HW132822   5.674   1.724   6.928
10641SOL    HW232823   5.631   1.808   0.044
10642SOL     OW32824   0.112   3.186   1.741
10642SOL    HW132825   0.169   3.218   1.666
10642SOL    HW232826   0.072   3.265   1.789
10643SOL     OW32827   2.790   2.915   5.913
10643SOL    HW132828   2.871   2.915   5.855
10643SOL    HW232829   2.770   2.822   5.943
10644SOL     OW32830   4.524   1.400   4.564
10644SOL    HW132831   4.511   1.340   4.485
10644SOL    HW232832   4.441   1.454   4.579
10645SOL     OW32833   2.686   0.811   5.112
10645SOL    HW132834   2.621   0.883   5.135
10645SOL    HW232835   2.660   0.770   5.025
10646SOL     OW32836   0.844   3.921   6.578
10646SOL    HW132837   0.821   4.018   6.574
10646SOL    HW232838   0.931   3.909   6.624
10647SOL     OW32839   0.158   5.118   1.226
10647SOL    HW132840   0.121   5.044   1.283
10647SOL    HW232841   0.096   5.135   1.150
10648SOL     OW32842   4.827   3.077   6.613
10648SOL    HW132843   4.901   3.142   6.632
10648SOL    HW232844   4.757   3.122   6.558
10649SOL     OW32845   0.295   4.814   5.882
10649SOL    HW132846   0.223   4.750   5.854
10649SOL    HW232847   0.303   4.813   5.981
10650SOL     OW32848   3.216   6.498   3.770
10650SOL    HW132849   3.178   6.408   3.789
10650SOL    HW232850   3.243   6.542   3.856
10651SOL     OW32851   4.100   6.534   6.272
10651SOL    HW132852   4.183   6.588   6.285
10651SOL    HW232853   4.045   6.574   6.198
10652SOL     OW32854   3.202   0.802   6.429
10652SOL    HW132855   3.229   0.821   6.335
10652SOL    HW232856   3.280   0.766   6.480
10653SOL     OW32857   5.200   3.353   4.023
10653SOL    HW132858   5.199   3.257   3.997
10653SOL    HW232859   5.210   3.362   4.122
10654SOL     OW32860   4.086   0.506   0.385
10654SOL    HW132861   4.060   0.428   0.443
10654SOL    HW232862   4.048   0.590   0.424
10655SOL     OW32863   2.695   5.775   1.449
10655SOL    HW132864   2.648   5.730   1.374
10655SOL    HW232865   2.746   5.854   1.415
10656SOL     OW32866   6.651   2.838   6.399
10656SOL    HW132867   6.726   2.902   6.384
10656SOL    HW232868   6.565   2.888   6.407
10657SOL     OW32869   6.185   0.847   1.330
10657SOL    HW132870   6.203   0.752   1.305
10657SOL    HW232871   6.158   0.899   1.248
10658SOL     OW32872   6.797   5.696   5.172
10658SOL    HW132873   6.846   5.613   5.197
10658SOL    HW232874   6.852   5.776   5.195
10659SOL     OW32875   5.911   0.963   0.604
10659SOL    HW132876   5.819   1.002   0.596
10659SOL    HW232877   5.912   0.873   0.562
10660SOL     OW32878   4.583   4.900   5.463
10660SOL    HW132879   4.583   4.973   5.532
10660SOL    HW232880   4.675   4.889   5.426
10661SOL     OW32881   0.359   6.818   2.626
10661SOL    HW132882   0.388   6.902   2.670
10661SOL    HW232883   0.286   6.837   2.561
10662SOL     OW32884   5.888   1.447   0.624
10662SOL    HW132885   5.945   1.511   0.677
10662SOL    HW232886   5.941   1.365   0.603
10663SOL     OW32887   0.121   0.430   0.553
10663SOL    HW132888   0.096   0.385   0.638
10663SOL    HW232889   0.221   0.435   0.546
10664SOL     OW32890   1.875   4.929   6.996
10664SOL    HW132891   1.823   4.985   6.931
10664SOL    HW232892   1.947   4.985   0.020
10665SOL     OW32893   6.733   1.104   0.841
10665SOL    HW132894   6.687   1.187   0.811
10665SOL    HW232895   6.821   1.096   0.796
10666SOL     OW32896   1.493   6.912   6.999
10666SOL    HW132897   1.589   6.939   6.993
10666SOL    HW232898   1.435   6.993   6.989
10667SOL     OW32899   3.830   1.838   5.098
10667SOL    HW132900   3.870   1.827   5.008
10667SOL    HW232901   3.846   1.756   5.153
10668SOL     OW32902   1.881   1.002   5.765
10668SOL    HW132903   1.812   1.050   5.819
10668SOL    HW232904   1.851   0.998   5.669
10669SOL     OW32905   1.085   6.581   6.315
10669SOL    HW132906   1.071   6.680   6.313
10669SOL    HW232907   0.997   6.535   6.308
10670SOL     OW32908   6.412   4.417   5.677
10670SOL    HW132909   6.471   4.498   5.678
10670SOL    HW232910   6.469   4.335   5.678
10671SOL     OW32911   1.991   1.293   3.651
10671SOL    HW132912   2.088   1.276   3.666
10671SOL    HW232913   1.946   1.209   3.621
10672SOL     OW32914   0.014   3.439   0.370
10672SOL    HW132915   7.012   3.536   0.383
10672SOL    HW232916   6.982   3.385   0.438
10673SOL     OW32917   2.863   3.369   5.318
10673SOL    HW132918   2.785   3.305   5.319
10673SOL    HW232919   2.945   3.321   5.288
10674SOL     OW32920   3.538   1.950   2.081
10674SOL    HW132921   3.443   1.967   2.055
10674SOL    HW232922   3.592   2.033   2.065
10675SOL     OW32923   0.619   0.548   6.153
10675SOL    HW132924   0.569   0.635   6.156
10675SOL    HW232925   0.577   0.484   6.217
10676SOL     OW32926   6.837   0.429   6.713
10676SOL    HW132927   6.861   0.418   6.810
10676SOL    HW232928   6.738   0.426   6.703
10677SOL     OW32929   6.924   0.558   0.420
10677SOL    HW132930   6.988   0.506   0.476
10677SOL    HW232931   6.962   0.648   0.399
10678SOL     OW32932   2.689   6.575   2.983
10678SOL    HW132933   2.767   6.514   2.989
10678SOL    HW232934   2.683   6.631   3.065
10679SOL     OW32935   5.533   5.256   4.424
10679SOL    HW132936   5.604   5.326   4.429
10679SOL    HW232937   5.491   5.258   4.333
10680SOL     OW32938   1.483   2.172   3.685
10680SOL    HW132939   1.525   2.262   3.677
10680SOL    HW232940   1.394   2.172   3.641
10681SOL     OW32941   0.169   1.044   5.727
10681SOL    HW132942   0.222   1.036   5.812
10681SOL    HW232943   0.223   1.092   5.658
10682SOL     OW32944   6.841   1.660   2.937
10682SOL    HW132945   6.790   1.745   2.946
10682SOL    HW232946   6.837   1.608   3.022
10683SOL     OW32947   1.957   1.809   4.603
10683SOL    HW132948   2.014   1.862   4.540
10683SOL    HW232949   1.954   1.855   4.692
10684SOL     OW32950   5.238   5.779   0.967
10684SOL    HW132951   5.252   5.845   0.893
10684SOL    HW232952   5.205   5.692   0.929
10685SOL     OW32953   0.146   2.558   2.459
10685SOL    HW132954   0.083   2.506   2.516
10685SOL    HW232955   0.220   2.594   2.515
10686SOL     OW32956   3.867   4.945   0.431
10686SOL    HW132957   3.802   5.007   0.387
10686SOL    HW232958   3.820   4.860   0.457
10687SOL     OW32959   0.701   5.129   2.276
10687SOL    HW132960   0.668   5.223   2.264
10687SOL    HW232961   0.801   5.129   2.284
10688SOL     OW32962   6.543   5.478   2.122
10688SOL    HW132963   6.602   5.405   2.088
10688SOL    HW232964   6.576   5.509   2.212
10689SOL     OW32965   0.187   0.873   1.789
10689SOL    HW132966   0.126   0.944   1.825
10689SOL    HW232967   0.281   0.908   1.787
10690SOL     OW32968   4.583   5.597   1.696
10690SOL    HW132969   4.575   5.655   1.777
10690SOL    HW232970   4.548   5.506   1.717
10691SOL     OW32971   0.025   1.497   1.318
10691SOL    HW132972   6.950   1.535   1.321
10691SOL    HW232973   0.024   1.405   1.357
10692SOL     OW32974   4.294   6.156   3.873
10692SOL    HW132975   4.265   6.072   3.918
10692SOL    HW232976   4.357   6.206   3.933
10693SOL     OW32977   6.022   2.151   1.895
10693SOL    HW132978   5.961   2.171   1.972
10693SOL    HW232979   6.117   2.165   1.923
10694SOL     OW32980   4.020   6.161   0.631
10694SOL    HW132981   4.003   6.169   0.730
10694SOL    HW232982   3.965   6.085   0.594
10695SOL     OW32983   5.994   3.481   4.283
10695SOL    HW132984   6.080   3.442   4.316
10695SOL    HW232985   5.918   3.424   4.313
10696SOL     OW32986   6.354   6.549   1.208
10696SOL    HW132987   6.393   6.628   1.255
10696SOL    HW232988   6.309   6.490   1.275
10697SOL     OW32989   2.894   6.205   3.268
10697SOL    HW132990   2.877   6.159   3.181
10697SOL    HW232991   2.886   6.304   3.255
10698SOL     OW32992   3.115   0.613   3.118
10698SOL    HW132993   3.175   0.549   3.071
10698SOL    HW232994   3.048   0.649   3.053
10699SOL     OW32995   1.988   2.239   2.377
10699SOL    HW132996   2.019   2.147   2.403
10699SOL    HW232997   1.909   2.231   2.317
10700SOL     OW32998   6.462   0.884   1.444
10700SOL    HW132999   6.385   0.935   1.407
10700SOL    HW233000   6.461   0.889   1.544
10701SOL     OW33001   3.296   6.495   0.635
10701SOL    HW133002   3.366   6.523   0.569
10701SOL    HW233003   3.297   6.558   0.713
10702SOL     OW33004   6.215   2.997   1.447
10702SOL    HW133005   6.205   2.977   1.349
10702SOL    HW233006   6.129   2.979   1.494
10703SOL     OW33007   4.078   3.228   3.794
10703SOL    HW133008   4.072   3.328   3.802
10703SOL    HW233009   4.100   3.204   3.699
10704SOL     OW33010   5.527   6.602   2.006
10704SOL    HW133011   5.540   6.516   1.957
10704SOL    HW233012   5.597   6.609   2.078
10705SOL     OW33013   0.504   2.259   6.456
10705SOL    HW133014   0.472   2.245   6.362
10705SOL    HW233015   0.433   2.229   6.520
10706SOL     OW33016   3.613   1.212   2.293
10706SOL    HW133017   3.674   1.280   2.333
10706SOL    HW233018   3.597   1.234   2.197
10707SOL     OW33019   6.146   0.087   5.960
10707SOL    HW133020   6.138   7.010   5.926
10707SOL    HW233021   6.243   0.111   5.968
10708SOL     OW33022   4.123   0.905   1.238
10708SOL    HW133023   4.164   0.887   1.148
10708SOL    HW233024   4.078   0.822   1.271
10709SOL     OW33025   0.378   6.608   6.094
10709SOL    HW133026   0.296   6.556   6.117
10709SOL    HW233027   0.373   6.698   6.137
10710SOL     OW33028   6.349   5.583   3.042
10710SOL    HW133029   6.290   5.642   3.097
10710SOL    HW233030   6.417   5.539   3.101
10711SOL     OW33031   1.631   5.568   5.174
10711SOL    HW133032   1.621   5.469   5.159
10711SOL    HW233033   1.614   5.589   5.270
10712SOL     OW33034   4.163   1.467   5.092
10712SOL    HW133035   4.228   1.437   5.022
10712SOL    HW233036   4.203   1.544   5.142
10713SOL     OW33037   1.336   6.193   1.469
10713SOL    HW133038   1.294   6.279   1.499
10713SOL    HW233039   1.268   6.136   1.423
10714SOL     OW33040   6.817   5.257   5.203
10714SOL    HW133041   6.773   5.168   5.191
10714SOL    HW233042   6.872   5.278   5.122
10715SOL     OW33043   6.244   1.470   3.549
10715SOL    HW133044   6.225   1.374   3.528
10715SOL    HW233045   6.341   1.489   3.537
10716SOL     OW33046   6.182   0.554   3.065
10716SOL    HW133047   6.251   0.580   3.132
10716SOL    HW233048   6.198   0.460   3.035
10717SOL     OW33049   6.457   6.470   1.916
10717SOL    HW133050   6.521   6.473   1.839
10717SOL    HW233051   6.498   6.418   1.991
10718SOL     OW33052   0.493   4.278   6.277
10718SOL    HW133053   0.461   4.215   6.348
10718SOL    HW233054   0.485   4.234   6.188
10719SOL     OW33055   4.352   1.134   2.507
10719SOL    HW133056   4.267   1.103   2.464
10719SOL    HW233057   4.382   1.066   2.575
10720SOL     OW33058   0.640   3.351   0.306
10720SOL    HW133059   0.551   3.331   0.265
10720SOL    HW233060   0.653   3.450   0.312
10721SOL     OW33061   4.760   2.547   3.964
10721SOL    HW133062   4.789   2.456   3.995
10721SOL    HW233063   4.685   2.578   4.022
10722SOL     OW33064   0.172   4.237   0.801
10722SOL    HW133065   0.175   4.164   0.870
10722SOL    HW233066   0.108   4.308   0.830
10723SOL     OW33067   6.350   4.191   0.082
10723SOL    HW133068   6.310   4.281   0.065
10723SOL    HW233069   6.441   4.201   0.122
10724SOL     OW33070   3.718   6.795   5.149
10724SOL    HW133071   3.788   6.737   5.110
10724SOL    HW233072   3.656   6.740   5.205
10725SOL     OW33073   6.736   6.694   4.795
10725SOL    HW133074   6.709   6.724   4.703
10725SOL    HW233075   6.835   6.705   4.805
10726SOL     OW33076   5.049   0.675   5.007
10726SOL    HW133077   5.109   0.626   5.071
10726SOL    HW233078   5.067   0.643   4.914
10727SOL     OW33079   1.977   6.093   6.667
10727SOL    HW133080   2.010   6.171   6.720
10727SOL    HW233081   1.992   6.009   6.719
10728SOL     OW33082   5.708   5.748   3.316
10728SOL    HW133083   5.770   5.716   3.388
10728SOL    HW233084   5.706   5.848   3.315
10729SOL     OW33085   5.667   3.414   4.111
10729SOL    HW133086   5.745   3.428   4.172
10729SOL    HW233087   5.698   3.409   4.017
10730SOL     OW33088   1.980   5.474   2.871
10730SOL    HW133089   1.990   5.570   2.897
10730SOL    HW233090   1.983   5.417   2.953
10731SOL     OW33091   4.653   6.782   6.743
10731SOL    HW133092   4.661   6.826   6.832
10731SOL    HW233093   4.739   6.736   6.721
10732SOL     OW33094   5.840   5.999   2.968
10732SOL    HW133095   5.793   6.081   2.999
10732SOL    HW233096   5.933   6.023   2.939
10733SOL     OW33097   0.252   1.203   6.286
10733SOL    HW133098   0.159   1.189   6.252
10733SOL    HW233099   0.314   1.137   6.244
10734SOL     OW33100   1.749   0.831   4.250
10734SOL    HW133101   1.655   0.837   4.282
10734SOL    HW233102   1.775   0.735   4.240
10735SOL     OW33103   6.959   6.509   2.286
10735SOL    HW133104   6.978   6.604   2.265
10735SOL    HW233105   6.864   6.500   2.317
10736SOL     OW33106   5.759   6.323   3.896
10736SOL    HW133107   5.719   6.385   3.963
10736SOL    HW233108   5.851   6.354   3.872
10737SOL     OW33109   6.100   1.449   2.351
10737SOL    HW133110   6.055   1.518   2.409
10737SOL    HW233111   6.031   1.401   2.298
10738SOL     OW33112   3.638   0.517   1.142
10738SOL    HW133113   3.614   0.538   1.237
10738SOL    HW233114   3.559   0.535   1.084
10739SOL     OW33115   5.518   2.863   3.991
10739SOL    HW133116   5.464   2.780   3.977
10739SOL    HW233117   5.588   2.846   4.060
10740SOL     OW33118   2.657   0.258   5.942
10740SOL    HW133119   2.704   0.210   5.867
10740SOL    HW233120   2.657   0.201   6.024
10741SOL     OW33121   2.028   2.185   3.669
10741SOL    HW133122   1.945   2.204   3.617
10741SOL    HW233123   2.051   2.087   3.660
10742SOL     OW33124   6.227   6.231   2.710
10742SOL    HW133125   6.167   6.293   2.760
10742SOL    HW233126   6.190   6.138   2.716
10743SOL     OW33127   2.865   1.938   5.527
10743SOL    HW133128   2.773   1.899   5.517
10743SOL    HW233129   2.906   1.952   5.437
10744SOL     OW33130   1.974   1.265   0.473
10744SOL    HW133131   1.957   1.204   0.551
10744SOL    HW233132   1.996   1.356   0.507
10745SOL     OW33133   1.647   4.452   2.062
10745SOL    HW133134   1.599   4.398   2.131
10745SOL    HW233135   1.746   4.436   2.071
10746SOL     OW33136   1.419   6.457   6.579
10746SOL    HW133137   1.427   6.540   6.634
10746SOL    HW233138   1.410   6.482   6.483
10747SOL     OW33139   6.369   1.251   4.611
10747SOL    HW133140   6.352   1.167   4.663
10747SOL    HW233141   6.465   1.254   4.583
10748SOL     OW33142   3.094   6.518   1.193
10748SOL    HW133143   3.144   6.600   1.165
10748SOL    HW233144   3.104   6.447   1.123
10749SOL     OW33145   5.825   4.373   1.644
10749SOL    HW133146   5.788   4.290   1.601
10749SOL    HW233147   5.878   4.424   1.577
10750SOL     OW33148   4.212   2.191   4.233
10750SOL    HW133149   4.288   2.173   4.295
10750SOL    HW233150   4.247   2.226   4.147
10751SOL     OW33151   0.571   5.794   4.389
10751SOL    HW133152   0.520   5.749   4.462
10751SOL    HW233153   0.652   5.839   4.428
10752SOL     OW33154   6.519   6.601   0.288
10752SOL    HW133155   6.608   6.594   0.333
10752SOL    HW233156   6.446   6.591   0.356
10753SOL     OW33157   5.325   6.904   3.908
10753SOL    HW133158   5.235   6.866   3.888
10753SOL    HW233159   5.344   6.895   4.006
10754SOL     OW33160   0.618   4.208   2.603
10754SOL    HW133161   0.656   4.137   2.544
10754SOL    HW233162   0.688   4.277   2.622
10755SOL     OW33163   0.243   2.460   1.094
10755SOL    HW133164   0.199   2.538   1.139
10755SOL    HW233165   0.235   2.470   0.995
10756SOL     OW33166   1.151   0.682   0.634
10756SOL    HW133167   1.151   0.612   0.562
10756SOL    HW233168   1.120   0.769   0.596
10757SOL     OW33169   0.463   3.809   1.715
10757SOL    HW133170   0.374   3.789   1.755
10757SOL    HW233171   0.535   3.791   1.783
10758SOL     OW33172   0.643   0.402   0.199
10758SOL    HW133173   0.583   0.339   0.248
10758SOL    HW233174   0.720   0.352   0.160
10759SOL     OW33175   2.676   2.430   5.791
10759SOL    HW133176   2.736   2.353   5.812
10759SOL    HW233177   2.635   2.417   5.700
10760SOL     OW33178   1.026   4.698   6.311
10760SOL    HW133179   1.004   4.658   6.222
10760SOL    HW233180   0.949   4.685   6.374
10761SOL     OW33181   0.970   1.583   5.755
10761SOL    HW133182   1.036   1.521   5.798
10761SOL    HW233183   0.902   1.529   5.705
10762SOL     OW33184   2.884   5.908   6.522
10762SOL    HW133185   2.855   5.932   6.615
10762SOL    HW233186   2.960   5.843   6.526
10763SOL     OW33187   5.050   0.062   3.820
10763SOL    HW133188   4.958   0.058   3.781
10763SOL    HW233189   5.113   0.099   3.752
10764SOL     OW33190   4.360   6.648   4.515
10764SOL    HW133191   4.333   6.628   4.421
10764SOL    HW233192   4.342   6.568   4.573
10765SOL     OW33193   0.305   2.390   2.282
10765SOL    HW133194   0.240   2.466   2.275
10765SOL    HW233195   0.337   2.365   2.190
10766SOL     OW33196   2.213   4.884   0.113
10766SOL    HW133197   2.215   4.811   0.044
10766SOL    HW233198   2.168   4.964   0.074
10767SOL     OW33199   1.294   5.158   0.143
10767SOL    HW133200   1.324   5.065   0.164
10767SOL    HW233201   1.373   5.218   0.133
10768SOL     OW33202   5.200   6.193   6.834
10768SOL    HW133203   5.285   6.244   6.843
10768SOL    HW233204   5.204   6.111   6.890
10769SOL     OW33205   3.001   3.284   4.422
10769SOL    HW133206   3.016   3.192   4.385
10769SOL    HW233207   2.965   3.344   4.349
10770SOL     OW33208   5.596   0.085   3.329
10770SOL    HW133209   5.517   0.079   3.269
10770SOL    HW233210   5.621   7.010   3.361
10771SOL     OW33211   4.721   6.242   5.819
10771SOL    HW133212   4.700   6.279   5.910
10771SOL    HW233213   4.657   6.168   5.798
10772SOL     OW33214   5.901   5.281   2.626
10772SOL    HW133215   5.947   5.366   2.598
10772SOL    HW233216   5.838   5.252   2.554
10773SOL     OW33217   0.004   3.421   0.931
10773SOL    HW133218   6.950   3.489   0.916
10773SOL    HW233219   6.980   3.337   0.966
10774SOL     OW33220   0.953   3.331   1.091
10774SOL    HW133221   0.894   3.412   1.096
10774SOL    HW233222   0.902   3.255   1.050
10775SOL     OW33223   1.598   4.211   0.568
10775SOL    HW133224   1.556   4.295   0.603
10775SOL    HW233225   1.644   4.163   0.642
10776SOL     OW33226   0.719   2.745   4.250
10776SOL    HW133227   0.815   2.772   4.257
10776SOL    HW233228   0.666   2.819   4.208
10777SOL     OW33229   2.525   0.963   1.142
10777SOL    HW133230   2.433   0.924   1.150
10777SOL    HW233231   2.544   1.017   1.224
10778SOL     OW33232   5.398   0.213   2.878
10778SOL    HW133233   5.361   0.164   2.799
10778SOL    HW233234   5.455   0.289   2.846
10779SOL     OW33235   5.526   3.785   5.411
10779SOL    HW133236   5.474   3.822   5.334
10779SOL    HW233237   5.469   3.723   5.464
10780SOL     OW33238   1.768   5.451   4.817
10780SOL    HW133239   1.729   5.527   4.869
10780SOL    HW233240   1.694   5.389   4.789
10781SOL     OW33241   5.622   2.268   4.658
10781SOL    HW133242   5.652   2.341   4.720
10781SOL    HW233243   5.700   2.236   4.604
10782SOL     OW33244   1.036   1.305   5.322
10782SOL    HW133245   1.044   1.405   5.328
10782SOL    HW233246   0.949   1.281   5.280
10783SOL     OW33247   1.043   2.462   3.596
10783SOL    HW133248   1.054   2.561   3.605
10783SOL    HW233249   1.012   2.423   3.683
10784SOL     OW33250   3.913   5.657   2.927
10784SOL    HW133251   3.835   5.713   2.897
10784SOL    HW233252   3.957   5.702   3.005
10785SOL     OW33253   1.093   5.232   1.585
10785SOL    HW133254   1.053   5.232   1.493
10785SOL    HW233255   1.131   5.141   1.604
10786SOL     OW33256   4.395   1.743   2.581
10786SOL    HW133257   4.487   1.777   2.600
10786SOL    HW233258   4.385   1.728   2.483
10787SOL     OW33259   4.313   0.832   3.510
10787SOL    HW133260   4.338   0.928   3.502
10787SOL    HW233261   4.256   0.806   3.431
10788SOL     OW33262   1.762   3.977   0.085
10788SOL    HW133263   1.664   3.976   0.064
10788SOL    HW233264   1.815   3.969   0.001
10789SOL     OW33265   6.714   1.443   1.815
10789SOL    HW133266   6.759   1.414   1.900
10789SOL    HW233267   6.639   1.380   1.795
10790SOL     OW33268   0.735   1.479   5.930
10790SOL    HW133269   0.688   1.472   5.842
10790SOL    HW233270   0.809   1.411   5.933
10791SOL     OW33271   1.631   1.944   3.591
10791SOL    HW133272   1.575   2.021   3.619
10791SOL    HW233273   1.576   1.880   3.537
10792SOL     OW33274   4.015   1.996   2.450
10792SOL    HW133275   3.999   1.903   2.482
10792SOL    HW233276   3.970   2.009   2.362
10793SOL     OW33277   4.267   1.742   4.591
10793SOL    HW133278   4.339   1.805   4.563
10793SOL    HW233279   4.267   1.734   4.691
10794SOL     OW33280   5.100   2.183   0.913
10794SOL    HW133281   5.145   2.097   0.937
10794SOL    HW233282   5.149   2.228   0.839
10795SOL     OW33283   6.767   3.513   3.224
10795SOL    HW133284   6.792   3.606   3.197
10795SOL    HW233285   6.668   3.506   3.231
10796SOL     OW33286   0.531   0.023   5.964
10796SOL    HW133287   0.472   0.065   6.034
10796SOL    HW233288   0.477   0.006   5.881
10797SOL     OW33289   4.454   4.678   6.797
10797SOL    HW133290   4.375   4.681   6.737
10797SOL    HW233291   4.425   4.658   6.890
10798SOL     OW33292   1.347   6.834   6.538
10798SOL    HW133293   1.367   6.761   6.473
10798SOL    HW233294   1.414   6.908   6.526
10799SOL     OW33295   2.686   1.044   2.765
10799SOL    HW133296   2.648   1.127   2.724
10799SOL    HW233297   2.760   1.068   2.827
10800SOL     OW33298   2.535   6.999   5.698
10800SOL    HW133299   2.608   6.964   5.640
10800SOL    HW233300   2.522   6.938   5.777
10801SOL     OW33301   2.836   6.117   6.375
10801SOL    HW133302   2.857   6.046   6.441
10801SOL    HW233303   2.841   6.080   6.282
10802SOL     OW33304   0.850   5.196   4.189
10802SOL    HW133305   0.764   5.152   4.165
10802SOL    HW233306   0.840   5.243   4.277
10803SOL     OW33307   0.204   4.078   4.690
10803SOL    HW133308   0.173   4.162   4.735
10803SOL    HW233309   0.163   3.999   4.735
10804SOL     OW33310   4.818   4.415   0.945
10804SOL    HW133311   4.722   4.440   0.957
10804SOL    HW233312   4.877   4.493   0.968
10805SOL     OW33313   3.831   6.012   0.515
10805SOL    HW133314   3.811   5.916   0.531
10805SOL    HW233315   3.745   6.062   0.498
10806SOL     OW33316   6.247   3.926   6.493
10806SOL    HW133317   6.172   3.942   6.556
10806SOL    HW233318   6.225   3.850   6.432
10807SOL     OW33319   4.655   0.271   4.009
10807SOL    HW133320   4.618   0.246   3.919
10807SOL    HW233321   4.742   0.319   3.998
10808SOL     OW33322   0.459   2.080   0.074
10808SOL    HW133323   0.375   2.115   0.032
10808SOL    HW233324   0.520   2.045   0.003
10809SOL     OW33325   3.403   0.870   3.317
10809SOL    HW133326   3.474   0.815   3.362
10809SOL    HW233327   3.445   0.932   3.251
10810SOL     OW33328   0.937   1.753   6.854
10810SOL    HW133329   0.947   1.787   6.948
10810SOL    HW233330   1.013   1.786   6.799
10811SOL     OW33331   4.843   4.584   6.015
10811SOL    HW133332   4.873   4.626   5.929
10811SOL    HW233333   4.816   4.489   5.999
10812SOL     OW33334   6.969   2.431   2.602
10812SOL    HW133335   6.884   2.484   2.602
10812SOL    HW233336   7.017   2.443   2.689
10813SOL     OW33337   3.311   5.579   2.400
10813SOL    HW133338   3.394   5.555   2.451
10813SOL    HW233339   3.236   5.520   2.430
10814SOL     OW33340   1.850   5.978   5.326
10814SOL    HW133341   1.949   5.976   5.312
10814SOL    HW233342   1.823   6.065   5.367
10815SOL     OW33343   4.473   2.393   3.705
10815SOL    HW133344   4.511   2.312   3.750
10815SOL    HW233345   4.385   2.370   3.664
10816SOL     OW33346   2.071   2.312   1.874
10816SOL    HW133347   1.991   2.273   1.919
10816SOL    HW233348   2.117   2.242   1.819
10817SOL     OW33349   4.569   6.863   1.874
10817SOL    HW133350   4.641   6.802   1.843
10817SOL    HW233351   4.525   6.905   1.795
10818SOL     OW33352   4.661   2.929   6.254
10818SOL    HW133353   4.669   3.018   6.211
10818SOL    HW233354   4.682   2.857   6.187
10819SOL     OW33355   0.835   3.790   5.468
10819SOL    HW133356   0.761   3.723   5.472
10819SOL    HW233357   0.908   3.763   5.531
10820SOL     OW33358   0.182   0.441   4.587
10820SOL    HW133359   0.248   0.445   4.512
10820SOL    HW233360   0.092   0.473   4.555
10821SOL     OW33361   6.825   0.276   1.251
10821SOL    HW133362   6.880   0.355   1.280
10821SOL    HW233363   6.856   0.194   1.299
10822SOL     OW33364   0.904   4.755   0.501
10822SOL    HW133365   0.985   4.732   0.556
10822SOL    HW233366   0.865   4.671   0.463
10823SOL     OW33367   0.979   2.037   1.857
10823SOL    HW133368   1.058   1.988   1.821
10823SOL    HW233369   1.008   2.125   1.894
10824SOL     OW33370   5.429   0.423   3.271
10824SOL    HW133371   5.445   0.465   3.360
10824SOL    HW233372   5.516   0.396   3.231
10825SOL     OW33373   3.742   1.859   1.376
10825SOL    HW133374   3.704   1.904   1.295
10825SOL    HW233375   3.761   1.926   1.446
10826SOL     OW33376   6.821   2.585   1.612
10826SOL    HW133377   6.787   2.652   1.547
10826SOL    HW233378   6.768   2.500   1.603
10827SOL     OW33379   1.322   2.482   4.090
10827SOL    HW133380   1.416   2.463   4.064
10827SOL    HW233381   1.268   2.503   4.009
10828SOL     OW33382   1.290   6.381   0.059
10828SOL    HW133383   1.230   6.363   6.998
10828SOL    HW233384   1.385   6.384   0.027
10829SOL     OW33385   2.289   3.697   1.711
10829SOL    HW133386   2.304   3.618   1.771
10829SOL    HW233387   2.272   3.778   1.767
10830SOL     OW33388   5.191   1.761   3.964
10830SOL    HW133389   5.239   1.693   4.019
10830SOL    HW233390   5.095   1.735   3.955
10831SOL     OW33391   5.111   2.983   3.174
10831SOL    HW133392   5.103   3.032   3.087
10831SOL    HW233393   5.033   3.006   3.232
10832SOL     OW33394   6.731   2.605   2.576
10832SOL    HW133395   6.734   2.680   2.642
10832SOL    HW233396   6.646   2.554   2.587
10833SOL     OW33397   2.987   0.062   4.378
10833SOL    HW133398   2.999   0.123   4.457
10833SOL    HW233399   2.956   6.990   4.409
10834SOL     OW33400   6.912   1.425   5.374
10834SOL    HW133401   6.815   1.407   5.388
10834SOL    HW233402   6.934   1.417   5.277
10835SOL     OW33403   6.768   2.018   2.724
10835SOL    HW133404   6.833   2.034   2.650
10835SOL    HW233405   6.816   1.983   2.804
10836SOL     OW33406   1.762   2.790   0.894
10836SOL    HW133407   1.765   2.745   0.983
10836SOL    HW233408   1.698   2.741   0.835
10837SOL     OW33409   1.125   5.769   1.278
10837SOL    HW133410   1.206   5.733   1.324
10837SOL    HW233411   1.138   5.766   1.179
10838SOL     OW33412   6.305   7.005   0.807
10838SOL    HW133413   6.396   6.965   0.819
10838SOL    HW233414   6.236   6.944   0.847
10839SOL     OW33415   1.848   1.551   0.030
10839SOL    HW133416   1.790   1.629   0.004
10839SOL    HW233417   1.791   1.478   0.068
10840SOL     OW33418   3.711   5.124   2.838
10840SOL    HW133419   3.620   5.095   2.870
10840SOL    HW233420   3.740   5.204   2.890
10841SOL     OW33421   4.639   3.259   5.902
10841SOL    HW133422   4.715   3.285   5.842
10841SOL    HW233423   4.574   3.202   5.850
10842SOL     OW33424   6.773   2.768   1.416
10842SOL    HW133425   6.842   2.801   1.352
10842SOL    HW233426   6.752   2.839   1.483
10843SOL     OW33427   0.549   1.198   1.986
10843SOL    HW133428   0.637   1.226   1.949
10843SOL    HW233429   0.475   1.244   1.936
10844SOL     OW33430   3.318   6.904   3.389
10844SOL    HW133431   3.248   6.913   3.461
10844SOL    HW233432   3.407   6.931   3.426
10845SOL     OW33433   1.634   3.215   0.894
10845SOL    HW133434   1.684   3.260   0.820
10845SOL    HW233435   1.555   3.167   0.856
10846SOL     OW33436   3.762   1.801   2.000
10846SOL    HW133437   3.789   1.896   1.983
10846SOL    HW233438   3.667   1.798   2.032
10847SOL     OW33439   3.688   2.575   6.430
10847SOL    HW133440   3.688   2.523   6.345
10847SOL    HW233441   3.753   2.534   6.494
10848SOL     OW33442   0.768   0.988   0.581
10848SOL    HW133443   0.671   1.005   0.567
10848SOL    HW233444   0.784   0.969   0.678
10849SOL     OW33445   2.503   5.179   4.302
10849SOL    HW133446   2.499   5.180   4.202
10849SOL    HW233447   2.434   5.242   4.339
10850SOL     OW33448   5.795   0.550   1.924
10850SOL    HW133449   5.697   0.561   1.912
10850SOL    HW233450   5.815   0.460   1.964
10851SOL     OW33451   4.094   1.816   6.126
10851SOL    HW133452   4.073   1.910   6.102
10851SOL    HW233453   4.150   1.814   6.210
10852SOL     OW33454   0.363   6.803   6.297
10852SOL    HW133455   0.437   6.815   6.363
10852SOL    HW233456   0.275   6.817   6.342
10853SOL     OW33457   1.949   0.706   4.861
10853SOL    HW133458   1.953   0.758   4.775
10853SOL    HW233459   2.021   0.636   4.861
10854SOL     OW33460   0.137   6.467   1.091
10854SOL    HW133461   0.105   6.372   1.088
10854SOL    HW233462   0.231   6.471   1.056
10855SOL     OW33463   1.460   5.407   1.979
10855SOL    HW133464   1.423   5.316   1.958
10855SOL    HW233465   1.481   5.454   1.893
10856SOL     OW33466   6.125   0.335   6.292
10856SOL    HW133467   6.048   0.398   6.303
10856SOL    HW233468   6.095   0.242   6.311
10857SOL     OW33469   6.349   0.463   5.140
10857SOL    HW133470   6.324   0.539   5.200
10857SOL    HW233471   6.291   0.465   5.058
10858SOL     OW33472   1.715   2.069   0.110
10858SOL    HW133473   1.717   2.153   0.163
10858SOL    HW233474   1.672   2.086   0.021
10859SOL     OW33475   1.061   5.842   2.172
10859SOL    HW133476   1.157   5.871   2.165
10859SOL    HW233477   1.004   5.922   2.195
10860SOL     OW33478   5.714   3.499   0.731
10860SOL    HW133479   5.663   3.543   0.804
10860SOL    HW233480   5.775   3.566   0.687
10861SOL     OW33481   3.309   3.053   1.671
10861SOL    HW133482   3.281   3.147   1.649
10861SOL    HW233483   3.230   3.004   1.708
10862SOL     OW33484   3.332   3.079   5.382
10862SOL    HW133485   3.386   3.061   5.300
10862SOL    HW233486   3.364   3.020   5.457
10863SOL     OW33487   2.111   0.804   3.228
10863SOL    HW133488   2.120   0.784   3.325
10863SOL    HW233489   2.135   0.723   3.175
10864SOL     OW33490   3.064   4.187   1.795
10864SOL    HW133491   3.160   4.168   1.812
10864SOL    HW233492   3.044   4.282   1.821
10865SOL     OW33493   4.202   1.464   2.806
10865SOL    HW133494   4.299   1.460   2.782
10865SOL    HW233495   4.163   1.550   2.774
10866SOL     OW33496   0.013   3.898   3.353
10866SOL    HW133497   6.967   3.855   3.417
10866SOL    HW233498   7.005   3.874   3.260
10867SOL     OW33499   4.868   2.822   0.681
10867SOL    HW133500   4.924   2.886   0.631
10867SOL    HW233501   4.771   2.846   0.670
10868SOL     OW33502   1.434   6.858   4.893
10868SOL    HW133503   1.368   6.920   4.936
10868SOL    HW233504   1.525   6.898   4.897
10869NA      NA33505   7.010   1.158   5.996
10870NA      NA33506   4.531   4.519   5.172
10871NA      NA33507   1.254   5.002   2.560
10872NA      NA33508   5.935   4.122   3.317
10873NA      NA33509   3.832   2.296   5.423
10874NA      NA33510   2.104   4.650   0.484
10875NA      NA33511   1.263   5.176   6.740
10876NA      NA33512   3.743   4.357   0.873
10877NA      NA33513   4.801   4.974   0.233
10878NA      NA33514   3.286   0.976   6.918
10879NA      NA33515   5.561   6.832   1.624
10880NA      NA33516   2.379   6.352   5.770
10881NA      NA33517   4.032   5.104   1.673
10882NA      NA33518   3.956   3.143   6.656
   7.01715   7.01715   7.01715
