Generated by trjconv : CNT in water t=  83.00000
33518
    1C        C    1   2.838   2.766   4.744
    1C        C    2   2.891   2.712   4.863
    1C        C    3   2.838   2.770   4.979
    1C        C    4   2.840   2.766   4.260
    1C        C    5   2.899   2.720   4.379
    1C        C    6   2.847   2.767   4.502
    1C        C    7   3.015   2.641   4.624
    1C        C    8   2.894   2.714   4.625
    1C        C    9   3.075   2.602   4.745
    1C        C   10   3.005   2.629   4.865
    1C        C   11   3.178   2.489   4.979
    1C        C   12   3.055   2.556   4.974
    1C        C   13   2.850   2.772   3.771
    1C        C   14   2.899   2.722   3.894
    1C        C   15   2.848   2.771   4.016
    1C        C   16   3.017   2.645   4.138
    1C        C   17   2.901   2.726   4.139
    1C        C   18   3.080   2.609   4.259
    1C        C   19   3.019   2.646   4.381
    1C        C   20   3.211   2.555   4.506
    1C        C   21   3.080   2.608   4.503
    1C        C   22   3.278   2.531   4.628
    1C        C   23   3.206   2.548   4.748
    1C        C   24   3.410   2.486   4.867
    1C        C   25   3.268   2.505   4.869
    1C        C   26   3.487   2.476   4.983
    1C        C   27   2.848   2.764   3.279
    1C        C   28   2.904   2.724   3.402
    1C        C   29   2.853   2.774   3.524
    1C        C   30   3.015   2.643   3.650
    1C        C   31   2.900   2.724   3.648
    1C        C   32   3.073   2.601   3.772
    1C        C   33   3.012   2.637   3.895
    1C        C   34   3.208   2.552   4.015
    1C        C   35   3.078   2.608   4.016
    1C        C   36   3.274   2.528   4.137
    1C        C   37   3.209   2.551   4.260
    1C        C   38   3.414   2.504   4.379
    1C        C   39   3.275   2.528   4.383
    1C        C   40   3.484   2.491   4.501
    1C        C   41   3.415   2.498   4.624
    1C        C   42   3.627   2.483   4.744
    1C        C   43   3.485   2.487   4.746
    1C        C   44   3.702   2.488   4.863
    1C        C   45   3.626   2.478   4.981
    1C        C   46   2.835   2.751   2.788
    1C        C   47   2.895   2.712   2.909
    1C        C   48   2.842   2.757   3.032
    1C        C   49   3.011   2.633   3.158
    1C        C   50   2.897   2.716   3.156
    1C        C   51   3.072   2.600   3.281
    1C        C   52   3.016   2.637   3.405
    1C        C   53   3.203   2.545   3.526
    1C        C   54   3.075   2.604   3.528
    1C        C   55   3.270   2.524   3.649
    1C        C   56   3.202   2.543   3.771
    1C        C   57   3.412   2.506   3.890
    1C        C   58   3.273   2.528   3.892
    1C        C   59   3.483   2.498   4.012
    1C        C   60   3.414   2.506   4.135
    1C        C   61   3.626   2.501   4.257
    1C        C   62   3.485   2.497   4.257
    1C        C   63   3.697   2.507   4.379
    1C        C   64   3.626   2.496   4.500
    1C        C   65   3.832   2.544   4.619
    1C        C   66   3.696   2.503   4.622
    1C        C   67   3.898   2.567   4.741
    1C        C   68   3.835   2.533   4.863
    1C        C   69   4.048   2.585   4.975
    1C        C   70   3.919   2.531   4.976
    1C        C   71   2.817   2.729   2.304
    1C        C   72   2.879   2.689   2.424
    1C        C   73   2.829   2.743   2.545
    1C        C   74   3.005   2.624   2.668
    1C        C   75   2.886   2.700   2.667
    1C        C   76   3.068   2.589   2.790
    1C        C   77   3.010   2.629   2.913
    1C        C   78   3.200   2.539   3.035
    1C        C   79   3.069   2.592   3.036
    1C        C   80   3.267   2.522   3.158
    1C        C   81   3.201   2.543   3.281
    1C        C   82   3.407   2.492   3.400
    1C        C   83   3.268   2.518   3.404
    1C        C   84   3.477   2.491   3.522
    1C        C   85   3.410   2.500   3.646
    1C        C   86   3.623   2.500   3.767
    1C        C   87   3.482   2.496   3.767
    1C        C   88   3.694   2.511   3.889
    1C        C   89   3.624   2.506   4.012
    1C        C   90   3.831   2.549   4.134
    1C        C   91   3.695   2.510   4.134
    1C        C   92   3.898   2.570   4.256
    1C        C   93   3.834   2.541   4.379
    1C        C   94   4.029   2.630   4.495
    1C        C   95   3.905   2.562   4.499
    1C        C   96   4.085   2.674   4.617
    1C        C   97   4.026   2.629   4.738
    1C        C   98   4.193   2.759   4.864
    1C        C   99   4.093   2.658   4.860
    1C        C  100   4.219   2.832   4.981
    1C        C  101   2.824   2.732   2.064
    1C        C  102   2.988   2.591   2.188
    1C        C  103   2.875   2.680   2.184
    1C        C  104   3.063   2.572   2.307
    1C        C  105   2.999   2.614   2.425
    1C        C  106   3.197   2.531   2.547
    1C        C  107   3.068   2.589   2.546
    1C        C  108   3.268   2.516   2.668
    1C        C  109   3.198   2.535   2.789
    1C        C  110   3.406   2.498   2.911
    1C        C  111   3.266   2.518   2.911
    1C        C  112   3.477   2.490   3.033
    1C        C  113   3.406   2.496   3.155
    1C        C  114   3.617   2.502   3.276
    1C        C  115   3.476   2.490   3.277
    1C        C  116   3.686   2.510   3.399
    1C        C  117   3.618   2.499   3.523
    1C        C  118   3.828   2.546   3.644
    1C        C  119   3.691   2.511   3.644
    1C        C  120   3.895   2.572   3.766
    1C        C  121   3.830   2.549   3.889
    1C        C  122   4.023   2.636   4.010
    1C        C  123   3.894   2.579   4.011
    1C        C  124   4.086   2.672   4.132
    1C        C  125   4.022   2.637   4.253
    1C        C  126   4.192   2.767   4.374
    1C        C  127   4.084   2.676   4.374
    1C        C  128   4.241   2.816   4.497
    1C        C  129   4.191   2.766   4.619
    1C        C  130   4.321   2.932   4.739
    1C        C  131   4.242   2.814   4.742
    1C        C  132   4.352   3.000   4.859
    1C        C  133   4.283   2.955   4.973
    1C        C  134   3.167   2.468   2.080
    1C        C  135   3.032   2.505   2.083
    1C        C  136   3.257   2.471   2.187
    1C        C  137   3.194   2.516   2.305
    1C        C  138   3.403   2.481   2.425
    1C        C  139   3.262   2.496   2.427
    1C        C  140   3.478   2.481   2.544
    1C        C  141   3.408   2.495   2.666
    1C        C  142   3.618   2.496   2.790
    1C        C  143   3.477   2.495   2.789
    1C        C  144   3.690   2.505   2.911
    1C        C  145   3.618   2.494   3.032
    1C        C  146   3.826   2.539   3.155
    1C        C  147   3.687   2.511   3.154
    1C        C  148   3.891   2.565   3.278
    1C        C  149   3.823   2.548   3.400
    1C        C  150   4.021   2.629   3.520
    1C        C  151   3.893   2.569   3.521
    1C        C  152   4.079   2.671   3.642
    1C        C  153   4.021   2.635   3.766
    1C        C  154   4.193   2.762   3.887
    1C        C  155   4.079   2.678   3.887
    1C        C  156   4.244   2.810   4.010
    1C        C  157   4.197   2.759   4.133
    1C        C  158   4.345   2.916   4.252
    1C        C  159   4.252   2.810   4.253
    1C        C  160   4.377   2.980   4.374
    1C        C  161   4.328   2.927   4.496
    1C        C  162   4.440   3.109   4.616
    1C        C  163   4.362   2.991   4.617
    1C        C  164   4.469   3.178   4.736
    1C        C  165   4.431   3.117   4.858
    1C        C  166   4.519   3.315   4.972
    1C        C  167   4.484   3.181   4.970
    1C        C  168   3.474   2.423   2.073
    1C        C  169   3.397   2.451   2.187
    1C        C  170   3.616   2.467   2.302
    1C        C  171   3.474   2.462   2.304
    1C        C  172   3.689   2.488   2.421
    1C        C  173   3.619   2.484   2.544
    1C        C  174   3.823   2.540   2.666
    1C        C  175   3.686   2.506   2.666
    1C        C  176   3.892   2.563   2.788
    1C        C  177   3.828   2.536   2.911
    1C        C  178   4.022   2.619   3.030
    1C        C  179   3.896   2.556   3.034
    1C        C  180   4.083   2.658   3.151
    1C        C  181   4.019   2.627   3.273
    1C        C  182   4.190   2.751   3.395
    1C        C  183   4.079   2.663   3.396
    1C        C  184   4.243   2.799   3.517
    1C        C  185   4.191   2.757   3.641
    1C        C  186   4.333   2.914   3.763
    1C        C  187   4.245   2.804   3.763
    1C        C  188   4.379   2.972   3.884
    1C        C  189   4.335   2.918   4.007
    1C        C  190   4.443   3.102   4.130
    1C        C  191   4.377   2.977   4.129
    1C        C  192   4.471   3.169   4.252
    1C        C  193   4.443   3.105   4.374
    1C        C  194   4.504   3.311   4.491
    1C        C  195   4.469   3.174   4.495
    1C        C  196   4.519   3.383   4.612
    1C        C  197   4.504   3.316   4.735
    1C        C  198   4.549   3.531   4.846
    1C        C  199   4.529   3.390   4.854
    1C        C  200   4.575   3.616   4.959
    1C        C  201   3.613   2.414   2.072
    1C        C  202   3.827   2.512   2.181
    1C        C  203   3.693   2.460   2.182
    1C        C  204   3.897   2.539   2.302
    1C        C  205   3.825   2.524   2.422
    1C        C  206   4.017   2.619   2.542
    1C        C  207   3.890   2.558   2.543
    1C        C  208   4.079   2.658   2.663
    1C        C  209   4.019   2.623   2.786
    1C        C  210   4.192   2.746   2.907
    1C        C  211   4.080   2.660   2.908
    1C        C  212   4.246   2.793   3.029
    1C        C  213   4.194   2.746   3.152
    1C        C  214   4.336   2.904   3.272
    1C        C  215   4.243   2.798   3.273
    1C        C  216   4.365   2.971   3.394
    1C        C  217   4.328   2.912   3.517
    1C        C  218   4.434   3.096   3.638
    1C        C  219   4.370   2.970   3.639
    1C        C  220   4.463   3.161   3.760
    1C        C  221   4.444   3.097   3.885
    1C        C  222   4.505   3.301   4.004
    1C        C  223   4.470   3.164   4.006
    1C        C  224   4.515   3.375   4.124
    1C        C  225   4.503   3.306   4.247
    1C        C  226   4.514   3.521   4.365
    1C        C  227   4.512   3.379   4.368
    1C        C  228   4.507   3.593   4.486
    1C        C  229   4.521   3.524   4.609
    1C        C  230   4.502   3.743   4.725
    1C        C  231   4.532   3.604   4.725
    1C        C  232   4.490   3.817   4.845
    1C        C  233   4.543   3.752   4.957
    1C        C  234   4.022   2.599   2.063
    1C        C  235   3.899   2.536   2.063
    1C        C  236   4.088   2.641   2.180
    1C        C  237   4.024   2.603   2.300
    1C        C  238   4.201   2.727   2.420
    1C        C  239   4.085   2.644   2.420
    1C        C  240   4.251   2.782   2.540
    1C        C  241   4.193   2.741   2.662
    1C        C  242   4.335   2.900   2.781
    1C        C  243   4.242   2.794   2.784
    1C        C  244   4.373   2.959   2.903
    1C        C  245   4.334   2.904   3.027
    1C        C  246   4.433   3.090   3.147
    1C        C  247   4.375   2.961   3.149
    1C        C  248   4.451   3.160   3.269
    1C        C  249   4.429   3.096   3.393
    1C        C  250   4.494   3.297   3.514
    1C        C  251   4.463   3.159   3.515
    1C        C  252   4.504   3.366   3.637
    1C        C  253   4.498   3.298   3.760
    1C        C  254   4.519   3.511   3.876
    1C        C  255   4.514   3.370   3.881
    1C        C  256   4.516   3.586   3.996
    1C        C  257   4.517   3.516   4.119
    1C        C  258   4.481   3.726   4.238
    1C        C  259   4.511   3.588   4.240
    1C        C  260   4.463   3.797   4.359
    1C        C  261   4.483   3.732   4.482
    1C        C  262   4.422   3.937   4.599
    1C        C  263   4.477   3.807   4.602
    1C        C  264   4.403   4.010   4.719
    1C        C  265   4.434   3.947   4.841
    1C        C  266   4.319   4.129   4.954
    1C        C  267   4.389   4.009   4.959
    1C        C  268   4.262   2.768   2.060
    1C        C  269   4.199   2.728   2.178
    1C        C  270   4.346   2.884   2.299
    1C        C  271   4.254   2.776   2.299
    1C        C  272   4.383   2.951   2.418
    1C        C  273   4.345   2.887   2.539
    1C        C  274   4.440   3.082   2.658
    1C        C  275   4.381   2.953   2.658
    1C        C  276   4.468   3.148   2.779
    1C        C  277   4.441   3.083   2.902
    1C        C  278   4.500   3.288   3.022
    1C        C  279   4.463   3.152   3.023
    1C        C  280   4.502   3.361   3.143
    1C        C  281   4.482   3.298   3.268
    1C        C  282   4.508   3.506   3.386
    1C        C  283   4.502   3.365   3.390
    1C        C  284   4.510   3.578   3.508
    1C        C  285   4.513   3.507   3.630
    1C        C  286   4.483   3.717   3.751
    1C        C  287   4.511   3.579   3.752
    1C        C  288   4.468   3.789   3.872
    1C        C  289   4.491   3.725   3.996
    1C        C  290   4.421   3.928   4.113
    1C        C  291   4.471   3.796   4.116
    1C        C  292   4.390   3.995   4.233
    1C        C  293   4.419   3.932   4.356
    1C        C  294   4.326   4.124   4.477
    1C        C  295   4.396   4.002   4.477
    1C        C  296   4.281   4.186   4.596
    1C        C  297   4.327   4.130   4.717
    1C        C  298   4.201   4.313   4.837
    1C        C  299   4.283   4.195   4.836
    1C        C  300   4.165   4.399   4.946
    1C        C  301   4.350   2.876   2.060
    1C        C  302   4.469   3.062   2.175
    1C        C  303   4.396   2.939   2.177
    1C        C  304   4.483   3.138   2.294
    1C        C  305   4.449   3.075   2.416
    1C        C  306   4.502   3.284   2.534
    1C        C  307   4.469   3.147   2.536
    1C        C  308   4.516   3.354   2.656
    1C        C  309   4.503   3.285   2.779
    1C        C  310   4.517   3.498   2.896
    1C        C  311   4.518   3.357   2.900
    1C        C  312   4.510   3.571   3.017
    1C        C  313   4.509   3.502   3.140
    1C        C  314   4.483   3.713   3.260
    1C        C  315   4.504   3.574   3.262
    1C        C  316   4.470   3.782   3.383
    1C        C  317   4.486   3.717   3.507
    1C        C  318   4.418   3.919   3.623
    1C        C  319   4.466   3.786   3.629
    1C        C  320   4.387   3.982   3.746
    1C        C  321   4.417   3.921   3.869
    1C        C  322   4.313   4.108   3.989
    1C        C  323   4.390   3.989   3.990
    1C        C  324   4.275   4.169   4.110
    1C        C  325   4.313   4.114   4.235
    1C        C  326   4.183   4.283   4.350
    1C        C  327   4.278   4.178   4.355
    1C        C  328   4.135   4.339   4.471
    1C        C  329   4.186   4.290   4.593
    1C        C  330   4.027   4.433   4.712
    1C        C  331   4.141   4.348   4.713
    1C        C  332   3.970   4.489   4.828
    1C        C  333   4.050   4.478   4.942
    1C        C  334   4.550   3.259   2.057
    1C        C  335   4.532   3.121   2.061
    1C        C  336   4.530   3.343   2.168
    1C        C  337   4.510   3.277   2.291
    1C        C  338   4.520   3.493   2.408
    1C        C  339   4.517   3.351   2.411
    1C        C  340   4.508   3.565   2.529
    1C        C  341   4.518   3.495   2.652
    1C        C  342   4.488   3.707   2.774
    1C        C  343   4.513   3.568   2.773
    1C        C  344   4.473   3.781   2.893
    1C        C  345   4.492   3.711   3.014
    1C        C  346   4.415   3.910   3.137
    1C        C  347   4.471   3.780   3.136
    1C        C  348   4.387   3.977   3.258
    1C        C  349   4.420   3.914   3.380
    1C        C  350   4.311   4.100   3.497
    1C        C  351   4.386   3.981   3.500
    1C        C  352   4.274   4.157   3.621
    1C        C  353   4.319   4.105   3.744
    1C        C  354   4.175   4.264   3.865
    1C        C  355   4.272   4.162   3.865
    1C        C  356   4.124   4.320   3.984
    1C        C  357   4.179   4.273   4.105
    1C        C  358   4.012   4.405   4.228
    1C        C  359   4.128   4.324   4.226
    1C        C  360   3.949   4.444   4.348
    1C        C  361   4.017   4.417   4.469
    1C        C  362   3.828   4.513   4.590
    1C        C  363   3.958   4.458   4.591
    1C        C  364   3.760   4.548   4.709
    1C        C  365   3.837   4.539   4.827
    1C        C  366   3.625   4.590   4.946
    1C        C  367   3.762   4.569   4.942
    1C        C  368   4.500   3.557   2.049
    1C        C  369   4.520   3.484   2.167
    1C        C  370   4.495   3.701   2.283
    1C        C  371   4.519   3.562   2.285
    1C        C  372   4.475   3.771   2.404
    1C        C  373   4.492   3.705   2.528
    1C        C  374   4.422   3.905   2.646
    1C        C  375   4.474   3.774   2.650
    1C        C  376   4.388   3.970   2.767
    1C        C  377   4.421   3.912   2.891
    1C        C  378   4.312   4.093   3.009
    1C        C  379   4.385   3.972   3.014
    1C        C  380   4.270   4.153   3.130
    1C        C  381   4.309   4.095   3.252
    1C        C  382   4.172   4.258   3.376
    1C        C  383   4.270   4.156   3.374
    1C        C  384   4.124   4.308   3.499
    1C        C  385   4.180   4.263   3.621
    1C        C  386   4.004   4.386   3.740
    1C        C  387   4.124   4.311   3.741
    1C        C  388   3.944   4.427   3.861
    1C        C  389   4.009   4.403   3.984
    1C        C  390   3.815   4.485   4.105
    1C        C  391   3.948   4.437   4.107
    1C        C  392   3.749   4.513   4.227
    1C        C  393   3.820   4.501   4.349
    1C        C  394   3.614   4.552   4.474
    1C        C  395   3.753   4.524   4.471
    1C        C  396   3.542   4.571   4.594
    1C        C  397   3.621   4.573   4.711
    1C        C  398   3.409   4.547   4.835
    1C        C  399   3.547   4.576   4.831
    1C        C  400   3.339   4.520   4.954
    1C        C  401   4.501   3.696   2.047
    1C        C  402   4.448   3.909   2.162
    1C        C  403   4.489   3.774   2.163
    1C        C  404   4.412   3.975   2.282
    1C        C  405   4.431   3.905   2.403
    1C        C  406   4.323   4.092   2.524
    1C        C  407   4.394   3.969   2.523
    1C        C  408   4.272   4.149   2.642
    1C        C  409   4.310   4.087   2.764
    1C        C  410   4.173   4.250   2.886
    1C        C  411   4.267   4.145   2.886
    1C        C  412   4.125   4.302   3.009
    1C        C  413   4.173   4.256   3.133
    1C        C  414   4.002   4.385   3.252
    1C        C  415   4.115   4.301   3.254
    1C        C  416   3.942   4.419   3.375
    1C        C  417   4.007   4.386   3.496
    1C        C  418   3.813   4.476   3.617
    1C        C  419   3.945   4.423   3.617
    1C        C  420   3.745   4.498   3.738
    1C        C  421   3.815   4.483   3.860
    1C        C  422   3.609   4.531   3.983
    1C        C  423   3.749   4.509   3.983
    1C        C  424   3.542   4.539   4.107
    1C        C  425   3.611   4.542   4.230
    1C        C  426   3.401   4.538   4.355
    1C        C  427   3.542   4.554   4.352
    1C        C  428   3.330   4.544   4.477
    1C        C  429   3.402   4.557   4.597
    1C        C  430   3.190   4.519   4.722
    1C        C  431   3.330   4.547   4.718
    1C        C  432   3.122   4.489   4.843
    1C        C  433   3.204   4.489   4.956
    1C        C  434   4.383   4.119   2.049
    1C        C  435   4.440   3.991   2.048
    1C        C  436   4.301   4.160   2.159
    1C        C  437   4.332   4.093   2.280
    1C        C  438   4.181   4.245   2.398
    1C        C  439   4.282   4.147   2.400
    1C        C  440   4.122   4.292   2.518
    1C        C  441   4.177   4.252   2.642
    1C        C  442   4.005   4.376   2.766
    1C        C  443   4.124   4.301   2.764
    1C        C  444   3.941   4.412   2.888
    1C        C  445   4.007   4.380   3.008
    1C        C  446   3.811   4.471   3.129
    1C        C  447   3.941   4.417   3.128
    1C        C  448   3.746   4.500   3.251
    1C        C  449   3.813   4.476   3.374
    1C        C  450   3.608   4.534   3.494
    1C        C  451   3.745   4.502   3.495
    1C        C  452   3.537   4.545   3.616
    1C        C  453   3.607   4.528   3.737
    1C        C  454   3.398   4.540   3.865
    1C        C  455   3.539   4.538   3.861
    1C        C  456   3.330   4.532   3.988
    1C        C  457   3.401   4.538   4.110
    1C        C  458   3.192   4.500   4.236
    1C        C  459   3.331   4.527   4.233
    1C        C  460   3.126   4.481   4.359
    1C        C  461   3.192   4.511   4.480
    1C        C  462   2.996   4.431   4.602
    1C        C  463   3.122   4.497   4.601
    1C        C  464   2.928   4.395   4.720
    1C        C  465   2.987   4.440   4.841
    1C        C  466   2.801   4.330   4.956
    1C        C  467   2.902   4.427   4.956
    1C        C  468   4.122   4.288   2.041
    1C        C  469   4.187   4.247   2.158
    1C        C  470   4.012   4.379   2.275
    1C        C  471   4.129   4.298   2.278
    1C        C  472   3.944   4.406   2.395
    1C        C  473   4.004   4.370   2.518
    1C        C  474   3.817   4.462   2.642
    1C        C  475   3.947   4.408   2.641
    1C        C  476   3.746   4.487   2.762
    1C        C  477   3.813   4.471   2.885
    1C        C  478   3.605   4.519   3.004
    1C        C  479   3.744   4.491   3.007
    1C        C  480   3.537   4.529   3.127
    1C        C  481   3.608   4.528   3.249
    1C        C  482   3.396   4.530   3.374
    1C        C  483   3.537   4.532   3.371
    1C        C  484   3.326   4.527   3.497
    1C        C  485   3.396   4.534   3.620
    1C        C  486   3.190   4.494   3.744
    1C        C  487   3.328   4.525   3.743
    1C        C  488   3.127   4.475   3.869
    1C        C  489   3.192   4.502   3.991
    1C        C  490   2.999   4.414   4.111
    1C        C  491   3.125   4.477   4.113
    1C        C  492   2.942   4.378   4.235
    1C        C  493   2.999   4.418   4.358
    1C        C  494   2.830   4.295   4.480
    1C        C  495   2.939   4.384   4.481
    1C        C  496   2.773   4.248   4.601
    1C        C  497   2.819   4.304   4.722
    1C        C  498   2.660   4.161   4.844
    1C        C  499   2.750   4.270   4.840
    1C        C  500   2.595   4.111   4.957
    1C        C  501   4.002   4.358   2.038
    1C        C  502   3.814   4.462   2.155
    1C        C  503   3.946   4.412   2.155
    1C        C  504   3.742   4.476   2.275
    1C        C  505   3.812   4.457   2.396
    1C        C  506   3.608   4.502   2.520
    1C        C  507   3.747   4.478   2.520
    1C        C  508   3.535   4.518   2.639
    1C        C  509   3.607   4.516   2.760
    1C        C  510   3.394   4.521   2.885
    1C        C  511   3.535   4.523   2.881
    1C        C  512   3.323   4.517   3.007
    1C        C  513   3.396   4.523   3.128
    1C        C  514   3.189   4.490   3.253
    1C        C  515   3.327   4.520   3.251
    1C        C  516   3.122   4.465   3.375
    1C        C  517   3.190   4.490   3.496
    1C        C  518   3.000   4.405   3.624
    1C        C  519   3.124   4.472   3.620
    1C        C  520   2.942   4.367   3.747
    1C        C  521   3.002   4.408   3.868
    1C        C  522   2.838   4.273   3.994
    1C        C  523   2.944   4.367   3.989
    1C        C  524   2.789   4.230   4.119
    1C        C  525   2.834   4.287   4.240
    1C        C  526   2.689   4.132   4.359
    1C        C  527   2.776   4.242   4.361
    1C        C  528   2.649   4.073   4.481
    1C        C  529   2.687   4.135   4.602
    1C        C  530   2.586   3.955   4.728
    1C        C  531   2.636   4.088   4.725
    1C        C  532   2.541   3.898   4.850
    1C        C  533   2.520   3.993   4.955
    1C        C  534   3.618   4.557   2.039
    1C        C  535   3.749   4.510   2.040
    1C        C  536   3.534   4.526   2.151
    1C        C  537   3.602   4.503   2.274
    1C        C  538   3.396   4.500   2.398
    1C        C  539   3.537   4.510   2.399
    1C        C  540   3.324   4.501   2.519
    1C        C  541   3.393   4.521   2.641
    1C        C  542   3.184   4.481   2.765
    1C        C  543   3.323   4.510   2.763
    1C        C  544   3.120   4.458   2.889
    1C        C  545   3.187   4.479   3.011
    1C        C  546   2.992   4.400   3.131
    1C        C  547   3.118   4.464   3.133
    1C        C  548   2.940   4.357   3.256
    1C        C  549   2.997   4.400   3.378
    1C        C  550   2.831   4.275   3.503
    1C        C  551   2.937   4.369   3.502
    1C        C  552   2.781   4.226   3.626
    1C        C  553   2.832   4.279   3.746
    1C        C  554   2.699   4.118   3.873
    1C        C  555   2.783   4.231   3.870
    1C        C  556   2.658   4.059   3.995
    1C        C  557   2.698   4.122   4.114
    1C        C  558   2.598   3.938   4.239
    1C        C  559   2.656   4.067   4.238
    1C        C  560   2.565   3.879   4.363
    1C        C  561   2.588   3.946   4.485
    1C        C  562   2.531   3.745   4.611
    1C        C  563   2.562   3.883   4.609
    1C        C  564   2.519   3.680   4.736
    1C        C  565   2.520   3.756   4.856
    1C        C  566   2.529   3.543   4.977
    1C        C  567   2.523   3.682   4.975
    1C        C  568   3.323   4.476   2.037
    1C        C  569   3.393   4.510   2.154
    1C        C  570   3.186   4.461   2.278
    1C        C  571   3.323   4.499   2.277
    1C        C  572   3.118   4.441   2.401
    1C        C  573   3.186   4.474   2.520
    1C        C  574   2.992   4.393   2.645
    1C        C  575   3.118   4.456   2.643
    1C        C  576   2.932   4.354   2.767
    1C        C  577   2.996   4.390   2.888
    1C        C  578   2.828   4.262   3.011
    1C        C  579   2.934   4.356   3.010
    1C        C  580   2.779   4.217   3.136
    1C        C  581   2.832   4.266   3.258
    1C        C  582   2.698   4.107   3.385
    1C        C  583   2.783   4.220   3.382
    1C        C  584   2.657   4.053   3.509
    1C        C  585   2.694   4.115   3.630
    1C        C  586   2.589   3.932   3.754
    1C        C  587   2.657   4.056   3.753
    1C        C  588   2.567   3.865   3.876
    1C        C  589   2.600   3.930   3.997
    1C        C  590   2.534   3.731   4.127
    1C        C  591   2.571   3.867   4.120
    1C        C  592   2.521   3.665   4.251
    1C        C  593   2.527   3.743   4.369
    1C        C  594   2.510   3.532   4.496
    1C        C  595   2.513   3.673   4.491
    1C        C  596   2.513   3.463   4.619
    1C        C  597   2.515   3.538   4.739
    1C        C  598   2.531   3.324   4.859
    1C        C  599   2.527   3.466   4.860
    1C        C  600   2.528   3.247   4.976
    1C        C  601   3.191   4.434   2.040
    1C        C  602   2.979   4.388   2.155
    1C        C  603   3.115   4.433   2.158
    1C        C  604   2.924   4.351   2.281
    1C        C  605   2.990   4.381   2.402
    1C        C  606   2.816   4.265   2.524
    1C        C  607   2.929   4.350   2.526
    1C        C  608   2.765   4.217   2.647
    1C        C  609   2.819   4.268   2.767
    1C        C  610   2.684   4.107   2.895
    1C        C  611   2.772   4.217   2.890
    1C        C  612   2.648   4.048   3.019
    1C        C  613   2.691   4.107   3.140
    1C        C  614   2.588   3.924   3.264
    1C        C  615   2.659   4.046   3.264
    1C        C  616   2.556   3.865   3.388
    1C        C  617   2.588   3.930   3.510
    1C        C  618   2.527   3.727   3.635
    1C        C  619   2.564   3.864   3.632
    1C        C  620   2.507   3.661   3.758
    1C        C  621   2.520   3.731   3.880
    1C        C  622   2.505   3.523   4.007
    1C        C  623   2.514   3.664   4.004
    1C        C  624   2.507   3.454   4.130
    1C        C  625   2.510   3.525   4.253
    1C        C  626   2.537   3.317   4.377
    1C        C  627   2.514   3.457   4.377
    1C        C  628   2.556   3.251   4.501
    1C        C  629   2.534   3.323   4.620
    1C        C  630   2.596   3.116   4.743
    1C        C  631   2.546   3.250   4.740
    1C        C  632   2.615   3.045   4.864
    1C        C  633   2.550   3.109   4.975
    1C        C  634   2.776   4.301   2.054
    1C        C  635   2.889   4.383   2.044
    1C        C  636   2.743   4.227   2.168
    1C        C  637   2.808   4.269   2.286
    1C        C  638   2.666   4.108   2.409
    1C        C  639   2.755   4.218   2.407
    1C        C  640   2.630   4.048   2.532
    1C        C  641   2.677   4.107   2.651
    1C        C  642   2.581   3.919   2.774
    1C        C  643   2.644   4.046   2.774
    1C        C  644   2.556   3.856   2.898
    1C        C  645   2.583   3.923   3.020
    1C        C  646   2.518   3.722   3.148
    1C        C  647   2.560   3.857   3.143
    1C        C  648   2.506   3.652   3.270
    1C        C  649   2.521   3.728   3.388
    1C        C  650   2.505   3.519   3.518
    1C        C  651   2.513   3.660   3.511
    1C        C  652   2.514   3.450   3.641
    1C        C  653   2.504   3.520   3.763
    1C        C  654   2.541   3.312   3.887
    1C        C  655   2.511   3.450   3.886
    1C        C  656   2.554   3.249   4.012
    1C        C  657   2.533   3.316   4.135
    1C        C  658   2.605   3.115   4.257
    1C        C  659   2.549   3.245   4.256
    1C        C  660   2.635   3.052   4.379
    1C        C  661   2.601   3.117   4.500
    1C        C  662   2.707   2.934   4.620
    1C        C  663   2.631   3.052   4.622
    1C        C  664   2.744   2.873   4.742
    1C        C  665   2.693   2.925   4.864
    1C        C  666   2.738   2.867   4.983
    1C        C  667   2.680   4.021   2.051
    1C        C  668   2.680   4.100   2.166
    1C        C  669   2.586   3.910   2.288
    1C        C  670   2.636   4.043   2.287
    1C        C  671   2.554   3.845   2.410
    1C        C  672   2.575   3.918   2.529
    1C        C  673   2.512   3.718   2.656
    1C        C  674   2.553   3.853   2.653
    1C        C  675   2.503   3.649   2.780
    1C        C  676   2.520   3.719   2.901
    1C        C  677   2.503   3.512   3.028
    1C        C  678   2.512   3.653   3.025
    1C        C  679   2.510   3.441   3.150
    1C        C  680   2.505   3.511   3.272
    1C        C  681   2.531   3.306   3.397
    1C        C  682   2.504   3.445   3.397
    1C        C  683   2.551   3.238   3.520
    1C        C  684   2.538   3.310   3.640
    1C        C  685   2.603   3.111   3.767
    1C        C  686   2.557   3.245   3.764
    1C        C  687   2.634   3.050   3.891
    1C        C  688   2.604   3.116   4.013
    1C        C  689   2.708   2.930   4.136
    1C        C  690   2.638   3.052   4.134
    1C        C  691   2.743   2.869   4.259
    1C        C  692   2.707   2.930   4.381
    1C        C  693   2.752   2.871   4.501
    1C        C  694   2.615   3.897   2.053
    1C        C  695   2.526   3.700   2.171
    1C        C  696   2.569   3.835   2.170
    1C        C  697   2.505   3.635   2.294
    1C        C  698   2.518   3.708   2.414
    1C        C  699   2.492   3.501   2.541
    1C        C  700   2.500   3.642   2.538
    1C        C  701   2.501   3.433   2.665
    1C        C  702   2.497   3.508   2.784
    1C        C  703   2.527   3.299   2.907
    1C        C  704   2.505   3.438   2.907
    1C        C  705   2.543   3.229   3.029
    1C        C  706   2.535   3.301   3.150
    1C        C  707   2.604   3.106   3.272
    1C        C  708   2.554   3.238   3.275
    1C        C  709   2.632   3.045   3.396
    1C        C  710   2.601   3.106   3.520
    1C        C  711   2.712   2.931   3.646
    1C        C  712   2.631   3.046   3.645
    1C        C  713   2.756   2.878   3.769
    1C        C  714   2.713   2.934   3.891
    1C        C  715   2.752   2.875   4.014
    1C        C  716   2.443   3.493   2.057
    1C        C  717   2.492   3.625   2.058
    1C        C  718   2.469   3.419   2.177
    1C        C  719   2.482   3.495   2.297
    1C        C  720   2.508   3.287   2.422
    1C        C  721   2.487   3.427   2.421
    1C        C  722   2.533   3.220   2.544
    1C        C  723   2.523   3.293   2.665
    1C        C  724   2.591   3.093   2.789
    1C        C  725   2.541   3.225   2.787
    1C        C  726   2.624   3.030   2.911
    1C        C  727   2.589   3.096   3.031
    1C        C  728   2.703   2.916   3.155
    1C        C  729   2.623   3.032   3.153
    1C        C  730   2.748   2.864   3.279
    1C        C  731   2.708   2.926   3.399
    1C        C  732   2.754   2.875   3.523
    1C        C  733   2.495   3.196   2.066
    1C        C  734   2.491   3.278   2.180
    1C        C  735   2.577   3.083   2.301
    1C        C  736   2.516   3.211   2.303
    1C        C  737   2.613   3.021   2.423
    1C        C  738   2.590   3.091   2.543
    1C        C  739   2.698   2.912   2.665
    1C        C  740   2.617   3.028   2.667
    1C        C  741   2.741   2.857   2.788
    1C        C  742   2.693   2.907   2.911
    1C        C  743   2.744   2.858   3.033
    1C        C  744   2.542   3.065   2.067
    1C        C  745   2.680   2.895   2.182
    1C        C  746   2.600   3.012   2.182
    1C        C  747   2.725   2.837   2.302
    1C        C  748   2.687   2.900   2.422
    1C        C  749   2.734   2.848   2.545
    1C        C  750   2.735   2.839   2.065
    1C        C  751   3.652   2.294   1.996
    1C        O  752   3.722   2.200   2.043
    1C        O  753   3.670   2.299   1.857
    1C        C  754   4.630   3.046   1.979
    1C        O  755   4.609   3.021   1.857
    1C        O  756   4.762   3.016   2.014
    1C        C  757   4.458   4.226   1.981
    1C        O  758   4.562   4.281   2.027
    1C        O  759   4.441   4.250   1.844
    1C        C  760   3.584   4.654   1.933
    1C        O  761   3.607   4.778   1.927
    1C        O  762   3.563   4.601   1.805
    1C        C  763   2.864   4.505   1.964
    1C        O  764   2.913   4.534   1.852
    1C        O  765   2.811   4.622   2.020
    1C        C  766   2.325   3.464   1.973
    1C        O  767   2.341   3.454   1.848
    1C        O  768   2.194   3.498   2.009
    1C        C  769   4.671   3.584   5.068
    1C        O  770   4.632   3.563   5.186
    1C        O  771   4.804   3.548   5.044
    1C        C  772   4.274   4.443   5.037
    1C        O  773   4.277   4.422   5.161
    1C        O  774   4.388   4.509   4.991
    1C        C  775   4.149   2.490   5.026
    1C        O  776   4.173   2.375   4.981
    1C        O  777   4.204   2.510   5.153
    1C        C  778   2.877   4.547   5.039
    1C        O  779   2.811   4.647   5.002
    1C        O  780   2.873   4.541   5.179
    1C        C  781   2.463   3.027   5.062
    1C        O  782   2.358   2.966   5.030
    1C        O  783   2.483   3.053   5.197
    1C        C  784   2.396   3.988   5.036
    1C        O  785   2.287   4.015   4.978
    1C        O  786   2.391   3.992   5.176
    1C        C  787   2.932   2.427   2.006
    1C        O  788   2.922   2.456   1.884
    1C        O  789   2.927   2.289   2.022
    1C        C  790   3.173   2.373   5.072
    1C        O  791   3.135   2.263   5.025
    1C        O  792   3.155   2.392   5.209
    1C        H  793   4.232   3.031   5.029
    1C        H  794   4.172   2.806   5.073
    1C        H  795   4.488   3.128   5.064
    1C        H  796   4.514   3.372   5.062
    1C        H  797   4.573   3.815   5.038
    1C        H  798   4.461   4.016   5.038
    1C        H  799   4.286   4.169   5.047
    1C        H  800   4.041   4.548   5.023
    1C        H  801   3.807   4.546   5.036
    1C        H  802   3.582   4.627   5.038
    1C        H  803   3.392   4.521   5.047
    1C        H  804   3.156   4.462   5.048
    1C        H  805   3.872   2.536   5.072
    1C        H  806   3.674   2.428   5.062
    1C        H  807   3.032   2.601   5.068
    1C        H  808   3.441   2.447   5.076
    1C        H  809   2.845   2.717   5.071
    1C        H  810   2.669   2.853   5.064
    1C        H  811   2.530   3.295   5.071
    1C        H  812   2.586   3.501   5.057
    1C        H  813   2.490   3.728   5.065
    1C        H  814   2.606   4.157   5.053
    1C        H  815   2.774   4.288   5.051
    1C        H  816   2.711   2.873   1.967
    1C        H  817   2.844   2.682   1.972
    1C        H  818   3.209   2.455   1.982
    1C        H  819   3.428   2.400   1.979
    1C        H  820   3.838   2.545   1.975
    1C        H  821   4.077   2.599   1.971
    1C        H  822   4.266   2.700   1.978
    1C        H  823   4.417   2.883   1.977
    1C        H  824   4.614   3.300   1.981
    1C        H  825   4.497   3.508   1.955
    1C        H  826   4.556   3.735   1.963
    1C        H  827   3.805   4.516   1.949
    1C        H  828   3.969   4.392   1.942
    1C        H  829   4.162   4.258   1.946
    1C        H  830   4.501   3.966   1.964
    1C        H  831   2.603   3.850   1.958
    1C        H  832   2.757   4.030   1.977
    1C        H  833   2.713   4.289   1.969
    1C        H  834   3.377   4.453   1.947
    1C        H  835   3.180   4.342   1.987
    1C        H  836   2.502   2.996   1.995
    1C        H  837   2.444   3.236   1.981
    1C        H  838   2.476   3.675   1.965
    2V3OU   H29  839   2.803   3.548   1.369
    2V3OU   C27  840   2.782   3.501   1.468
    2V3OU   H27  841   2.728   3.561   1.546
    2V3OU   H28  842   2.733   3.401   1.458
    2V3OU   O11  843   2.911   3.477   1.526
    2V3OU   C15  844   2.914   3.393   1.635
    2V3OU   C13  845   3.047   3.371   1.678
    2V3OU   C14  846   3.075   3.257   1.754
    2V3OU   C16  847   2.969   3.182   1.804
    2V3OU    H6  848   2.988   3.102   1.876
    2V3OU   C12  849   3.213   3.225   1.797
    2V3OU    O2  850   3.234   3.124   1.867
    2V3OU   C10  851   3.323   3.309   1.746
    2V3OU    C8  852   3.456   3.272   1.762
    2V3OU   O10  853   3.486   3.157   1.829
    2V3OU   H26  854   3.402   3.114   1.853
    2V3OU    C6  855   3.564   3.349   1.710
    2V3OU    C5  856   3.535   3.470   1.648
    2V3OU    C4  857   3.701   3.290   1.710
    2V3OU    H4  858   3.718   3.228   1.803
    2V3OU    H5  859   3.708   3.222   1.620
    2V3OU    C2  860   3.811   3.396   1.702
    2V3OU    O6  861   3.808   3.475   1.821
    2V3OU   H21  862   3.754   3.551   1.793
    2V3OU    C3  863   3.781   3.495   1.589
    2V3OU    H2  864   3.862   3.572   1.584
    2V3OU    H3  865   3.784   3.441   1.491
    2V3OU   C25  866   3.949   3.332   1.679
    2V3OU    O7  867   3.999   3.297   1.572
    2V3OU   C26  868   4.023   3.286   1.803
    2V3OU   H22  869   4.062   3.377   1.856
    2V3OU   H23  870   4.105   3.216   1.773
    2V3OU    O8  871   3.959   3.205   1.899
    2V3OU   H24  872   3.925   3.269   1.963
    2V3OU    C1  873   3.646   3.562   1.606
    2V3OU    H1  874   3.620   3.613   1.509
    2V3OU    O3  875   3.656   3.659   1.710
    2V3OU   C19  876   3.613   3.794   1.686
    2V3OU    H9  877   3.517   3.807   1.628
    2V3OU    O4  878   3.714   3.850   1.605
    2V3OU   C20  879   3.846   3.870   1.658
    2V3OU   H10  880   3.891   3.767   1.661
    2V3OU   C24  881   3.604   3.856   1.826
    2V3OU   H16  882   3.543   3.790   1.893
    2V3OU   H17  883   3.561   3.959   1.828
    2V3OU   C23  884   3.745   3.873   1.883
    2V3OU   H15  885   3.785   3.768   1.903
    2V3OU    N1  886   3.732   3.949   2.006
    2V3OU   H19  887   3.794   3.920   2.079
    2V3OU   H20  888   3.642   3.927   2.044
    2V3OU   C21  889   3.845   3.947   1.790
    2V3OU   H11  890   3.953   3.927   1.815
    2V3OU    O5  891   3.821   4.088   1.787
    2V3OU   H18  892   3.778   4.098   1.873
    2V3OU   C22  893   3.915   3.945   1.546
    2V3OU   H12  894   3.861   4.040   1.522
    2V3OU   H13  895   3.910   3.885   1.451
    2V3OU   H14  896   4.022   3.957   1.575
    2V3OU   C11  897   3.152   3.469   1.649
    2V3OU    O1  898   3.133   3.589   1.619
    2V3OU    C9  899   3.291   3.424   1.669
    2V3OU    C7  900   3.397   3.503   1.627
    2V3OU    O9  901   3.385   3.618   1.552
    2V3OU   H25  902   3.289   3.632   1.544
    2V3OU   C17  903   2.811   3.313   1.688
    2V3OU    H7  904   2.707   3.339   1.665
    2V3OU   C18  905   2.836   3.207   1.774
    2V3OU    H8  906   2.755   3.142   1.812
    3SOL     OW  907   1.352   3.237   0.977
    3SOL    HW1  908   1.412   3.238   1.057
    3SOL    HW2  909   1.403   3.268   0.897
    4SOL     OW  910   5.859   0.397   2.143
    4SOL    HW1  911   5.780   0.458   2.150
    4SOL    HW2  912   5.889   0.371   2.234
    5SOL     OW  913   3.400   1.676   1.013
    5SOL    HW1  914   3.308   1.674   0.972
    5SOL    HW2  915   3.395   1.721   1.103
    6SOL     OW  916   2.694   1.609   1.319
    6SOL    HW1  917   2.638   1.607   1.403
    6SOL    HW2  918   2.732   1.518   1.303
    7SOL     OW  919   6.231   1.556   1.493
    7SOL    HW1  920   6.323   1.585   1.467
    7SOL    HW2  921   6.237   1.481   1.559
    8SOL     OW  922   2.991   0.952   4.561
    8SOL    HW1  923   3.067   1.001   4.604
    8SOL    HW2  924   2.918   1.016   4.539
    9SOL     OW  925   1.394   3.782   5.673
    9SOL    HW1  926   1.478   3.789   5.619
    9SOL    HW2  927   1.368   3.873   5.706
   10SOL     OW  928   0.994   3.803   0.053
   10SOL    HW1  929   0.952   3.755   0.130
   10SOL    HW2  930   0.923   3.828   7.006
   11SOL     OW  931   3.813   6.808   6.983
   11SOL    HW1  932   3.848   6.884   0.020
   11SOL    HW2  933   3.818   6.723   0.018
   12SOL     OW  934   5.431   6.360   2.477
   12SOL    HW1  935   5.441   6.295   2.403
   12SOL    HW2  936   5.448   6.315   2.565
   13SOL     OW  937   2.637   6.321   3.418
   13SOL    HW1  938   2.732   6.346   3.436
   13SOL    HW2  939   2.585   6.403   3.396
   14SOL     OW  940   3.503   5.972   0.744
   14SOL    HW1  941   3.518   5.969   0.843
   14SOL    HW2  942   3.591   5.971   0.697
   15SOL     OW  943   1.543   6.511   7.003
   15SOL    HW1  944   1.458   6.523   6.952
   15SOL    HW2  945   1.527   6.449   0.062
   16SOL     OW  946   5.982   2.257   5.981
   16SOL    HW1  947   5.930   2.210   6.052
   16SOL    HW2  948   5.940   2.345   5.962
   17SOL     OW  949   5.397   6.482   4.468
   17SOL    HW1  950   5.339   6.519   4.540
   17SOL    HW2  951   5.427   6.556   4.407
   18SOL     OW  952   1.791   1.865   6.060
   18SOL    HW1  953   1.868   1.922   6.031
   18SOL    HW2  954   1.816   1.818   6.145
   19SOL     OW  955   0.908   0.052   2.607
   19SOL    HW1  956   0.854   6.991   2.577
   19SOL    HW2  957   1.002   0.042   2.574
   20SOL     OW  958   3.419   1.802   3.580
   20SOL    HW1  959   3.368   1.826   3.496
   20SOL    HW2  960   3.496   1.865   3.590
   21SOL     OW  961   2.860   2.326   1.249
   21SOL    HW1  962   2.922   2.273   1.192
   21SOL    HW2  963   2.906   2.351   1.334
   22SOL     OW  964   1.667   6.462   5.895
   22SOL    HW1  965   1.759   6.455   5.933
   22SOL    HW2  966   1.662   6.415   5.807
   23SOL     OW  967   3.929   6.605   4.440
   23SOL    HW1  968   4.001   6.633   4.377
   23SOL    HW2  969   3.963   6.612   4.534
   24SOL     OW  970   4.777   1.391   5.236
   24SOL    HW1  971   4.782   1.302   5.192
   24SOL    HW2  972   4.866   1.412   5.279
   25SOL     OW  973   3.638   5.699   0.348
   25SOL    HW1  974   3.614   5.621   0.406
   25SOL    HW2  975   3.567   5.769   0.356
   26SOL     OW  976   6.605   1.518   2.507
   26SOL    HW1  977   6.613   1.447   2.437
   26SOL    HW2  978   6.696   1.543   2.540
   27SOL     OW  979   6.138   6.709   2.750
   27SOL    HW1  980   6.143   6.809   2.750
   27SOL    HW2  981   6.119   6.677   2.657
   28SOL     OW  982   3.927   0.627   0.530
   28SOL    HW1  983   3.986   0.619   0.611
   28SOL    HW2  984   3.963   0.570   0.457
   29SOL     OW  985   4.487   2.205   1.284
   29SOL    HW1  986   4.393   2.238   1.276
   29SOL    HW2  987   4.509   2.190   1.381
   30SOL     OW  988   3.617   0.938   4.787
   30SOL    HW1  989   3.529   0.890   4.789
   30SOL    HW2  990   3.602   1.035   4.804
   31SOL     OW  991   0.131   0.790   5.223
   31SOL    HW1  992   0.113   0.692   5.238
   31SOL    HW2  993   0.229   0.804   5.214
   32SOL     OW  994   0.196   1.911   0.916
   32SOL    HW1  995   0.168   1.816   0.902
   32SOL    HW2  996   0.161   1.943   1.004
   33SOL     OW  997   2.073   2.355   6.145
   33SOL    HW1  998   2.161   2.331   6.187
   33SOL    HW2  999   2.080   2.446   6.104
   34SOL     OW 1000   1.449   0.689   4.775
   34SOL    HW1 1001   1.438   0.760   4.705
   34SOL    HW2 1002   1.480   0.731   4.860
   35SOL     OW 1003   5.209   1.554   6.644
   35SOL    HW1 1004   5.184   1.462   6.676
   35SOL    HW2 1005   5.131   1.595   6.597
   36SOL     OW 1006   1.596   1.863   5.376
   36SOL    HW1 1007   1.611   1.816   5.289
   36SOL    HW2 1008   1.666   1.933   5.388
   37SOL     OW 1009   3.264   6.839   1.506
   37SOL    HW1 1010   3.310   6.923   1.477
   37SOL    HW2 1011   3.165   6.849   1.491
   38SOL     OW 1012   0.043   6.466   3.461
   38SOL    HW1 1013   0.024   6.552   3.414
   38SOL    HW2 1014   0.089   6.485   3.548
   39SOL     OW 1015   6.786   3.126   5.015
   39SOL    HW1 1016   6.714   3.060   4.997
   39SOL    HW2 1017   6.765   3.178   5.098
   40SOL     OW 1018   6.487   1.139   2.119
   40SOL    HW1 1019   6.555   1.109   2.053
   40SOL    HW2 1020   6.441   1.060   2.159
   41SOL     OW 1021   1.183   6.670   5.646
   41SOL    HW1 1022   1.174   6.744   5.713
   41SOL    HW2 1023   1.268   6.620   5.662
   42SOL     OW 1024   3.630   1.048   0.481
   42SOL    HW1 1025   3.723   1.081   0.463
   42SOL    HW2 1026   3.582   1.114   0.538
   43SOL     OW 1027   5.489   6.072   5.127
   43SOL    HW1 1028   5.588   6.059   5.138
   43SOL    HW2 1029   5.451   6.110   5.212
   44SOL     OW 1030   0.511   2.888   5.778
   44SOL    HW1 1031   0.486   2.875   5.874
   44SOL    HW2 1032   0.610   2.875   5.767
   45SOL     OW 1033   2.467   0.548   1.848
   45SOL    HW1 1034   2.394   0.494   1.805
   45SOL    HW2 1035   2.539   0.566   1.780
   46SOL     OW 1036   1.480   3.985   4.666
   46SOL    HW1 1037   1.482   4.042   4.584
   46SOL    HW2 1038   1.546   4.020   4.732
   47SOL     OW 1039   6.630   4.748   3.666
   47SOL    HW1 1040   6.723   4.782   3.671
   47SOL    HW2 1041   6.590   4.771   3.577
   48SOL     OW 1042   6.895   2.269   5.177
   48SOL    HW1 1043   6.901   2.219   5.091
   48SOL    HW2 1044   6.974   2.248   5.234
   49SOL     OW 1045   4.727   2.433   0.839
   49SOL    HW1 1046   4.690   2.343   0.863
   49SOL    HW2 1047   4.672   2.504   0.885
   50SOL     OW 1048   6.809   4.225   4.518
   50SOL    HW1 1049   6.845   4.157   4.454
   50SOL    HW2 1050   6.881   4.254   4.580
   51SOL     OW 1051   3.592   4.944   2.717
   51SOL    HW1 1052   3.639   4.939   2.630
   51SOL    HW2 1053   3.546   5.033   2.726
   52SOL     OW 1054   2.505   1.814   2.104
   52SOL    HW1 1055   2.446   1.767   2.170
   52SOL    HW2 1056   2.460   1.815   2.014
   53SOL     OW 1057   5.253   6.970   4.236
   53SOL    HW1 1058   5.244   6.873   4.257
   53SOL    HW2 1059   5.163   7.013   4.236
   54SOL     OW 1060   3.811   5.246   5.891
   54SOL    HW1 1061   3.725   5.284   5.926
   54SOL    HW2 1062   3.815   5.258   5.792
   55SOL     OW 1063   3.924   2.193   6.665
   55SOL    HW1 1064   3.931   2.145   6.577
   55SOL    HW2 1065   4.015   2.202   6.706
   56SOL     OW 1066   1.050   0.384   2.222
   56SOL    HW1 1067   1.071   0.377   2.319
   56SOL    HW2 1068   0.968   0.441   2.210
   57SOL     OW 1069   5.859   0.842   0.343
   57SOL    HW1 1070   5.852   0.937   0.312
   57SOL    HW2 1071   5.931   0.834   0.412
   58SOL     OW 1072   0.240   6.194   0.007
   58SOL    HW1 1073   0.297   6.119   0.040
   58SOL    HW2 1074   0.184   6.229   0.083
   59SOL     OW 1075   1.655   0.334   5.784
   59SOL    HW1 1076   1.703   0.265   5.838
   59SOL    HW2 1077   1.585   0.377   5.841
   60SOL     OW 1078   4.672   6.923   5.182
   60SOL    HW1 1079   4.749   6.987   5.183
   60SOL    HW2 1080   4.610   6.944   5.258
   61SOL     OW 1081   4.790   0.360   4.275
   61SOL    HW1 1082   4.877   0.339   4.319
   61SOL    HW2 1083   4.806   0.416   4.194
   62SOL     OW 1084   1.910   0.709   4.417
   62SOL    HW1 1085   1.988   0.681   4.473
   62SOL    HW2 1086   1.923   0.676   4.323
   63SOL     OW 1087   6.920   2.904   3.077
   63SOL    HW1 1088   6.951   2.909   3.172
   63SOL    HW2 1089   6.880   2.992   3.051
   64SOL     OW 1090   0.051   3.693   5.928
   64SOL    HW1 1091   6.988   3.750   5.918
   64SOL    HW2 1092   0.110   3.704   5.848
   65SOL     OW 1093   6.803   4.789   5.650
   65SOL    HW1 1094   6.748   4.715   5.687
   65SOL    HW2 1095   6.889   4.795   5.700
   66SOL     OW 1096   3.050   0.693   0.780
   66SOL    HW1 1097   2.982   0.729   0.843
   66SOL    HW2 1098   3.012   0.691   0.687
   67SOL     OW 1099   5.268   5.789   4.756
   67SOL    HW1 1100   5.217   5.741   4.827
   67SOL    HW2 1101   5.248   5.749   4.667
   68SOL     OW 1102   5.980   2.228   5.687
   68SOL    HW1 1103   5.912   2.301   5.674
   68SOL    HW2 1104   6.025   2.239   5.775
   69SOL     OW 1105   2.990   3.811   6.247
   69SOL    HW1 1106   2.943   3.731   6.285
   69SOL    HW2 1107   3.064   3.838   6.310
   70SOL     OW 1108   6.939   5.273   2.653
   70SOL    HW1 1109   6.847   5.286   2.616
   70SOL    HW2 1110   7.005   5.268   2.577
   71SOL     OW 1111   1.491   2.514   2.911
   71SOL    HW1 1112   1.517   2.549   2.820
   71SOL    HW2 1113   1.561   2.540   2.977
   72SOL     OW 1114   2.495   5.443   3.809
   72SOL    HW1 1115   2.545   5.357   3.819
   72SOL    HW2 1116   2.498   5.493   3.896
   73SOL     OW 1117   4.432   2.245   0.263
   73SOL    HW1 1118   4.343   2.290   0.275
   73SOL    HW2 1119   4.429   2.154   0.304
   74SOL     OW 1120   5.381   5.954   6.457
   74SOL    HW1 1121   5.397   5.856   6.469
   74SOL    HW2 1122   5.439   5.988   6.383
   75SOL     OW 1123   3.803   5.771   5.765
   75SOL    HW1 1124   3.750   5.824   5.699
   75SOL    HW2 1125   3.899   5.796   5.759
   76SOL     OW 1126   2.806   2.783   1.634
   76SOL    HW1 1127   2.894   2.819   1.666
   76SOL    HW2 1128   2.820   2.735   1.547
   77SOL     OW 1129   5.698   5.880   5.730
   77SOL    HW1 1130   5.767   5.816   5.762
   77SOL    HW2 1131   5.713   5.901   5.634
   78SOL     OW 1132   6.694   6.639   5.785
   78SOL    HW1 1133   6.697   6.600   5.877
   78SOL    HW2 1134   6.693   6.566   5.717
   79SOL     OW 1135   3.177   0.005   0.567
   79SOL    HW1 1136   3.217   6.951   0.624
   79SOL    HW2 1137   3.248   0.071   0.542
   80SOL     OW 1138   0.107   1.425   4.162
   80SOL    HW1 1139   0.179   1.420   4.231
   80SOL    HW2 1140   0.128   1.498   4.097
   81SOL     OW 1141   1.680   1.174   2.864
   81SOL    HW1 1142   1.687   1.080   2.898
   81SOL    HW2 1143   1.769   1.203   2.827
   82SOL     OW 1144   6.811   4.570   6.191
   82SOL    HW1 1145   6.905   4.545   6.211
   82SOL    HW2 1146   6.809   4.636   6.116
   83SOL     OW 1147   0.463   6.836   0.640
   83SOL    HW1 1148   0.461   6.923   0.690
   83SOL    HW2 1149   0.375   6.823   0.593
   84SOL     OW 1150   5.384   3.959   1.503
   84SOL    HW1 1151   5.309   3.942   1.439
   84SOL    HW2 1152   5.443   3.879   1.508
   85SOL     OW 1153   1.094   2.352   5.567
   85SOL    HW1 1154   1.128   2.333   5.475
   85SOL    HW2 1155   1.030   2.281   5.595
   86SOL     OW 1156   0.711   0.728   5.859
   86SOL    HW1 1157   0.702   0.824   5.884
   86SOL    HW2 1158   0.771   0.720   5.779
   87SOL     OW 1159   4.853   1.695   0.614
   87SOL    HW1 1160   4.825   1.615   0.562
   87SOL    HW2 1161   4.792   1.772   0.593
   88SOL     OW 1162   5.426   1.298   0.849
   88SOL    HW1 1163   5.525   1.297   0.835
   88SOL    HW2 1164   5.387   1.381   0.809
   89SOL     OW 1165   1.739   2.729   6.311
   89SOL    HW1 1166   1.709   2.821   6.334
   89SOL    HW2 1167   1.758   2.678   6.394
   90SOL     OW 1168   5.451   6.091   4.103
   90SOL    HW1 1169   5.352   6.095   4.089
   90SOL    HW2 1170   5.487   6.183   4.117
   91SOL     OW 1171   4.941   4.548   5.185
   91SOL    HW1 1172   5.008   4.475   5.169
   91SOL    HW2 1173   4.891   4.566   5.100
   92SOL     OW 1174   3.492   4.624   1.479
   92SOL    HW1 1175   3.421   4.686   1.446
   92SOL    HW2 1176   3.552   4.672   1.543
   93SOL     OW 1177   3.266   5.777   6.171
   93SOL    HW1 1178   3.234   5.684   6.189
   93SOL    HW2 1179   3.297   5.784   6.076
   94SOL     OW 1180   3.000   5.647   0.300
   94SOL    HW1 1181   2.903   5.645   0.326
   94SOL    HW2 1182   3.054   5.599   0.370
   95SOL     OW 1183   0.333   0.135   4.214
   95SOL    HW1 1184   0.391   0.125   4.295
   95SOL    HW2 1185   0.265   0.207   4.230
   96SOL     OW 1186   2.136   0.089   5.385
   96SOL    HW1 1187   2.217   0.146   5.368
   96SOL    HW2 1188   2.145   0.045   5.474
   97SOL     OW 1189   5.916   3.237   4.434
   97SOL    HW1 1190   5.928   3.165   4.502
   97SOL    HW2 1191   5.829   3.284   4.450
   98SOL     OW 1192   4.977   2.274   6.020
   98SOL    HW1 1193   4.936   2.312   5.937
   98SOL    HW2 1194   5.070   2.244   6.000
   99SOL     OW 1195   4.079   1.735   1.006
   99SOL    HW1 1196   4.026   1.803   1.058
   99SOL    HW2 1197   4.171   1.772   0.988
  100SOL     OW 1198   0.811   5.835   6.709
  100SOL    HW1 1199   0.720   5.828   6.750
  100SOL    HW2 1200   0.807   5.805   6.613
  101SOL     OW 1201   1.788   6.137   3.631
  101SOL    HW1 1202   1.727   6.124   3.552
  101SOL    HW2 1203   1.763   6.071   3.702
  102SOL     OW 1204   3.724   0.379   3.768
  102SOL    HW1 1205   3.786   0.451   3.737
  102SOL    HW2 1206   3.629   0.409   3.758
  103SOL     OW 1207   3.945   2.149   1.415
  103SOL    HW1 1208   4.032   2.198   1.425
  103SOL    HW2 1209   3.871   2.205   1.452
  104SOL     OW 1210   0.180   6.014   2.167
  104SOL    HW1 1211   0.231   5.998   2.251
  104SOL    HW2 1212   0.164   5.927   2.120
  105SOL     OW 1213   5.326   1.002   6.243
  105SOL    HW1 1214   5.312   1.045   6.154
  105SOL    HW2 1215   5.375   1.065   6.303
  106SOL     OW 1216   3.068   6.593   6.747
  106SOL    HW1 1217   2.988   6.589   6.688
  106SOL    HW2 1218   3.147   6.625   6.694
  107SOL     OW 1219   2.360   2.765   0.611
  107SOL    HW1 1220   2.445   2.780   0.661
  107SOL    HW2 1221   2.286   2.819   0.652
  108SOL     OW 1222   5.078   4.380   6.095
  108SOL    HW1 1223   5.164   4.427   6.114
  108SOL    HW2 1224   5.024   4.433   6.029
  109SOL     OW 1225   6.648   0.628   0.753
  109SOL    HW1 1226   6.604   0.539   0.744
  109SOL    HW2 1227   6.747   0.618   0.742
  110SOL     OW 1228   3.474   6.110   5.220
  110SOL    HW1 1229   3.448   6.198   5.261
  110SOL    HW2 1230   3.454   6.036   5.285
  111SOL     OW 1231   3.737   0.951   3.412
  111SOL    HW1 1232   3.712   0.875   3.471
  111SOL    HW2 1233   3.778   0.917   3.327
  112SOL     OW 1234   6.747   6.559   6.050
  112SOL    HW1 1235   6.743   6.459   6.051
  112SOL    HW2 1236   6.842   6.589   6.048
  113SOL     OW 1237   0.131   4.837   3.640
  113SOL    HW1 1238   0.179   4.922   3.620
  113SOL    HW2 1239   0.182   4.784   3.708
  114SOL     OW 1240   0.555   6.568   0.318
  114SOL    HW1 1241   0.500   6.485   0.312
  114SOL    HW2 1242   0.630   6.562   0.252
  115SOL     OW 1243   5.269   1.626   4.644
  115SOL    HW1 1244   5.195   1.692   4.638
  115SOL    HW2 1245   5.327   1.633   4.564
  116SOL     OW 1246   6.117   4.355   2.134
  116SOL    HW1 1247   6.086   4.347   2.039
  116SOL    HW2 1248   6.131   4.452   2.156
  117SOL     OW 1249   1.649   0.135   6.294
  117SOL    HW1 1250   1.672   0.201   6.224
  117SOL    HW2 1251   1.575   0.076   6.261
  118SOL     OW 1252   0.489   0.623   2.273
  118SOL    HW1 1253   0.393   0.651   2.285
  118SOL    HW2 1254   0.504   0.599   2.177
  119SOL     OW 1255   6.684   2.500   5.735
  119SOL    HW1 1256   6.702   2.597   5.752
  119SOL    HW2 1257   6.698   2.480   5.638
  120SOL     OW 1258   5.668   6.842   0.766
  120SOL    HW1 1259   5.758   6.884   0.753
  120SOL    HW2 1260   5.664   6.756   0.716
  121SOL     OW 1261   2.407   3.627   5.813
  121SOL    HW1 1262   2.328   3.582   5.855
  121SOL    HW2 1263   2.466   3.665   5.884
  122SOL     OW 1264   0.962   3.420   4.482
  122SOL    HW1 1265   0.913   3.495   4.527
  122SOL    HW2 1266   0.995   3.356   4.551
  123SOL     OW 1267   0.539   1.731   1.093
  123SOL    HW1 1268   0.443   1.744   1.070
  123SOL    HW2 1269   0.596   1.755   1.014
  124SOL     OW 1270   4.449   3.258   0.792
  124SOL    HW1 1271   4.380   3.228   0.858
  124SOL    HW2 1272   4.536   3.212   0.811
  125SOL     OW 1273   1.726   2.448   1.960
  125SOL    HW1 1274   1.804   2.453   1.898
  125SOL    HW2 1275   1.726   2.359   2.006
  126SOL     OW 1276   3.105   4.911   1.288
  126SOL    HW1 1277   3.047   4.901   1.369
  126SOL    HW2 1278   3.081   4.843   1.220
  127SOL     OW 1279   0.133   5.876   6.038
  127SOL    HW1 1280   0.120   5.958   5.981
  127SOL    HW2 1281   0.057   5.813   6.023
  128SOL     OW 1282   4.839   2.635   1.380
  128SOL    HW1 1283   4.778   2.581   1.322
  128SOL    HW2 1284   4.874   2.577   1.454
  129SOL     OW 1285   3.082   3.673   6.805
  129SOL    HW1 1286   2.991   3.641   6.778
  129SOL    HW2 1287   3.152   3.620   6.757
  130SOL     OW 1288   1.296   1.294   4.580
  130SOL    HW1 1289   1.275   1.381   4.536
  130SOL    HW2 1290   1.376   1.252   4.537
  131SOL     OW 1291   4.654   1.513   3.083
  131SOL    HW1 1292   4.746   1.546   3.061
  131SOL    HW2 1293   4.637   1.524   3.180
  132SOL     OW 1294   1.358   2.572   1.663
  132SOL    HW1 1295   1.367   2.651   1.723
  132SOL    HW2 1296   1.449   2.540   1.636
  133SOL     OW 1297   6.486   5.738   2.678
  133SOL    HW1 1298   6.490   5.739   2.579
  133SOL    HW2 1299   6.400   5.777   2.709
  134SOL     OW 1300   0.022   3.844   2.767
  134SOL    HW1 1301   6.999   3.859   2.678
  134SOL    HW2 1302   6.979   3.878   2.839
  135SOL     OW 1303   4.927   1.756   4.031
  135SOL    HW1 1304   4.978   1.670   4.038
  135SOL    HW2 1305   4.856   1.757   4.101
  136SOL     OW 1306   5.232   4.127   5.773
  136SOL    HW1 1307   5.268   4.043   5.813
  136SOL    HW2 1308   5.271   4.140   5.681
  137SOL     OW 1309   4.095   6.883   5.637
  137SOL    HW1 1310   4.160   6.959   5.648
  137SOL    HW2 1311   4.020   6.895   5.702
  138SOL     OW 1312   6.988   5.250   4.887
  138SOL    HW1 1313   6.964   5.208   4.799
  138SOL    HW2 1314   7.004   5.179   4.955
  139SOL     OW 1315   3.123   4.852   5.171
  139SOL    HW1 1316   3.026   4.841   5.191
  139SOL    HW2 1317   3.177   4.787   5.225
  140SOL     OW 1318   5.727   5.010   4.692
  140SOL    HW1 1319   5.805   5.029   4.632
  140SOL    HW2 1320   5.759   4.995   4.785
  141SOL     OW 1321   1.548   1.891   4.553
  141SOL    HW1 1322   1.449   1.879   4.548
  141SOL    HW2 1323   1.575   1.902   4.649
  142SOL     OW 1324   1.664   5.918   1.223
  142SOL    HW1 1325   1.682   5.821   1.204
  142SOL    HW2 1326   1.624   5.960   1.141
  143SOL     OW 1327   5.342   4.403   2.184
  143SOL    HW1 1328   5.384   4.459   2.112
  143SOL    HW2 1329   5.260   4.449   2.219
  144SOL     OW 1330   2.080   6.783   6.785
  144SOL    HW1 1331   2.007   6.750   6.844
  144SOL    HW2 1332   2.167   6.742   6.812
  145SOL     OW 1333   0.166   5.883   0.815
  145SOL    HW1 1334   0.072   5.917   0.811
  145SOL    HW2 1335   0.218   5.920   0.739
  146SOL     OW 1336   5.178   5.933   0.954
  146SOL    HW1 1337   5.106   5.894   1.010
  146SOL    HW2 1338   5.153   5.929   0.858
  147SOL     OW 1339   6.657   2.497   1.068
  147SOL    HW1 1340   6.711   2.550   1.133
  147SOL    HW2 1341   6.590   2.556   1.023
  148SOL     OW 1342   1.437   5.297   5.616
  148SOL    HW1 1343   1.378   5.222   5.588
  148SOL    HW2 1344   1.521   5.260   5.656
  149SOL     OW 1345   3.341   1.206   4.575
  149SOL    HW1 1346   3.420   1.192   4.635
  149SOL    HW2 1347   3.301   1.118   4.551
  150SOL     OW 1348   0.313   4.841   6.809
  150SOL    HW1 1349   0.381   4.827   6.880
  150SOL    HW2 1350   0.299   4.755   6.759
  151SOL     OW 1351   4.139   1.687   1.705
  151SOL    HW1 1352   4.094   1.740   1.776
  151SOL    HW2 1353   4.229   1.657   1.738
  152SOL     OW 1354   2.883   0.770   4.386
  152SOL    HW1 1355   2.939   0.689   4.403
  152SOL    HW2 1356   2.914   0.846   4.444
  153SOL     OW 1357   2.013   1.125   2.953
  153SOL    HW1 1358   2.028   1.028   2.939
  153SOL    HW2 1359   1.967   1.164   2.873
  154SOL     OW 1360   6.699   2.451   2.033
  154SOL    HW1 1361   6.698   2.373   1.971
  154SOL    HW2 1362   6.605   2.478   2.055
  155SOL     OW 1363   6.801   0.514   2.973
  155SOL    HW1 1364   6.878   0.457   2.944
  155SOL    HW2 1365   6.833   0.608   2.987
  156SOL     OW 1366   6.220   1.984   0.617
  156SOL    HW1 1367   6.276   1.974   0.535
  156SOL    HW2 1368   6.131   1.941   0.603
  157SOL     OW 1369   5.942   3.578   2.510
  157SOL    HW1 1370   5.843   3.591   2.516
  157SOL    HW2 1371   5.988   3.641   2.572
  158SOL     OW 1372   2.599   1.020   2.881
  158SOL    HW1 1373   2.536   1.092   2.913
  158SOL    HW2 1374   2.557   0.972   2.804
  159SOL     OW 1375   4.781   4.129   2.094
  159SOL    HW1 1376   4.697   4.179   2.075
  159SOL    HW2 1377   4.772   4.080   2.180
  160SOL     OW 1378   6.567   4.202   5.805
  160SOL    HW1 1379   6.613   4.251   5.880
  160SOL    HW2 1380   6.471   4.227   5.803
  161SOL     OW 1381   1.993   4.916   4.871
  161SOL    HW1 1382   1.970   5.009   4.899
  161SOL    HW2 1383   1.917   4.878   4.819
  162SOL     OW 1384   4.307   5.659   0.951
  162SOL    HW1 1385   4.340   5.740   1.000
  162SOL    HW2 1386   4.312   5.674   0.853
  163SOL     OW 1387   4.868   0.415   2.466
  163SOL    HW1 1388   4.771   0.420   2.441
  163SOL    HW2 1389   4.916   0.494   2.429
  164SOL     OW 1390   6.054   3.611   1.046
  164SOL    HW1 1391   5.969   3.584   1.000
  164SOL    HW2 1392   6.055   3.574   1.139
  165SOL     OW 1393   4.764   2.941   6.574
  165SOL    HW1 1394   4.679   2.915   6.527
  165SOL    HW2 1395   4.741   2.984   6.662
  166SOL     OW 1396   0.728   6.841   2.440
  166SOL    HW1 1397   0.726   6.788   2.524
  166SOL    HW2 1398   0.684   6.789   2.366
  167SOL     OW 1399   6.320   3.056   6.948
  167SOL    HW1 1400   6.396   3.117   6.930
  167SOL    HW2 1401   6.310   2.991   6.872
  168SOL     OW 1402   2.110   5.122   0.991
  168SOL    HW1 1403   2.131   5.050   0.924
  168SOL    HW2 1404   2.130   5.088   1.083
  169SOL     OW 1405   2.113   0.038   1.837
  169SOL    HW1 1406   2.157   6.971   1.863
  169SOL    HW2 1407   2.144   0.066   1.746
  170SOL     OW 1408   0.256   1.539   3.334
  170SOL    HW1 1409   0.338   1.576   3.378
  170SOL    HW2 1410   0.207   1.612   3.287
  171SOL     OW 1411   3.992   3.899   0.107
  171SOL    HW1 1412   3.945   3.950   0.035
  171SOL    HW2 1413   3.960   3.931   0.196
  172SOL     OW 1414   6.723   2.472   5.124
  172SOL    HW1 1415   6.628   2.442   5.131
  172SOL    HW2 1416   6.784   2.401   5.160
  173SOL     OW 1417   0.312   0.203   4.912
  173SOL    HW1 1418   0.300   0.179   5.009
  173SOL    HW2 1419   0.410   0.197   4.889
  174SOL     OW 1420   2.243   4.930   3.705
  174SOL    HW1 1421   2.325   4.885   3.671
  174SOL    HW2 1422   2.230   5.017   3.656
  175SOL     OW 1423   1.768   5.368   2.605
  175SOL    HW1 1424   1.715   5.286   2.627
  175SOL    HW2 1425   1.728   5.446   2.652
  176SOL     OW 1426   2.070   3.926   0.919
  176SOL    HW1 1427   2.115   4.008   0.884
  176SOL    HW2 1428   2.090   3.915   1.016
  177SOL     OW 1429   4.809   1.936   2.291
  177SOL    HW1 1430   4.812   1.889   2.379
  177SOL    HW2 1431   4.819   1.870   2.217
  178SOL     OW 1432   5.185   4.792   6.857
  178SOL    HW1 1433   5.177   4.867   6.792
  178SOL    HW2 1434   5.109   4.728   6.843
  179SOL     OW 1435   2.913   0.118   0.599
  179SOL    HW1 1436   2.901   0.213   0.628
  179SOL    HW2 1437   3.009   0.103   0.574
  180SOL     OW 1438   0.425   1.446   6.605
  180SOL    HW1 1439   0.347   1.395   6.568
  180SOL    HW2 1440   0.465   1.502   6.532
  181SOL     OW 1441   3.684   3.222   5.375
  181SOL    HW1 1442   3.632   3.300   5.409
  181SOL    HW2 1443   3.698   3.231   5.277
  182SOL     OW 1444   3.927   2.178   4.787
  182SOL    HW1 1445   3.972   2.173   4.876
  182SOL    HW2 1446   3.827   2.181   4.800
  183SOL     OW 1447   4.956   1.257   1.847
  183SOL    HW1 1448   5.009   1.306   1.778
  183SOL    HW2 1449   5.017   1.214   1.913
  184SOL     OW 1450   0.167   4.870   3.093
  184SOL    HW1 1451   0.093   4.823   3.140
  184SOL    HW2 1452   0.213   4.806   3.031
  185SOL     OW 1453   2.085   3.658   5.805
  185SOL    HW1 1454   2.054   3.704   5.888
  185SOL    HW2 1455   2.154   3.715   5.760
  186SOL     OW 1456   5.640   0.304   3.174
  186SOL    HW1 1457   5.563   0.257   3.131
  186SOL    HW2 1458   5.707   0.236   3.204
  187SOL     OW 1459   5.553   1.014   3.997
  187SOL    HW1 1460   5.601   0.950   4.056
  187SOL    HW2 1461   5.485   1.065   4.051
  188SOL     OW 1462   5.924   2.488   3.631
  188SOL    HW1 1463   5.934   2.531   3.542
  188SOL    HW2 1464   6.011   2.447   3.658
  189SOL     OW 1465   1.904   4.396   2.529
  189SOL    HW1 1466   1.950   4.381   2.441
  189SOL    HW2 1467   1.969   4.382   2.603
  190SOL     OW 1468   3.755   0.961   5.470
  190SOL    HW1 1469   3.741   0.890   5.401
  190SOL    HW2 1470   3.771   1.049   5.425
  191SOL     OW 1471   5.730   5.304   6.703
  191SOL    HW1 1472   5.756   5.331   6.796
  191SOL    HW2 1473   5.727   5.385   6.645
  192SOL     OW 1474   6.771   0.773   1.960
  192SOL    HW1 1475   6.737   0.705   1.896
  192SOL    HW2 1476   6.808   0.727   2.041
  193SOL     OW 1477   5.387   3.701   6.864
  193SOL    HW1 1478   5.391   3.709   6.964
  193SOL    HW2 1479   5.350   3.785   6.825
  194SOL     OW 1480   3.458   0.457   3.749
  194SOL    HW1 1481   3.461   0.485   3.844
  194SOL    HW2 1482   3.366   0.426   3.726
  195SOL     OW 1483   1.091   5.947   3.285
  195SOL    HW1 1484   1.015   5.939   3.220
  195SOL    HW2 1485   1.089   6.037   3.328
  196SOL     OW 1486   1.256   2.074   0.207
  196SOL    HW1 1487   1.173   2.129   0.202
  196SOL    HW2 1488   1.333   2.125   0.169
  197SOL     OW 1489   1.556   0.901   0.976
  197SOL    HW1 1490   1.467   0.929   1.011
  197SOL    HW2 1491   1.545   0.825   0.912
  198SOL     OW 1492   3.269   2.020   3.736
  198SOL    HW1 1493   3.189   2.041   3.681
  198SOL    HW2 1494   3.248   2.031   3.833
  199SOL     OW 1495   1.300   2.661   3.721
  199SOL    HW1 1496   1.249   2.696   3.642
  199SOL    HW2 1497   1.277   2.565   3.736
  200SOL     OW 1498   6.972   2.908   0.487
  200SOL    HW1 1499   6.992   3.002   0.461
  200SOL    HW2 1500   6.943   2.856   0.407
  201SOL     OW 1501   0.684   0.793   6.426
  201SOL    HW1 1502   0.743   0.801   6.506
  201SOL    HW2 1503   0.610   0.728   6.446
  202SOL     OW 1504   4.651   6.909   6.896
  202SOL    HW1 1505   4.568   6.963   6.881
  202SOL    HW2 1506   4.627   6.814   6.913
  203SOL     OW 1507   5.648   2.793   5.726
  203SOL    HW1 1508   5.654   2.885   5.687
  203SOL    HW2 1509   5.632   2.727   5.653
  204SOL     OW 1510   6.434   0.980   5.754
  204SOL    HW1 1511   6.336   0.961   5.749
  204SOL    HW2 1512   6.479   0.909   5.808
  205SOL     OW 1513   1.065   2.735   2.245
  205SOL    HW1 1514   1.128   2.809   2.222
  205SOL    HW2 1515   0.982   2.744   2.190
  206SOL     OW 1516   0.526   2.968   0.791
  206SOL    HW1 1517   0.484   2.941   0.877
  206SOL    HW2 1518   0.519   3.067   0.781
  207SOL     OW 1519   5.199   2.113   3.867
  207SOL    HW1 1520   5.165   2.022   3.889
  207SOL    HW2 1521   5.223   2.161   3.951
  208SOL     OW 1522   1.174   4.195   4.299
  208SOL    HW1 1523   1.140   4.269   4.241
  208SOL    HW2 1524   1.171   4.109   4.248
  209SOL     OW 1525   6.535   4.051   2.593
  209SOL    HW1 1526   6.631   4.046   2.619
  209SOL    HW2 1527   6.479   4.063   2.675
  210SOL     OW 1528   5.081   2.647   0.429
  210SOL    HW1 1529   5.099   2.735   0.471
  210SOL    HW2 1530   5.099   2.653   0.331
  211SOL     OW 1531   0.276   1.226   3.170
  211SOL    HW1 1532   0.361   1.217   3.221
  211SOL    HW2 1533   0.291   1.199   3.074
  212SOL     OW 1534   2.122   3.582   3.181
  212SOL    HW1 1535   2.152   3.673   3.207
  212SOL    HW2 1536   2.069   3.541   3.255
  213SOL     OW 1537   1.733   4.949   1.071
  213SOL    HW1 1538   1.760   4.955   0.975
  213SOL    HW2 1539   1.746   5.038   1.115
  214SOL     OW 1540   4.274   6.032   2.613
  214SOL    HW1 1541   4.302   5.992   2.526
  214SOL    HW2 1542   4.266   5.960   2.682
  215SOL     OW 1543   2.415   4.842   2.300
  215SOL    HW1 1544   2.501   4.879   2.336
  215SOL    HW2 1545   2.412   4.743   2.317
  216SOL     OW 1546   1.165   0.013   2.532
  216SOL    HW1 1547   1.156   6.933   2.514
  216SOL    HW2 1548   1.257   0.033   2.565
  217SOL     OW 1549   1.798   4.201   6.400
  217SOL    HW1 1550   1.814   4.273   6.467
  217SOL    HW2 1551   1.774   4.242   6.312
  218SOL     OW 1552   0.639   2.230   5.097
  218SOL    HW1 1553   0.599   2.243   5.188
  218SOL    HW2 1554   0.688   2.143   5.095
  219SOL     OW 1555   3.862   1.751   0.638
  219SOL    HW1 1556   3.893   1.841   0.669
  219SOL    HW2 1557   3.841   1.694   0.717
  220SOL     OW 1558   3.066   6.606   0.887
  220SOL    HW1 1559   2.982   6.660   0.890
  220SOL    HW2 1560   3.141   6.659   0.925
  221SOL     OW 1561   4.953   6.100   1.513
  221SOL    HW1 1562   4.879   6.107   1.581
  221SOL    HW2 1563   4.938   6.019   1.456
  222SOL     OW 1564   2.113   4.683   6.097
  222SOL    HW1 1565   2.078   4.643   6.182
  222SOL    HW2 1566   2.105   4.616   6.023
  223SOL     OW 1567   6.141   2.638   5.333
  223SOL    HW1 1568   6.135   2.539   5.347
  223SOL    HW2 1569   6.221   2.658   5.276
  224SOL     OW 1570   2.532   1.816   6.043
  224SOL    HW1 1571   2.481   1.782   5.963
  224SOL    HW2 1572   2.557   1.911   6.029
  225SOL     OW 1573   4.629   5.070   6.275
  225SOL    HW1 1574   4.726   5.090   6.262
  225SOL    HW2 1575   4.610   4.976   6.246
  226SOL     OW 1576   1.249   2.105   6.574
  226SOL    HW1 1577   1.181   2.056   6.629
  226SOL    HW2 1578   1.236   2.203   6.585
  227SOL     OW 1579   1.215   3.999   1.955
  227SOL    HW1 1580   1.227   3.928   2.025
  227SOL    HW2 1581   1.294   4.060   1.956
  228SOL     OW 1582   1.829   6.969   2.448
  228SOL    HW1 1583   1.880   7.008   2.372
  228SOL    HW2 1584   1.841   0.009   2.529
  229SOL     OW 1585   5.286   5.444   6.308
  229SOL    HW1 1586   5.335   5.530   6.295
  229SOL    HW2 1587   5.268   5.401   6.220
  230SOL     OW 1588   4.683   5.697   5.212
  230SOL    HW1 1589   4.684   5.696   5.112
  230SOL    HW2 1590   4.710   5.788   5.244
  231SOL     OW 1591   5.388   1.236   0.032
  231SOL    HW1 1592   5.477   1.207   7.015
  231SOL    HW2 1593   5.391   1.335   0.049
  232SOL     OW 1594   1.663   3.024   5.710
  232SOL    HW1 1595   1.683   3.122   5.702
  232SOL    HW2 1596   1.687   2.992   5.801
  233SOL     OW 1597   2.740   1.265   3.339
  233SOL    HW1 1598   2.687   1.181   3.333
  233SOL    HW2 1599   2.677   1.343   3.343
  234SOL     OW 1600   4.628   1.540   6.577
  234SOL    HW1 1601   4.634   1.517   6.675
  234SOL    HW2 1602   4.614   1.457   6.524
  235SOL     OW 1603   4.367   2.427   2.587
  235SOL    HW1 1604   4.444   2.418   2.650
  235SOL    HW2 1605   4.297   2.359   2.610
  236SOL     OW 1606   4.289   4.269   6.275
  236SOL    HW1 1607   4.362   4.253   6.209
  236SOL    HW2 1608   4.234   4.348   6.246
  237SOL     OW 1609   6.204   3.915   2.870
  237SOL    HW1 1610   6.283   3.975   2.861
  237SOL    HW2 1611   6.222   3.848   2.943
  238SOL     OW 1612   6.586   1.379   0.406
  238SOL    HW1 1613   6.518   1.403   0.337
  238SOL    HW2 1614   6.566   1.426   0.492
  239SOL     OW 1615   0.772   3.762   0.322
  239SOL    HW1 1616   0.819   3.799   0.402
  239SOL    HW2 1617   0.813   3.673   0.298
  240SOL     OW 1618   6.060   2.791   3.225
  240SOL    HW1 1619   5.993   2.800   3.152
  240SOL    HW2 1620   6.133   2.859   3.211
  241SOL     OW 1621   2.774   1.479   3.972
  241SOL    HW1 1622   2.740   1.488   3.878
  241SOL    HW2 1623   2.854   1.537   3.984
  242SOL     OW 1624   3.725   3.495   3.284
  242SOL    HW1 1625   3.702   3.424   3.218
  242SOL    HW2 1626   3.708   3.585   3.245
  243SOL     OW 1627   4.516   2.627   6.151
  243SOL    HW1 1628   4.517   2.704   6.214
  243SOL    HW2 1629   4.566   2.550   6.191
  244SOL     OW 1630   5.241   3.582   5.504
  244SOL    HW1 1631   5.317   3.552   5.445
  244SOL    HW2 1632   5.179   3.506   5.518
  245SOL     OW 1633   3.485   2.089   2.451
  245SOL    HW1 1634   3.485   2.090   2.551
  245SOL    HW2 1635   3.577   2.107   2.417
  246SOL     OW 1636   6.212   1.215   2.877
  246SOL    HW1 1637   6.206   1.238   2.780
  246SOL    HW2 1638   6.303   1.178   2.896
  247SOL     OW 1639   2.127   1.332   1.290
  247SOL    HW1 1640   2.172   1.404   1.343
  247SOL    HW2 1641   2.100   1.368   1.201
  248SOL     OW 1642   1.520   2.034   2.193
  248SOL    HW1 1643   1.614   2.067   2.204
  248SOL    HW2 1644   1.472   2.092   2.127
  249SOL     OW 1645   5.870   6.364   5.010
  249SOL    HW1 1646   5.777   6.334   5.032
  249SOL    HW2 1647   5.894   6.333   4.918
  250SOL     OW 1648   3.288   2.512   1.318
  250SOL    HW1 1649   3.270   2.422   1.357
  250SOL    HW2 1650   3.382   2.516   1.284
  251SOL     OW 1651   4.275   4.118   5.882
  251SOL    HW1 1652   4.336   4.041   5.901
  251SOL    HW2 1653   4.200   4.119   5.949
  252SOL     OW 1654   6.018   6.247   5.862
  252SOL    HW1 1655   5.987   6.225   5.770
  252SOL    HW2 1656   6.056   6.165   5.905
  253SOL     OW 1657   4.670   5.918   6.120
  253SOL    HW1 1658   4.636   5.860   6.046
  253SOL    HW2 1659   4.691   5.862   6.200
  254SOL     OW 1660   5.726   2.767   4.602
  254SOL    HW1 1661   5.679   2.747   4.687
  254SOL    HW2 1662   5.749   2.681   4.556
  255SOL     OW 1663   1.701   4.440   5.642
  255SOL    HW1 1664   1.668   4.408   5.731
  255SOL    HW2 1665   1.762   4.519   5.655
  256SOL     OW 1666   4.913   2.781   4.903
  256SOL    HW1 1667   4.820   2.808   4.878
  256SOL    HW2 1668   4.925   2.683   4.886
  257SOL     OW 1669   4.880   6.244   2.996
  257SOL    HW1 1670   4.946   6.202   3.058
  257SOL    HW2 1671   4.802   6.183   2.984
  258SOL     OW 1672   1.968   3.710   6.044
  258SOL    HW1 1673   1.982   3.788   6.106
  258SOL    HW2 1674   1.948   3.628   6.097
  259SOL     OW 1675   3.963   0.022   3.580
  259SOL    HW1 1676   3.871   7.012   3.609
  259SOL    HW2 1677   3.964   0.121   3.564
  260SOL     OW 1678   3.798   5.365   3.277
  260SOL    HW1 1679   3.777   5.306   3.355
  260SOL    HW2 1680   3.897   5.374   3.267
  261SOL     OW 1681   4.345   4.845   0.346
  261SOL    HW1 1682   4.294   4.849   0.260
  261SOL    HW2 1683   4.349   4.936   0.387
  262SOL     OW 1684   2.206   3.955   0.139
  262SOL    HW1 1685   2.194   4.054   0.144
  262SOL    HW2 1686   2.158   3.919   0.059
  263SOL     OW 1687   1.304   6.457   4.152
  263SOL    HW1 1688   1.349   6.509   4.079
  263SOL    HW2 1689   1.274   6.369   4.116
  264SOL     OW 1690   0.233   3.282   6.894
  264SOL    HW1 1691   0.302   3.212   6.914
  264SOL    HW2 1692   0.194   3.316   6.980
  265SOL     OW 1693   6.544   0.077   4.185
  265SOL    HW1 1694   6.563   0.053   4.280
  265SOL    HW2 1695   6.480   0.011   4.146
  266SOL     OW 1696   4.080   1.311   5.376
  266SOL    HW1 1697   4.063   1.403   5.341
  266SOL    HW2 1698   4.000   1.253   5.358
  267SOL     OW 1699   1.764   0.915   5.265
  267SOL    HW1 1700   1.701   0.873   5.331
  267SOL    HW2 1701   1.823   0.980   5.312
  268SOL     OW 1702   3.141   1.361   1.007
  268SOL    HW1 1703   3.176   1.443   0.962
  268SOL    HW2 1704   3.153   1.282   0.946
  269SOL     OW 1705   4.321   1.880   6.824
  269SOL    HW1 1706   4.292   1.822   6.900
  269SOL    HW2 1707   4.418   1.865   6.805
  270SOL     OW 1708   6.679   0.066   0.174
  270SOL    HW1 1709   6.754   0.066   0.108
  270SOL    HW2 1710   6.715   0.037   0.263
  271SOL     OW 1711   0.027   2.235   5.619
  271SOL    HW1 1712   0.056   2.235   5.523
  271SOL    HW2 1713   6.976   2.305   5.633
  272SOL     OW 1714   3.238   6.145   3.826
  272SOL    HW1 1715   3.336   6.164   3.824
  272SOL    HW2 1716   3.208   6.117   3.735
  273SOL     OW 1717   1.884   5.311   5.914
  273SOL    HW1 1718   1.824   5.293   5.991
  273SOL    HW2 1719   1.841   5.377   5.852
  274SOL     OW 1720   4.521   1.042   3.658
  274SOL    HW1 1721   4.507   1.138   3.680
  274SOL    HW2 1722   4.470   0.985   3.722
  275SOL     OW 1723   6.918   6.553   2.565
  275SOL    HW1 1724   6.972   6.517   2.641
  275SOL    HW2 1725   6.934   6.652   2.556
  276SOL     OW 1726   0.345   0.577   4.861
  276SOL    HW1 1727   0.353   0.491   4.810
  276SOL    HW2 1728   0.319   0.556   4.955
  277SOL     OW 1729   2.388   3.111   0.512
  277SOL    HW1 1730   2.482   3.099   0.545
  277SOL    HW2 1731   2.379   3.071   0.421
  278SOL     OW 1732   0.348   2.248   2.654
  278SOL    HW1 1733   0.286   2.325   2.641
  278SOL    HW2 1734   0.442   2.280   2.643
  279SOL     OW 1735   5.785   2.766   4.053
  279SOL    HW1 1736   5.744   2.828   3.986
  279SOL    HW2 1737   5.829   2.690   4.005
  280SOL     OW 1738   1.616   4.639   1.867
  280SOL    HW1 1739   1.632   4.540   1.860
  280SOL    HW2 1740   1.682   4.687   1.809
  281SOL     OW 1741   2.457   3.947   0.535
  281SOL    HW1 1742   2.549   3.920   0.508
  281SOL    HW2 1743   2.406   3.866   0.566
  282SOL     OW 1744   3.394   1.872   6.039
  282SOL    HW1 1745   3.303   1.831   6.034
  282SOL    HW2 1746   3.407   1.915   6.128
  283SOL     OW 1747   5.120   3.182   6.053
  283SOL    HW1 1748   5.067   3.175   6.138
  283SOL    HW2 1749   5.192   3.112   6.053
  284SOL     OW 1750   0.638   3.616   3.991
  284SOL    HW1 1751   0.625   3.676   4.070
  284SOL    HW2 1752   0.686   3.533   4.021
  285SOL     OW 1753   5.786   4.334   4.251
  285SOL    HW1 1754   5.732   4.350   4.333
  285SOL    HW2 1755   5.735   4.273   4.189
  286SOL     OW 1756   3.479   3.442   6.793
  286SOL    HW1 1757   3.452   3.381   6.867
  286SOL    HW2 1758   3.545   3.509   6.827
  287SOL     OW 1759   2.069   3.424   0.034
  287SOL    HW1 1760   2.043   3.405   0.129
  287SOL    HW2 1761   2.169   3.434   0.029
  288SOL     OW 1762   4.989   1.987   0.011
  288SOL    HW1 1763   5.005   2.063   6.966
  288SOL    HW2 1764   5.074   1.935   0.022
  289SOL     OW 1765   2.803   5.287   6.152
  289SOL    HW1 1766   2.729   5.221   6.142
  289SOL    HW2 1767   2.839   5.311   6.061
  290SOL     OW 1768   6.846   2.039   5.646
  290SOL    HW1 1769   6.854   1.939   5.649
  290SOL    HW2 1770   6.937   2.080   5.639
  291SOL     OW 1771   6.838   1.785   2.928
  291SOL    HW1 1772   6.808   1.866   2.979
  291SOL    HW2 1773   6.808   1.794   2.832
  292SOL     OW 1774   2.108   0.208   3.354
  292SOL    HW1 1775   2.035   0.276   3.357
  292SOL    HW2 1776   2.112   0.166   3.263
  293SOL     OW 1777   4.095   5.300   3.822
  293SOL    HW1 1778   4.104   5.317   3.724
  293SOL    HW2 1779   4.129   5.379   3.873
  294SOL     OW 1780   4.467   6.061   6.221
  294SOL    HW1 1781   4.491   6.094   6.313
  294SOL    HW2 1782   4.540   6.002   6.187
  295SOL     OW 1783   5.023   0.517   4.553
  295SOL    HW1 1784   5.056   0.588   4.491
  295SOL    HW2 1785   5.087   0.506   4.629
  296SOL     OW 1786   2.278   2.006   3.551
  296SOL    HW1 1787   2.234   1.964   3.630
  296SOL    HW2 1788   2.371   1.970   3.543
  297SOL     OW 1789   1.702   4.227   3.160
  297SOL    HW1 1790   1.658   4.183   3.239
  297SOL    HW2 1791   1.720   4.323   3.181
  298SOL     OW 1792   6.128   5.201   1.153
  298SOL    HW1 1793   6.065   5.259   1.101
  298SOL    HW2 1794   6.189   5.152   1.090
  299SOL     OW 1795   6.469   2.429   4.465
  299SOL    HW1 1796   6.542   2.474   4.415
  299SOL    HW2 1797   6.485   2.330   4.465
  300SOL     OW 1798   6.295   0.143   2.538
  300SOL    HW1 1799   6.354   0.128   2.617
  300SOL    HW2 1800   6.266   0.239   2.536
  301SOL     OW 1801   5.458   3.832   6.119
  301SOL    HW1 1802   5.395   3.833   6.196
  301SOL    HW2 1803   5.445   3.748   6.066
  302SOL     OW 1804   0.917   6.616   3.433
  302SOL    HW1 1805   1.010   6.586   3.412
  302SOL    HW2 1806   0.888   6.683   3.364
  303SOL     OW 1807   5.371   0.567   3.878
  303SOL    HW1 1808   5.378   0.508   3.958
  303SOL    HW2 1809   5.397   0.516   3.796
  304SOL     OW 1810   3.139   0.111   3.347
  304SOL    HW1 1811   3.102   0.028   3.305
  304SOL    HW2 1812   3.187   0.165   3.278
  305SOL     OW 1813   1.185   3.644   1.089
  305SOL    HW1 1814   1.162   3.585   1.167
  305SOL    HW2 1815   1.162   3.596   1.004
  306SOL     OW 1816   2.379   0.463   3.524
  306SOL    HW1 1817   2.312   0.440   3.594
  306SOL    HW2 1818   2.389   0.387   3.459
  307SOL     OW 1819   3.719   0.285   1.460
  307SOL    HW1 1820   3.713   0.198   1.509
  307SOL    HW2 1821   3.809   0.325   1.472
  308SOL     OW 1822   0.797   5.359   4.419
  308SOL    HW1 1823   0.869   5.385   4.354
  308SOL    HW2 1824   0.837   5.304   4.492
  309SOL     OW 1825   4.227   5.357   5.459
  309SOL    HW1 1826   4.208   5.455   5.467
  309SOL    HW2 1827   4.287   5.340   5.381
  310SOL     OW 1828   0.376   6.667   6.370
  310SOL    HW1 1829   0.355   6.624   6.283
  310SOL    HW2 1830   0.414   6.758   6.354
  311SOL     OW 1831   0.402   0.332   1.335
  311SOL    HW1 1832   0.408   0.422   1.379
  311SOL    HW2 1833   0.422   0.261   1.403
  312SOL     OW 1834   4.109   1.880   4.937
  312SOL    HW1 1835   4.029   1.884   4.997
  312SOL    HW2 1836   4.095   1.941   4.859
  313SOL     OW 1837   0.834   4.050   1.256
  313SOL    HW1 1838   0.745   4.026   1.293
  313SOL    HW2 1839   0.865   3.977   1.194
  314SOL     OW 1840   3.605   6.289   0.851
  314SOL    HW1 1841   3.523   6.246   0.813
  314SOL    HW2 1842   3.640   6.358   0.787
  315SOL     OW 1843   1.039   2.753   2.991
  315SOL    HW1 1844   1.034   2.655   3.013
  315SOL    HW2 1845   0.996   2.770   2.903
  316SOL     OW 1846   2.463   2.547   4.136
  316SOL    HW1 1847   2.379   2.501   4.108
  316SOL    HW2 1848   2.541   2.489   4.114
  317SOL     OW 1849   6.775   2.165   6.735
  317SOL    HW1 1850   6.828   2.193   6.815
  317SOL    HW2 1851   6.790   2.067   6.718
  318SOL     OW 1852   2.600   5.196   0.869
  318SOL    HW1 1853   2.691   5.216   0.833
  318SOL    HW2 1854   2.531   5.233   0.808
  319SOL     OW 1855   1.246   6.591   0.234
  319SOL    HW1 1856   1.166   6.645   0.261
  319SOL    HW2 1857   1.216   6.508   0.187
  320SOL     OW 1858   5.373   3.649   0.766
  320SOL    HW1 1859   5.406   3.706   0.690
  320SOL    HW2 1860   5.449   3.599   0.806
  321SOL     OW 1861   2.107   1.376   0.965
  321SOL    HW1 1862   2.122   1.387   0.867
  321SOL    HW2 1863   2.138   1.458   1.013
  322SOL     OW 1864   3.505   2.975   4.412
  322SOL    HW1 1865   3.515   3.072   4.388
  322SOL    HW2 1866   3.579   2.949   4.474
  323SOL     OW 1867   0.458   4.710   1.866
  323SOL    HW1 1868   0.387   4.656   1.910
  323SOL    HW2 1869   0.434   4.725   1.770
  324SOL     OW 1870   0.420   2.898   4.661
  324SOL    HW1 1871   0.412   2.988   4.620
  324SOL    HW2 1872   0.489   2.845   4.612
  325SOL     OW 1873   2.240   2.899   2.485
  325SOL    HW1 1874   2.264   2.820   2.540
  325SOL    HW2 1875   2.239   2.981   2.542
  326SOL     OW 1876   2.031   4.478   6.414
  326SOL    HW1 1877   1.959   4.453   6.350
  326SOL    HW2 1878   1.993   4.489   6.506
  327SOL     OW 1879   6.281   5.723   5.427
  327SOL    HW1 1880   6.323   5.808   5.457
  327SOL    HW2 1881   6.324   5.645   5.473
  328SOL     OW 1882   3.520   6.054   1.973
  328SOL    HW1 1883   3.513   5.961   2.008
  328SOL    HW2 1884   3.556   6.051   1.880
  329SOL     OW 1885   3.091   3.080   2.560
  329SOL    HW1 1886   3.125   2.999   2.512
  329SOL    HW2 1887   3.031   3.132   2.499
  330SOL     OW 1888   3.668   0.693   1.257
  330SOL    HW1 1889   3.700   0.599   1.245
  330SOL    HW2 1890   3.677   0.719   1.353
  331SOL     OW 1891   4.947   5.097   6.249
  331SOL    HW1 1892   4.996   5.129   6.168
  331SOL    HW2 1893   4.969   5.001   6.265
  332SOL     OW 1894   3.819   1.676   2.822
  332SOL    HW1 1895   3.897   1.671   2.885
  332SOL    HW2 1896   3.745   1.617   2.857
  333SOL     OW 1897   3.651   6.071   6.347
  333SOL    HW1 1898   3.557   6.060   6.317
  333SOL    HW2 1899   3.684   6.163   6.325
  334SOL     OW 1900   4.366   6.621   2.575
  334SOL    HW1 1901   4.396   6.533   2.538
  334SOL    HW2 1902   4.390   6.694   2.511
  335SOL     OW 1903   3.068   6.815   3.795
  335SOL    HW1 1904   2.979   6.850   3.767
  335SOL    HW2 1905   3.140   6.858   3.739
  336SOL     OW 1906   3.289   0.949   4.549
  336SOL    HW1 1907   3.238   0.886   4.608
  336SOL    HW2 1908   3.282   0.919   4.454
  337SOL     OW 1909   6.573   3.912   1.364
  337SOL    HW1 1910   6.612   3.835   1.415
  337SOL    HW2 1911   6.624   3.925   1.279
  338SOL     OW 1912   3.632   2.673   1.252
  338SOL    HW1 1913   3.603   2.581   1.224
  338SOL    HW2 1914   3.721   2.667   1.298
  339SOL     OW 1915   4.609   6.322   3.480
  339SOL    HW1 1916   4.563   6.375   3.409
  339SOL    HW2 1917   4.706   6.346   3.482
  340SOL     OW 1918   4.796   4.140   4.365
  340SOL    HW1 1919   4.841   4.072   4.422
  340SOL    HW2 1920   4.811   4.117   4.268
  341SOL     OW 1921   5.668   5.182   5.105
  341SOL    HW1 1922   5.703   5.114   5.041
  341SOL    HW2 1923   5.723   5.266   5.098
  342SOL     OW 1924   6.377   3.765   0.594
  342SOL    HW1 1925   6.339   3.843   0.643
  342SOL    HW2 1926   6.412   3.697   0.659
  343SOL     OW 1927   3.112   0.674   2.973
  343SOL    HW1 1928   3.050   0.751   2.958
  343SOL    HW2 1929   3.088   0.629   3.059
  344SOL     OW 1930   3.155   5.137   0.436
  344SOL    HW1 1931   3.146   5.232   0.465
  344SOL    HW2 1932   3.065   5.098   0.420
  345SOL     OW 1933   0.589   6.950   5.342
  345SOL    HW1 1934   0.673   6.920   5.388
  345SOL    HW2 1935   0.608   0.015   5.289
  346SOL     OW 1936   1.868   6.802   3.587
  346SOL    HW1 1937   1.768   6.802   3.595
  346SOL    HW2 1938   1.905   6.724   3.637
  347SOL     OW 1939   5.081   6.423   6.425
  347SOL    HW1 1940   5.060   6.437   6.329
  347SOL    HW2 1941   5.129   6.336   6.436
  348SOL     OW 1942   3.725   5.846   2.422
  348SOL    HW1 1943   3.728   5.890   2.512
  348SOL    HW2 1944   3.734   5.747   2.432
  349SOL     OW 1945   1.563   5.115   1.962
  349SOL    HW1 1946   1.502   5.180   1.916
  349SOL    HW2 1947   1.652   5.115   1.915
  350SOL     OW 1948   4.829   3.019   1.059
  350SOL    HW1 1949   4.794   3.039   0.968
  350SOL    HW2 1950   4.782   3.074   1.127
  351SOL     OW 1951   3.248   2.362   0.294
  351SOL    HW1 1952   3.225   2.334   0.201
  351SOL    HW2 1953   3.259   2.462   0.297
  352SOL     OW 1954   3.246   1.162   6.573
  352SOL    HW1 1955   3.227   1.241   6.514
  352SOL    HW2 1956   3.196   1.173   6.659
  353SOL     OW 1957   2.297   6.452   0.884
  353SOL    HW1 1958   2.220   6.481   0.940
  353SOL    HW2 1959   2.334   6.532   0.835
  354SOL     OW 1960   4.548   1.378   1.646
  354SOL    HW1 1961   4.639   1.345   1.625
  354SOL    HW2 1962   4.544   1.405   1.743
  355SOL     OW 1963   0.673   2.146   1.996
  355SOL    HW1 1964   0.581   2.129   2.033
  355SOL    HW2 1965   0.696   2.243   2.006
  356SOL     OW 1966   4.079   5.398   3.261
  356SOL    HW1 1967   4.169   5.360   3.280
  356SOL    HW2 1968   4.088   5.494   3.236
  357SOL     OW 1969   0.986   4.835   5.329
  357SOL    HW1 1970   0.907   4.872   5.281
  357SOL    HW2 1971   1.032   4.908   5.379
  358SOL     OW 1972   5.620   0.924   1.330
  358SOL    HW1 1973   5.586   0.893   1.419
  358SOL    HW2 1974   5.617   0.848   1.265
  359SOL     OW 1975   1.224   1.342   2.195
  359SOL    HW1 1976   1.149   1.322   2.259
  359SOL    HW2 1977   1.311   1.343   2.245
  360SOL     OW 1978   3.817   6.397   0.670
  360SOL    HW1 1979   3.762   6.413   0.588
  360SOL    HW2 1980   3.909   6.371   0.644
  361SOL     OW 1981   4.350   0.308   3.102
  361SOL    HW1 1982   4.281   0.253   3.149
  361SOL    HW2 1983   4.394   0.370   3.168
  362SOL     OW 1984   2.511   3.300   0.856
  362SOL    HW1 1985   2.516   3.348   0.943
  362SOL    HW2 1986   2.522   3.202   0.871
  363SOL     OW 1987   4.921   4.787   4.356
  363SOL    HW1 1988   4.982   4.841   4.413
  363SOL    HW2 1989   4.852   4.743   4.413
  364SOL     OW 1990   1.658   5.182   5.777
  364SOL    HW1 1991   1.607   5.096   5.790
  364SOL    HW2 1992   1.697   5.211   5.864
  365SOL     OW 1993   4.467   6.332   2.836
  365SOL    HW1 1994   4.556   6.370   2.862
  365SOL    HW2 1995   4.479   6.241   2.797
  366SOL     OW 1996   5.681   0.149   6.952
  366SOL    HW1 1997   5.719   0.100   0.013
  366SOL    HW2 1998   5.631   0.230   6.983
  367SOL     OW 1999   5.078   2.646   1.183
  367SOL    HW1 2000   5.034   2.557   1.194
  367SOL    HW2 2001   5.050   2.687   1.096
  368SOL     OW 2002   1.260   4.778   5.330
  368SOL    HW1 2003   1.161   4.785   5.316
  368SOL    HW2 2004   1.303   4.748   5.245
  369SOL     OW 2005   0.270   3.753   1.648
  369SOL    HW1 2006   0.229   3.844   1.637
  369SOL    HW2 2007   0.249   3.718   1.739
  370SOL     OW 2008   3.895   1.295   6.250
  370SOL    HW1 2009   3.897   1.221   6.317
  370SOL    HW2 2010   3.984   1.341   6.250
  371SOL     OW 2011   4.206   3.048   6.314
  371SOL    HW1 2012   4.199   2.950   6.296
  371SOL    HW2 2013   4.117   3.083   6.343
  372SOL     OW 2014   1.461   5.395   5.891
  372SOL    HW1 2015   1.499   5.307   5.921
  372SOL    HW2 2016   1.445   5.393   5.793
  373SOL     OW 2017   6.774   6.926   0.448
  373SOL    HW1 2018   6.753   6.947   0.544
  373SOL    HW2 2019   6.860   6.970   0.423
  374SOL     OW 2020   3.674   1.054   1.474
  374SOL    HW1 2021   3.707   1.018   1.386
  374SOL    HW2 2022   3.694   0.987   1.546
  375SOL     OW 2023   0.073   4.704   2.466
  375SOL    HW1 2024   0.161   4.666   2.494
  375SOL    HW2 2025   0.086   4.761   2.385
  376SOL     OW 2026   2.096   2.629   4.241
  376SOL    HW1 2027   2.111   2.538   4.280
  376SOL    HW2 2028   2.103   2.698   4.313
  377SOL     OW 2029   4.882   1.692   3.763
  377SOL    HW1 2030   4.866   1.743   3.847
  377SOL    HW2 2031   4.980   1.673   3.753
  378SOL     OW 2032   5.273   2.409   4.559
  378SOL    HW1 2033   5.273   2.465   4.642
  378SOL    HW2 2034   5.187   2.360   4.551
  379SOL     OW 2035   6.775   3.646   1.111
  379SOL    HW1 2036   6.744   3.558   1.148
  379SOL    HW2 2037   6.805   3.704   1.186
  380SOL     OW 2038   0.767   2.362   0.479
  380SOL    HW1 2039   0.847   2.305   0.461
  380SOL    HW2 2040   0.714   2.323   0.554
  381SOL     OW 2041   3.181   4.062   0.414
  381SOL    HW1 2042   3.227   3.995   0.473
  381SOL    HW2 2043   3.236   4.077   0.332
  382SOL     OW 2044   2.180   5.385   1.032
  382SOL    HW1 2045   2.174   5.286   1.023
  382SOL    HW2 2046   2.213   5.425   0.946
  383SOL     OW 2047   6.240   2.533   6.795
  383SOL    HW1 2048   6.257   2.523   6.893
  383SOL    HW2 2049   6.160   2.591   6.781
  384SOL     OW 2050   1.818   5.431   5.034
  384SOL    HW1 2051   1.860   5.450   5.122
  384SOL    HW2 2052   1.749   5.500   5.013
  385SOL     OW 2053   5.222   5.407   1.065
  385SOL    HW1 2054   5.221   5.338   1.138
  385SOL    HW2 2055   5.299   5.470   1.080
  386SOL     OW 2056   2.968   6.430   5.146
  386SOL    HW1 2057   3.011   6.402   5.232
  386SOL    HW2 2058   3.038   6.441   5.075
  387SOL     OW 2059   6.873   0.338   5.435
  387SOL    HW1 2060   6.891   0.417   5.494
  387SOL    HW2 2061   6.835   0.369   5.348
  388SOL     OW 2062   6.732   1.965   4.882
  388SOL    HW1 2063   6.718   1.868   4.862
  388SOL    HW2 2064   6.694   2.021   4.808
  389SOL     OW 2065   4.147   4.489   1.397
  389SOL    HW1 2066   4.224   4.438   1.436
  389SOL    HW2 2067   4.061   4.455   1.436
  390SOL     OW 2068   4.236   2.421   0.304
  390SOL    HW1 2069   4.139   2.396   0.304
  390SOL    HW2 2070   4.252   2.492   0.373
  391SOL     OW 2071   3.827   4.012   4.246
  391SOL    HW1 2072   3.806   3.917   4.221
  391SOL    HW2 2073   3.897   4.047   4.185
  392SOL     OW 2074   1.270   3.632   1.768
  392SOL    HW1 2075   1.202   3.618   1.841
  392SOL    HW2 2076   1.253   3.721   1.725
  393SOL     OW 2077   1.235   4.715   1.174
  393SOL    HW1 2078   1.234   4.683   1.080
  393SOL    HW2 2079   1.154   4.679   1.222
  394SOL     OW 2080   6.158   1.050   6.419
  394SOL    HW1 2081   6.227   1.094   6.477
  394SOL    HW2 2082   6.201   0.975   6.368
  395SOL     OW 2083   5.998   4.952   0.956
  395SOL    HW1 2084   5.961   5.008   1.030
  395SOL    HW2 2085   6.058   5.008   0.899
  396SOL     OW 2086   1.581   0.040   1.439
  396SOL    HW1 2087   1.578   6.999   1.359
  396SOL    HW2 2088   1.503   0.103   1.437
  397SOL     OW 2089   3.939   2.039   5.355
  397SOL    HW1 2090   4.016   2.082   5.308
  397SOL    HW2 2091   3.955   2.042   5.454
  398SOL     OW 2092   1.282   0.845   3.609
  398SOL    HW1 2093   1.191   0.859   3.569
  398SOL    HW2 2094   1.348   0.903   3.561
  399SOL     OW 2095   5.659   5.923   4.240
  399SOL    HW1 2096   5.580   5.979   4.213
  399SOL    HW2 2097   5.743   5.973   4.220
  400SOL     OW 2098   5.856   6.784   4.434
  400SOL    HW1 2099   5.834   6.690   4.410
  400SOL    HW2 2100   5.771   6.834   4.451
  401SOL     OW 2101   0.760   5.557   5.561
  401SOL    HW1 2102   0.765   5.656   5.567
  401SOL    HW2 2103   0.853   5.519   5.562
  402SOL     OW 2104   5.697   1.713   3.318
  402SOL    HW1 2105   5.690   1.616   3.340
  402SOL    HW2 2106   5.728   1.723   3.223
  403SOL     OW 2107   3.142   1.196   5.318
  403SOL    HW1 2108   3.226   1.248   5.297
  403SOL    HW2 2109   3.069   1.260   5.342
  404SOL     OW 2110   3.623   5.308   2.935
  404SOL    HW1 2111   3.718   5.306   2.904
  404SOL    HW2 2112   3.615   5.261   3.023
  405SOL     OW 2113   2.205   4.625   4.481
  405SOL    HW1 2114   2.229   4.718   4.453
  405SOL    HW2 2115   2.282   4.584   4.532
  406SOL     OW 2116   0.107   6.931   6.321
  406SOL    HW1 2117   0.164   6.954   6.400
  406SOL    HW2 2118   0.088   7.014   6.269
  407SOL     OW 2119   2.206   2.927   4.024
  407SOL    HW1 2120   2.154   2.921   3.938
  407SOL    HW2 2121   2.157   2.985   4.089
  408SOL     OW 2122   1.943   1.244   3.471
  408SOL    HW1 2123   2.001   1.174   3.429
  408SOL    HW2 2124   1.948   1.236   3.570
  409SOL     OW 2125   0.336   3.694   2.606
  409SOL    HW1 2126   0.405   3.625   2.586
  409SOL    HW2 2127   0.282   3.666   2.685
  410SOL     OW 2128   1.517   1.844   1.640
  410SOL    HW1 2129   1.483   1.825   1.548
  410SOL    HW2 2130   1.440   1.870   1.699
  411SOL     OW 2131   0.137   2.663   1.580
  411SOL    HW1 2132   0.235   2.684   1.583
  411SOL    HW2 2133   0.113   2.627   1.490
  412SOL     OW 2134   1.522   5.018   2.471
  412SOL    HW1 2135   1.475   5.068   2.398
  412SOL    HW2 2136   1.542   4.925   2.441
  413SOL     OW 2137   6.105   6.372   2.377
  413SOL    HW1 2138   6.099   6.464   2.415
  413SOL    HW2 2139   6.078   6.373   2.281
  414SOL     OW 2140   1.830   6.714   2.924
  414SOL    HW1 2141   1.875   6.668   2.848
  414SOL    HW2 2142   1.884   6.703   3.007
  415SOL     OW 2143   6.107   1.314   6.816
  415SOL    HW1 2144   6.016   1.303   6.777
  415SOL    HW2 2145   6.103   1.381   6.890
  416SOL     OW 2146   5.781   3.701   5.738
  416SOL    HW1 2147   5.800   3.657   5.650
  416SOL    HW2 2148   5.706   3.653   5.784
  417SOL     OW 2149   1.994   1.812   6.545
  417SOL    HW1 2150   1.937   1.883   6.585
  417SOL    HW2 2151   1.939   1.730   6.527
  418SOL     OW 2152   3.774   0.365   4.677
  418SOL    HW1 2153   3.721   0.283   4.656
  418SOL    HW2 2154   3.798   0.365   4.774
  419SOL     OW 2155   6.841   0.351   0.465
  419SOL    HW1 2156   6.930   0.387   0.435
  419SOL    HW2 2157   6.856   0.279   0.533
  420SOL     OW 2158   4.020   0.453   0.347
  420SOL    HW1 2159   4.118   0.471   0.346
  420SOL    HW2 2160   4.000   0.374   0.289
  421SOL     OW 2161   4.641   4.413   2.249
  421SOL    HW1 2162   4.604   4.375   2.164
  421SOL    HW2 2163   4.668   4.339   2.310
  422SOL     OW 2164   5.300   2.747   2.007
  422SOL    HW1 2165   5.393   2.749   2.044
  422SOL    HW2 2166   5.298   2.798   1.921
  423SOL     OW 2167   2.647   1.116   6.207
  423SOL    HW1 2168   2.689   1.058   6.137
  423SOL    HW2 2169   2.719   1.158   6.263
  424SOL     OW 2170   1.236   3.621   3.835
  424SOL    HW1 2171   1.268   3.551   3.899
  424SOL    HW2 2172   1.222   3.580   3.745
  425SOL     OW 2173   3.470   0.996   6.652
  425SOL    HW1 2174   3.394   1.051   6.616
  425SOL    HW2 2175   3.443   0.955   6.739
  426SOL     OW 2176   2.883   1.731   4.017
  426SOL    HW1 2177   2.832   1.816   4.021
  426SOL    HW2 2178   2.972   1.743   4.061
  427SOL     OW 2179   4.301   2.130   3.090
  427SOL    HW1 2180   4.279   2.078   3.173
  427SOL    HW2 2181   4.367   2.079   3.035
  428SOL     OW 2182   2.688   2.060   5.971
  428SOL    HW1 2183   2.768   2.085   5.916
  428SOL    HW2 2184   2.717   2.049   6.066
  429SOL     OW 2185   6.940   5.820   4.347
  429SOL    HW1 2186   6.858   5.811   4.292
  429SOL    HW2 2187   6.978   5.729   4.366
  430SOL     OW 2188   1.563   0.064   4.202
  430SOL    HW1 2189   1.473   0.100   4.225
  430SOL    HW2 2190   1.608   0.031   4.285
  431SOL     OW 2191   2.360   1.746   1.871
  431SOL    HW1 2192   2.443   1.719   1.821
  431SOL    HW2 2193   2.304   1.665   1.887
  432SOL     OW 2194   4.298   1.810   1.238
  432SOL    HW1 2195   4.394   1.812   1.265
  432SOL    HW2 2196   4.240   1.800   1.319
  433SOL     OW 2197   1.657   4.625   0.700
  433SOL    HW1 2198   1.688   4.659   0.612
  433SOL    HW2 2199   1.624   4.531   0.690
  434SOL     OW 2200   5.040   5.010   3.665
  434SOL    HW1 2201   5.120   4.972   3.711
  434SOL    HW2 2202   5.065   5.095   3.618
  435SOL     OW 2203   3.874   2.839   5.798
  435SOL    HW1 2204   3.945   2.907   5.812
  435SOL    HW2 2205   3.790   2.868   5.844
  436SOL     OW 2206   4.902   6.378   2.654
  436SOL    HW1 2207   4.887   6.282   2.635
  436SOL    HW2 2208   4.992   6.405   2.618
  437SOL     OW 2209   6.672   0.921   4.976
  437SOL    HW1 2210   6.698   0.986   4.904
  437SOL    HW2 2211   6.579   0.888   4.959
  438SOL     OW 2212   0.817   4.870   2.500
  438SOL    HW1 2213   0.847   4.963   2.522
  438SOL    HW2 2214   0.724   4.873   2.462
  439SOL     OW 2215   0.202   0.808   4.814
  439SOL    HW1 2216   0.233   0.715   4.832
  439SOL    HW2 2217   0.276   0.860   4.772
  440SOL     OW 2218   3.883   1.163   0.459
  440SOL    HW1 2219   3.957   1.219   0.423
  440SOL    HW2 2220   3.899   1.142   0.555
  441SOL     OW 2221   0.661   4.777   2.037
  441SOL    HW1 2222   0.595   4.760   1.964
  441SOL    HW2 2223   0.738   4.715   2.028
  442SOL     OW 2224   4.887   3.027   5.432
  442SOL    HW1 2225   4.963   3.085   5.405
  442SOL    HW2 2226   4.813   3.035   5.366
  443SOL     OW 2227   5.070   2.851   2.546
  443SOL    HW1 2228   5.117   2.834   2.633
  443SOL    HW2 2229   5.129   2.904   2.485
  444SOL     OW 2230   4.862   1.468   1.988
  444SOL    HW1 2231   4.919   1.467   2.070
  444SOL    HW2 2232   4.888   1.393   1.928
  445SOL     OW 2233   1.758   5.026   2.783
  445SOL    HW1 2234   1.780   4.952   2.720
  445SOL    HW2 2235   1.698   5.092   2.738
  446SOL     OW 2236   6.061   0.198   1.619
  446SOL    HW1 2237   6.102   0.219   1.708
  446SOL    HW2 2238   5.976   0.147   1.633
  447SOL     OW 2239   6.168   4.425   1.086
  447SOL    HW1 2240   6.211   4.453   1.172
  447SOL    HW2 2241   6.147   4.506   1.031
  448SOL     OW 2242   3.732   6.474   3.806
  448SOL    HW1 2243   3.773   6.451   3.718
  448SOL    HW2 2244   3.632   6.473   3.798
  449SOL     OW 2245   1.839   4.094   4.450
  449SOL    HW1 2246   1.838   4.172   4.513
  449SOL    HW2 2247   1.827   4.009   4.502
  450SOL     OW 2248   6.551   4.488   3.501
  450SOL    HW1 2249   6.488   4.463   3.575
  450SOL    HW2 2250   6.498   4.515   3.420
  451SOL     OW 2251   1.105   2.000   0.816
  451SOL    HW1 2252   1.054   2.085   0.819
  451SOL    HW2 2253   1.083   1.950   0.732
  452SOL     OW 2254   5.056   5.539   2.837
  452SOL    HW1 2255   5.015   5.450   2.860
  452SOL    HW2 2256   5.042   5.603   2.912
  453SOL     OW 2257   3.579   0.930   6.918
  453SOL    HW1 2258   3.676   0.954   6.913
  453SOL    HW2 2259   3.540   0.968   7.001
  454SOL     OW 2260   6.668   3.170   5.730
  454SOL    HW1 2261   6.580   3.215   5.715
  454SOL    HW2 2262   6.737   3.209   5.668
  455SOL     OW 2263   5.482   5.336   6.066
  455SOL    HW1 2264   5.386   5.356   6.046
  455SOL    HW2 2265   5.487   5.268   6.139
  456SOL     OW 2266   2.849   1.248   2.496
  456SOL    HW1 2267   2.852   1.320   2.566
  456SOL    HW2 2268   2.813   1.164   2.537
  457SOL     OW 2269   2.641   6.442   6.901
  457SOL    HW1 2270   2.688   6.395   6.827
  457SOL    HW2 2271   2.543   6.422   6.897
  458SOL     OW 2272   3.691   1.188   2.610
  458SOL    HW1 2273   3.770   1.229   2.657
  458SOL    HW2 2274   3.631   1.260   2.577
  459SOL     OW 2275   3.175   0.536   3.441
  459SOL    HW1 2276   3.259   0.505   3.486
  459SOL    HW2 2277   3.177   0.636   3.431
  460SOL     OW 2278   0.779   1.850   6.560
  460SOL    HW1 2279   0.788   1.757   6.596
  460SOL    HW2 2280   0.688   1.885   6.580
  461SOL     OW 2281   1.402   5.719   5.325
  461SOL    HW1 2282   1.415   5.727   5.226
  461SOL    HW2 2283   1.387   5.624   5.350
  462SOL     OW 2284   3.424   4.139   4.771
  462SOL    HW1 2285   3.329   4.147   4.743
  462SOL    HW2 2286   3.464   4.230   4.783
  463SOL     OW 2287   5.207   6.147   4.301
  463SOL    HW1 2288   5.306   6.137   4.313
  463SOL    HW2 2289   5.177   6.233   4.342
  464SOL     OW 2290   3.753   5.158   6.260
  464SOL    HW1 2291   3.671   5.196   6.218
  464SOL    HW2 2292   3.806   5.108   6.191
  465SOL     OW 2293   0.817   4.140   0.441
  465SOL    HW1 2294   0.776   4.177   0.357
  465SOL    HW2 2295   0.851   4.048   0.423
  466SOL     OW 2296   3.940   5.174   4.195
  466SOL    HW1 2297   4.023   5.173   4.250
  466SOL    HW2 2298   3.915   5.080   4.171
  467SOL     OW 2299   6.208   0.419   2.654
  467SOL    HW1 2300   6.110   0.396   2.655
  467SOL    HW2 2301   6.252   0.379   2.735
  468SOL     OW 2302   2.620   5.826   6.370
  468SOL    HW1 2303   2.552   5.802   6.301
  468SOL    HW2 2304   2.683   5.750   6.382
  469SOL     OW 2305   2.648   4.755   4.791
  469SOL    HW1 2306   2.711   4.709   4.854
  469SOL    HW2 2307   2.613   4.837   4.835
  470SOL     OW 2308   2.173   4.894   2.493
  470SOL    HW1 2309   2.131   4.841   2.566
  470SOL    HW2 2310   2.187   4.836   2.413
  471SOL     OW 2311   1.484   2.070   4.077
  471SOL    HW1 2312   1.400   2.051   4.128
  471SOL    HW2 2313   1.474   2.157   4.028
  472SOL     OW 2314   5.138   3.426   6.903
  472SOL    HW1 2315   5.046   3.427   6.865
  472SOL    HW2 2316   5.201   3.470   6.839
  473SOL     OW 2317   5.992   3.202   2.477
  473SOL    HW1 2318   6.054   3.280   2.465
  473SOL    HW2 2319   5.900   3.228   2.448
  474SOL     OW 2320   4.743   5.724   4.188
  474SOL    HW1 2321   4.796   5.655   4.237
  474SOL    HW2 2322   4.649   5.692   4.177
  475SOL     OW 2323   5.601   1.791   0.594
  475SOL    HW1 2324   5.616   1.858   0.666
  475SOL    HW2 2325   5.504   1.792   0.567
  476SOL     OW 2326   1.337   4.022   6.851
  476SOL    HW1 2327   1.310   3.926   6.858
  476SOL    HW2 2328   1.360   4.043   6.756
  477SOL     OW 2329   1.537   4.844   3.465
  477SOL    HW1 2330   1.576   4.889   3.545
  477SOL    HW2 2331   1.556   4.899   3.383
  478SOL     OW 2332   5.232   6.122   2.757
  478SOL    HW1 2333   5.177   6.202   2.782
  478SOL    HW2 2334   5.175   6.041   2.755
  479SOL     OW 2335   3.508   4.167   3.244
  479SOL    HW1 2336   3.429   4.147   3.302
  479SOL    HW2 2337   3.482   4.159   3.148
  480SOL     OW 2338   1.413   1.015   2.636
  480SOL    HW1 2339   1.420   1.034   2.734
  480SOL    HW2 2340   1.504   0.994   2.599
  481SOL     OW 2341   6.609   0.174   0.985
  481SOL    HW1 2342   6.636   0.134   0.898
  481SOL    HW2 2343   6.679   0.154   1.054
  482SOL     OW 2344   4.364   4.753   2.446
  482SOL    HW1 2345   4.395   4.687   2.378
  482SOL    HW2 2346   4.292   4.810   2.406
  483SOL     OW 2347   5.844   2.144   4.073
  483SOL    HW1 2348   5.772   2.109   4.013
  483SOL    HW2 2349   5.903   2.206   4.021
  484SOL     OW 2350   2.241   4.583   3.631
  484SOL    HW1 2351   2.285   4.649   3.692
  484SOL    HW2 2352   2.164   4.627   3.584
  485SOL     OW 2353   5.602   2.667   1.397
  485SOL    HW1 2354   5.629   2.756   1.362
  485SOL    HW2 2355   5.547   2.619   1.329
  486SOL     OW 2356   5.952   6.503   5.944
  486SOL    HW1 2357   5.967   6.575   5.876
  486SOL    HW2 2358   5.983   6.416   5.906
  487SOL     OW 2359   0.402   0.353   6.373
  487SOL    HW1 2360   0.305   0.375   6.358
  487SOL    HW2 2361   0.419   0.258   6.345
  488SOL     OW 2362   2.318   5.533   3.375
  488SOL    HW1 2363   2.398   5.529   3.435
  488SOL    HW2 2364   2.266   5.616   3.393
  489SOL     OW 2365   1.970   5.535   5.598
  489SOL    HW1 2366   1.952   5.623   5.642
  489SOL    HW2 2367   2.069   5.519   5.594
  490SOL     OW 2368   0.959   4.007   4.671
  490SOL    HW1 2369   0.995   4.095   4.638
  490SOL    HW2 2370   1.034   3.943   4.685
  491SOL     OW 2371   6.942   2.733   0.686
  491SOL    HW1 2372   6.861   2.683   0.654
  491SOL    HW2 2373   6.977   2.790   0.611
  492SOL     OW 2374   1.314   3.115   5.222
  492SOL    HW1 2375   1.382   3.096   5.151
  492SOL    HW2 2376   1.339   3.066   5.306
  493SOL     OW 2377   1.685   4.970   4.487
  493SOL    HW1 2378   1.778   5.008   4.484
  493SOL    HW2 2379   1.631   5.019   4.556
  494SOL     OW 2380   2.425   6.508   4.057
  494SOL    HW1 2381   2.454   6.493   3.962
  494SOL    HW2 2382   2.493   6.563   4.105
  495SOL     OW 2383   3.728   4.120   6.453
  495SOL    HW1 2384   3.661   4.118   6.527
  495SOL    HW2 2385   3.736   4.213   6.417
  496SOL     OW 2386   5.086   1.262   3.380
  496SOL    HW1 2387   5.004   1.230   3.428
  496SOL    HW2 2388   5.156   1.287   3.446
  497SOL     OW 2389   4.732   1.868   6.992
  497SOL    HW1 2390   4.658   1.932   6.967
  497SOL    HW2 2391   4.820   1.915   6.987
  498SOL     OW 2392   0.042   0.491   1.587
  498SOL    HW1 2393   0.118   0.549   1.617
  498SOL    HW2 2394   6.983   0.501   1.650
  499SOL     OW 2395   2.555   5.873   0.412
  499SOL    HW1 2396   2.626   5.810   0.381
  499SOL    HW2 2397   2.470   5.822   0.429
  500SOL     OW 2398   5.375   1.777   6.480
  500SOL    HW1 2399   5.306   1.748   6.546
  500SOL    HW2 2400   5.459   1.802   6.528
  501SOL     OW 2401   1.328   0.901   4.982
  501SOL    HW1 2402   1.306   0.971   4.915
  501SOL    HW2 2403   1.428   0.891   4.988
  502SOL     OW 2404   2.596   4.639   6.903
  502SOL    HW1 2405   2.670   4.582   6.938
  502SOL    HW2 2406   2.543   4.588   6.835
  503SOL     OW 2407   3.727   5.728   0.809
  503SOL    HW1 2408   3.764   5.739   0.717
  503SOL    HW2 2409   3.659   5.654   0.809
  504SOL     OW 2410   6.453   5.836   1.674
  504SOL    HW1 2411   6.508   5.884   1.743
  504SOL    HW2 2412   6.372   5.890   1.652
  505SOL     OW 2413   5.522   5.672   5.398
  505SOL    HW1 2414   5.598   5.623   5.441
  505SOL    HW2 2415   5.539   5.680   5.300
  506SOL     OW 2416   3.373   4.908   3.330
  506SOL    HW1 2417   3.347   5.005   3.325
  506SOL    HW2 2418   3.297   4.851   3.300
  507SOL     OW 2419   3.039   1.105   1.593
  507SOL    HW1 2420   3.021   1.199   1.623
  507SOL    HW2 2421   3.034   1.101   1.493
  508SOL     OW 2422   0.275   4.682   3.428
  508SOL    HW1 2423   0.183   4.718   3.414
  508SOL    HW2 2424   0.334   4.753   3.467
  509SOL     OW 2425   4.362   6.661   6.181
  509SOL    HW1 2426   4.415   6.618   6.255
  509SOL    HW2 2427   4.422   6.718   6.126
  510SOL     OW 2428   6.569   3.855   0.137
  510SOL    HW1 2429   6.658   3.887   0.106
  510SOL    HW2 2430   6.581   3.772   0.192
  511SOL     OW 2431   0.839   1.333   0.312
  511SOL    HW1 2432   0.858   1.427   0.342
  511SOL    HW2 2433   0.922   1.294   0.272
  512SOL     OW 2434   0.440   2.455   3.844
  512SOL    HW1 2435   0.461   2.520   3.917
  512SOL    HW2 2436   0.520   2.398   3.827
  513SOL     OW 2437   5.022   0.313   3.419
  513SOL    HW1 2438   4.960   0.244   3.381
  513SOL    HW2 2439   5.005   0.401   3.374
  514SOL     OW 2440   5.297   1.030   5.389
  514SOL    HW1 2441   5.307   1.011   5.291
  514SOL    HW2 2442   5.215   1.086   5.404
  515SOL     OW 2443   3.760   0.370   6.548
  515SOL    HW1 2444   3.854   0.341   6.526
  515SOL    HW2 2445   3.737   0.340   6.640
  516SOL     OW 2446   2.218   6.267   2.289
  516SOL    HW1 2447   2.208   6.175   2.327
  516SOL    HW2 2448   2.251   6.261   2.194
  517SOL     OW 2449   3.053   5.335   1.780
  517SOL    HW1 2450   3.094   5.282   1.705
  517SOL    HW2 2451   3.085   5.430   1.774
  518SOL     OW 2452   1.665   4.756   4.287
  518SOL    HW1 2453   1.690   4.832   4.348
  518SOL    HW2 2454   1.739   4.689   4.285
  519SOL     OW 2455   0.204   6.884   2.379
  519SOL    HW1 2456   0.292   6.916   2.344
  519SOL    HW2 2457   0.172   6.946   2.451
  520SOL     OW 2458   2.336   4.175   0.443
  520SOL    HW1 2459   2.400   4.227   0.500
  520SOL    HW2 2460   2.352   4.077   0.458
  521SOL     OW 2461   6.533   5.996   5.056
  521SOL    HW1 2462   6.590   5.925   5.015
  521SOL    HW2 2463   6.543   6.081   5.005
  522SOL     OW 2464   3.816   4.338   0.526
  522SOL    HW1 2465   3.754   4.389   0.586
  522SOL    HW2 2466   3.900   4.391   0.513
  523SOL     OW 2467   0.823   0.188   0.362
  523SOL    HW1 2468   0.873   0.125   0.302
  523SOL    HW2 2469   0.765   0.136   0.424
  524SOL     OW 2470   6.801   1.677   0.543
  524SOL    HW1 2471   6.863   1.745   0.504
  524SOL    HW2 2472   6.854   1.604   0.586
  525SOL     OW 2473   0.732   3.170   3.852
  525SOL    HW1 2474   0.822   3.201   3.884
  525SOL    HW2 2475   0.721   3.191   3.755
  526SOL     OW 2476   3.918   0.214   3.829
  526SOL    HW1 2477   3.948   0.203   3.734
  526SOL    HW2 2478   3.830   0.261   3.831
  527SOL     OW 2479   0.252   1.620   0.750
  527SOL    HW1 2480   0.349   1.621   0.726
  527SOL    HW2 2481   0.199   1.661   0.676
  528SOL     OW 2482   6.841   2.663   4.497
  528SOL    HW1 2483   6.903   2.695   4.569
  528SOL    HW2 2484   6.829   2.735   4.429
  529SOL     OW 2485   1.827   6.914   6.981
  529SOL    HW1 2486   1.771   6.837   7.012
  529SOL    HW2 2487   1.889   6.941   0.036
  530SOL     OW 2488   3.401   4.906   1.127
  530SOL    HW1 2489   3.389   4.967   1.205
  530SOL    HW2 2490   3.478   4.845   1.143
  531SOL     OW 2491   1.324   0.008   0.469
  531SOL    HW1 2492   1.356   7.001   0.560
  531SOL    HW2 2493   1.403   0.025   0.410
  532SOL     OW 2494   1.796   2.117   5.685
  532SOL    HW1 2495   1.753   2.038   5.728
  532SOL    HW2 2496   1.777   2.199   5.741
  533SOL     OW 2497   4.084   0.541   3.957
  533SOL    HW1 2498   4.163   0.498   3.913
  533SOL    HW2 2499   4.074   0.635   3.923
  534SOL     OW 2500   1.637   4.183   1.727
  534SOL    HW1 2501   1.713   4.121   1.748
  534SOL    HW2 2502   1.588   4.204   1.812
  535SOL     OW 2503   5.056   3.253   4.104
  535SOL    HW1 2504   5.021   3.221   4.016
  535SOL    HW2 2505   4.986   3.242   4.174
  536SOL     OW 2506   6.281   6.807   2.062
  536SOL    HW1 2507   6.300   6.721   2.110
  536SOL    HW2 2508   6.207   6.856   2.108
  537SOL     OW 2509   3.077   2.063   2.865
  537SOL    HW1 2510   2.980   2.051   2.888
  537SOL    HW2 2511   3.121   1.974   2.858
  538SOL     OW 2512   3.475   5.017   4.803
  538SOL    HW1 2513   3.422   4.980   4.879
  538SOL    HW2 2514   3.423   5.089   4.758
  539SOL     OW 2515   1.196   0.388   6.511
  539SOL    HW1 2516   1.169   0.407   6.416
  539SOL    HW2 2517   1.231   0.295   6.517
  540SOL     OW 2518   1.490   0.613   5.062
  540SOL    HW1 2519   1.416   0.575   5.006
  540SOL    HW2 2520   1.573   0.621   5.007
  541SOL     OW 2521   5.204   5.787   4.129
  541SOL    HW1 2522   5.168   5.798   4.222
  541SOL    HW2 2523   5.139   5.737   4.073
  542SOL     OW 2524   3.672   6.625   5.496
  542SOL    HW1 2525   3.736   6.691   5.455
  542SOL    HW2 2526   3.697   6.610   5.591
  543SOL     OW 2527   6.479   2.173   3.524
  543SOL    HW1 2528   6.391   2.199   3.487
  543SOL    HW2 2529   6.546   2.246   3.506
  544SOL     OW 2530   1.333   3.221   1.548
  544SOL    HW1 2531   1.404   3.157   1.575
  544SOL    HW2 2532   1.345   3.246   1.452
  545SOL     OW 2533   6.631   6.671   1.162
  545SOL    HW1 2534   6.549   6.716   1.197
  545SOL    HW2 2535   6.630   6.574   1.187
  546SOL     OW 2536   6.917   4.352   2.317
  546SOL    HW1 2537   6.891   4.428   2.377
  546SOL    HW2 2538   7.017   4.346   2.313
  547SOL     OW 2539   5.365   0.295   6.165
  547SOL    HW1 2540   5.343   0.229   6.237
  547SOL    HW2 2541   5.331   0.261   6.077
  548SOL     OW 2542   3.931   2.473   6.865
  548SOL    HW1 2543   4.021   2.452   6.828
  548SOL    HW2 2544   3.940   2.538   6.940
  549SOL     OW 2545   5.526   1.621   1.892
  549SOL    HW1 2546   5.587   1.696   1.917
  549SOL    HW2 2547   5.433   1.641   1.924
  550SOL     OW 2548   0.229   6.029   3.333
  550SOL    HW1 2549   0.284   5.967   3.390
  550SOL    HW2 2550   0.166   6.080   3.391
  551SOL     OW 2551   6.103   0.555   0.645
  551SOL    HW1 2552   6.038   0.527   0.574
  551SOL    HW2 2553   6.093   0.495   0.724
  552SOL     OW 2554   0.676   6.294   5.467
  552SOL    HW1 2555   0.605   6.278   5.536
  552SOL    HW2 2556   0.633   6.300   5.377
  553SOL     OW 2557   3.560   1.829   6.912
  553SOL    HW1 2558   3.597   1.897   6.849
  553SOL    HW2 2559   3.540   1.872   7.000
  554SOL     OW 2560   6.299   6.262   0.908
  554SOL    HW1 2561   6.288   6.217   0.819
  554SOL    HW2 2562   6.326   6.357   0.894
  555SOL     OW 2563   1.932   3.737   5.079
  555SOL    HW1 2564   1.849   3.692   5.111
  555SOL    HW2 2565   2.013   3.687   5.111
  556SOL     OW 2566   5.830   0.162   3.630
  556SOL    HW1 2567   5.732   0.155   3.611
  556SOL    HW2 2568   5.862   0.075   3.669
  557SOL     OW 2569   6.158   4.358   6.824
  557SOL    HW1 2570   6.207   4.394   6.744
  557SOL    HW2 2571   6.145   4.260   6.814
  558SOL     OW 2572   3.410   3.533   2.623
  558SOL    HW1 2573   3.353   3.550   2.703
  558SOL    HW2 2574   3.372   3.456   2.571
  559SOL     OW 2575   6.305   7.006   5.692
  559SOL    HW1 2576   6.229   0.050   5.715
  559SOL    HW2 2577   6.321   7.008   5.594
  560SOL     OW 2578   6.641   3.069   4.260
  560SOL    HW1 2579   6.606   3.157   4.291
  560SOL    HW2 2580   6.567   3.003   4.256
  561SOL     OW 2581   0.684   2.947   0.427
  561SOL    HW1 2582   0.705   2.976   0.520
  561SOL    HW2 2583   0.762   2.898   0.389
  562SOL     OW 2584   4.055   6.715   4.653
  562SOL    HW1 2585   4.124   6.787   4.642
  562SOL    HW2 2586   4.098   6.632   4.688
  563SOL     OW 2587   1.589   0.208   3.978
  563SOL    HW1 2588   1.572   0.160   4.063
  563SOL    HW2 2589   1.502   0.219   3.928
  564SOL     OW 2590   5.978   1.838   6.336
  564SOL    HW1 2591   6.062   1.834   6.391
  564SOL    HW2 2592   5.928   1.922   6.359
  565SOL     OW 2593   3.659   3.643   3.723
  565SOL    HW1 2594   3.738   3.681   3.674
  565SOL    HW2 2595   3.688   3.609   3.812
  566SOL     OW 2596   3.108   0.835   3.840
  566SOL    HW1 2597   3.051   0.795   3.768
  566SOL    HW2 2598   3.087   0.932   3.850
  567SOL     OW 2599   2.598   2.653   5.560
  567SOL    HW1 2600   2.545   2.711   5.622
  567SOL    HW2 2601   2.648   2.710   5.495
  568SOL     OW 2602   0.476   6.311   0.316
  568SOL    HW1 2603   0.550   6.290   0.252
  568SOL    HW2 2604   0.511   6.309   0.410
  569SOL     OW 2605   6.334   3.943   0.158
  569SOL    HW1 2606   6.346   4.042   0.151
  569SOL    HW2 2607   6.422   3.897   0.151
  570SOL     OW 2608   2.758   0.525   6.171
  570SOL    HW1 2609   2.735   0.613   6.212
  570SOL    HW2 2610   2.770   0.537   6.073
  571SOL     OW 2611   1.936   4.270   1.150
  571SOL    HW1 2612   2.016   4.226   1.190
  571SOL    HW2 2613   1.955   4.293   1.054
  572SOL     OW 2614   2.776   0.363   4.640
  572SOL    HW1 2615   2.735   0.432   4.581
  572SOL    HW2 2616   2.712   0.339   4.713
  573SOL     OW 2617   0.241   1.137   5.065
  573SOL    HW1 2618   0.244   1.048   5.110
  573SOL    HW2 2619   0.170   1.137   4.995
  574SOL     OW 2620   2.091   1.548   6.103
  574SOL    HW1 2621   2.114   1.612   6.176
  574SOL    HW2 2622   2.079   1.598   6.017
  575SOL     OW 2623   3.970   3.659   6.992
  575SOL    HW1 2624   3.948   3.585   0.036
  575SOL    HW2 2625   3.985   3.744   0.025
  576SOL     OW 2626   2.042   2.345   2.456
  576SOL    HW1 2627   1.957   2.355   2.404
  576SOL    HW2 2628   2.068   2.434   2.495
  577SOL     OW 2629   0.456   1.071   1.352
  577SOL    HW1 2630   0.379   1.135   1.346
  577SOL    HW2 2631   0.422   0.977   1.351
  578SOL     OW 2632   3.302   0.061   6.593
  578SOL    HW1 2633   3.319   0.035   6.498
  578SOL    HW2 2634   3.317   0.159   6.604
  579SOL     OW 2635   1.836   3.996   1.751
  579SOL    HW1 2636   1.871   3.950   1.832
  579SOL    HW2 2637   1.907   4.055   1.712
  580SOL     OW 2638   4.816   5.554   4.630
  580SOL    HW1 2639   4.787   5.468   4.672
  580SOL    HW2 2640   4.819   5.625   4.700
  581SOL     OW 2641   2.178   2.703   5.069
  581SOL    HW1 2642   2.250   2.753   5.022
  581SOL    HW2 2643   2.176   2.608   5.036
  582SOL     OW 2644   4.991   4.923   4.139
  582SOL    HW1 2645   4.977   4.867   4.220
  582SOL    HW2 2646   4.971   5.019   4.160
  583SOL     OW 2647   3.906   6.082   5.768
  583SOL    HW1 2648   3.823   6.126   5.733
  583SOL    HW2 2649   3.901   6.076   5.868
  584SOL     OW 2650   4.203   0.988   5.477
  584SOL    HW1 2651   4.149   1.056   5.528
  584SOL    HW2 2652   4.282   1.034   5.435
  585SOL     OW 2653   3.690   0.417   1.208
  585SOL    HW1 2654   3.709   0.343   1.144
  585SOL    HW2 2655   3.678   0.380   1.300
  586SOL     OW 2656   3.638   0.804   0.630
  586SOL    HW1 2657   3.698   0.750   0.571
  586SOL    HW2 2658   3.622   0.893   0.588
  587SOL     OW 2659   5.150   2.079   1.872
  587SOL    HW1 2660   5.137   2.137   1.792
  587SOL    HW2 2661   5.081   2.102   1.941
  588SOL     OW 2662   1.783   4.610   3.111
  588SOL    HW1 2663   1.748   4.703   3.098
  588SOL    HW2 2664   1.739   4.549   3.045
  589SOL     OW 2665   3.116   5.410   0.404
  589SOL    HW1 2666   3.020   5.400   0.430
  589SOL    HW2 2667   3.162   5.471   0.468
  590SOL     OW 2668   3.514   2.269   0.277
  590SOL    HW1 2669   3.420   2.300   0.295
  590SOL    HW2 2670   3.524   2.175   0.309
  591SOL     OW 2671   3.213   5.752   3.769
  591SOL    HW1 2672   3.261   5.782   3.688
  591SOL    HW2 2673   3.212   5.652   3.772
  592SOL     OW 2674   3.502   1.666   4.838
  592SOL    HW1 2675   3.465   1.623   4.920
  592SOL    HW2 2676   3.509   1.765   4.853
  593SOL     OW 2677   2.321   2.046   0.031
  593SOL    HW1 2678   2.240   2.091   0.068
  593SOL    HW2 2679   2.382   2.020   0.106
  594SOL     OW 2680   4.621   0.974   2.589
  594SOL    HW1 2681   4.603   0.895   2.531
  594SOL    HW2 2682   4.717   1.001   2.579
  595SOL     OW 2683   5.998   5.731   2.744
  595SOL    HW1 2684   5.983   5.708   2.840
  595SOL    HW2 2685   5.972   5.827   2.728
  596SOL     OW 2686   6.461   4.777   4.524
  596SOL    HW1 2687   6.411   4.743   4.445
  596SOL    HW2 2688   6.546   4.725   4.535
  597SOL     OW 2689   3.049   1.211   6.760
  597SOL    HW1 2690   3.055   1.286   6.827
  597SOL    HW2 2691   2.953   1.189   6.743
  598SOL     OW 2692   3.489   4.128   4.227
  598SOL    HW1 2693   3.390   4.117   4.240
  598SOL    HW2 2694   3.531   4.157   4.313
  599SOL     OW 2695   1.288   5.138   1.233
  599SOL    HW1 2696   1.220   5.138   1.160
  599SOL    HW2 2697   1.367   5.083   1.205
  600SOL     OW 2698   6.570   3.463   5.185
  600SOL    HW1 2699   6.608   3.471   5.093
  600SOL    HW2 2700   6.599   3.542   5.240
  601SOL     OW 2701   1.129   6.441   5.990
  601SOL    HW1 2702   1.224   6.457   5.966
  601SOL    HW2 2703   1.080   6.407   5.909
  602SOL     OW 2704   2.359   0.300   3.314
  602SOL    HW1 2705   2.412   0.232   3.263
  602SOL    HW2 2706   2.270   0.262   3.339
  603SOL     OW 2707   1.583   1.588   4.531
  603SOL    HW1 2708   1.624   1.679   4.527
  603SOL    HW2 2709   1.563   1.557   4.438
  604SOL     OW 2710   6.104   3.019   1.179
  604SOL    HW1 2711   6.038   3.090   1.155
  604SOL    HW2 2712   6.056   2.944   1.225
  605SOL     OW 2713   6.580   6.528   1.473
  605SOL    HW1 2714   6.545   6.434   1.469
  605SOL    HW2 2715   6.518   6.588   1.422
  606SOL     OW 2716   3.717   7.015   4.706
  606SOL    HW1 2717   3.640   0.039   4.658
  606SOL    HW2 2718   3.706   6.916   4.706
  607SOL     OW 2719   1.731   3.154   5.361
  607SOL    HW1 2720   1.691   3.067   5.330
  607SOL    HW2 2721   1.830   3.150   5.352
  608SOL     OW 2722   3.240   1.177   5.800
  608SOL    HW1 2723   3.185   1.146   5.722
  608SOL    HW2 2724   3.183   1.182   5.882
  609SOL     OW 2725   3.189   2.861   1.915
  609SOL    HW1 2726   3.134   2.788   1.875
  609SOL    HW2 2727   3.209   2.930   1.845
  610SOL     OW 2728   4.610   3.482   1.693
  610SOL    HW1 2729   4.640   3.399   1.646
  610SOL    HW2 2730   4.515   3.471   1.723
  611SOL     OW 2731   3.396   0.827   3.157
  611SOL    HW1 2732   3.475   0.870   3.112
  611SOL    HW2 2733   3.408   0.728   3.157
  612SOL     OW 2734   4.448   5.004   4.559
  612SOL    HW1 2735   4.505   4.940   4.610
  612SOL    HW2 2736   4.466   4.993   4.461
  613SOL     OW 2737   4.012   4.535   5.349
  613SOL    HW1 2738   3.944   4.463   5.363
  613SOL    HW2 2739   3.985   4.591   5.271
  614SOL     OW 2740   2.696   6.202   5.924
  614SOL    HW1 2741   2.674   6.172   6.017
  614SOL    HW2 2742   2.780   6.157   5.894
  615SOL     OW 2743   0.901   5.120   2.555
  615SOL    HW1 2744   0.895   5.142   2.457
  615SOL    HW2 2745   0.884   5.203   2.609
  616SOL     OW 2746   5.946   2.947   3.427
  616SOL    HW1 2747   6.008   2.903   3.362
  616SOL    HW2 2748   5.854   2.908   3.418
  617SOL     OW 2749   3.029   6.521   5.963
  617SOL    HW1 2750   3.015   6.547   6.059
  617SOL    HW2 2751   2.940   6.507   5.919
  618SOL     OW 2752   1.773   1.226   2.446
  618SOL    HW1 2753   1.746   1.322   2.455
  618SOL    HW2 2754   1.865   1.221   2.407
  619SOL     OW 2755   0.453   1.733   6.873
  619SOL    HW1 2756   0.444   1.748   6.775
  619SOL    HW2 2757   0.518   1.799   6.911
  620SOL     OW 2758   4.397   3.516   1.463
  620SOL    HW1 2759   4.342   3.519   1.380
  620SOL    HW2 2760   4.479   3.571   1.450
  621SOL     OW 2761   0.494   5.411   1.241
  621SOL    HW1 2762   0.452   5.502   1.243
  621SOL    HW2 2763   0.554   5.404   1.161
  622SOL     OW 2764   0.860   0.806   6.631
  622SOL    HW1 2765   0.916   0.724   6.628
  622SOL    HW2 2766   0.918   0.887   6.619
  623SOL     OW 2767   0.609   4.784   5.865
  623SOL    HW1 2768   0.672   4.855   5.833
  623SOL    HW2 2769   0.605   4.785   5.965
  624SOL     OW 2770   0.626   1.746   1.342
  624SOL    HW1 2771   0.717   1.773   1.311
  624SOL    HW2 2772   0.567   1.733   1.263
  625SOL     OW 2773   1.471   1.403   2.327
  625SOL    HW1 2774   1.484   1.432   2.232
  625SOL    HW2 2775   1.423   1.475   2.377
  626SOL     OW 2776   3.286   6.933   4.493
  626SOL    HW1 2777   3.262   6.901   4.401
  626SOL    HW2 2778   3.329   6.859   4.544
  627SOL     OW 2779   5.229   0.945   6.990
  627SOL    HW1 2780   5.206   1.000   0.052
  627SOL    HW2 2781   5.322   0.909   6.999
  628SOL     OW 2782   5.359   4.123   3.292
  628SOL    HW1 2783   5.310   4.048   3.249
  628SOL    HW2 2784   5.306   4.208   3.282
  629SOL     OW 2785   1.680   6.594   0.439
  629SOL    HW1 2786   1.585   6.625   0.433
  629SOL    HW2 2787   1.698   6.559   0.531
  630SOL     OW 2788   2.986   1.696   1.529
  630SOL    HW1 2789   2.900   1.648   1.512
  630SOL    HW2 2790   2.968   1.794   1.541
  631SOL     OW 2791   2.042   6.736   4.863
  631SOL    HW1 2792   1.982   6.759   4.940
  631SOL    HW2 2793   1.987   6.697   4.789
  632SOL     OW 2794   1.903   0.818   1.359
  632SOL    HW1 2795   1.970   0.840   1.288
  632SOL    HW2 2796   1.811   0.829   1.322
  633SOL     OW 2797   2.177   6.600   5.522
  633SOL    HW1 2798   2.105   6.560   5.578
  633SOL    HW2 2799   2.141   6.679   5.472
  634SOL     OW 2800   3.111   5.886   1.330
  634SOL    HW1 2801   3.096   5.948   1.407
  634SOL    HW2 2802   3.063   5.799   1.347
  635SOL     OW 2803   2.871   0.545   2.364
  635SOL    HW1 2804   2.870   0.568   2.462
  635SOL    HW2 2805   2.777   0.549   2.328
  636SOL     OW 2806   5.169   5.403   0.280
  636SOL    HW1 2807   5.236   5.439   0.344
  636SOL    HW2 2808   5.169   5.459   0.197
  637SOL     OW 2809   5.516   4.673   0.800
  637SOL    HW1 2810   5.585   4.714   0.859
  637SOL    HW2 2811   5.473   4.596   0.849
  638SOL     OW 2812   5.388   1.287   2.309
  638SOL    HW1 2813   5.441   1.205   2.332
  638SOL    HW2 2814   5.450   1.359   2.277
  639SOL     OW 2815   4.688   4.530   2.550
  639SOL    HW1 2816   4.669   4.462   2.479
  639SOL    HW2 2817   4.649   4.500   2.637
  640SOL     OW 2818   2.312   4.324   5.793
  640SOL    HW1 2819   2.368   4.407   5.788
  640SOL    HW2 2820   2.285   4.297   5.701
  641SOL     OW 2821   0.328   5.800   5.640
  641SOL    HW1 2822   0.272   5.743   5.699
  641SOL    HW2 2823   0.376   5.742   5.574
  642SOL     OW 2824   1.500   4.357   5.895
  642SOL    HW1 2825   1.442   4.296   5.841
  642SOL    HW2 2826   1.471   4.451   5.881
  643SOL     OW 2827   6.003   6.002   4.892
  643SOL    HW1 2828   5.936   5.928   4.896
  643SOL    HW2 2829   5.955   6.089   4.880
  644SOL     OW 2830   2.518   6.139   2.191
  644SOL    HW1 2831   2.598   6.083   2.172
  644SOL    HW2 2832   2.489   6.127   2.286
  645SOL     OW 2833   6.033   2.930   3.685
  645SOL    HW1 2834   6.003   2.954   3.593
  645SOL    HW2 2835   6.000   2.998   3.750
  646SOL     OW 2836   1.287   1.975   4.818
  646SOL    HW1 2837   1.230   2.026   4.882
  646SOL    HW2 2838   1.383   1.985   4.843
  647SOL     OW 2839   4.971   3.411   0.601
  647SOL    HW1 2840   4.896   3.462   0.559
  647SOL    HW2 2841   5.057   3.460   0.584
  648SOL     OW 2842   4.781   1.882   3.553
  648SOL    HW1 2843   4.850   1.811   3.567
  648SOL    HW2 2844   4.696   1.854   3.597
  649SOL     OW 2845   4.335   4.550   1.954
  649SOL    HW1 2846   4.421   4.504   1.931
  649SOL    HW2 2847   4.269   4.537   1.880
  650SOL     OW 2848   4.603   3.595   1.289
  650SOL    HW1 2849   4.636   3.679   1.246
  650SOL    HW2 2850   4.543   3.547   1.226
  651SOL     OW 2851   1.003   5.826   6.138
  651SOL    HW1 2852   1.005   5.815   6.237
  651SOL    HW2 2853   0.984   5.737   6.095
  652SOL     OW 2854   4.751   1.522   2.788
  652SOL    HW1 2855   4.816   1.582   2.834
  652SOL    HW2 2856   4.688   1.483   2.857
  653SOL     OW 2857   3.937   5.067   3.564
  653SOL    HW1 2858   3.932   4.983   3.618
  653SOL    HW2 2859   4.032   5.086   3.539
  654SOL     OW 2860   6.820   5.269   0.011
  654SOL    HW1 2861   6.880   5.349   0.017
  654SOL    HW2 2862   6.733   5.289   0.056
  655SOL     OW 2863   6.989   1.242   6.798
  655SOL    HW1 2864   6.954   1.164   6.746
  655SOL    HW2 2865   0.062   1.220   6.834
  656SOL     OW 2866   2.375   6.070   1.446
  656SOL    HW1 2867   2.413   6.071   1.353
  656SOL    HW2 2868   2.447   6.089   1.512
  657SOL     OW 2869   4.166   1.153   6.545
  657SOL    HW1 2870   4.209   1.234   6.584
  657SOL    HW2 2871   4.070   1.172   6.524
  658SOL     OW 2872   3.548   5.213   5.623
  658SOL    HW1 2873   3.646   5.220   5.600
  658SOL    HW2 2874   3.529   5.123   5.660
  659SOL     OW 2875   2.689   0.573   6.836
  659SOL    HW1 2876   2.634   0.655   6.820
  659SOL    HW2 2877   2.653   0.498   6.780
  660SOL     OW 2878   3.631   5.599   3.218
  660SOL    HW1 2879   3.695   5.527   3.242
  660SOL    HW2 2880   3.615   5.658   3.297
  661SOL     OW 2881   5.470   5.833   3.154
  661SOL    HW1 2882   5.434   5.894   3.084
  661SOL    HW2 2883   5.566   5.854   3.171
  662SOL     OW 2884   3.500   1.241   0.606
  662SOL    HW1 2885   3.430   1.182   0.647
  662SOL    HW2 2886   3.573   1.257   0.672
  663SOL     OW 2887   2.146   4.685   4.953
  663SOL    HW1 2888   2.081   4.754   4.922
  663SOL    HW2 2889   2.145   4.607   4.890
  664SOL     OW 2890   5.923   1.189   6.385
  664SOL    HW1 2891   5.851   1.125   6.358
  664SOL    HW2 2892   6.008   1.139   6.399
  665SOL     OW 2893   1.890   4.887   2.284
  665SOL    HW1 2894   1.872   4.966   2.342
  665SOL    HW2 2895   1.812   4.872   2.223
  666SOL     OW 2896   4.070   1.232   1.060
  666SOL    HW1 2897   4.093   1.329   1.050
  666SOL    HW2 2898   4.105   1.198   1.147
  667SOL     OW 2899   1.197   6.542   2.383
  667SOL    HW1 2900   1.291   6.531   2.416
  667SOL    HW2 2901   1.197   6.604   2.304
  668SOL     OW 2902   5.226   3.777   0.957
  668SOL    HW1 2903   5.278   3.738   0.881
  668SOL    HW2 2904   5.208   3.705   1.024
  669SOL     OW 2905   5.224   1.603   2.359
  669SOL    HW1 2906   5.273   1.585   2.274
  669SOL    HW2 2907   5.244   1.696   2.390
  670SOL     OW 2908   2.791   2.061   2.988
  670SOL    HW1 2909   2.768   2.111   3.072
  670SOL    HW2 2910   2.721   1.992   2.970
  671SOL     OW 2911   2.979   0.079   1.555
  671SOL    HW1 2912   3.078   0.076   1.545
  671SOL    HW2 2913   2.937   0.076   1.464
  672SOL     OW 2914   1.564   6.947   2.389
  672SOL    HW1 2915   1.661   6.971   2.392
  672SOL    HW2 2916   1.516   7.009   2.327
  673SOL     OW 2917   5.731   6.634   0.565
  673SOL    HW1 2918   5.761   6.654   0.471
  673SOL    HW2 2919   5.694   6.542   0.569
  674SOL     OW 2920   6.196   0.971   3.891
  674SOL    HW1 2921   6.291   0.982   3.921
  674SOL    HW2 2922   6.182   0.877   3.861
  675SOL     OW 2923   0.190   3.486   3.085
  675SOL    HW1 2924   0.128   3.457   3.157
  675SOL    HW2 2925   0.138   3.521   3.007
  676SOL     OW 2926   2.494   6.643   6.168
  676SOL    HW1 2927   2.409   6.689   6.145
  676SOL    HW2 2928   2.566   6.672   6.105
  677SOL     OW 2929   5.500   1.569   1.328
  677SOL    HW1 2930   5.506   1.515   1.412
  677SOL    HW2 2931   5.474   1.510   1.252
  678SOL     OW 2932   0.903   5.140   3.672
  678SOL    HW1 2933   0.836   5.159   3.600
  678SOL    HW2 2934   0.917   5.041   3.679
  679SOL     OW 2935   4.695   2.086   5.304
  679SOL    HW1 2936   4.632   2.081   5.226
  679SOL    HW2 2937   4.645   2.116   5.385
  680SOL     OW 2938   6.073   6.490   4.342
  680SOL    HW1 2939   6.051   6.420   4.410
  680SOL    HW2 2940   6.123   6.564   4.386
  681SOL     OW 2941   4.761   5.083   2.775
  681SOL    HW1 2942   4.778   5.101   2.678
  681SOL    HW2 2943   4.681   5.023   2.784
  682SOL     OW 2944   0.668   1.252   3.149
  682SOL    HW1 2945   0.762   1.227   3.171
  682SOL    HW2 2946   0.607   1.216   3.220
  683SOL     OW 2947   3.671   3.858   1.343
  683SOL    HW1 2948   3.709   3.850   1.435
  683SOL    HW2 2949   3.628   3.948   1.333
  684SOL     OW 2950   6.320   1.481   6.112
  684SOL    HW1 2951   6.337   1.498   6.210
  684SOL    HW2 2952   6.298   1.568   6.067
  685SOL     OW 2953   3.262   0.302   3.166
  685SOL    HW1 2954   3.189   0.369   3.155
  685SOL    HW2 2955   3.264   0.242   3.087
  686SOL     OW 2956   4.332   0.260   4.849
  686SOL    HW1 2957   4.279   0.258   4.764
  686SOL    HW2 2958   4.314   0.176   4.901
  687SOL     OW 2959   0.822   1.832   3.269
  687SOL    HW1 2960   0.866   1.819   3.180
  687SOL    HW2 2961   0.805   1.929   3.284
  688SOL     OW 2962   6.387   1.518   6.724
  688SOL    HW1 2963   6.425   1.430   6.694
  688SOL    HW2 2964   6.456   1.568   6.776
  689SOL     OW 2965   1.653   5.799   5.721
  689SOL    HW1 2966   1.715   5.792   5.642
  689SOL    HW2 2967   1.624   5.894   5.733
  690SOL     OW 2968   5.425   3.424   2.535
  690SOL    HW1 2969   5.394   3.330   2.526
  690SOL    HW2 2970   5.472   3.453   2.451
  691SOL     OW 2971   5.776   1.737   0.876
  691SOL    HW1 2972   5.829   1.755   0.959
  691SOL    HW2 2973   5.726   1.651   0.887
  692SOL     OW 2974   1.618   0.181   4.704
  692SOL    HW1 2975   1.667   0.192   4.790
  692SOL    HW2 2976   1.589   0.270   4.670
  693SOL     OW 2977   5.543   5.858   3.569
  693SOL    HW1 2978   5.575   5.912   3.491
  693SOL    HW2 2979   5.444   5.847   3.564
  694SOL     OW 2980   4.832   6.372   5.141
  694SOL    HW1 2981   4.889   6.454   5.137
  694SOL    HW2 2982   4.763   6.375   5.068
  695SOL     OW 2983   4.133   0.179   3.990
  695SOL    HW1 2984   4.060   0.195   3.923
  695SOL    HW2 2985   4.209   0.242   3.972
  696SOL     OW 2986   5.368   3.929   3.084
  696SOL    HW1 2987   5.436   3.866   3.047
  696SOL    HW2 2988   5.403   4.022   3.081
  697SOL     OW 2989   1.092   6.476   2.068
  697SOL    HW1 2990   1.182   6.438   2.087
  697SOL    HW2 2991   1.025   6.439   2.133
  698SOL     OW 2992   5.643   6.693   6.924
  698SOL    HW1 2993   5.599   6.767   6.875
  698SOL    HW2 2994   5.739   6.716   6.939
  699SOL     OW 2995   3.090   3.032   1.408
  699SOL    HW1 2996   3.150   3.010   1.331
  699SOL    HW2 2997   3.110   2.971   1.484
  700SOL     OW 2998   3.882   0.382   4.098
  700SOL    HW1 2999   3.956   0.339   4.148
  700SOL    HW2 3000   3.918   0.431   4.018
  701SOL     OW 3001   4.589   5.231   1.603
  701SOL    HW1 3002   4.527   5.202   1.675
  701SOL    HW2 3003   4.562   5.322   1.570
  702SOL     OW 3004   3.708   0.581   4.280
  702SOL    HW1 3005   3.733   0.496   4.233
  702SOL    HW2 3006   3.756   0.586   4.367
  703SOL     OW 3007   3.478   2.352   6.951
  703SOL    HW1 3008   3.450   2.446   6.968
  703SOL    HW2 3009   3.398   2.292   6.954
  704SOL     OW 3010   2.060   2.337   5.394
  704SOL    HW1 3011   2.045   2.296   5.484
  704SOL    HW2 3012   1.975   2.333   5.341
  705SOL     OW 3013   0.257   6.672   5.249
  705SOL    HW1 3014   0.157   6.681   5.251
  705SOL    HW2 3015   0.295   6.737   5.183
  706SOL     OW 3016   4.545   1.359   5.359
  706SOL    HW1 3017   4.633   1.393   5.326
  706SOL    HW2 3018   4.520   1.407   5.443
  707SOL     OW 3019   3.245   5.140   4.269
  707SOL    HW1 3020   3.296   5.117   4.351
  707SOL    HW2 3021   3.307   5.179   4.201
  708SOL     OW 3022   4.506   5.867   3.989
  708SOL    HW1 3023   4.566   5.947   3.981
  708SOL    HW2 3024   4.470   5.843   3.898
  709SOL     OW 3025   2.283   0.249   1.253
  709SOL    HW1 3026   2.206   0.260   1.314
  709SOL    HW2 3027   2.325   0.338   1.235
  710SOL     OW 3028   4.769   3.013   1.656
  710SOL    HW1 3029   4.712   3.019   1.739
  710SOL    HW2 3030   4.857   2.973   1.680
  711SOL     OW 3031   6.855   2.492   6.760
  711SOL    HW1 3032   6.785   2.446   6.706
  711SOL    HW2 3033   6.823   2.583   6.786
  712SOL     OW 3034   4.969   4.124   0.619
  712SOL    HW1 3035   4.959   4.058   0.694
  712SOL    HW2 3036   5.011   4.079   0.540
  713SOL     OW 3037   3.993   3.244   4.923
  713SOL    HW1 3038   4.013   3.170   4.859
  713SOL    HW2 3039   3.913   3.221   4.977
  714SOL     OW 3040   4.999   5.897   3.064
  714SOL    HW1 3041   4.926   5.829   3.053
  714SOL    HW2 3042   5.043   5.914   2.976
  715SOL     OW 3043   6.352   5.044   5.646
  715SOL    HW1 3044   6.293   4.970   5.614
  715SOL    HW2 3045   6.440   5.006   5.674
  716SOL     OW 3046   1.250   1.939   2.905
  716SOL    HW1 3047   1.202   1.922   2.819
  716SOL    HW2 3048   1.306   2.021   2.896
  717SOL     OW 3049   5.307   4.435   4.071
  717SOL    HW1 3050   5.219   4.415   4.113
  717SOL    HW2 3051   5.381   4.404   4.131
  718SOL     OW 3052   5.456   2.337   4.999
  718SOL    HW1 3053   5.443   2.253   4.946
  718SOL    HW2 3054   5.456   2.315   5.096
  719SOL     OW 3055   5.310   6.765   3.868
  719SOL    HW1 3056   5.313   6.666   3.859
  719SOL    HW2 3057   5.215   6.796   3.862
  720SOL     OW 3058   2.238   1.093   0.509
  720SOL    HW1 3059   2.185   1.051   0.583
  720SOL    HW2 3060   2.305   1.156   0.548
  721SOL     OW 3061   0.101   1.723   2.884
  721SOL    HW1 3062   0.089   1.653   2.814
  721SOL    HW2 3063   0.014   1.770   2.900
  722SOL     OW 3064   5.232   6.781   0.565
  722SOL    HW1 3065   5.200   6.866   0.607
  722SOL    HW2 3066   5.326   6.793   0.533
  723SOL     OW 3067   2.357   6.244   3.964
  723SOL    HW1 3068   2.323   6.338   3.963
  723SOL    HW2 3069   2.457   6.245   3.965
  724SOL     OW 3070   1.202   1.785   4.056
  724SOL    HW1 3071   1.292   1.760   4.092
  724SOL    HW2 3072   1.174   1.873   4.094
  725SOL     OW 3073   1.554   4.129   2.934
  725SOL    HW1 3074   1.464   4.163   2.960
  725SOL    HW2 3075   1.620   4.150   3.005
  726SOL     OW 3076   1.446   3.701   0.765
  726SOL    HW1 3077   1.539   3.667   0.774
  726SOL    HW2 3078   1.442   3.768   0.691
  727SOL     OW 3079   3.796   5.562   4.964
  727SOL    HW1 3080   3.732   5.607   5.026
  727SOL    HW2 3081   3.750   5.488   4.915
  728SOL     OW 3082   6.522   3.199   3.510
  728SOL    HW1 3083   6.451   3.130   3.526
  728SOL    HW2 3084   6.576   3.210   3.594
  729SOL     OW 3085   0.585   4.235   0.716
  729SOL    HW1 3086   0.501   4.273   0.676
  729SOL    HW2 3087   0.643   4.310   0.748
  730SOL     OW 3088   3.841   0.645   3.270
  730SOL    HW1 3089   3.787   0.585   3.211
  730SOL    HW2 3090   3.794   0.656   3.358
  731SOL     OW 3091   4.544   5.138   5.389
  731SOL    HW1 3092   4.500   5.198   5.322
  731SOL    HW2 3093   4.533   5.043   5.360
  732SOL     OW 3094   3.731   1.718   5.457
  732SOL    HW1 3095   3.711   1.638   5.400
  732SOL    HW2 3096   3.676   1.796   5.425
  733SOL     OW 3097   5.991   5.699   3.021
  733SOL    HW1 3098   5.911   5.750   3.050
  733SOL    HW2 3099   6.016   5.633   3.092
  734SOL     OW 3100   6.539   6.653   2.553
  734SOL    HW1 3101   6.521   6.555   2.552
  734SOL    HW2 3102   6.570   6.680   2.644
  735SOL     OW 3103   4.421   6.865   2.467
  735SOL    HW1 3104   4.474   6.894   2.387
  735SOL    HW2 3105   4.438   6.929   2.542
  736SOL     OW 3106   2.178   1.228   3.917
  736SOL    HW1 3107   2.216   1.136   3.927
  736SOL    HW2 3108   2.182   1.276   4.005
  737SOL     OW 3109   3.825   0.467   5.902
  737SOL    HW1 3110   3.794   0.373   5.890
  737SOL    HW2 3111   3.902   0.469   5.966
  738SOL     OW 3112   2.022   4.411   0.187
  738SOL    HW1 3113   1.981   4.380   0.101
  738SOL    HW2 3114   2.097   4.350   0.212
  739SOL     OW 3115   3.201   6.775   4.279
  739SOL    HW1 3116   3.137   6.795   4.205
  739SOL    HW2 3117   3.211   6.676   4.288
  740SOL     OW 3118   5.071   3.177   2.634
  740SOL    HW1 3119   4.992   3.120   2.612
  740SOL    HW2 3120   5.102   3.156   2.727
  741SOL     OW 3121   2.641   0.833   3.072
  741SOL    HW1 3122   2.644   0.885   2.987
  741SOL    HW2 3123   2.617   0.894   3.147
  742SOL     OW 3124   2.437   6.650   1.881
  742SOL    HW1 3125   2.521   6.604   1.909
  742SOL    HW2 3126   2.364   6.628   1.945
  743SOL     OW 3127   0.587   6.770   3.254
  743SOL    HW1 3128   0.541   6.792   3.340
  743SOL    HW2 3129   0.685   6.789   3.262
  744SOL     OW 3130   5.257   1.660   0.327
  744SOL    HW1 3131   5.178   1.604   0.352
  744SOL    HW2 3132   5.335   1.601   0.307
  745SOL     OW 3133   1.985   0.082   4.586
  745SOL    HW1 3134   1.978   0.178   4.559
  745SOL    HW2 3135   2.021   0.077   4.679
  746SOL     OW 3136   6.763   4.763   5.986
  746SOL    HW1 3137   6.807   4.852   5.972
  746SOL    HW2 3138   6.702   4.743   5.909
  747SOL     OW 3139   4.643   5.746   2.772
  747SOL    HW1 3140   4.637   5.648   2.792
  747SOL    HW2 3141   4.582   5.768   2.696
  748SOL     OW 3142   5.093   5.275   1.969
  748SOL    HW1 3143   5.146   5.357   1.948
  748SOL    HW2 3144   5.008   5.276   1.916
  749SOL     OW 3145   4.868   3.869   4.481
  749SOL    HW1 3146   4.954   3.831   4.514
  749SOL    HW2 3147   4.831   3.809   4.410
  750SOL     OW 3148   2.360   1.966   2.612
  750SOL    HW1 3149   2.332   1.964   2.517
  750SOL    HW2 3150   2.322   1.886   2.660
  751SOL     OW 3151   3.785   0.402   0.658
  751SOL    HW1 3152   3.841   0.484   0.650
  751SOL    HW2 3153   3.781   0.356   0.569
  752SOL     OW 3154   3.705   2.730   5.360
  752SOL    HW1 3155   3.637   2.786   5.313
  752SOL    HW2 3156   3.690   2.634   5.339
  753SOL     OW 3157   4.072   3.769   4.225
  753SOL    HW1 3158   3.997   3.796   4.165
  753SOL    HW2 3159   4.146   3.835   4.218
  754SOL     OW 3160   5.852   0.582   0.291
  754SOL    HW1 3161   5.860   0.682   0.286
  754SOL    HW2 3162   5.942   0.542   0.306
  755SOL     OW 3163   4.222   4.247   5.350
  755SOL    HW1 3164   4.267   4.315   5.293
  755SOL    HW2 3165   4.192   4.288   5.436
  756SOL     OW 3166   2.473   5.513   6.199
  756SOL    HW1 3167   2.426   5.427   6.178
  756SOL    HW2 3168   2.572   5.500   6.191
  757SOL     OW 3169   2.788   6.084   2.410
  757SOL    HW1 3170   2.826   6.041   2.492
  757SOL    HW2 3171   2.860   6.094   2.341
  758SOL     OW 3172   4.534   0.796   4.121
  758SOL    HW1 3173   4.508   0.863   4.190
  758SOL    HW2 3174   4.580   0.841   4.045
  759SOL     OW 3175   0.882   2.865   3.567
  759SOL    HW1 3176   0.946   2.935   3.597
  759SOL    HW2 3177   0.788   2.894   3.588
  760SOL     OW 3178   6.177   5.284   3.105
  760SOL    HW1 3179   6.198   5.204   3.161
  760SOL    HW2 3180   6.259   5.314   3.057
  761SOL     OW 3181   3.835   4.007   6.019
  761SOL    HW1 3182   3.861   3.944   5.946
  761SOL    HW2 3183   3.782   4.083   5.982
  762SOL     OW 3184   3.225   5.467   3.717
  762SOL    HW1 3185   3.244   5.385   3.772
  762SOL    HW2 3186   3.141   5.454   3.666
  763SOL     OW 3187   5.534   0.807   0.602
  763SOL    HW1 3188   5.440   0.818   0.635
  763SOL    HW2 3189   5.568   0.894   0.567
  764SOL     OW 3190   5.575   6.951   6.065
  764SOL    HW1 3191   5.554   6.861   6.025
  764SOL    HW2 3192   5.511   6.969   6.140
  765SOL     OW 3193   6.650   0.028   0.760
  765SOL    HW1 3194   6.698   6.968   0.799
  765SOL    HW2 3195   6.553   0.006   0.748
  766SOL     OW 3196   2.680   1.976   4.862
  766SOL    HW1 3197   2.595   2.027   4.877
  766SOL    HW2 3198   2.711   1.938   4.949
  767SOL     OW 3199   6.391   5.181   4.864
  767SOL    HW1 3200   6.466   5.217   4.809
  767SOL    HW2 3201   6.304   5.202   4.818
  768SOL     OW 3202   2.008   5.539   2.830
  768SOL    HW1 3203   1.909   5.533   2.838
  768SOL    HW2 3204   2.042   5.462   2.777
  769SOL     OW 3205   2.459   2.105   4.917
  769SOL    HW1 3206   2.359   2.111   4.907
  769SOL    HW2 3207   2.487   2.154   4.999
  770SOL     OW 3208   1.374   4.580   5.859
  770SOL    HW1 3209   1.353   4.586   5.761
  770SOL    HW2 3210   1.308   4.636   5.910
  771SOL     OW 3211   1.564   5.205   2.687
  771SOL    HW1 3212   1.537   5.124   2.634
  771SOL    HW2 3213   1.483   5.248   2.725
  772SOL     OW 3214   5.843   4.362   0.628
  772SOL    HW1 3215   5.824   4.400   0.718
  772SOL    HW2 3216   5.879   4.270   0.637
  773SOL     OW 3217   1.557   3.875   3.617
  773SOL    HW1 3218   1.565   3.974   3.619
  773SOL    HW2 3219   1.517   3.843   3.703
  774SOL     OW 3220   2.712   0.431   3.334
  774SOL    HW1 3221   2.618   0.463   3.321
  774SOL    HW2 3222   2.774   0.509   3.326
  775SOL     OW 3223   1.226   3.991   2.428
  775SOL    HW1 3224   1.261   3.955   2.341
  775SOL    HW2 3225   1.127   4.001   2.421
  776SOL     OW 3226   2.733   5.551   6.224
  776SOL    HW1 3227   2.805   5.606   6.182
  776SOL    HW2 3228   2.763   5.456   6.231
  777SOL     OW 3229   2.457   4.074   6.484
  777SOL    HW1 3230   2.403   4.014   6.542
  777SOL    HW2 3231   2.519   4.018   6.428
  778SOL     OW 3232   2.884   6.131   6.817
  778SOL    HW1 3233   2.919   6.157   6.907
  778SOL    HW2 3234   2.826   6.050   6.826
  779SOL     OW 3235   6.861   2.545   3.318
  779SOL    HW1 3236   6.916   2.557   3.401
  779SOL    HW2 3237   6.918   2.508   3.245
  780SOL     OW 3238   0.484   2.251   4.335
  780SOL    HW1 3239   0.468   2.186   4.409
  780SOL    HW2 3240   0.396   2.285   4.302
  781SOL     OW 3241   0.081   4.501   6.895
  781SOL    HW1 3242   0.142   4.541   6.964
  781SOL    HW2 3243   7.007   4.492   6.934
  782SOL     OW 3244   1.935   3.303   4.623
  782SOL    HW1 3245   2.015   3.243   4.632
  782SOL    HW2 3246   1.861   3.252   4.580
  783SOL     OW 3247   6.467   5.012   6.862
  783SOL    HW1 3248   6.454   4.923   6.906
  783SOL    HW2 3249   6.564   5.024   6.839
  784SOL     OW 3250   2.310   5.793   1.000
  784SOL    HW1 3251   2.339   5.702   1.028
  784SOL    HW2 3252   2.342   5.860   1.066
  785SOL     OW 3253   0.833   0.653   3.895
  785SOL    HW1 3254   0.875   0.711   3.825
  785SOL    HW2 3255   0.829   0.559   3.861
  786SOL     OW 3256   6.090   1.119   4.118
  786SOL    HW1 3257   6.171   1.157   4.161
  786SOL    HW2 3258   6.117   1.044   4.056
  787SOL     OW 3259   2.005   6.844   0.868
  787SOL    HW1 3260   2.096   6.885   0.879
  787SOL    HW2 3261   2.000   6.761   0.923
  788SOL     OW 3262   2.003   2.460   1.813
  788SOL    HW1 3263   1.948   2.508   1.744
  788SOL    HW2 3264   1.988   2.361   1.804
  789SOL     OW 3265   4.666   4.793   2.548
  789SOL    HW1 3266   4.751   4.830   2.586
  789SOL    HW2 3267   4.679   4.695   2.529
  790SOL     OW 3268   1.018   2.683   2.504
  790SOL    HW1 3269   1.040   2.730   2.419
  790SOL    HW2 3270   1.103   2.658   2.551
  791SOL     OW 3271   3.045   5.847   4.012
  791SOL    HW1 3272   2.954   5.808   3.998
  791SOL    HW2 3273   3.111   5.800   3.955
  792SOL     OW 3274   1.558   0.376   0.187
  792SOL    HW1 3275   1.547   0.407   0.281
  792SOL    HW2 3276   1.525   0.446   0.124
  793SOL     OW 3277   3.034   6.099   4.007
  793SOL    HW1 3278   3.123   6.110   3.963
  793SOL    HW2 3279   3.011   6.002   4.012
  794SOL     OW 3280   3.770   3.447   2.481
  794SOL    HW1 3281   3.680   3.450   2.438
  794SOL    HW2 3282   3.819   3.366   2.449
  795SOL     OW 3283   3.715   0.548   6.186
  795SOL    HW1 3284   3.708   0.627   6.248
  795SOL    HW2 3285   3.805   0.549   6.142
  796SOL     OW 3286   0.718   2.754   0.750
  796SOL    HW1 3287   0.723   2.726   0.655
  796SOL    HW2 3288   0.655   2.830   0.760
  797SOL     OW 3289   4.667   0.347   0.849
  797SOL    HW1 3290   4.674   0.272   0.915
  797SOL    HW2 3291   4.590   0.330   0.787
  798SOL     OW 3292   4.787   6.338   1.114
  798SOL    HW1 3293   4.870   6.335   1.058
  798SOL    HW2 3294   4.811   6.341   1.211
  799SOL     OW 3295   2.366   2.038   5.325
  799SOL    HW1 3296   2.374   2.123   5.272
  799SOL    HW2 3297   2.361   2.060   5.422
  800SOL     OW 3298   6.073   3.233   2.753
  800SOL    HW1 3299   6.069   3.245   2.853
  800SOL    HW2 3300   5.980   3.235   2.716
  801SOL     OW 3301   2.176   5.842   6.011
  801SOL    HW1 3302   2.205   5.909   5.943
  801SOL    HW2 3303   2.077   5.849   6.024
  802SOL     OW 3304   5.310   2.284   6.933
  802SOL    HW1 3305   5.238   2.236   6.883
  802SOL    HW2 3306   5.337   2.230   7.012
  803SOL     OW 3307   2.457   1.368   4.852
  803SOL    HW1 3308   2.430   1.404   4.763
  803SOL    HW2 3309   2.376   1.340   4.903
  804SOL     OW 3310   5.211   0.320   3.137
  804SOL    HW1 3311   5.268   0.299   3.058
  804SOL    HW2 3312   5.159   0.404   3.119
  805SOL     OW 3313   3.473   1.137   4.177
  805SOL    HW1 3314   3.394   1.156   4.120
  805SOL    HW2 3315   3.479   1.039   4.194
  806SOL     OW 3316   2.380   6.112   5.253
  806SOL    HW1 3317   2.325   6.194   5.232
  806SOL    HW2 3318   2.476   6.132   5.238
  807SOL     OW 3319   1.576   6.311   6.113
  807SOL    HW1 3320   1.619   6.374   6.049
  807SOL    HW2 3321   1.479   6.334   6.123
  808SOL     OW 3322   4.999   2.750   6.074
  808SOL    HW1 3323   5.041   2.778   5.988
  808SOL    HW2 3324   5.056   2.781   6.150
  809SOL     OW 3325   2.334   5.022   0.209
  809SOL    HW1 3326   2.278   5.092   0.165
  809SOL    HW2 3327   2.282   4.980   0.284
  810SOL     OW 3328   3.786   3.163   6.926
  810SOL    HW1 3329   3.736   3.131   6.845
  810SOL    HW2 3330   3.877   3.193   6.899
  811SOL     OW 3331   6.091   5.005   4.826
  811SOL    HW1 3332   6.122   5.082   4.770
  811SOL    HW2 3333   6.140   4.923   4.799
  812SOL     OW 3334   0.591   3.557   1.918
  812SOL    HW1 3335   0.564   3.517   2.005
  812SOL    HW2 3336   0.615   3.484   1.853
  813SOL     OW 3337   1.676   2.112   5.099
  813SOL    HW1 3338   1.636   2.166   5.173
  813SOL    HW2 3339   1.775   2.129   5.096
  814SOL     OW 3340   0.767   5.337   2.714
  814SOL    HW1 3341   0.698   5.303   2.778
  814SOL    HW2 3342   0.722   5.396   2.646
  815SOL     OW 3343   4.290   1.680   4.806
  815SOL    HW1 3344   4.274   1.759   4.866
  815SOL    HW2 3345   4.205   1.656   4.760
  816SOL     OW 3346   6.208   4.785   6.814
  816SOL    HW1 3347   6.122   4.766   6.860
  816SOL    HW2 3348   6.195   4.859   6.748
  817SOL     OW 3349   0.538   4.457   6.886
  817SOL    HW1 3350   0.495   4.462   6.976
  817SOL    HW2 3351   0.626   4.409   6.894
  818SOL     OW 3352   6.676   2.064   4.528
  818SOL    HW1 3353   6.764   2.105   4.553
  818SOL    HW2 3354   6.688   1.966   4.512
  819SOL     OW 3355   4.936   2.917   1.851
  819SOL    HW1 3356   4.992   2.844   1.890
  819SOL    HW2 3357   4.862   2.939   1.913
  820SOL     OW 3358   2.594   1.599   5.229
  820SOL    HW1 3359   2.576   1.682   5.280
  820SOL    HW2 3360   2.647   1.535   5.284
  821SOL     OW 3361   4.906   3.278   6.467
  821SOL    HW1 3362   4.848   3.267   6.386
  821SOL    HW2 3363   4.984   3.216   6.461
  822SOL     OW 3364   0.505   4.850   3.456
  822SOL    HW1 3365   0.497   4.918   3.529
  822SOL    HW2 3366   0.602   4.828   3.441
  823SOL     OW 3367   0.981   3.410   4.947
  823SOL    HW1 3368   1.013   3.320   4.919
  823SOL    HW2 3369   0.891   3.403   4.989
  824SOL     OW 3370   4.799   0.754   6.612
  824SOL    HW1 3371   4.773   0.827   6.676
  824SOL    HW2 3372   4.864   0.790   6.546
  825SOL     OW 3373   6.027   5.859   0.937
  825SOL    HW1 3374   6.017   5.795   1.014
  825SOL    HW2 3375   6.118   5.848   0.897
  826SOL     OW 3376   3.773   2.094   0.160
  826SOL    HW1 3377   3.863   2.071   0.124
  826SOL    HW2 3378   3.729   2.161   0.101
  827SOL     OW 3379   4.019   3.640   5.388
  827SOL    HW1 3380   4.068   3.646   5.301
  827SOL    HW2 3381   4.056   3.708   5.452
  828SOL     OW 3382   6.955   6.509   6.360
  828SOL    HW1 3383   6.924   6.414   6.355
  828SOL    HW2 3384   0.012   6.516   6.425
  829SOL     OW 3385   3.296   3.306   2.505
  829SOL    HW1 3386   3.209   3.266   2.531
  829SOL    HW2 3387   3.332   3.260   2.424
  830SOL     OW 3388   0.016   4.436   0.248
  830SOL    HW1 3389   6.991   4.507   0.192
  830SOL    HW2 3390   6.984   4.426   0.334
  831SOL     OW 3391   4.984   0.394   1.834
  831SOL    HW1 3392   4.966   0.300   1.862
  831SOL    HW2 3393   5.005   0.396   1.736
  832SOL     OW 3394   3.126   1.598   4.784
  832SOL    HW1 3395   3.193   1.665   4.751
  832SOL    HW2 3396   3.157   1.506   4.761
  833SOL     OW 3397   3.932   2.593   0.086
  833SOL    HW1 3398   3.990   2.625   0.161
  833SOL    HW2 3399   3.840   2.573   0.120
  834SOL     OW 3400   6.107   2.837   0.520
  834SOL    HW1 3401   6.106   2.927   0.565
  834SOL    HW2 3402   6.015   2.797   0.525
  835SOL     OW 3403   0.294   0.368   4.688
  835SOL    HW1 3404   0.204   0.402   4.660
  835SOL    HW2 3405   0.284   0.312   4.770
  836SOL     OW 3406   5.191   0.615   4.803
  836SOL    HW1 3407   5.250   0.692   4.825
  836SOL    HW2 3408   5.096   0.637   4.826
  837SOL     OW 3409   1.642   0.697   0.203
  837SOL    HW1 3410   1.640   0.754   0.285
  837SOL    HW2 3411   1.722   0.637   0.205
  838SOL     OW 3412   1.168   5.695   3.338
  838SOL    HW1 3413   1.153   5.792   3.355
  838SOL    HW2 3414   1.101   5.663   3.271
  839SOL     OW 3415   1.567   2.070   0.365
  839SOL    HW1 3416   1.509   2.058   0.446
  839SOL    HW2 3417   1.549   2.159   0.325
  840SOL     OW 3418   4.890   5.218   7.000
  840SOL    HW1 3419   4.888   5.299   0.040
  840SOL    HW2 3420   4.924   5.244   6.909
  841SOL     OW 3421   2.850   4.553   0.198
  841SOL    HW1 3422   2.765   4.579   0.244
  841SOL    HW2 3423   2.923   4.542   0.265
  842SOL     OW 3424   4.082   5.589   0.591
  842SOL    HW1 3425   4.092   5.554   0.498
  842SOL    HW2 3426   4.096   5.514   0.656
  843SOL     OW 3427   1.072   0.840   2.081
  843SOL    HW1 3428   0.988   0.804   2.040
  843SOL    HW2 3429   1.050   0.924   2.131
  844SOL     OW 3430   6.794   0.800   1.471
  844SOL    HW1 3431   6.784   0.895   1.499
  844SOL    HW2 3432   6.891   0.774   1.476
  845SOL     OW 3433   3.208   1.422   2.728
  845SOL    HW1 3434   3.261   1.491   2.777
  845SOL    HW2 3435   3.132   1.466   2.680
  846SOL     OW 3436   2.887   2.144   0.629
  846SOL    HW1 3437   2.892   2.078   0.704
  846SOL    HW2 3438   2.980   2.175   0.607
  847SOL     OW 3439   2.572   3.768   1.596
  847SOL    HW1 3440   2.503   3.723   1.652
  847SOL    HW2 3441   2.553   3.866   1.592
  848SOL     OW 3442   0.112   5.974   0.520
  848SOL    HW1 3443   0.120   6.032   0.439
  848SOL    HW2 3444   0.017   5.944   0.529
  849SOL     OW 3445   6.147   3.460   6.642
  849SOL    HW1 3446   6.142   3.408   6.727
  849SOL    HW2 3447   6.100   3.548   6.654
  850SOL     OW 3448   0.918   0.496   5.409
  850SOL    HW1 3449   0.917   0.512   5.310
  850SOL    HW2 3450   1.012   0.484   5.439
  851SOL     OW 3451   5.871   3.504   6.134
  851SOL    HW1 3452   5.905   3.594   6.160
  851SOL    HW2 3453   5.772   3.500   6.149
  852SOL     OW 3454   0.417   3.982   1.924
  852SOL    HW1 3455   0.343   3.916   1.940
  852SOL    HW2 3456   0.500   3.951   1.969
  853SOL     OW 3457   2.627   2.280   0.032
  853SOL    HW1 3458   2.653   2.202   6.993
  853SOL    HW2 3459   2.541   2.319   7.016
  854SOL     OW 3460   5.817   6.122   6.157
  854SOL    HW1 3461   5.895   6.184   6.165
  854SOL    HW2 3462   5.829   6.062   6.078
  855SOL     OW 3463   5.486   1.519   0.351
  855SOL    HW1 3464   5.501   1.462   0.431
  855SOL    HW2 3465   5.548   1.596   0.352
  856SOL     OW 3466   1.454   5.306   1.439
  856SOL    HW1 3467   1.518   5.229   1.449
  856SOL    HW2 3468   1.373   5.275   1.389
  857SOL     OW 3469   0.025   5.876   5.159
  857SOL    HW1 3470   6.979   5.952   5.152
  857SOL    HW2 3471   0.086   5.877   5.080
  858SOL     OW 3472   4.316   3.320   0.134
  858SOL    HW1 3473   4.338   3.345   0.229
  858SOL    HW2 3474   4.228   3.272   0.132
  859SOL     OW 3475   4.929   6.690   5.363
  859SOL    HW1 3476   4.887   6.750   5.432
  859SOL    HW2 3477   4.857   6.647   5.309
  860SOL     OW 3478   4.828   3.208   6.197
  860SOL    HW1 3479   4.802   3.141   6.128
  860SOL    HW2 3480   4.832   3.299   6.156
  861SOL     OW 3481   2.021   5.822   1.981
  861SOL    HW1 3482   2.021   5.808   1.882
  861SOL    HW2 3483   2.110   5.857   2.010
  862SOL     OW 3484   0.425   3.960   3.961
  862SOL    HW1 3485   0.326   3.954   3.953
  862SOL    HW2 3486   0.465   3.969   3.870
  863SOL     OW 3487   6.205   0.714   1.218
  863SOL    HW1 3488   6.114   0.751   1.203
  863SOL    HW2 3489   6.270   0.763   1.159
  864SOL     OW 3490   5.752   6.292   4.359
  864SOL    HW1 3491   5.748   6.387   4.388
  864SOL    HW2 3492   5.672   6.243   4.393
  865SOL     OW 3493   1.509   5.974   5.315
  865SOL    HW1 3494   1.448   5.898   5.334
  865SOL    HW2 3495   1.596   5.940   5.280
  866SOL     OW 3496   3.522   0.183   1.870
  866SOL    HW1 3497   3.445   0.244   1.890
  866SOL    HW2 3498   3.523   0.162   1.772
  867SOL     OW 3499   5.656   2.084   6.044
  867SOL    HW1 3500   5.676   2.144   5.966
  867SOL    HW2 3501   5.566   2.107   6.081
  868SOL     OW 3502   0.158   1.945   2.277
  868SOL    HW1 3503   0.172   1.949   2.376
  868SOL    HW2 3504   0.125   2.033   2.244
  869SOL     OW 3505   0.116   3.888   3.642
  869SOL    HW1 3506   0.179   3.822   3.600
  869SOL    HW2 3507   0.023   3.870   3.610
  870SOL     OW 3508   3.328   5.370   2.082
  870SOL    HW1 3509   3.254   5.310   2.111
  870SOL    HW2 3510   3.364   5.339   1.994
  871SOL     OW 3511   4.632   1.458   3.341
  871SOL    HW1 3512   4.574   1.505   3.408
  871SOL    HW2 3513   4.642   1.362   3.368
  872SOL     OW 3514   0.650   2.213   4.615
  872SOL    HW1 3515   0.688   2.121   4.625
  872SOL    HW2 3516   0.698   2.261   4.542
  873SOL     OW 3517   4.316   6.973   6.182
  873SOL    HW1 3518   4.334   0.003   6.267
  873SOL    HW2 3519   4.399   6.924   6.153
  874SOL     OW 3520   4.751   4.076   1.322
  874SOL    HW1 3521   4.756   4.020   1.240
  874SOL    HW2 3522   4.693   4.032   1.390
  875SOL     OW 3523   4.875   5.502   1.501
  875SOL    HW1 3524   4.954   5.539   1.550
  875SOL    HW2 3525   4.889   5.513   1.403
  876SOL     OW 3526   6.897   6.818   1.320
  876SOL    HW1 3527   6.815   6.838   1.265
  876SOL    HW2 3528   6.939   6.733   1.288
  877SOL     OW 3529   1.885   3.069   6.262
  877SOL    HW1 3530   1.907   3.164   6.282
  877SOL    HW2 3531   1.840   3.028   6.342
  878SOL     OW 3532   4.582   6.428   4.495
  878SOL    HW1 3533   4.633   6.353   4.538
  878SOL    HW2 3534   4.484   6.415   4.510
  879SOL     OW 3535   5.799   0.104   0.902
  879SOL    HW1 3536   5.875   0.079   0.963
  879SOL    HW2 3537   5.814   0.063   0.812
  880SOL     OW 3538   2.869   3.529   2.294
  880SOL    HW1 3539   2.775   3.555   2.270
  880SOL    HW2 3540   2.914   3.491   2.213
  881SOL     OW 3541   4.203   1.713   0.423
  881SOL    HW1 3542   4.261   1.698   0.343
  881SOL    HW2 3543   4.230   1.798   0.468
  882SOL     OW 3544   1.337   3.149   4.449
  882SOL    HW1 3545   1.378   3.240   4.448
  882SOL    HW2 3546   1.391   3.089   4.508
  883SOL     OW 3547   2.567   0.037   2.466
  883SOL    HW1 3548   2.488   7.008   2.504
  883SOL    HW2 3549   2.597   7.008   2.383
  884SOL     OW 3550   4.626   3.714   5.768
  884SOL    HW1 3551   4.565   3.637   5.750
  884SOL    HW2 3552   4.571   3.798   5.777
  885SOL     OW 3553   3.684   2.734   6.204
  885SOL    HW1 3554   3.690   2.643   6.245
  885SOL    HW2 3555   3.624   2.730   6.124
  886SOL     OW 3556   3.327   0.354   6.642
  886SOL    HW1 3557   3.339   0.409   6.559
  886SOL    HW2 3558   3.368   0.401   6.720
  887SOL     OW 3559   4.984   1.431   4.429
  887SOL    HW1 3560   5.063   1.404   4.484
  887SOL    HW2 3561   4.987   1.529   4.412
  888SOL     OW 3562   6.897   6.752   3.070
  888SOL    HW1 3563   6.948   6.684   3.018
  888SOL    HW2 3564   6.921   6.746   3.166
  889SOL     OW 3565   0.564   3.319   6.733
  889SOL    HW1 3566   0.544   3.353   6.825
  889SOL    HW2 3567   0.647   3.362   6.698
  890SOL     OW 3568   2.566   4.916   3.899
  890SOL    HW1 3569   2.478   4.941   3.858
  890SOL    HW2 3570   2.561   4.930   3.998
  891SOL     OW 3571   4.834   5.815   1.397
  891SOL    HW1 3572   4.832   5.793   1.494
  891SOL    HW2 3573   4.745   5.792   1.356
  892SOL     OW 3574   2.698   4.226   0.314
  892SOL    HW1 3575   2.790   4.262   0.330
  892SOL    HW2 3576   2.637   4.259   0.386
  893SOL     OW 3577   2.385   6.492   2.358
  893SOL    HW1 3578   2.462   6.509   2.419
  893SOL    HW2 3579   2.352   6.399   2.370
  894SOL     OW 3580   1.068   4.256   0.849
  894SOL    HW1 3581   1.150   4.269   0.905
  894SOL    HW2 3582   1.028   4.167   0.868
  895SOL     OW 3583   0.656   5.587   3.916
  895SOL    HW1 3584   0.566   5.546   3.930
  895SOL    HW2 3585   0.708   5.532   3.850
  896SOL     OW 3586   6.833   6.854   5.831
  896SOL    HW1 3587   6.812   6.939   5.781
  896SOL    HW2 3588   6.756   6.791   5.823
  897SOL     OW 3589   5.306   1.036   6.688
  897SOL    HW1 3590   5.270   0.967   6.625
  897SOL    HW2 3591   5.334   0.991   6.774
  898SOL     OW 3592   4.188   5.933   3.091
  898SOL    HW1 3593   4.186   5.886   3.179
  898SOL    HW2 3594   4.196   6.031   3.105
  899SOL     OW 3595   0.333   4.812   0.236
  899SOL    HW1 3596   0.269   4.785   0.308
  899SOL    HW2 3597   0.419   4.842   0.277
  900SOL     OW 3598   5.124   5.398   0.630
  900SOL    HW1 3599   5.178   5.314   0.616
  900SOL    HW2 3600   5.174   5.476   0.593
  901SOL     OW 3601   1.404   1.144   2.371
  901SOL    HW1 3602   1.398   1.106   2.464
  901SOL    HW2 3603   1.461   1.225   2.372
  902SOL     OW 3604   6.063   3.654   1.801
  902SOL    HW1 3605   6.027   3.657   1.894
  902SOL    HW2 3606   6.076   3.559   1.773
  903SOL     OW 3607   0.126   2.615   0.825
  903SOL    HW1 3608   0.219   2.640   0.799
  903SOL    HW2 3609   0.062   2.646   0.754
  904SOL     OW 3610   2.684   1.583   2.508
  904SOL    HW1 3611   2.649   1.669   2.545
  904SOL    HW2 3612   2.745   1.541   2.575
  905SOL     OW 3613   6.007   2.974   6.422
  905SOL    HW1 3614   5.909   2.961   6.407
  905SOL    HW2 3615   6.024   3.069   6.448
  906SOL     OW 3616   6.157   3.811   6.890
  906SOL    HW1 3617   6.079   3.835   6.832
  906SOL    HW2 3618   6.131   3.736   6.951
  907SOL     OW 3619   5.188   4.117   0.064
  907SOL    HW1 3620   5.265   4.152   0.011
  907SOL    HW2 3621   5.131   4.194   0.093
  908SOL     OW 3622   1.666   4.250   2.363
  908SOL    HW1 3623   1.646   4.333   2.416
  908SOL    HW2 3624   1.645   4.265   2.267
  909SOL     OW 3625   5.114   5.043   6.722
  909SOL    HW1 3626   5.032   5.004   6.680
  909SOL    HW2 3627   5.152   5.112   6.660
  910SOL     OW 3628   2.274   3.715   0.935
  910SOL    HW1 3629   2.214   3.786   0.896
  910SOL    HW2 3630   2.231   3.626   0.922
  911SOL     OW 3631   1.227   5.184   6.141
  911SOL    HW1 3632   1.166   5.244   6.090
  911SOL    HW2 3633   1.174   5.107   6.178
  912SOL     OW 3634   4.890   1.903   2.761
  912SOL    HW1 3635   4.926   1.974   2.699
  912SOL    HW2 3636   4.887   1.939   2.854
  913SOL     OW 3637   4.832   6.663   3.031
  913SOL    HW1 3638   4.825   6.751   2.984
  913SOL    HW2 3639   4.796   6.590   2.971
  914SOL     OW 3640   3.061   0.062   0.204
  914SOL    HW1 3641   3.029   0.150   0.170
  914SOL    HW2 3642   2.986   0.012   0.246
  915SOL     OW 3643   5.669   5.307   0.583
  915SOL    HW1 3644   5.747   5.366   0.604
  915SOL    HW2 3645   5.692   5.247   0.506
  916SOL     OW 3646   1.048   2.113   2.441
  916SOL    HW1 3647   1.144   2.105   2.417
  916SOL    HW2 3648   0.993   2.125   2.358
  917SOL     OW 3649   6.755   6.782   0.701
  917SOL    HW1 3650   6.739   6.739   0.790
  917SOL    HW2 3651   6.838   6.744   0.659
  918SOL     OW 3652   2.233   5.463   0.250
  918SOL    HW1 3653   2.278   5.423   0.170
  918SOL    HW2 3654   2.162   5.527   0.220
  919SOL     OW 3655   5.714   2.314   4.686
  919SOL    HW1 3656   5.797   2.306   4.741
  919SOL    HW2 3657   5.669   2.225   4.680
  920SOL     OW 3658   2.755   5.378   2.212
  920SOL    HW1 3659   2.705   5.394   2.298
  920SOL    HW2 3660   2.807   5.293   2.220
  921SOL     OW 3661   4.856   5.067   5.074
  921SOL    HW1 3662   4.929   5.024   5.022
  921SOL    HW2 3663   4.843   5.161   5.043
  922SOL     OW 3664   3.464   2.911   3.714
  922SOL    HW1 3665   3.557   2.948   3.713
  922SOL    HW2 3666   3.432   2.900   3.620
  923SOL     OW 3667   2.175   3.611   5.170
  923SOL    HW1 3668   2.113   3.532   5.172
  923SOL    HW2 3669   2.268   3.581   5.187
  924SOL     OW 3670   0.331   3.928   2.907
  924SOL    HW1 3671   0.244   3.914   2.859
  924SOL    HW2 3672   0.395   3.856   2.883
  925SOL     OW 3673   6.978   1.919   6.975
  925SOL    HW1 3674   0.003   1.864   0.028
  925SOL    HW2 3675   6.901   1.970   7.014
  926SOL     OW 3676   1.272   1.652   1.936
  926SOL    HW1 3677   1.289   1.643   2.034
  926SOL    HW2 3678   1.265   1.561   1.894
  927SOL     OW 3679   5.799   3.600   3.802
  927SOL    HW1 3680   5.868   3.669   3.821
  927SOL    HW2 3681   5.708   3.636   3.822
  928SOL     OW 3682   2.820   4.691   6.246
  928SOL    HW1 3683   2.843   4.631   6.324
  928SOL    HW2 3684   2.904   4.716   6.199
  929SOL     OW 3685   6.755   1.077   5.208
  929SOL    HW1 3686   6.780   1.171   5.183
  929SOL    HW2 3687   6.731   1.026   5.126
  930SOL     OW 3688   5.608   4.936   6.087
  930SOL    HW1 3689   5.703   4.929   6.058
  930SOL    HW2 3690   5.578   4.849   6.125
  931SOL     OW 3691   6.361   1.774   3.310
  931SOL    HW1 3692   6.294   1.842   3.279
  931SOL    HW2 3693   6.453   1.813   3.305
  932SOL     OW 3694   3.749   0.698   3.540
  932SOL    HW1 3695   3.671   0.730   3.593
  932SOL    HW2 3696   3.832   0.699   3.596
  933SOL     OW 3697   1.108   5.524   1.538
  933SOL    HW1 3698   1.051   5.552   1.616
  933SOL    HW2 3699   1.197   5.495   1.572
  934SOL     OW 3700   1.449   3.783   0.105
  934SOL    HW1 3701   1.409   3.787   0.013
  934SOL    HW2 3702   1.485   3.691   0.121
  935SOL     OW 3703   5.865   3.181   3.884
  935SOL    HW1 3704   5.944   3.218   3.834
  935SOL    HW2 3705   5.880   3.192   3.982
  936SOL     OW 3706   1.506   6.946   5.996
  936SOL    HW1 3707   1.575   6.881   5.966
  936SOL    HW2 3708   1.467   6.993   5.917
  937SOL     OW 3709   3.979   1.733   5.854
  937SOL    HW1 3710   3.935   1.664   5.911
  937SOL    HW2 3711   3.949   1.723   5.759
  938SOL     OW 3712   5.742   5.480   4.258
  938SOL    HW1 3713   5.648   5.447   4.248
  938SOL    HW2 3714   5.742   5.565   4.310
  939SOL     OW 3715   6.994   6.646   6.087
  939SOL    HW1 3716   7.002   6.620   6.183
  939SOL    HW2 3717   0.055   6.613   6.037
  940SOL     OW 3718   2.117   4.816   6.961
  940SOL    HW1 3719   2.025   4.851   6.977
  940SOL    HW2 3720   2.148   4.765   0.024
  941SOL     OW 3721   3.773   0.646   0.294
  941SOL    HW1 3722   3.803   0.739   0.272
  941SOL    HW2 3723   3.829   0.611   0.369
  942SOL     OW 3724   0.035   5.332   0.480
  942SOL    HW1 3725   0.000   5.279   0.403
  942SOL    HW2 3726   0.133   5.318   0.490
  943SOL     OW 3727   3.403   5.757   1.824
  943SOL    HW1 3728   3.498   5.755   1.794
  943SOL    HW2 3729   3.396   5.806   1.911
  944SOL     OW 3730   6.285   6.858   4.071
  944SOL    HW1 3731   6.238   6.849   3.983
  944SOL    HW2 3732   6.368   6.802   4.071
  945SOL     OW 3733   0.988   5.602   0.066
  945SOL    HW1 3734   0.944   5.593   6.994
  945SOL    HW2 3735   0.919   5.623   0.135
  946SOL     OW 3736   5.025   2.875   4.237
  946SOL    HW1 3737   5.076   2.790   4.253
  946SOL    HW2 3738   5.064   2.949   4.291
  947SOL     OW 3739   3.902   3.839   4.034
  947SOL    HW1 3740   3.979   3.800   3.984
  947SOL    HW2 3741   3.827   3.858   3.970
  948SOL     OW 3742   4.258   0.875   2.450
  948SOL    HW1 3743   4.239   0.894   2.353
  948SOL    HW2 3744   4.287   0.960   2.495
  949SOL     OW 3745   2.800   0.149   6.125
  949SOL    HW1 3746   2.738   0.208   6.177
  949SOL    HW2 3747   2.778   0.156   6.028
  950SOL     OW 3748   6.820   0.376   2.096
  950SOL    HW1 3749   6.727   0.369   2.061
  950SOL    HW2 3750   6.875   0.301   2.059
  951SOL     OW 3751   2.383   6.575   3.166
  951SOL    HW1 3752   2.434   6.640   3.110
  951SOL    HW2 3753   2.407   6.588   3.262
  952SOL     OW 3754   3.153   1.144   2.678
  952SOL    HW1 3755   3.187   1.226   2.631
  952SOL    HW2 3756   3.192   1.063   2.634
  953SOL     OW 3757   6.584   4.654   5.789
  953SOL    HW1 3758   6.592   4.587   5.715
  953SOL    HW2 3759   6.489   4.660   5.818
  954SOL     OW 3760   4.355   5.635   3.093
  954SOL    HW1 3761   4.361   5.541   3.060
  954SOL    HW2 3762   4.447   5.669   3.113
  955SOL     OW 3763   1.857   4.885   0.017
  955SOL    HW1 3764   1.780   4.934   0.058
  955SOL    HW2 3765   1.835   4.787   0.014
  956SOL     OW 3766   5.047   0.430   1.161
  956SOL    HW1 3767   5.041   0.500   1.090
  956SOL    HW2 3768   4.981   0.450   1.233
  957SOL     OW 3769   5.828   0.992   3.495
  957SOL    HW1 3770   5.883   0.920   3.537
  957SOL    HW2 3771   5.821   1.069   3.558
  958SOL     OW 3772   5.230   6.961   1.668
  958SOL    HW1 3773   5.140   6.919   1.652
  958SOL    HW2 3774   5.218   0.025   1.724
  959SOL     OW 3775   4.157   6.709   4.333
  959SOL    HW1 3776   4.241   6.675   4.377
  959SOL    HW2 3777   4.135   6.799   4.370
  960SOL     OW 3778   1.536   6.965   6.618
  960SOL    HW1 3779   1.480   6.998   6.541
  960SOL    HW2 3780   1.632   6.982   6.598
  961SOL     OW 3781   3.413   7.000   3.106
  961SOL    HW1 3782   3.362   6.932   3.160
  961SOL    HW2 3783   3.487   6.954   3.056
  962SOL     OW 3784   6.131   0.601   4.796
  962SOL    HW1 3785   6.225   0.576   4.819
  962SOL    HW2 3786   6.130   0.663   4.718
  963SOL     OW 3787   5.316   3.135   1.250
  963SOL    HW1 3788   5.222   3.162   1.230
  963SOL    HW2 3789   5.321   3.036   1.262
  964SOL     OW 3790   4.627   4.848   5.411
  964SOL    HW1 3791   4.692   4.921   5.434
  964SOL    HW2 3792   4.643   4.817   5.317
  965SOL     OW 3793   5.610   2.578   3.403
  965SOL    HW1 3794   5.546   2.542   3.335
  965SOL    HW2 3795   5.603   2.525   3.488
  966SOL     OW 3796   4.430   1.346   4.675
  966SOL    HW1 3797   4.461   1.385   4.589
  966SOL    HW2 3798   4.481   1.389   4.751
  967SOL     OW 3799   4.570   3.884   6.267
  967SOL    HW1 3800   4.560   3.785   6.278
  967SOL    HW2 3801   4.655   3.903   6.217
  968SOL     OW 3802   3.995   0.415   1.200
  968SOL    HW1 3803   3.974   0.370   1.287
  968SOL    HW2 3804   4.041   0.502   1.217
  969SOL     OW 3805   2.993   4.126   6.538
  969SOL    HW1 3806   3.068   4.127   6.472
  969SOL    HW2 3807   3.008   4.054   6.605
  970SOL     OW 3808   5.214   6.752   6.166
  970SOL    HW1 3809   5.300   6.710   6.135
  970SOL    HW2 3810   5.187   6.712   6.253
  971SOL     OW 3811   5.127   3.531   3.180
  971SOL    HW1 3812   5.160   3.455   3.237
  971SOL    HW2 3813   5.133   3.505   3.084
  972SOL     OW 3814   0.135   2.986   0.701
  972SOL    HW1 3815   0.177   3.077   0.699
  972SOL    HW2 3816   0.036   2.995   0.693
  973SOL     OW 3817   0.367   2.994   6.013
  973SOL    HW1 3818   0.437   3.006   6.084
  973SOL    HW2 3819   0.332   3.083   5.985
  974SOL     OW 3820   0.003   4.988   2.870
  974SOL    HW1 3821   0.049   5.077   2.861
  974SOL    HW2 3822   0.062   4.926   2.922
  975SOL     OW 3823   3.380   0.964   1.831
  975SOL    HW1 3824   3.432   1.039   1.789
  975SOL    HW2 3825   3.410   0.877   1.792
  976SOL     OW 3826   7.009   3.396   3.255
  976SOL    HW1 3827   6.933   3.447   3.297
  976SOL    HW2 3828   6.978   3.303   3.233
  977SOL     OW 3829   6.528   0.530   2.168
  977SOL    HW1 3830   6.529   0.430   2.168
  977SOL    HW2 3831   6.544   0.563   2.261
  978SOL     OW 3832   5.396   3.301   2.042
  978SOL    HW1 3833   5.359   3.372   2.102
  978SOL    HW2 3834   5.331   3.281   1.969
  979SOL     OW 3835   0.470   4.165   0.054
  979SOL    HW1 3836   0.533   4.163   0.132
  979SOL    HW2 3837   0.385   4.210   0.082
  980SOL     OW 3838   3.529   1.393   4.526
  980SOL    HW1 3839   3.582   1.366   4.606
  980SOL    HW2 3840   3.453   1.329   4.513
  981SOL     OW 3841   6.994   0.078   5.469
  981SOL    HW1 3842   6.950   0.158   5.428
  981SOL    HW2 3843   0.073   0.078   5.446
  982SOL     OW 3844   6.020   1.138   5.653
  982SOL    HW1 3845   5.936   1.193   5.659
  982SOL    HW2 3846   6.039   1.118   5.557
  983SOL     OW 3847   0.479   5.034   4.132
  983SOL    HW1 3848   0.472   5.108   4.199
  983SOL    HW2 3849   0.575   5.018   4.110
  984SOL     OW 3850   0.303   3.391   3.863
  984SOL    HW1 3851   0.265   3.376   3.772
  984SOL    HW2 3852   0.231   3.419   3.926
  985SOL     OW 3853   6.304   4.880   5.095
  985SOL    HW1 3854   6.394   4.904   5.132
  985SOL    HW2 3855   6.233   4.913   5.157
  986SOL     OW 3856   4.832   5.226   1.502
  986SOL    HW1 3857   4.738   5.222   1.536
  986SOL    HW2 3858   4.864   5.320   1.504
  987SOL     OW 3859   4.617   4.340   4.307
  987SOL    HW1 3860   4.593   4.337   4.210
  987SOL    HW2 3861   4.679   4.264   4.328
  988SOL     OW 3862   2.399   4.403   1.859
  988SOL    HW1 3863   2.457   4.472   1.903
  988SOL    HW2 3864   2.415   4.314   1.902
  989SOL     OW 3865   1.289   1.746   0.763
  989SOL    HW1 3866   1.300   1.647   0.757
  989SOL    HW2 3867   1.225   1.769   0.836
  990SOL     OW 3868   3.644   0.137   4.286
  990SOL    HW1 3869   3.704   0.069   4.243
  990SOL    HW2 3870   3.646   0.222   4.233
  991SOL     OW 3871   6.842   5.418   3.551
  991SOL    HW1 3872   6.767   5.481   3.528
  991SOL    HW2 3873   6.891   5.394   3.468
  992SOL     OW 3874   6.786   2.197   0.295
  992SOL    HW1 3875   6.833   2.285   0.290
  992SOL    HW2 3876   6.758   2.179   0.389
  993SOL     OW 3877   1.727   5.158   6.857
  993SOL    HW1 3878   1.704   5.136   6.952
  993SOL    HW2 3879   1.653   5.213   6.817
  994SOL     OW 3880   3.406   6.232   0.099
  994SOL    HW1 3881   3.391   6.310   0.159
  994SOL    HW2 3882   3.431   6.264   0.008
  995SOL     OW 3883   6.254   4.325   6.240
  995SOL    HW1 3884   6.282   4.399   6.179
  995SOL    HW2 3885   6.333   4.266   6.259
  996SOL     OW 3886   3.692   5.601   4.679
  996SOL    HW1 3887   3.613   5.661   4.689
  996SOL    HW2 3888   3.764   5.630   4.743
  997SOL     OW 3889   1.861   6.403   3.449
  997SOL    HW1 3890   1.766   6.423   3.428
  997SOL    HW2 3891   1.866   6.347   3.533
  998SOL     OW 3892   5.247   0.648   6.190
  998SOL    HW1 3893   5.213   0.717   6.254
  998SOL    HW2 3894   5.182   0.573   6.183
  999SOL     OW 3895   4.985   3.668   2.630
  999SOL    HW1 3896   4.972   3.584   2.577
  999SOL    HW2 3897   5.082   3.684   2.642
 1000SOL     OW 3898   4.924   2.410   1.553
 1000SOL    HW1 3899   4.999   2.413   1.487
 1000SOL    HW2 3900   4.952   2.457   1.637
 1001SOL     OW 3901   2.858   0.179   2.330
 1001SOL    HW1 3902   2.925   0.208   2.261
 1001SOL    HW2 3903   2.767   0.178   2.288
 1002SOL     OW 3904   5.151   2.250   1.172
 1002SOL    HW1 3905   5.241   2.257   1.130
 1002SOL    HW2 3906   5.083   2.294   1.114
 1003SOL     OW 3907   0.532   0.640   3.145
 1003SOL    HW1 3908   0.532   0.674   3.238
 1003SOL    HW2 3909   0.570   0.709   3.084
 1004SOL     OW 3910   5.117   1.545   3.955
 1004SOL    HW1 3911   5.101   1.521   3.860
 1004SOL    HW2 3912   5.211   1.578   3.966
 1005SOL     OW 3913   1.678   4.892   2.109
 1005SOL    HW1 3914   1.601   4.836   2.077
 1005SOL    HW2 3915   1.654   4.989   2.101
 1006SOL     OW 3916   2.448   3.823   1.131
 1006SOL    HW1 3917   2.381   3.777   1.072
 1006SOL    HW2 3918   2.498   3.755   1.185
 1007SOL     OW 3919   4.590   0.959   6.681
 1007SOL    HW1 3920   4.627   1.042   6.640
 1007SOL    HW2 3921   4.499   0.940   6.642
 1008SOL     OW 3922   0.401   5.087   5.653
 1008SOL    HW1 3923   0.318   5.142   5.648
 1008SOL    HW2 3924   0.459   5.121   5.726
 1009SOL     OW 3925   0.244   5.665   5.869
 1009SOL    HW1 3926   0.237   5.726   5.948
 1009SOL    HW2 3927   0.337   5.630   5.862
 1010SOL     OW 3928   2.568   3.024   0.883
 1010SOL    HW1 3929   2.576   2.926   0.869
 1010SOL    HW2 3930   2.648   3.070   0.843
 1011SOL     OW 3931   0.110   5.194   2.462
 1011SOL    HW1 3932   0.041   5.124   2.440
 1011SOL    HW2 3933   0.132   5.246   2.380
 1012SOL     OW 3934   4.645   6.827   3.537
 1012SOL    HW1 3935   4.582   6.830   3.460
 1012SOL    HW2 3936   4.594   6.833   3.623
 1013SOL     OW 3937   7.012   6.875   6.800
 1013SOL    HW1 3938   0.092   6.888   6.786
 1013SOL    HW2 3939   6.997   6.818   6.881
 1014SOL     OW 3940   1.190   4.459   5.378
 1014SOL    HW1 3941   1.265   4.432   5.317
 1014SOL    HW2 3942   1.161   4.552   5.356
 1015SOL     OW 3943   3.041   6.690   6.994
 1015SOL    HW1 3944   3.045   6.651   6.902
 1015SOL    HW2 3945   3.062   6.788   6.989
 1016SOL     OW 3946   6.234   4.174   1.733
 1016SOL    HW1 3947   6.313   4.208   1.683
 1016SOL    HW2 3948   6.175   4.122   1.671
 1017SOL     OW 3949   2.224   1.520   1.915
 1017SOL    HW1 3950   2.241   1.450   1.985
 1017SOL    HW2 3951   2.150   1.488   1.854
 1018SOL     OW 3952   6.729   6.560   4.710
 1018SOL    HW1 3953   6.707   6.507   4.628
 1018SOL    HW2 3954   6.827   6.554   4.729
 1019SOL     OW 3955   6.559   4.439   0.753
 1019SOL    HW1 3956   6.483   4.427   0.688
 1019SOL    HW2 3957   6.523   4.469   0.841
 1020SOL     OW 3958   5.674   1.245   0.741
 1020SOL    HW1 3959   5.644   1.320   0.683
 1020SOL    HW2 3960   5.753   1.274   0.795
 1021SOL     OW 3961   0.426   6.709   1.203
 1021SOL    HW1 3962   0.495   6.770   1.243
 1021SOL    HW2 3963   0.421   6.725   1.105
 1022SOL     OW 3964   2.754   5.674   6.993
 1022SOL    HW1 3965   2.749   5.676   6.893
 1022SOL    HW2 3966   2.850   5.683   0.004
 1023SOL     OW 3967   0.763   1.004   3.539
 1023SOL    HW1 3968   0.806   1.084   3.498
 1023SOL    HW2 3969   0.673   1.029   3.574
 1024SOL     OW 3970   1.856   1.713   4.409
 1024SOL    HW1 3971   1.803   1.786   4.366
 1024SOL    HW2 3972   1.949   1.713   4.370
 1025SOL     OW 3973   4.509   4.058   0.193
 1025SOL    HW1 3974   4.413   4.065   0.167
 1025SOL    HW2 3975   4.516   4.022   0.286
 1026SOL     OW 3976   2.930   2.382   1.512
 1026SOL    HW1 3977   3.011   2.365   1.569
 1026SOL    HW2 3978   2.853   2.405   1.570
 1027SOL     OW 3979   0.858   6.986   0.689
 1027SOL    HW1 3980   0.825   6.893   0.670
 1027SOL    HW2 3981   0.810   0.004   0.769
 1028SOL     OW 3982   1.427   5.949   2.363
 1028SOL    HW1 3983   1.515   5.919   2.325
 1028SOL    HW2 3984   1.439   5.971   2.459
 1029SOL     OW 3985   0.729   1.226   6.028
 1029SOL    HW1 3986   0.678   1.228   5.942
 1029SOL    HW2 3987   0.827   1.238   6.009
 1030SOL     OW 3988   3.431   3.172   1.352
 1030SOL    HW1 3989   3.431   3.098   1.419
 1030SOL    HW2 3990   3.463   3.138   1.264
 1031SOL     OW 3991   3.969   2.758   0.853
 1031SOL    HW1 3992   3.897   2.722   0.794
 1031SOL    HW2 3993   3.953   2.856   0.870
 1032SOL     OW 3994   2.177   1.692   6.386
 1032SOL    HW1 3995   2.102   1.725   6.444
 1032SOL    HW2 3996   2.257   1.674   6.443
 1033SOL     OW 3997   0.539   6.539   2.063
 1033SOL    HW1 3998   0.534   6.459   2.123
 1033SOL    HW2 3999   0.632   6.548   2.027
 1034SOL     OW 4000   2.599   0.212   4.386
 1034SOL    HW1 4001   2.677   0.168   4.431
 1034SOL    HW2 4002   2.633   0.278   4.319
 1035SOL     OW 4003   1.499   1.334   6.438
 1035SOL    HW1 4004   1.466   1.424   6.410
 1035SOL    HW2 4005   1.542   1.340   6.528
 1036SOL     OW 4006   4.820   1.400   1.292
 1036SOL    HW1 4007   4.759   1.427   1.367
 1036SOL    HW2 4008   4.864   1.482   1.254
 1037SOL     OW 4009   1.542   3.096   1.742
 1037SOL    HW1 4010   1.485   3.168   1.782
 1037SOL    HW2 4011   1.508   3.007   1.774
 1038SOL     OW 4012   2.474   5.713   6.991
 1038SOL    HW1 4013   2.457   5.615   7.004
 1038SOL    HW2 4014   2.573   5.730   6.986
 1039SOL     OW 4015   3.547   2.855   2.732
 1039SOL    HW1 4016   3.638   2.895   2.731
 1039SOL    HW2 4017   3.511   2.852   2.638
 1040SOL     OW 4018   3.575   2.041   3.096
 1040SOL    HW1 4019   3.498   2.066   3.038
 1040SOL    HW2 4020   3.658   2.034   3.041
 1041SOL     OW 4021   6.932   5.849   6.386
 1041SOL    HW1 4022   7.012   5.831   6.328
 1041SOL    HW2 4023   6.849   5.823   6.337
 1042SOL     OW 4024   5.378   4.226   3.007
 1042SOL    HW1 4025   5.369   4.247   3.104
 1042SOL    HW2 4026   5.474   4.211   2.984
 1043SOL     OW 4027   2.957   2.264   3.626
 1043SOL    HW1 4028   3.039   2.245   3.573
 1043SOL    HW2 4029   2.897   2.184   3.626
 1044SOL     OW 4030   5.680   4.843   1.411
 1044SOL    HW1 4031   5.605   4.898   1.374
 1044SOL    HW2 4032   5.748   4.902   1.453
 1045SOL     OW 4033   2.072   0.451   2.208
 1045SOL    HW1 4034   2.110   0.395   2.134
 1045SOL    HW2 4035   2.113   0.542   2.205
 1046SOL     OW 4036   3.131   1.651   0.913
 1046SOL    HW1 4037   3.103   1.662   0.818
 1046SOL    HW2 4038   3.051   1.627   0.969
 1047SOL     OW 4039   3.697   5.948   3.716
 1047SOL    HW1 4040   3.687   6.039   3.675
 1047SOL    HW2 4041   3.729   5.883   3.647
 1048SOL     OW 4042   1.331   6.229   2.748
 1048SOL    HW1 4043   1.265   6.200   2.818
 1048SOL    HW2 4044   1.395   6.294   2.788
 1049SOL     OW 4045   4.116   6.031   4.917
 1049SOL    HW1 4046   4.070   5.944   4.895
 1049SOL    HW2 4047   4.214   6.014   4.929
 1050SOL     OW 4048   3.137   5.582   2.638
 1050SOL    HW1 4049   3.159   5.592   2.541
 1050SOL    HW2 4050   3.214   5.616   2.694
 1051SOL     OW 4051   0.844   0.847   6.179
 1051SOL    HW1 4052   0.779   0.819   6.249
 1051SOL    HW2 4053   0.795   0.866   6.094
 1052SOL     OW 4054   3.165   1.150   0.080
 1052SOL    HW1 4055   3.264   1.135   0.085
 1052SOL    HW2 4056   3.117   1.068   0.111
 1053SOL     OW 4057   4.980   2.235   3.669
 1053SOL    HW1 4058   4.885   2.208   3.681
 1053SOL    HW2 4059   5.039   2.181   3.729
 1054SOL     OW 4060   3.590   4.850   6.079
 1054SOL    HW1 4061   3.512   4.890   6.126
 1054SOL    HW2 4062   3.669   4.910   6.088
 1055SOL     OW 4063   5.139   5.810   6.470
 1055SOL    HW1 4064   5.150   5.721   6.514
 1055SOL    HW2 4065   5.228   5.855   6.463
 1056SOL     OW 4066   2.975   3.674   0.198
 1056SOL    HW1 4067   2.978   3.754   0.258
 1056SOL    HW2 4068   2.886   3.669   0.153
 1057SOL     OW 4069   3.188   2.412   0.931
 1057SOL    HW1 4070   3.169   2.356   1.012
 1057SOL    HW2 4071   3.269   2.468   0.948
 1058SOL     OW 4072   2.919   2.210   2.585
 1058SOL    HW1 4073   2.868   2.221   2.499
 1058SOL    HW2 4074   3.016   2.200   2.564
 1059SOL     OW 4075   2.459   6.432   1.464
 1059SOL    HW1 4076   2.545   6.483   1.465
 1059SOL    HW2 4077   2.476   6.338   1.493
 1060SOL     OW 4078   6.160   6.792   5.313
 1060SOL    HW1 4079   6.236   6.848   5.344
 1060SOL    HW2 4080   6.167   6.701   5.353
 1061SOL     OW 4081   0.208   3.819   6.317
 1061SOL    HW1 4082   0.227   3.801   6.413
 1061SOL    HW2 4083   0.110   3.816   6.301
 1062SOL     OW 4084   3.574   6.606   4.836
 1062SOL    HW1 4085   3.565   6.509   4.811
 1062SOL    HW2 4086   3.623   6.613   4.923
 1063SOL     OW 4087   3.141   6.681   5.257
 1063SOL    HW1 4088   3.047   6.681   5.224
 1063SOL    HW2 4089   3.143   6.657   5.354
 1064SOL     OW 4090   1.291   3.462   0.447
 1064SOL    HW1 4091   1.238   3.409   0.380
 1064SOL    HW2 4092   1.387   3.462   0.421
 1065SOL     OW 4093   4.830   0.801   4.537
 1065SOL    HW1 4094   4.758   0.806   4.606
 1065SOL    HW2 4095   4.799   0.743   4.461
 1066SOL     OW 4096   5.294   6.700   1.842
 1066SOL    HW1 4097   5.233   6.695   1.921
 1066SOL    HW2 4098   5.297   6.612   1.795
 1067SOL     OW 4099   2.650   1.661   0.207
 1067SOL    HW1 4100   2.645   1.591   0.278
 1067SOL    HW2 4101   2.638   1.751   0.247
 1068SOL     OW 4102   0.014   3.254   1.895
 1068SOL    HW1 4103   6.945   3.274   1.940
 1068SOL    HW2 4104   0.085   3.315   1.931
 1069SOL     OW 4105   6.567   3.803   1.916
 1069SOL    HW1 4106   6.483   3.857   1.919
 1069SOL    HW2 4107   6.546   3.707   1.932
 1070SOL     OW 4108   1.333   6.757   2.206
 1070SOL    HW1 4109   1.386   6.723   2.284
 1070SOL    HW2 4110   1.355   6.703   2.124
 1071SOL     OW 4111   0.057   3.031   5.422
 1071SOL    HW1 4112   0.094   3.031   5.514
 1071SOL    HW2 4113   0.127   3.061   5.357
 1072SOL     OW 4114   1.541   1.639   2.122
 1072SOL    HW1 4115   1.477   1.697   2.171
 1072SOL    HW2 4116   1.629   1.640   2.169
 1073SOL     OW 4117   4.405   2.341   3.701
 1073SOL    HW1 4118   4.309   2.345   3.728
 1073SOL    HW2 4119   4.432   2.246   3.689
 1074SOL     OW 4120   2.883   4.828   1.856
 1074SOL    HW1 4121   2.869   4.732   1.879
 1074SOL    HW2 4122   2.822   4.885   1.912
 1075SOL     OW 4123   6.049   4.202   5.640
 1075SOL    HW1 4124   6.059   4.106   5.667
 1075SOL    HW2 4125   5.952   4.225   5.634
 1076SOL     OW 4126   2.091   4.461   4.771
 1076SOL    HW1 4127   2.004   4.429   4.808
 1076SOL    HW2 4128   2.148   4.383   4.747
 1077SOL     OW 4129   0.208   6.974   0.143
 1077SOL    HW1 4130   0.154   0.020   0.088
 1077SOL    HW2 4131   0.154   6.944   0.222
 1078SOL     OW 4132   6.086   6.925   4.417
 1078SOL    HW1 4133   5.992   6.890   4.416
 1078SOL    HW2 4134   6.113   6.949   4.324
 1079SOL     OW 4135   0.731   0.179   1.925
 1079SOL    HW1 4136   0.732   0.086   1.960
 1079SOL    HW2 4137   0.802   0.190   1.856
 1080SOL     OW 4138   3.537   6.411   6.453
 1080SOL    HW1 4139   3.486   6.361   6.523
 1080SOL    HW2 4140   3.621   6.362   6.431
 1081SOL     OW 4141   6.827   6.097   4.460
 1081SOL    HW1 4142   6.896   6.040   4.415
 1081SOL    HW2 4143   6.774   6.042   4.523
 1082SOL     OW 4144   4.399   6.614   6.757
 1082SOL    HW1 4145   4.329   6.683   6.740
 1082SOL    HW2 4146   4.471   6.622   6.687
 1083SOL     OW 4147   5.146   4.242   1.562
 1083SOL    HW1 4148   5.196   4.184   1.626
 1083SOL    HW2 4149   5.095   4.183   1.498
 1084SOL     OW 4150   6.298   0.562   5.173
 1084SOL    HW1 4151   6.353   0.639   5.206
 1084SOL    HW2 4152   6.318   0.546   5.076
 1085SOL     OW 4153   1.575   3.713   4.643
 1085SOL    HW1 4154   1.659   3.693   4.693
 1085SOL    HW2 4155   1.551   3.809   4.656
 1086SOL     OW 4156   5.987   5.398   1.045
 1086SOL    HW1 4157   5.895   5.413   1.010
 1086SOL    HW2 4158   6.022   5.482   1.085
 1087SOL     OW 4159   3.077   0.566   5.305
 1087SOL    HW1 4160   2.990   0.529   5.339
 1087SOL    HW2 4161   3.144   0.492   5.298
 1088SOL     OW 4162   6.520   5.061   3.303
 1088SOL    HW1 4163   6.544   4.965   3.314
 1088SOL    HW2 4164   6.580   5.118   3.360
 1089SOL     OW 4165   6.615   4.457   4.794
 1089SOL    HW1 4166   6.636   4.516   4.716
 1089SOL    HW2 4167   6.610   4.513   4.877
 1090SOL     OW 4168   5.446   1.988   5.245
 1090SOL    HW1 4169   5.511   1.926   5.202
 1090SOL    HW2 4170   5.372   1.934   5.287
 1091SOL     OW 4171   2.094   2.598   2.521
 1091SOL    HW1 4172   2.162   2.662   2.557
 1091SOL    HW2 4173   2.063   2.630   2.431
 1092SOL     OW 4174   0.474   5.879   1.227
 1092SOL    HW1 4175   0.390   5.910   1.181
 1092SOL    HW2 4176   0.468   5.781   1.244
 1093SOL     OW 4177   2.052   0.531   2.869
 1093SOL    HW1 4178   2.069   0.462   2.799
 1093SOL    HW2 4179   1.959   0.521   2.905
 1094SOL     OW 4180   0.896   0.395   3.363
 1094SOL    HW1 4181   0.810   0.446   3.372
 1094SOL    HW2 4182   0.972   0.459   3.357
 1095SOL     OW 4183   4.865   3.673   0.704
 1095SOL    HW1 4184   4.954   3.635   0.680
 1095SOL    HW2 4185   4.803   3.664   0.626
 1096SOL     OW 4186   2.786   5.992   1.464
 1096SOL    HW1 4187   2.776   5.932   1.384
 1096SOL    HW2 4188   2.741   6.079   1.446
 1097SOL     OW 4189   3.313   5.269   4.704
 1097SOL    HW1 4190   3.245   5.263   4.630
 1097SOL    HW2 4191   3.397   5.310   4.668
 1098SOL     OW 4192   6.135   4.554   0.675
 1098SOL    HW1 4193   6.112   4.598   0.762
 1098SOL    HW2 4194   6.060   4.568   0.610
 1099SOL     OW 4195   4.228   6.651   5.644
 1099SOL    HW1 4196   4.170   6.731   5.629
 1099SOL    HW2 4197   4.310   6.657   5.588
 1100SOL     OW 4198   3.508   1.810   4.366
 1100SOL    HW1 4199   3.545   1.798   4.458
 1100SOL    HW2 4200   3.487   1.721   4.326
 1101SOL     OW 4201   5.626   3.035   6.663
 1101SOL    HW1 4202   5.586   3.126   6.672
 1101SOL    HW2 4203   5.656   3.020   6.569
 1102SOL     OW 4204   2.932   1.072   3.443
 1102SOL    HW1 4205   2.920   1.106   3.536
 1102SOL    HW2 4206   2.909   1.144   3.377
 1103SOL     OW 4207   2.932   6.593   0.311
 1103SOL    HW1 4208   2.873   6.604   0.231
 1103SOL    HW2 4209   2.963   6.683   0.342
 1104SOL     OW 4210   0.812   3.077   4.234
 1104SOL    HW1 4211   0.876   3.079   4.158
 1104SOL    HW2 4212   0.787   3.170   4.259
 1105SOL     OW 4213   5.219   1.145   5.686
 1105SOL    HW1 4214   5.175   1.224   5.729
 1105SOL    HW2 4215   5.193   1.141   5.590
 1106SOL     OW 4216   7.008   1.397   0.390
 1106SOL    HW1 4217   7.018   1.497   0.389
 1106SOL    HW2 4218   6.935   1.371   0.326
 1107SOL     OW 4219   0.810   1.614   6.680
 1107SOL    HW1 4220   0.851   1.614   6.771
 1107SOL    HW2 4221   0.828   1.527   6.635
 1108SOL     OW 4222   2.506   7.014   3.392
 1108SOL    HW1 4223   2.541   0.075   3.443
 1108SOL    HW2 4224   2.467   0.027   3.306
 1109SOL     OW 4225   4.611   2.222   4.584
 1109SOL    HW1 4226   4.639   2.221   4.680
 1109SOL    HW2 4227   4.576   2.132   4.559
 1110SOL     OW 4228   2.721   0.930   2.344
 1110SOL    HW1 4229   2.784   0.939   2.267
 1110SOL    HW2 4230   2.631   0.900   2.311
 1111SOL     OW 4231   5.657   3.952   6.668
 1111SOL    HW1 4232   5.684   4.008   6.590
 1111SOL    HW2 4233   5.674   4.002   6.753
 1112SOL     OW 4234   5.362   0.517   2.171
 1112SOL    HW1 4235   5.297   0.486   2.102
 1112SOL    HW2 4236   5.453   0.480   2.151
 1113SOL     OW 4237   5.543   4.388   2.397
 1113SOL    HW1 4238   5.487   4.392   2.314
 1113SOL    HW2 4239   5.639   4.384   2.372
 1114SOL     OW 4240   3.636   3.897   5.309
 1114SOL    HW1 4241   3.618   3.988   5.270
 1114SOL    HW2 4242   3.627   3.828   5.237
 1115SOL     OW 4243   2.851   4.385   5.588
 1115SOL    HW1 4244   2.945   4.371   5.557
 1115SOL    HW2 4245   2.814   4.298   5.619
 1116SOL     OW 4246   4.311   6.834   6.626
 1116SOL    HW1 4247   4.345   6.928   6.628
 1116SOL    HW2 4248   4.293   6.807   6.531
 1117SOL     OW 4249   1.960   2.657   1.262
 1117SOL    HW1 4250   2.057   2.634   1.258
 1117SOL    HW2 4251   1.941   2.731   1.198
 1118SOL     OW 4252   4.008   4.763   0.520
 1118SOL    HW1 4253   3.976   4.776   0.614
 1118SOL    HW2 4254   4.037   4.851   0.483
 1119SOL     OW 4255   2.915   5.176   4.274
 1119SOL    HW1 4256   2.917   5.250   4.341
 1119SOL    HW2 4257   3.001   5.175   4.222
 1120SOL     OW 4258   6.794   3.880   0.833
 1120SOL    HW1 4259   6.838   3.958   0.878
 1120SOL    HW2 4260   6.700   3.871   0.865
 1121SOL     OW 4261   6.717   4.904   4.050
 1121SOL    HW1 4262   6.797   4.959   4.074
 1121SOL    HW2 4263   6.743   4.808   4.044
 1122SOL     OW 4264   5.597   2.673   1.672
 1122SOL    HW1 4265   5.506   2.663   1.712
 1122SOL    HW2 4266   5.590   2.670   1.572
 1123SOL     OW 4267   3.894   1.209   3.182
 1123SOL    HW1 4268   3.928   1.118   3.204
 1123SOL    HW2 4269   3.946   1.247   3.106
 1124SOL     OW 4270   2.358   2.810   4.255
 1124SOL    HW1 4271   2.407   2.727   4.229
 1124SOL    HW2 4272   2.316   2.851   4.174
 1125SOL     OW 4273   2.225   3.929   3.634
 1125SOL    HW1 4274   2.247   3.957   3.728
 1125SOL    HW2 4275   2.225   4.009   3.575
 1126SOL     OW 4276   3.872   4.879   4.659
 1126SOL    HW1 4277   3.804   4.815   4.622
 1126SOL    HW2 4278   3.831   4.969   4.669
 1127SOL     OW 4279   6.067   6.993   2.470
 1127SOL    HW1 4280   6.145   0.014   2.518
 1127SOL    HW2 4281   6.000   6.960   2.536
 1128SOL     OW 4282   5.072   1.296   4.226
 1128SOL    HW1 4283   5.108   1.208   4.257
 1128SOL    HW2 4284   5.035   1.347   4.304
 1129SOL     OW 4285   1.323   1.075   0.734
 1129SOL    HW1 4286   1.242   1.077   0.675
 1129SOL    HW2 4287   1.403   1.049   0.680
 1130SOL     OW 4288   1.866   4.846   1.842
 1130SOL    HW1 4289   1.805   4.880   1.914
 1130SOL    HW2 4290   1.822   4.857   1.753
 1131SOL     OW 4291   0.966   5.059   4.213
 1131SOL    HW1 4292   1.001   5.081   4.304
 1131SOL    HW2 4293   1.035   5.007   4.162
 1132SOL     OW 4294   2.368   1.309   2.808
 1132SOL    HW1 4295   2.396   1.294   2.902
 1132SOL    HW2 4296   2.444   1.288   2.746
 1133SOL     OW 4297   0.827   6.863   5.473
 1133SOL    HW1 4298   0.881   6.938   5.511
 1133SOL    HW2 4299   0.889   6.793   5.437
 1134SOL     OW 4300   3.707   7.007   1.430
 1134SOL    HW1 4301   3.802   0.020   1.424
 1134SOL    HW2 4302   3.705   6.907   1.436
 1135SOL     OW 4303   2.127   5.512   3.577
 1135SOL    HW1 4304   2.187   5.539   3.652
 1135SOL    HW2 4305   2.183   5.489   3.497
 1136SOL     OW 4306   1.363   5.490   1.656
 1136SOL    HW1 4307   1.391   5.580   1.622
 1136SOL    HW2 4308   1.380   5.421   1.586
 1137SOL     OW 4309   1.075   5.531   5.157
 1137SOL    HW1 4310   0.978   5.541   5.177
 1137SOL    HW2 4311   1.112   5.619   5.126
 1138SOL     OW 4312   2.122   3.492   4.489
 1138SOL    HW1 4313   2.208   3.460   4.529
 1138SOL    HW2 4314   2.046   3.445   4.534
 1139SOL     OW 4315   2.938   5.439   4.622
 1139SOL    HW1 4316   3.007   5.503   4.655
 1139SOL    HW2 4317   2.983   5.356   4.589
 1140SOL     OW 4318   1.524   1.741   0.961
 1140SOL    HW1 4319   1.511   1.831   0.919
 1140SOL    HW2 4320   1.553   1.675   0.892
 1141SOL     OW 4321   0.135   4.481   6.272
 1141SOL    HW1 4322   0.175   4.571   6.254
 1141SOL    HW2 4323   0.188   4.436   6.344
 1142SOL     OW 4324   2.457   6.215   1.934
 1142SOL    HW1 4325   2.475   6.183   2.027
 1142SOL    HW2 4326   2.373   6.174   1.899
 1143SOL     OW 4327   0.975   4.282   1.736
 1143SOL    HW1 4328   1.037   4.297   1.813
 1143SOL    HW2 4329   0.920   4.200   1.754
 1144SOL     OW 4330   5.809   4.545   1.184
 1144SOL    HW1 4331   5.858   4.602   1.250
 1144SOL    HW2 4332   5.765   4.469   1.232
 1145SOL     OW 4333   5.722   0.633   1.207
 1145SOL    HW1 4334   5.798   0.593   1.154
 1145SOL    HW2 4335   5.659   0.679   1.145
 1146SOL     OW 4336   0.707   0.776   1.290
 1146SOL    HW1 4337   0.676   0.775   1.385
 1146SOL    HW2 4338   0.806   0.790   1.288
 1147SOL     OW 4339   2.327   6.497   1.233
 1147SOL    HW1 4340   2.383   6.495   1.315
 1147SOL    HW2 4341   2.270   6.415   1.229
 1148SOL     OW 4342   4.563   5.309   3.432
 1148SOL    HW1 4343   4.610   5.220   3.436
 1148SOL    HW2 4344   4.606   5.372   3.497
 1149SOL     OW 4345   4.464   3.246   1.441
 1149SOL    HW1 4346   4.405   3.324   1.421
 1149SOL    HW2 4347   4.541   3.277   1.498
 1150SOL     OW 4348   1.812   3.894   6.993
 1150SOL    HW1 4349   1.880   3.826   6.967
 1150SOL    HW2 4350   1.748   3.907   6.917
 1151SOL     OW 4351   6.158   5.452   4.002
 1151SOL    HW1 4352   6.161   5.510   3.921
 1151SOL    HW2 4353   6.070   5.405   4.006
 1152SOL     OW 4354   4.015   6.225   6.522
 1152SOL    HW1 4355   3.986   6.175   6.604
 1152SOL    HW2 4356   4.050   6.161   6.454
 1153SOL     OW 4357   5.772   0.101   1.637
 1153SOL    HW1 4358   5.721   0.080   1.554
 1153SOL    HW2 4359   5.710   0.140   1.706
 1154SOL     OW 4360   1.750   2.521   0.956
 1154SOL    HW1 4361   1.833   2.498   1.007
 1154SOL    HW2 4362   1.764   2.607   0.907
 1155SOL     OW 4363   2.698   6.626   4.406
 1155SOL    HW1 4364   2.622   6.584   4.456
 1155SOL    HW2 4365   2.765   6.556   4.381
 1156SOL     OW 4366   2.433   1.671   3.696
 1156SOL    HW1 4367   2.512   1.705   3.644
 1156SOL    HW2 4368   2.392   1.745   3.748
 1157SOL     OW 4369   3.609   0.671   6.852
 1157SOL    HW1 4370   3.608   0.678   6.752
 1157SOL    HW2 4371   3.557   0.747   6.891
 1158SOL     OW 4372   5.881   4.852   3.273
 1158SOL    HW1 4373   5.964   4.875   3.221
 1158SOL    HW2 4374   5.826   4.934   3.287
 1159SOL     OW 4375   6.231   5.689   1.338
 1159SOL    HW1 4376   6.330   5.696   1.348
 1159SOL    HW2 4377   6.187   5.706   1.427
 1160SOL     OW 4378   5.311   1.784   0.563
 1160SOL    HW1 4379   5.305   1.736   0.476
 1160SOL    HW2 4380   5.255   1.867   0.559
 1161SOL     OW 4381   0.433   5.483   0.767
 1161SOL    HW1 4382   0.373   5.421   0.816
 1161SOL    HW2 4383   0.477   5.434   0.691
 1162SOL     OW 4384   3.118   2.197   4.760
 1162SOL    HW1 4385   3.023   2.201   4.729
 1162SOL    HW2 4386   3.123   2.224   4.856
 1163SOL     OW 4387   5.587   3.230   1.863
 1163SOL    HW1 4388   5.566   3.160   1.794
 1163SOL    HW2 4389   5.531   3.215   1.944
 1164SOL     OW 4390   4.423   1.919   5.433
 1164SOL    HW1 4391   4.450   2.006   5.475
 1164SOL    HW2 4392   4.501   1.857   5.430
 1165SOL     OW 4393   3.872   6.407   3.568
 1165SOL    HW1 4394   3.954   6.363   3.605
 1165SOL    HW2 4395   3.890   6.437   3.474
 1166SOL     OW 4396   2.924   4.384   6.359
 1166SOL    HW1 4397   2.880   4.399   6.448
 1166SOL    HW2 4398   2.873   4.316   6.307
 1167SOL     OW 4399   5.295   5.060   2.732
 1167SOL    HW1 4400   5.271   5.072   2.635
 1167SOL    HW2 4401   5.358   4.983   2.741
 1168SOL     OW 4402   6.229   0.934   3.271
 1168SOL    HW1 4403   6.151   0.978   3.316
 1168SOL    HW2 4404   6.207   0.838   3.254
 1169SOL     OW 4405   5.492   1.135   5.614
 1169SOL    HW1 4406   5.398   1.146   5.648
 1169SOL    HW2 4407   5.489   1.110   5.517
 1170SOL     OW 4408   5.282   6.451   4.144
 1170SOL    HW1 4409   5.224   6.407   4.076
 1170SOL    HW2 4410   5.370   6.404   4.149
 1171SOL     OW 4411   0.738   6.627   1.296
 1171SOL    HW1 4412   0.744   6.712   1.243
 1171SOL    HW2 4413   0.715   6.649   1.391
 1172SOL     OW 4414   6.867   3.283   6.306
 1172SOL    HW1 4415   6.850   3.289   6.208
 1172SOL    HW2 4416   6.941   3.345   6.331
 1173SOL     OW 4417   3.727   1.475   0.528
 1173SOL    HW1 4418   3.786   1.397   0.549
 1173SOL    HW2 4419   3.774   1.560   0.549
 1174SOL     OW 4420   2.767   3.672   0.976
 1174SOL    HW1 4421   2.765   3.582   0.934
 1174SOL    HW2 4422   2.862   3.704   0.983
 1175SOL     OW 4423   3.108   3.086   4.094
 1175SOL    HW1 4424   3.151   3.077   4.005
 1175SOL    HW2 4425   3.009   3.091   4.084
 1176SOL     OW 4426   5.601   3.516   6.136
 1176SOL    HW1 4427   5.557   3.539   6.223
 1176SOL    HW2 4428   5.550   3.559   6.061
 1177SOL     OW 4429   6.766   1.826   4.482
 1177SOL    HW1 4430   6.787   1.755   4.549
 1177SOL    HW2 4431   6.848   1.848   4.429
 1178SOL     OW 4432   3.486   5.279   0.289
 1178SOL    HW1 4433   3.392   5.302   0.264
 1178SOL    HW2 4434   3.549   5.311   0.219
 1179SOL     OW 4435   1.855   5.507   0.243
 1179SOL    HW1 4436   1.787   5.512   0.170
 1179SOL    HW2 4437   1.940   5.551   0.213
 1180SOL     OW 4438   3.243   5.884   0.707
 1180SOL    HW1 4439   3.160   5.939   0.713
 1180SOL    HW2 4440   3.323   5.942   0.724
 1181SOL     OW 4441   0.363   6.071   0.716
 1181SOL    HW1 4442   0.430   6.011   0.673
 1181SOL    HW2 4443   0.410   6.136   0.776
 1182SOL     OW 4444   4.843   4.694   2.902
 1182SOL    HW1 4445   4.862   4.597   2.915
 1182SOL    HW2 4446   4.898   4.748   2.965
 1183SOL     OW 4447   2.258   3.235   5.682
 1183SOL    HW1 4448   2.343   3.189   5.707
 1183SOL    HW2 4449   2.280   3.327   5.648
 1184SOL     OW 4450   0.943   0.075   6.106
 1184SOL    HW1 4451   0.913   0.043   6.016
 1184SOL    HW2 4452   0.866   0.118   6.153
 1185SOL     OW 4453   6.731   1.500   6.641
 1185SOL    HW1 4454   6.703   1.405   6.652
 1185SOL    HW2 4455   6.829   1.503   6.618
 1186SOL     OW 4456   5.581   6.257   4.927
 1186SOL    HW1 4457   5.532   6.171   4.941
 1186SOL    HW2 4458   5.595   6.272   4.829
 1187SOL     OW 4459   5.883   0.650   6.283
 1187SOL    HW1 4460   5.944   0.587   6.234
 1187SOL    HW2 4461   5.843   0.603   6.361
 1188SOL     OW 4462   2.742   6.706   6.046
 1188SOL    HW1 4463   2.787   6.700   6.135
 1188SOL    HW2 4464   2.750   6.618   5.999
 1189SOL     OW 4465   5.750   3.159   3.190
 1189SOL    HW1 4466   5.655   3.156   3.158
 1189SOL    HW2 4467   5.751   3.163   3.290
 1190SOL     OW 4468   1.923   6.019   2.955
 1190SOL    HW1 4469   1.869   5.935   2.946
 1190SOL    HW2 4470   1.979   6.031   2.873
 1191SOL     OW 4471   4.041   5.409   2.358
 1191SOL    HW1 4472   4.036   5.489   2.419
 1191SOL    HW2 4473   4.074   5.330   2.409
 1192SOL     OW 4474   5.438   6.386   3.807
 1192SOL    HW1 4475   5.352   6.399   3.758
 1192SOL    HW2 4476   5.492   6.314   3.764
 1193SOL     OW 4477   6.285   5.418   4.253
 1193SOL    HW1 4478   6.380   5.415   4.225
 1193SOL    HW2 4479   6.226   5.428   4.173
 1194SOL     OW 4480   3.876   0.912   1.278
 1194SOL    HW1 4481   3.890   0.866   1.366
 1194SOL    HW2 4482   3.853   0.845   1.208
 1195SOL     OW 4483   5.187   2.279   3.260
 1195SOL    HW1 4484   5.252   2.306   3.331
 1195SOL    HW2 4485   5.236   2.246   3.180
 1196SOL     OW 4486   6.163   6.619   4.999
 1196SOL    HW1 4487   6.064   6.630   5.008
 1196SOL    HW2 4488   6.205   6.709   4.988
 1197SOL     OW 4489   2.134   6.315   0.085
 1197SOL    HW1 4490   2.162   6.334   7.009
 1197SOL    HW2 4491   2.175   6.384   0.146
 1198SOL     OW 4492   1.514   2.720   0.287
 1198SOL    HW1 4493   1.610   2.734   0.311
 1198SOL    HW2 4494   1.476   2.646   0.341
 1199SOL     OW 4495   5.316   4.157   2.050
 1199SOL    HW1 4496   5.316   4.251   2.083
 1199SOL    HW2 4497   5.375   4.101   2.107
 1200SOL     OW 4498   3.237   3.853   1.896
 1200SOL    HW1 4499   3.315   3.800   1.930
 1200SOL    HW2 4500   3.180   3.882   1.973
 1201SOL     OW 4501   1.563   1.939   4.818
 1201SOL    HW1 4502   1.631   1.867   4.829
 1201SOL    HW2 4503   1.599   2.025   4.854
 1202SOL     OW 4504   0.343   5.400   6.494
 1202SOL    HW1 4505   0.359   5.400   6.593
 1202SOL    HW2 4506   0.261   5.455   6.474
 1203SOL     OW 4507   4.590   5.750   5.874
 1203SOL    HW1 4508   4.682   5.766   5.838
 1203SOL    HW2 4509   4.586   5.661   5.918
 1204SOL     OW 4510   2.204   0.104   2.513
 1204SOL    HW1 4511   2.120   0.091   2.460
 1204SOL    HW2 4512   2.256   0.019   2.515
 1205SOL     OW 4513   5.316   4.535   1.908
 1205SOL    HW1 4514   5.298   4.619   1.857
 1205SOL    HW2 4515   5.342   4.462   1.845
 1206SOL     OW 4516   3.312   3.583   5.128
 1206SOL    HW1 4517   3.311   3.560   5.031
 1206SOL    HW2 4518   3.323   3.500   5.182
 1207SOL     OW 4519   1.746   6.591   1.934
 1207SOL    HW1 4520   1.729   6.496   1.910
 1207SOL    HW2 4521   1.724   6.649   1.855
 1208SOL     OW 4522   3.430   3.709   6.505
 1208SOL    HW1 4523   3.427   3.615   6.540
 1208SOL    HW2 4524   3.511   3.721   6.448
 1209SOL     OW 4525   3.945   6.280   5.489
 1209SOL    HW1 4526   4.006   6.340   5.437
 1209SOL    HW2 4527   3.983   6.187   5.491
 1210SOL     OW 4528   3.357   1.051   3.534
 1210SOL    HW1 4529   3.292   1.101   3.591
 1210SOL    HW2 4530   3.389   1.111   3.461
 1211SOL     OW 4531   1.175   3.337   0.229
 1211SOL    HW1 4532   1.143   3.333   0.135
 1211SOL    HW2 4533   1.134   3.262   0.282
 1212SOL     OW 4534   1.039   6.436   0.078
 1212SOL    HW1 4535   0.990   6.502   0.021
 1212SOL    HW2 4536   1.047   6.349   0.028
 1213SOL     OW 4537   5.469   2.965   0.991
 1213SOL    HW1 4538   5.549   2.968   0.931
 1213SOL    HW2 4539   5.413   2.885   0.967
 1214SOL     OW 4540   0.173   2.289   1.921
 1214SOL    HW1 4541   0.204   2.200   1.890
 1214SOL    HW2 4542   0.078   2.282   1.954
 1215SOL     OW 4543   1.362   5.393   4.399
 1215SOL    HW1 4544   1.381   5.478   4.348
 1215SOL    HW2 4545   1.272   5.399   4.440
 1216SOL     OW 4546   4.147   6.523   0.353
 1216SOL    HW1 4547   4.199   6.609   0.348
 1216SOL    HW2 4548   4.201   6.455   0.403
 1217SOL     OW 4549   2.591   4.252   0.050
 1217SOL    HW1 4550   2.664   4.295   7.016
 1217SOL    HW2 4551   2.626   4.220   0.138
 1218SOL     OW 4552   1.568   4.587   3.886
 1218SOL    HW1 4553   1.560   4.523   3.809
 1218SOL    HW2 4554   1.569   4.681   3.851
 1219SOL     OW 4555   4.491   5.881   2.949
 1219SOL    HW1 4556   4.477   5.796   2.898
 1219SOL    HW2 4557   4.407   5.935   2.947
 1220SOL     OW 4558   1.210   4.633   2.927
 1220SOL    HW1 4559   1.290   4.594   2.975
 1220SOL    HW2 4560   1.128   4.612   2.980
 1221SOL     OW 4561   5.786   3.802   6.243
 1221SOL    HW1 4562   5.698   3.828   6.204
 1221SOL    HW2 4563   5.772   3.757   6.331
 1222SOL     OW 4564   6.680   6.642   6.569
 1222SOL    HW1 4565   6.681   6.634   6.668
 1222SOL    HW2 4566   6.763   6.688   6.538
 1223SOL     OW 4567   3.218   6.199   0.356
 1223SOL    HW1 4568   3.228   6.178   0.454
 1223SOL    HW2 4569   3.240   6.118   0.302
 1224SOL     OW 4570   3.164   0.595   2.084
 1224SOL    HW1 4571   3.134   0.675   2.136
 1224SOL    HW2 4572   3.193   0.624   1.993
 1225SOL     OW 4573   2.594   4.145   6.720
 1225SOL    HW1 4574   2.542   4.136   6.635
 1225SOL    HW2 4575   2.533   4.133   6.798
 1226SOL     OW 4576   1.989   4.339   0.906
 1226SOL    HW1 4577   1.913   4.302   0.852
 1226SOL    HW2 4578   2.071   4.344   0.850
 1227SOL     OW 4579   0.424   3.214   6.516
 1227SOL    HW1 4580   0.411   3.273   6.437
 1227SOL    HW2 4581   0.456   3.269   6.593
 1228SOL     OW 4582   3.837   1.445   5.730
 1228SOL    HW1 4583   3.796   1.358   5.700
 1228SOL    HW2 4584   3.905   1.474   5.664
 1229SOL     OW 4585   3.859   4.386   6.374
 1229SOL    HW1 4586   3.893   4.452   6.441
 1229SOL    HW2 4587   3.768   4.413   6.344
 1230SOL     OW 4588   4.581   6.316   3.769
 1230SOL    HW1 4589   4.504   6.362   3.812
 1230SOL    HW2 4590   4.581   6.336   3.671
 1231SOL     OW 4591   1.811   4.524   4.278
 1231SOL    HW1 4592   1.910   4.524   4.262
 1231SOL    HW2 4593   1.764   4.489   4.197
 1232SOL     OW 4594   1.929   2.259   4.388
 1232SOL    HW1 4595   1.918   2.193   4.314
 1232SOL    HW2 4596   1.864   2.238   4.461
 1233SOL     OW 4597   1.041   3.172   4.623
 1233SOL    HW1 4598   1.128   3.222   4.625
 1233SOL    HW2 4599   1.060   3.074   4.610
 1234SOL     OW 4600   6.325   4.157   4.420
 1234SOL    HW1 4601   6.369   4.200   4.341
 1234SOL    HW2 4602   6.356   4.202   4.504
 1235SOL     OW 4603   6.079   5.994   4.488
 1235SOL    HW1 4604   6.072   5.895   4.497
 1235SOL    HW2 4605   6.175   6.020   4.481
 1236SOL     OW 4606   5.066   0.732   0.096
 1236SOL    HW1 4607   5.096   0.813   0.045
 1236SOL    HW2 4608   4.990   0.758   0.156
 1237SOL     OW 4609   3.006   4.312   6.903
 1237SOL    HW1 4610   3.031   4.363   6.821
 1237SOL    HW2 4611   3.048   4.355   6.983
 1238SOL     OW 4612   1.876   1.608   1.558
 1238SOL    HW1 4613   1.817   1.664   1.499
 1238SOL    HW2 4614   1.826   1.586   1.642
 1239SOL     OW 4615   6.929   6.545   6.724
 1239SOL    HW1 4616   6.922   6.606   6.803
 1239SOL    HW2 4617   0.007   6.532   6.700
 1240SOL     OW 4618   4.651   6.157   2.066
 1240SOL    HW1 4619   4.559   6.192   2.086
 1240SOL    HW2 4620   4.704   6.229   2.020
 1241SOL     OW 4621   6.167   3.246   3.348
 1241SOL    HW1 4622   6.104   3.233   3.424
 1241SOL    HW2 4623   6.239   3.310   3.375
 1242SOL     OW 4624   2.408   3.875   6.877
 1242SOL    HW1 4625   2.390   3.801   6.943
 1242SOL    HW2 4626   2.455   3.837   6.797
 1243SOL     OW 4627   2.628   5.380   5.294
 1243SOL    HW1 4628   2.647   5.448   5.224
 1243SOL    HW2 4629   2.588   5.299   5.252
 1244SOL     OW 4630   0.595   0.785   3.368
 1244SOL    HW1 4631   0.588   0.755   3.464
 1244SOL    HW2 4632   0.604   0.884   3.365
 1245SOL     OW 4633   3.021   3.412   6.242
 1245SOL    HW1 4634   3.056   3.471   6.170
 1245SOL    HW2 4635   3.088   3.340   6.261
 1246SOL     OW 4636   1.138   6.456   2.702
 1246SOL    HW1 4637   1.069   6.506   2.755
 1246SOL    HW2 4638   1.098   6.372   2.666
 1247SOL     OW 4639   1.891   6.391   6.869
 1247SOL    HW1 4640   1.804   6.367   6.827
 1247SOL    HW2 4641   1.875   6.412   6.966
 1248SOL     OW 4642   1.905   5.692   3.665
 1248SOL    HW1 4643   1.973   5.750   3.709
 1248SOL    HW2 4644   1.951   5.624   3.608
 1249SOL     OW 4645   6.221   3.369   3.014
 1249SOL    HW1 4646   6.305   3.319   3.034
 1249SOL    HW2 4647   6.143   3.321   3.054
 1250SOL     OW 4648   0.930   4.758   4.598
 1250SOL    HW1 4649   0.986   4.757   4.515
 1250SOL    HW2 4650   0.833   4.759   4.573
 1251SOL     OW 4651   3.764   0.224   5.297
 1251SOL    HW1 4652   3.835   0.210   5.227
 1251SOL    HW2 4653   3.690   0.279   5.259
 1252SOL     OW 4654   3.561   3.268   6.586
 1252SOL    HW1 4655   3.525   3.331   6.654
 1252SOL    HW2 4656   3.486   3.226   6.536
 1253SOL     OW 4657   3.975   5.855   2.914
 1253SOL    HW1 4658   4.054   5.868   2.974
 1253SOL    HW2 4659   3.964   5.758   2.894
 1254SOL     OW 4660   6.846   1.620   2.614
 1254SOL    HW1 4661   6.876   1.667   2.532
 1254SOL    HW2 4662   6.920   1.563   2.650
 1255SOL     OW 4663   5.880   6.809   0.026
 1255SOL    HW1 4664   5.949   6.810   0.099
 1255SOL    HW2 4665   5.923   6.834   6.957
 1256SOL     OW 4666   4.453   1.304   3.686
 1256SOL    HW1 4667   4.548   1.309   3.718
 1256SOL    HW2 4668   4.429   1.388   3.638
 1257SOL     OW 4669   6.132   1.614   4.059
 1257SOL    HW1 4670   6.180   1.600   4.146
 1257SOL    HW2 4671   6.189   1.670   3.999
 1258SOL     OW 4672   0.129   6.871   3.671
 1258SOL    HW1 4673   0.115   6.893   3.574
 1258SOL    HW2 4674   0.201   6.801   3.679
 1259SOL     OW 4675   4.344   2.283   5.311
 1259SOL    HW1 4676   4.409   2.325   5.375
 1259SOL    HW2 4677   4.315   2.351   5.244
 1260SOL     OW 4678   1.061   1.239   6.489
 1260SOL    HW1 4679   1.000   1.263   6.414
 1260SOL    HW2 4680   1.149   1.209   6.452
 1261SOL     OW 4681   6.430   4.047   0.891
 1261SOL    HW1 4682   6.362   4.088   0.830
 1261SOL    HW2 4683   6.522   4.079   0.866
 1262SOL     OW 4684   5.374   5.906   2.447
 1262SOL    HW1 4685   5.360   6.002   2.424
 1262SOL    HW2 4686   5.291   5.870   2.489
 1263SOL     OW 4687   0.782   2.096   3.282
 1263SOL    HW1 4688   0.820   2.130   3.196
 1263SOL    HW2 4689   0.718   2.164   3.319
 1264SOL     OW 4690   0.524   2.702   5.256
 1264SOL    HW1 4691   0.511   2.640   5.179
 1264SOL    HW2 4692   0.435   2.726   5.295
 1265SOL     OW 4693   5.558   6.592   5.298
 1265SOL    HW1 4694   5.506   6.557   5.220
 1265SOL    HW2 4695   5.628   6.656   5.264
 1266SOL     OW 4696   1.713   1.473   4.938
 1266SOL    HW1 4697   1.663   1.526   5.005
 1266SOL    HW2 4698   1.717   1.523   4.851
 1267SOL     OW 4699   3.462   0.418   3.476
 1267SOL    HW1 4700   3.466   0.453   3.569
 1267SOL    HW2 4701   3.555   0.395   3.445
 1268SOL     OW 4702   4.281   2.678   5.587
 1268SOL    HW1 4703   4.271   2.664   5.685
 1268SOL    HW2 4704   4.377   2.675   5.562
 1269SOL     OW 4705   6.125   1.849   4.268
 1269SOL    HW1 4706   6.084   1.903   4.342
 1269SOL    HW2 4707   6.148   1.758   4.302
 1270SOL     OW 4708   6.269   5.837   2.783
 1270SOL    HW1 4709   6.218   5.758   2.817
 1270SOL    HW2 4710   6.301   5.892   2.860
 1271SOL     OW 4711   1.852   1.452   1.032
 1271SOL    HW1 4712   1.798   1.373   1.003
 1271SOL    HW2 4713   1.950   1.429   1.028
 1272SOL     OW 4714   6.174   3.435   6.106
 1272SOL    HW1 4715   6.106   3.363   6.123
 1272SOL    HW2 4716   6.185   3.447   6.007
 1273SOL     OW 4717   1.242   4.508   5.042
 1273SOL    HW1 4718   1.157   4.545   5.080
 1273SOL    HW2 4719   1.314   4.577   5.048
 1274SOL     OW 4720   0.048   5.124   3.190
 1274SOL    HW1 4721   0.121   5.057   3.178
 1274SOL    HW2 4722   6.980   5.086   3.156
 1275SOL     OW 4723   2.091   1.381   3.061
 1275SOL    HW1 4724   2.079   1.287   3.027
 1275SOL    HW2 4725   2.105   1.378   3.160
 1276SOL     OW 4726   5.615   4.900   4.295
 1276SOL    HW1 4727   5.534   4.943   4.335
 1276SOL    HW2 4728   5.668   4.856   4.367
 1277SOL     OW 4729   1.194   6.203   0.334
 1277SOL    HW1 4730   1.132   6.274   0.301
 1277SOL    HW2 4731   1.231   6.152   0.257
 1278SOL     OW 4732   0.938   6.220   2.834
 1278SOL    HW1 4733   0.878   6.294   2.863
 1278SOL    HW2 4734   0.886   6.134   2.832
 1279SOL     OW 4735   2.513   2.690   1.478
 1279SOL    HW1 4736   2.435   2.733   1.522
 1279SOL    HW2 4737   2.595   2.700   1.535
 1280SOL     OW 4738   2.080   2.271   3.761
 1280SOL    HW1 4739   2.081   2.268   3.861
 1280SOL    HW2 4740   2.146   2.339   3.729
 1281SOL     OW 4741   4.922   6.270   4.783
 1281SOL    HW1 4742   5.005   6.250   4.730
 1281SOL    HW2 4743   4.931   6.230   4.874
 1282SOL     OW 4744   0.057   2.620   1.306
 1282SOL    HW1 4745   7.009   2.549   1.327
 1282SOL    HW2 4746   0.113   2.591   1.228
 1283SOL     OW 4747   6.894   2.906   4.602
 1283SOL    HW1 4748   6.928   2.946   4.516
 1283SOL    HW2 4749   6.819   2.963   4.637
 1284SOL     OW 4750   4.118   2.165   1.885
 1284SOL    HW1 4751   4.189   2.179   1.954
 1284SOL    HW2 4752   4.161   2.137   1.798
 1285SOL     OW 4753   4.458   1.091   5.396
 1285SOL    HW1 4754   4.461   1.191   5.390
 1285SOL    HW2 4755   4.516   1.051   5.325
 1286SOL     OW 4756   5.447   2.371   1.499
 1286SOL    HW1 4757   5.499   2.385   1.414
 1286SOL    HW2 4758   5.457   2.277   1.529
 1287SOL     OW 4759   6.758   4.918   4.648
 1287SOL    HW1 4760   6.856   4.921   4.628
 1287SOL    HW2 4761   6.708   4.965   4.575
 1288SOL     OW 4762   4.700   4.347   0.032
 1288SOL    HW1 4763   4.621   4.368   6.992
 1288SOL    HW2 4764   4.702   4.249   0.052
 1289SOL     OW 4765   6.870   6.967   1.779
 1289SOL    HW1 4766   6.835   6.930   1.693
 1289SOL    HW2 4767   6.885   6.893   1.844
 1290SOL     OW 4768   1.488   6.684   5.541
 1290SOL    HW1 4769   1.439   6.763   5.504
 1290SOL    HW2 4770   1.454   6.600   5.498
 1291SOL     OW 4771   6.418   4.545   3.228
 1291SOL    HW1 4772   6.364   4.601   3.290
 1291SOL    HW2 4773   6.470   4.604   3.165
 1292SOL     OW 4774   0.881   6.919   1.727
 1292SOL    HW1 4775   0.880   6.918   1.827
 1292SOL    HW2 4776   0.976   6.918   1.695
 1293SOL     OW 4777   4.510   1.270   0.081
 1293SOL    HW1 4778   4.599   1.229   0.099
 1293SOL    HW2 4779   4.448   1.201   0.042
 1294SOL     OW 4780   1.928   4.206   4.736
 1294SOL    HW1 4781   2.011   4.149   4.734
 1294SOL    HW2 4782   1.893   4.211   4.829
 1295SOL     OW 4783   6.337   4.385   0.563
 1295SOL    HW1 4784   6.367   4.416   0.473
 1295SOL    HW2 4785   6.259   4.440   0.593
 1296SOL     OW 4786   5.266   0.144   5.977
 1296SOL    HW1 4787   5.353   0.142   5.929
 1296SOL    HW2 4788   5.195   0.180   5.916
 1297SOL     OW 4789   0.552   0.716   1.842
 1297SOL    HW1 4790   0.476   0.696   1.905
 1297SOL    HW2 4791   0.632   0.742   1.895
 1298SOL     OW 4792   5.011   0.214   2.197
 1298SOL    HW1 4793   5.018   0.209   2.297
 1298SOL    HW2 4794   5.048   0.130   2.157
 1299SOL     OW 4795   0.875   3.765   4.478
 1299SOL    HW1 4796   0.875   3.861   4.505
 1299SOL    HW2 4797   0.947   3.749   4.410
 1300SOL     OW 4798   0.936   4.979   1.748
 1300SOL    HW1 4799   0.939   5.075   1.777
 1300SOL    HW2 4800   0.873   4.970   1.671
 1301SOL     OW 4801   0.446   0.351   0.488
 1301SOL    HW1 4802   0.431   0.436   0.539
 1301SOL    HW2 4803   0.464   0.372   0.392
 1302SOL     OW 4804   5.967   0.016   4.994
 1302SOL    HW1 4805   5.990   6.965   4.926
 1302SOL    HW2 4806   5.890   0.071   4.961
 1303SOL     OW 4807   3.393   6.401   1.586
 1303SOL    HW1 4808   3.392   6.309   1.626
 1303SOL    HW2 4809   3.473   6.411   1.527
 1304SOL     OW 4810   1.109   1.080   0.552
 1304SOL    HW1 4811   1.035   1.088   0.619
 1304SOL    HW2 4812   1.075   1.031   0.472
 1305SOL     OW 4813   4.491   3.404   6.158
 1305SOL    HW1 4814   4.520   3.359   6.243
 1305SOL    HW2 4815   4.425   3.345   6.111
 1306SOL     OW 4816   2.926   5.560   4.075
 1306SOL    HW1 4817   2.904   5.470   4.039
 1306SOL    HW2 4818   3.025   5.567   4.089
 1307SOL     OW 4819   2.673   2.333   3.567
 1307SOL    HW1 4820   2.769   2.341   3.595
 1307SOL    HW2 4821   2.615   2.376   3.636
 1308SOL     OW 4822   0.674   4.470   6.260
 1308SOL    HW1 4823   0.583   4.438   6.232
 1308SOL    HW2 4824   0.726   4.393   6.297
 1309SOL     OW 4825   5.654   4.829   6.607
 1309SOL    HW1 4826   5.672   4.762   6.679
 1309SOL    HW2 4827   5.639   4.919   6.648
 1310SOL     OW 4828   1.338   3.872   3.123
 1310SOL    HW1 4829   1.333   3.955   3.178
 1310SOL    HW2 4830   1.328   3.792   3.184
 1311SOL     OW 4831   6.182   5.544   0.674
 1311SOL    HW1 4832   6.217   5.480   0.605
 1311SOL    HW2 4833   6.222   5.524   0.763
 1312SOL     OW 4834   2.404   0.917   6.246
 1312SOL    HW1 4835   2.463   0.998   6.240
 1312SOL    HW2 4836   2.348   0.911   6.164
 1313SOL     OW 4837   6.667   6.207   2.638
 1313SOL    HW1 4838   6.757   6.230   2.602
 1313SOL    HW2 4839   6.670   6.116   2.679
 1314SOL     OW 4840   2.475   1.623   4.999
 1314SOL    HW1 4841   2.475   1.530   4.962
 1314SOL    HW2 4842   2.527   1.626   5.084
 1315SOL     OW 4843   6.025   1.513   3.288
 1315SOL    HW1 4844   5.926   1.500   3.284
 1315SOL    HW2 4845   6.046   1.610   3.295
 1316SOL     OW 4846   4.592   0.285   6.931
 1316SOL    HW1 4847   4.593   0.385   6.922
 1316SOL    HW2 4848   4.662   0.257   6.996
 1317SOL     OW 4849   3.535   3.613   5.869
 1317SOL    HW1 4850   3.469   3.683   5.841
 1317SOL    HW2 4851   3.518   3.528   5.820
 1318SOL     OW 4852   1.970   2.131   6.011
 1318SOL    HW1 4853   2.039   2.116   5.940
 1318SOL    HW2 4854   1.987   2.219   6.055
 1319SOL     OW 4855   6.803   0.109   1.184
 1319SOL    HW1 4856   6.742   0.098   1.263
 1319SOL    HW2 4857   6.867   0.184   1.201
 1320SOL     OW 4858   3.466   3.365   5.761
 1320SOL    HW1 4859   3.388   3.356   5.700
 1320SOL    HW2 4860   3.548   3.328   5.718
 1321SOL     OW 4861   6.371   2.606   0.476
 1321SOL    HW1 4862   6.422   2.623   0.560
 1321SOL    HW2 4863   6.338   2.693   0.439
 1322SOL     OW 4864   3.552   1.991   0.415
 1322SOL    HW1 4865   3.548   1.929   0.493
 1322SOL    HW2 4866   3.555   1.937   0.330
 1323SOL     OW 4867   3.525   6.969   0.633
 1323SOL    HW1 4868   3.551   6.885   0.585
 1323SOL    HW2 4869   3.455   6.947   0.701
 1324SOL     OW 4870   1.995   3.816   6.647
 1324SOL    HW1 4871   2.071   3.874   6.616
 1324SOL    HW2 4872   1.951   3.858   6.726
 1325SOL     OW 4873   2.828   5.804   5.333
 1325SOL    HW1 4874   2.879   5.877   5.287
 1325SOL    HW2 4875   2.864   5.715   5.304
 1326SOL     OW 4876   4.936   2.388   3.970
 1326SOL    HW1 4877   5.006   2.378   3.900
 1326SOL    HW2 4878   4.848   2.358   3.933
 1327SOL     OW 4879   5.247   5.590   2.159
 1327SOL    HW1 4880   5.252   5.533   2.077
 1327SOL    HW2 4881   5.179   5.552   2.222
 1328SOL     OW 4882   1.901   2.679   5.076
 1328SOL    HW1 4883   1.998   2.659   5.082
 1328SOL    HW2 4884   1.888   2.771   5.038
 1329SOL     OW 4885   1.061   3.062   3.716
 1329SOL    HW1 4886   1.044   3.158   3.738
 1329SOL    HW2 4887   1.158   3.048   3.698
 1330SOL     OW 4888   6.286   2.928   2.039
 1330SOL    HW1 4889   6.190   2.957   2.045
 1330SOL    HW2 4890   6.290   2.835   2.002
 1331SOL     OW 4891   4.563   1.773   3.655
 1331SOL    HW1 4892   4.465   1.791   3.669
 1331SOL    HW2 4893   4.600   1.731   3.738
 1332SOL     OW 4894   1.621   6.240   0.090
 1332SOL    HW1 4895   1.609   6.303   0.167
 1332SOL    HW2 4896   1.638   6.292   0.006
 1333SOL     OW 4897   3.949   4.014   3.405
 1333SOL    HW1 4898   3.899   4.017   3.491
 1333SOL    HW2 4899   3.892   4.051   3.331
 1334SOL     OW 4900   6.626   3.443   1.689
 1334SOL    HW1 4901   6.594   3.461   1.782
 1334SOL    HW2 4902   6.707   3.500   1.670
 1335SOL     OW 4903   1.228   3.871   2.866
 1335SOL    HW1 4904   1.278   3.899   2.949
 1335SOL    HW2 4905   1.255   3.930   2.790
 1336SOL     OW 4906   2.889   0.433   5.466
 1336SOL    HW1 4907   2.806   0.485   5.442
 1336SOL    HW2 4908   2.869   0.375   5.545
 1337SOL     OW 4909   6.471   1.090   3.237
 1337SOL    HW1 4910   6.474   1.110   3.139
 1337SOL    HW2 4911   6.395   1.029   3.256
 1338SOL     OW 4912   6.644   4.240   5.116
 1338SOL    HW1 4913   6.700   4.243   5.033
 1338SOL    HW2 4914   6.655   4.152   5.161
 1339SOL     OW 4915   0.082   0.226   0.101
 1339SOL    HW1 4916   0.179   0.208   0.091
 1339SOL    HW2 4917   0.061   0.318   0.068
 1340SOL     OW 4918   4.201   2.697   1.221
 1340SOL    HW1 4919   4.299   2.709   1.241
 1340SOL    HW2 4920   4.148   2.767   1.268
 1341SOL     OW 4921   4.728   6.097   0.082
 1341SOL    HW1 4922   4.771   6.141   0.003
 1341SOL    HW2 4923   4.709   6.001   0.060
 1342SOL     OW 4924   2.164   6.786   1.721
 1342SOL    HW1 4925   2.185   6.689   1.715
 1342SOL    HW2 4926   2.248   6.840   1.711
 1343SOL     OW 4927   5.868   5.828   3.396
 1343SOL    HW1 4928   5.968   5.829   3.400
 1343SOL    HW2 4929   5.834   5.736   3.413
 1344SOL     OW 4930   0.632   0.882   4.668
 1344SOL    HW1 4931   0.690   0.917   4.595
 1344SOL    HW2 4932   0.686   0.873   4.752
 1345SOL     OW 4933   0.073   6.109   0.243
 1345SOL    HW1 4934   0.006   6.154   0.302
 1345SOL    HW2 4935   0.027   6.068   0.165
 1346SOL     OW 4936   3.068   5.617   5.047
 1346SOL    HW1 4937   3.078   5.531   5.099
 1346SOL    HW2 4938   3.126   5.687   5.088
 1347SOL     OW 4939   1.239   0.041   6.399
 1347SOL    HW1 4940   1.299   0.121   6.394
 1347SOL    HW2 4941   1.144   0.071   6.397
 1348SOL     OW 4942   0.985   6.301   5.776
 1348SOL    HW1 4943   0.927   6.231   5.818
 1348SOL    HW2 4944   1.050   6.257   5.714
 1349SOL     OW 4945   4.779   2.849   3.706
 1349SOL    HW1 4946   4.731   2.763   3.690
 1349SOL    HW2 4947   4.777   2.871   3.804
 1350SOL     OW 4948   4.244   4.062   6.831
 1350SOL    HW1 4949   4.235   4.150   6.877
 1350SOL    HW2 4950   4.159   4.010   6.841
 1351SOL     OW 4951   0.244   2.468   5.129
 1351SOL    HW1 4952   0.198   2.465   5.040
 1351SOL    HW2 4953   0.332   2.513   5.119
 1352SOL     OW 4954   6.838   0.404   2.372
 1352SOL    HW1 4955   6.843   0.425   2.274
 1352SOL    HW2 4956   6.746   0.375   2.395
 1353SOL     OW 4957   0.534   0.995   0.449
 1353SOL    HW1 4958   0.614   1.047   0.481
 1353SOL    HW2 4959   0.483   1.050   0.383
 1354SOL     OW 4960   5.019   4.838   3.075
 1354SOL    HW1 4961   4.995   4.846   3.172
 1354SOL    HW2 4962   5.108   4.795   3.066
 1355SOL     OW 4963   5.823   3.204   6.246
 1355SOL    HW1 4964   5.904   3.148   6.225
 1355SOL    HW2 4965   5.827   3.289   6.194
 1356SOL     OW 4966   3.064   3.371   0.870
 1356SOL    HW1 4967   3.128   3.398   0.942
 1356SOL    HW2 4968   3.106   3.301   0.813
 1357SOL     OW 4969   0.570   3.560   4.621
 1357SOL    HW1 4970   0.551   3.464   4.640
 1357SOL    HW2 4971   0.582   3.572   4.522
 1358SOL     OW 4972   2.001   6.945   0.186
 1358SOL    HW1 4973   2.052   6.879   0.131
 1358SOL    HW2 4974   1.940   6.897   0.248
 1359SOL     OW 4975   7.005   4.581   2.060
 1359SOL    HW1 4976   6.945   4.506   2.088
 1359SOL    HW2 4977   6.955   4.667   2.064
 1360SOL     OW 4978   2.122   2.407   0.040
 1360SOL    HW1 4979   2.146   2.500   0.066
 1360SOL    HW2 4980   2.050   2.409   6.988
 1361SOL     OW 4981   0.320   5.014   5.171
 1361SOL    HW1 4982   0.377   4.935   5.147
 1361SOL    HW2 4983   0.224   4.990   5.160
 1362SOL     OW 4984   3.333   2.956   2.874
 1362SOL    HW1 4985   3.275   3.007   2.810
 1362SOL    HW2 4986   3.396   2.898   2.822
 1363SOL     OW 4987   0.962   6.297   4.191
 1363SOL    HW1 4988   0.948   6.199   4.176
 1363SOL    HW2 4989   1.031   6.331   4.126
 1364SOL     OW 4990   4.293   4.145   1.109
 1364SOL    HW1 4991   4.363   4.211   1.081
 1364SOL    HW2 4992   4.336   4.072   1.163
 1365SOL     OW 4993   0.509   3.018   6.748
 1365SOL    HW1 4994   0.419   3.003   6.789
 1365SOL    HW2 4995   0.506   3.098   6.689
 1366SOL     OW 4996   3.475   0.038   5.095
 1366SOL    HW1 4997   3.529   0.015   5.013
 1366SOL    HW2 4998   3.378   0.038   5.072
 1367SOL     OW 4999   2.285   1.129   2.584
 1367SOL    HW1 5000   2.215   1.058   2.578
 1367SOL    HW2 5001   2.297   1.155   2.680
 1368SOL     OW 5002   5.231   6.486   3.437
 1368SOL    HW1 5003   5.151   6.508   3.381
 1368SOL    HW2 5004   5.287   6.568   3.448
 1369SOL     OW 5005   1.297   0.920   3.080
 1369SOL    HW1 5006   1.212   0.881   3.044
 1369SOL    HW2 5007   1.284   1.018   3.096
 1370SOL     OW 5008   2.278   0.567   1.367
 1370SOL    HW1 5009   2.362   0.528   1.407
 1370SOL    HW2 5010   2.284   0.667   1.371
 1371SOL     OW 5011   4.037   0.568   6.694
 1371SOL    HW1 5012   4.066   0.522   6.611
 1371SOL    HW2 5013   3.939   0.588   6.689
 1372SOL     OW 5014   3.090   2.100   2.063
 1372SOL    HW1 5015   3.131   2.103   2.154
 1372SOL    HW2 5016   3.030   2.180   2.051
 1373SOL     OW 5017   1.418   6.179   0.788
 1373SOL    HW1 5018   1.407   6.256   0.851
 1373SOL    HW2 5019   1.404   6.211   0.694
 1374SOL     OW 5020   4.842   3.088   0.285
 1374SOL    HW1 5021   4.752   3.046   0.300
 1374SOL    HW2 5022   4.898   3.076   0.367
 1375SOL     OW 5023   0.344   4.053   5.305
 1375SOL    HW1 5024   0.414   4.003   5.254
 1375SOL    HW2 5025   0.370   4.149   5.312
 1376SOL     OW 5026   4.820   1.339   2.538
 1376SOL    HW1 5027   4.776   1.372   2.455
 1376SOL    HW2 5028   4.896   1.401   2.561
 1377SOL     OW 5029   0.952   5.666   4.622
 1377SOL    HW1 5030   0.857   5.669   4.655
 1377SOL    HW2 5031   0.999   5.589   4.663
 1378SOL     OW 5032   2.069   2.098   6.604
 1378SOL    HW1 5033   2.125   2.019   6.629
 1378SOL    HW2 5034   2.115   2.182   6.632
 1379SOL     OW 5035   4.009   6.033   0.953
 1379SOL    HW1 5036   3.913   6.059   0.963
 1379SOL    HW2 5037   4.036   6.041   0.857
 1380SOL     OW 5038   6.459   6.311   3.121
 1380SOL    HW1 5039   6.531   6.376   3.098
 1380SOL    HW2 5040   6.405   6.290   3.039
 1381SOL     OW 5041   6.097   0.461   1.495
 1381SOL    HW1 5042   6.020   0.523   1.479
 1381SOL    HW2 5043   6.063   0.373   1.528
 1382SOL     OW 5044   6.990   4.973   6.256
 1382SOL    HW1 5045   6.971   4.924   6.341
 1382SOL    HW2 5046   0.036   5.047   6.274
 1383SOL     OW 5047   2.430   0.059   0.473
 1383SOL    HW1 5048   2.512   0.007   0.451
 1383SOL    HW2 5049   2.367   0.002   0.526
 1384SOL     OW 5050   2.638   1.972   2.266
 1384SOL    HW1 5051   2.591   1.915   2.198
 1384SOL    HW2 5052   2.704   2.031   2.219
 1385SOL     OW 5053   5.384   2.779   3.350
 1385SOL    HW1 5054   5.294   2.748   3.319
 1385SOL    HW2 5055   5.396   2.756   3.447
 1386SOL     OW 5056   2.384   2.591   3.827
 1386SOL    HW1 5057   2.413   2.495   3.832
 1386SOL    HW2 5058   2.393   2.633   3.917
 1387SOL     OW 5059   2.186   0.376   4.758
 1387SOL    HW1 5060   2.260   0.436   4.728
 1387SOL    HW2 5061   2.219   0.281   4.761
 1388SOL     OW 5062   6.032   1.311   5.148
 1388SOL    HW1 5063   6.128   1.327   5.127
 1388SOL    HW2 5064   6.017   1.322   5.247
 1389SOL     OW 5065   6.430   0.849   4.332
 1389SOL    HW1 5066   6.338   0.821   4.357
 1389SOL    HW2 5067   6.448   0.940   4.370
 1390SOL     OW 5068   4.495   2.340   1.985
 1390SOL    HW1 5069   4.432   2.376   1.917
 1390SOL    HW2 5070   4.452   2.344   2.075
 1391SOL     OW 5071   5.608   1.468   4.862
 1391SOL    HW1 5072   5.671   1.509   4.795
 1391SOL    HW2 5073   5.660   1.433   4.940
 1392SOL     OW 5074   4.740   6.250   5.642
 1392SOL    HW1 5075   4.682   6.330   5.656
 1392SOL    HW2 5076   4.685   6.175   5.605
 1393SOL     OW 5077   4.987   0.573   6.886
 1393SOL    HW1 5078   5.005   0.615   6.974
 1393SOL    HW2 5079   5.037   0.486   6.880
 1394SOL     OW 5080   4.561   0.590   3.872
 1394SOL    HW1 5081   4.471   0.632   3.862
 1394SOL    HW2 5082   4.578   0.528   3.795
 1395SOL     OW 5083   1.294   5.411   2.314
 1395SOL    HW1 5084   1.321   5.353   2.237
 1395SOL    HW2 5085   1.236   5.485   2.281
 1396SOL     OW 5086   1.555   0.926   3.536
 1396SOL    HW1 5087   1.588   0.984   3.462
 1396SOL    HW2 5088   1.631   0.905   3.598
 1397SOL     OW 5089   0.586   5.381   4.725
 1397SOL    HW1 5090   0.541   5.360   4.638
 1397SOL    HW2 5091   0.541   5.332   4.799
 1398SOL     OW 5092   2.173   6.403   6.839
 1398SOL    HW1 5093   2.074   6.409   6.842
 1398SOL    HW2 5094   2.203   6.389   6.744
 1399SOL     OW 5095   3.901   6.941   0.400
 1399SOL    HW1 5096   3.913   6.855   0.450
 1399SOL    HW2 5097   3.806   6.970   0.405
 1400SOL     OW 5098   0.645   1.309   5.134
 1400SOL    HW1 5099   0.602   1.222   5.112
 1400SOL    HW2 5100   0.743   1.295   5.146
 1401SOL     OW 5101   5.361   0.363   2.878
 1401SOL    HW1 5102   5.413   0.448   2.888
 1401SOL    HW2 5103   5.332   0.352   2.783
 1402SOL     OW 5104   6.856   4.539   2.501
 1402SOL    HW1 5105   6.869   4.476   2.578
 1402SOL    HW2 5106   6.942   4.588   2.483
 1403SOL     OW 5107   3.184   2.972   6.642
 1403SOL    HW1 5108   3.255   3.006   6.704
 1403SOL    HW2 5109   3.110   3.039   6.638
 1404SOL     OW 5110   4.299   6.329   0.493
 1404SOL    HW1 5111   4.346   6.366   0.573
 1404SOL    HW2 5112   4.337   6.239   0.470
 1405SOL     OW 5113   0.787   3.862   0.711
 1405SOL    HW1 5114   0.816   3.947   0.756
 1405SOL    HW2 5115   0.699   3.876   0.666
 1406SOL     OW 5116   2.099   3.117   0.282
 1406SOL    HW1 5117   2.132   3.175   0.357
 1406SOL    HW2 5118   2.082   3.025   0.316
 1407SOL     OW 5119   0.947   3.022   1.633
 1407SOL    HW1 5120   0.944   2.984   1.540
 1407SOL    HW2 5121   1.016   2.973   1.687
 1408SOL     OW 5122   5.487   6.475   0.930
 1408SOL    HW1 5123   5.514   6.422   0.850
 1408SOL    HW2 5124   5.430   6.551   0.902
 1409SOL     OW 5125   6.438   1.497   5.818
 1409SOL    HW1 5126   6.362   1.437   5.790
 1409SOL    HW2 5127   6.415   1.541   5.904
 1410SOL     OW 5128   3.232   0.598   6.972
 1410SOL    HW1 5129   3.225   0.564   0.047
 1410SOL    HW2 5130   3.310   0.555   6.927
 1411SOL     OW 5131   3.617   4.774   6.906
 1411SOL    HW1 5132   3.551   4.753   6.833
 1411SOL    HW2 5133   3.600   4.713   6.983
 1412SOL     OW 5134   2.325   2.148   0.413
 1412SOL    HW1 5135   2.384   2.128   0.335
 1412SOL    HW2 5136   2.364   2.110   0.496
 1413SOL     OW 5137   2.161   1.900   5.217
 1413SOL    HW1 5138   2.132   1.835   5.287
 1413SOL    HW2 5139   2.245   1.946   5.248
 1414SOL     OW 5140   0.573   4.637   2.259
 1414SOL    HW1 5141   0.641   4.639   2.333
 1414SOL    HW2 5142   0.603   4.699   2.186
 1415SOL     OW 5143   2.945   1.945   4.724
 1415SOL    HW1 5144   2.868   1.990   4.770
 1415SOL    HW2 5145   2.969   1.995   4.641
 1416SOL     OW 5146   4.534   0.454   4.826
 1416SOL    HW1 5147   4.473   0.380   4.798
 1416SOL    HW2 5148   4.502   0.493   4.913
 1417SOL     OW 5149   3.514   3.560   4.489
 1417SOL    HW1 5150   3.549   3.472   4.523
 1417SOL    HW2 5151   3.482   3.615   4.566
 1418SOL     OW 5152   3.660   3.762   6.374
 1418SOL    HW1 5153   3.749   3.799   6.403
 1418SOL    HW2 5154   3.668   3.727   6.281
 1419SOL     OW 5155   1.590   6.283   2.086
 1419SOL    HW1 5156   1.645   6.257   2.166
 1419SOL    HW2 5157   1.650   6.311   2.011
 1420SOL     OW 5158   2.802   6.359   2.139
 1420SOL    HW1 5159   2.891   6.371   2.095
 1420SOL    HW2 5160   2.814   6.320   2.230
 1421SOL     OW 5161   1.673   5.178   6.505
 1421SOL    HW1 5162   1.634   5.134   6.586
 1421SOL    HW2 5163   1.684   5.110   6.433
 1422SOL     OW 5164   1.708   2.982   6.469
 1422SOL    HW1 5165   1.632   3.044   6.449
 1422SOL    HW2 5166   1.691   2.934   6.554
 1423SOL     OW 5167   4.072   0.697   5.383
 1423SOL    HW1 5168   3.975   0.717   5.395
 1423SOL    HW2 5169   4.126   0.775   5.416
 1424SOL     OW 5170   6.442   3.213   0.979
 1424SOL    HW1 5171   6.429   3.209   0.880
 1424SOL    HW2 5172   6.537   3.191   1.001
 1425SOL     OW 5173   5.606   6.992   3.830
 1425SOL    HW1 5174   5.514   6.967   3.800
 1425SOL    HW2 5175   5.603   0.004   3.925
 1426SOL     OW 5176   4.274   0.460   0.060
 1426SOL    HW1 5177   4.188   0.511   0.057
 1426SOL    HW2 5178   4.350   0.525   0.069
 1427SOL     OW 5179   1.760   0.414   4.069
 1427SOL    HW1 5180   1.753   0.378   4.162
 1427SOL    HW2 5181   1.690   0.372   4.011
 1428SOL     OW 5182   1.550   3.490   4.150
 1428SOL    HW1 5183   1.495   3.570   4.173
 1428SOL    HW2 5184   1.647   3.515   4.151
 1429SOL     OW 5185   6.165   0.577   2.129
 1429SOL    HW1 5186   6.113   0.557   2.045
 1429SOL    HW2 5187   6.141   0.511   2.200
 1430SOL     OW 5188   2.135   3.804   4.316
 1430SOL    HW1 5189   2.210   3.865   4.290
 1430SOL    HW2 5190   2.137   3.722   4.258
 1431SOL     OW 5191   3.246   1.677   0.168
 1431SOL    HW1 5192   3.156   1.635   0.181
 1431SOL    HW2 5193   3.235   1.768   0.128
 1432SOL     OW 5194   3.872   0.315   2.430
 1432SOL    HW1 5195   3.888   0.217   2.421
 1432SOL    HW2 5196   3.774   0.333   2.432
 1433SOL     OW 5197   3.122   1.389   4.257
 1433SOL    HW1 5198   3.140   1.408   4.161
 1433SOL    HW2 5199   3.102   1.474   4.305
 1434SOL     OW 5200   5.619   4.336   0.468
 1434SOL    HW1 5201   5.704   4.348   0.521
 1434SOL    HW2 5202   5.568   4.259   0.504
 1435SOL     OW 5203   1.457   6.932   3.847
 1435SOL    HW1 5204   1.552   6.960   3.863
 1435SOL    HW2 5205   1.410   6.922   3.934
 1436SOL     OW 5206   5.646   1.059   0.563
 1436SOL    HW1 5207   5.694   1.092   0.482
 1436SOL    HW2 5208   5.657   1.125   0.638
 1437SOL     OW 5209   3.744   0.993   0.809
 1437SOL    HW1 5210   3.651   0.970   0.781
 1437SOL    HW2 5211   3.765   0.946   0.895
 1438SOL     OW 5212   2.353   0.312   2.160
 1438SOL    HW1 5213   2.370   0.396   2.108
 1438SOL    HW2 5214   2.332   0.336   2.255
 1439SOL     OW 5215   0.278   5.131   6.820
 1439SOL    HW1 5216   0.191   5.161   6.779
 1439SOL    HW2 5217   0.292   5.034   6.802
 1440SOL     OW 5218   3.806   2.916   2.722
 1440SOL    HW1 5219   3.871   2.967   2.666
 1440SOL    HW2 5220   3.843   2.826   2.744
 1441SOL     OW 5221   6.276   2.203   4.948
 1441SOL    HW1 5222   6.332   2.125   4.975
 1441SOL    HW2 5223   6.274   2.210   4.848
 1442SOL     OW 5224   5.163   0.367   0.122
 1442SOL    HW1 5225   5.253   0.350   0.161
 1442SOL    HW2 5226   5.172   0.390   0.025
 1443SOL     OW 5227   1.543   2.611   3.619
 1443SOL    HW1 5228   1.452   2.627   3.658
 1443SOL    HW2 5229   1.612   2.654   3.678
 1444SOL     OW 5230   4.998   0.083   5.275
 1444SOL    HW1 5231   5.017   0.043   5.185
 1444SOL    HW2 5232   5.081   0.125   5.311
 1445SOL     OW 5233   6.758   1.995   0.097
 1445SOL    HW1 5234   6.678   1.935   0.099
 1445SOL    HW2 5235   6.768   2.041   0.186
 1446SOL     OW 5236   3.751   6.797   0.940
 1446SOL    HW1 5237   3.772   6.855   1.018
 1446SOL    HW2 5238   3.748   6.701   0.970
 1447SOL     OW 5239   6.281   1.393   5.023
 1447SOL    HW1 5240   6.345   1.471   5.028
 1447SOL    HW2 5241   6.236   1.392   4.934
 1448SOL     OW 5242   5.298   0.643   6.742
 1448SOL    HW1 5243   5.286   0.630   6.643
 1448SOL    HW2 5244   5.209   0.662   6.784
 1449SOL     OW 5245   4.799   6.089   0.953
 1449SOL    HW1 5246   4.881   6.108   0.899
 1449SOL    HW2 5247   4.723   6.143   0.918
 1450SOL     OW 5248   5.631   2.441   3.633
 1450SOL    HW1 5249   5.728   2.463   3.622
 1450SOL    HW2 5250   5.621   2.346   3.661
 1451SOL     OW 5251   1.911   6.603   2.181
 1451SOL    HW1 5252   2.002   6.646   2.183
 1451SOL    HW2 5253   1.883   6.590   2.086
 1452SOL     OW 5254   3.786   0.662   5.465
 1452SOL    HW1 5255   3.702   0.609   5.480
 1452SOL    HW2 5256   3.848   0.648   5.541
 1453SOL     OW 5257   4.393   4.785   4.272
 1453SOL    HW1 5258   4.319   4.813   4.211
 1453SOL    HW2 5259   4.355   4.752   4.358
 1454SOL     OW 5260   4.732   4.673   0.818
 1454SOL    HW1 5261   4.762   4.607   0.888
 1454SOL    HW2 5262   4.738   4.766   0.855
 1455SOL     OW 5263   2.655   1.924   1.422
 1455SOL    HW1 5264   2.703   1.934   1.335
 1455SOL    HW2 5265   2.666   2.007   1.476
 1456SOL     OW 5266   6.176   5.241   4.712
 1456SOL    HW1 5267   6.212   5.242   4.618
 1456SOL    HW2 5268   6.086   5.285   4.714
 1457SOL     OW 5269   2.172   0.081   3.596
 1457SOL    HW1 5270   2.198   7.003   3.582
 1457SOL    HW2 5271   2.145   0.122   3.509
 1458SOL     OW 5272   0.355   5.928   0.176
 1458SOL    HW1 5273   0.259   5.958   0.172
 1458SOL    HW2 5274   0.375   5.892   0.267
 1459SOL     OW 5275   2.615   0.065   0.937
 1459SOL    HW1 5276   2.621   0.085   0.839
 1459SOL    HW2 5277   2.589   6.987   0.950
 1460SOL     OW 5278   0.981   0.026   0.112
 1460SOL    HW1 5279   0.951   6.949   0.117
 1460SOL    HW2 5280   1.081   0.030   0.118
 1461SOL     OW 5281   4.456   5.353   2.463
 1461SOL    HW1 5282   4.379   5.353   2.527
 1461SOL    HW2 5283   4.455   5.268   2.411
 1462SOL     OW 5284   5.223   0.502   5.321
 1462SOL    HW1 5285   5.189   0.588   5.282
 1462SOL    HW2 5286   5.311   0.519   5.366
 1463SOL     OW 5287   0.470   1.571   5.429
 1463SOL    HW1 5288   0.497   1.476   5.418
 1463SOL    HW2 5289   0.436   1.585   5.522
 1464SOL     OW 5290   0.246   1.170   1.603
 1464SOL    HW1 5291   0.303   1.088   1.599
 1464SOL    HW2 5292   0.216   1.195   1.511
 1465SOL     OW 5293   0.902   0.426   4.630
 1465SOL    HW1 5294   0.980   0.378   4.592
 1465SOL    HW2 5295   0.821   0.368   4.624
 1466SOL     OW 5296   5.469   4.956   4.810
 1466SOL    HW1 5297   5.465   4.885   4.739
 1466SOL    HW2 5298   5.528   5.030   4.780
 1467SOL     OW 5299   5.603   3.603   3.499
 1467SOL    HW1 5300   5.600   3.508   3.466
 1467SOL    HW2 5301   5.691   3.619   3.543
 1468SOL     OW 5302   5.595   6.922   2.231
 1468SOL    HW1 5303   5.652   7.000   2.259
 1468SOL    HW2 5304   5.648   6.864   2.169
 1469SOL     OW 5305   0.788   0.990   2.464
 1469SOL    HW1 5306   0.781   0.912   2.401
 1469SOL    HW2 5307   0.711   0.987   2.528
 1470SOL     OW 5308   6.914   1.107   3.187
 1470SOL    HW1 5309   6.883   1.023   3.230
 1470SOL    HW2 5310   6.969   1.159   3.253
 1471SOL     OW 5311   6.264   0.437   1.286
 1471SOL    HW1 5312   6.230   0.519   1.241
 1471SOL    HW2 5313   6.229   0.432   1.379
 1472SOL     OW 5314   4.229   5.488   5.128
 1472SOL    HW1 5315   4.273   5.398   5.133
 1472SOL    HW2 5316   4.132   5.479   5.150
 1473SOL     OW 5317   5.939   4.035   2.908
 1473SOL    HW1 5318   6.033   4.002   2.895
 1473SOL    HW2 5319   5.907   4.010   2.999
 1474SOL     OW 5320   4.663   4.974   4.009
 1474SOL    HW1 5321   4.684   5.070   4.023
 1474SOL    HW2 5322   4.719   4.937   3.935
 1475SOL     OW 5323   6.161   0.724   3.811
 1475SOL    HW1 5324   6.230   0.712   3.739
 1475SOL    HW2 5325   6.179   0.660   3.886
 1476SOL     OW 5326   6.783   2.568   1.420
 1476SOL    HW1 5327   6.745   2.482   1.385
 1476SOL    HW2 5328   6.769   2.574   1.519
 1477SOL     OW 5329   2.410   5.937   3.397
 1477SOL    HW1 5330   2.339   5.867   3.401
 1477SOL    HW2 5331   2.500   5.893   3.393
 1478SOL     OW 5332   6.826   4.683   1.592
 1478SOL    HW1 5333   6.738   4.724   1.569
 1478SOL    HW2 5334   6.896   4.718   1.530
 1479SOL     OW 5335   0.857   4.803   0.524
 1479SOL    HW1 5336   0.867   4.708   0.493
 1479SOL    HW2 5337   0.798   4.852   0.460
 1480SOL     OW 5338   2.782   1.121   0.377
 1480SOL    HW1 5339   2.724   1.199   0.399
 1480SOL    HW2 5340   2.778   1.103   0.279
 1481SOL     OW 5341   0.159   2.537   6.031
 1481SOL    HW1 5342   0.131   2.566   6.122
 1481SOL    HW2 5343   0.108   2.454   6.006
 1482SOL     OW 5344   5.410   0.522   6.425
 1482SOL    HW1 5345   5.500   0.526   6.381
 1482SOL    HW2 5346   5.347   0.583   6.377
 1483SOL     OW 5347   6.519   2.604   6.688
 1483SOL    HW1 5348   6.544   2.696   6.658
 1483SOL    HW2 5349   6.420   2.595   6.689
 1484SOL     OW 5350   6.810   7.002   3.022
 1484SOL    HW1 5351   6.730   0.028   2.981
 1484SOL    HW2 5352   6.795   6.903   3.027
 1485SOL     OW 5353   5.867   2.544   3.912
 1485SOL    HW1 5354   5.895   2.453   3.882
 1485SOL    HW2 5355   5.851   2.602   3.832
 1486SOL     OW 5356   5.353   2.467   1.737
 1486SOL    HW1 5357   5.383   2.388   1.791
 1486SOL    HW2 5358   5.375   2.451   1.640
 1487SOL     OW 5359   6.387   1.226   6.066
 1487SOL    HW1 5360   6.307   1.165   6.064
 1487SOL    HW2 5361   6.357   1.321   6.072
 1488SOL     OW 5362   4.860   1.682   3.359
 1488SOL    HW1 5363   4.884   1.632   3.277
 1488SOL    HW2 5364   4.765   1.714   3.353
 1489SOL     OW 5365   4.073   5.351   4.616
 1489SOL    HW1 5366   3.981   5.311   4.608
 1489SOL    HW2 5367   4.128   5.296   4.679
 1490SOL     OW 5368   2.179   2.608   1.070
 1490SOL    HW1 5369   2.275   2.582   1.058
 1490SOL    HW2 5370   2.160   2.692   1.020
 1491SOL     OW 5371   6.681   2.066   5.324
 1491SOL    HW1 5372   6.755   2.131   5.307
 1491SOL    HW2 5373   6.593   2.110   5.310
 1492SOL     OW 5374   5.552   2.831   2.032
 1492SOL    HW1 5375   5.576   2.835   1.934
 1492SOL    HW2 5376   5.546   2.923   2.069
 1493SOL     OW 5377   6.054   1.717   4.873
 1493SOL    HW1 5378   6.004   1.650   4.927
 1493SOL    HW2 5379   5.992   1.760   4.807
 1494SOL     OW 5380   5.762   1.927   4.476
 1494SOL    HW1 5381   5.799   1.952   4.387
 1494SOL    HW2 5382   5.734   1.831   4.474
 1495SOL     OW 5383   0.877   2.990   3.100
 1495SOL    HW1 5384   0.933   2.906   3.102
 1495SOL    HW2 5385   0.849   3.009   3.006
 1496SOL     OW 5386   0.827   0.658   3.000
 1496SOL    HW1 5387   0.874   0.697   3.079
 1496SOL    HW2 5388   0.763   0.725   2.963
 1497SOL     OW 5389   5.264   4.410   5.802
 1497SOL    HW1 5390   5.287   4.357   5.884
 1497SOL    HW2 5391   5.254   4.349   5.724
 1498SOL     OW 5392   2.061   5.663   0.162
 1498SOL    HW1 5393   2.017   5.714   0.087
 1498SOL    HW2 5394   2.075   5.725   0.240
 1499SOL     OW 5395   1.066   4.572   4.746
 1499SOL    HW1 5396   1.163   4.595   4.736
 1499SOL    HW2 5397   1.011   4.630   4.686
 1500SOL     OW 5398   4.452   6.696   5.487
 1500SOL    HW1 5399   4.406   6.669   5.402
 1500SOL    HW2 5400   4.529   6.634   5.504
 1501SOL     OW 5401   4.035   0.347   6.869
 1501SOL    HW1 5402   4.037   0.445   6.850
 1501SOL    HW2 5403   3.969   0.302   6.809
 1502SOL     OW 5404   0.109   6.166   6.772
 1502SOL    HW1 5405   0.158   6.193   6.855
 1502SOL    HW2 5406   0.023   6.216   6.766
 1503SOL     OW 5407   3.139   4.352   5.556
 1503SOL    HW1 5408   3.147   4.433   5.613
 1503SOL    HW2 5409   3.147   4.377   5.459
 1504SOL     OW 5410   2.680   6.368   4.159
 1504SOL    HW1 5411   2.662   6.333   4.251
 1504SOL    HW2 5412   2.670   6.468   4.159
 1505SOL     OW 5413   4.934   5.638   2.177
 1505SOL    HW1 5414   4.869   5.601   2.111
 1505SOL    HW2 5415   4.981   5.562   2.222
 1506SOL     OW 5416   1.015   6.781   2.978
 1506SOL    HW1 5417   1.007   6.681   2.985
 1506SOL    HW2 5418   1.000   6.809   2.883
 1507SOL     OW 5419   2.910   2.331   6.462
 1507SOL    HW1 5420   2.980   2.277   6.508
 1507SOL    HW2 5421   2.908   2.308   6.365
 1508SOL     OW 5422   4.314   0.094   0.567
 1508SOL    HW1 5423   4.282   0.067   0.476
 1508SOL    HW2 5424   4.236   0.105   0.628
 1509SOL     OW 5425   5.512   1.493   0.043
 1509SOL    HW1 5426   5.599   1.538   0.021
 1509SOL    HW2 5427   5.503   1.484   0.142
 1510SOL     OW 5428   0.268   1.906   3.425
 1510SOL    HW1 5429   0.219   1.906   3.338
 1510SOL    HW2 5430   0.234   1.832   3.483
 1511SOL     OW 5431   1.628   2.740   0.691
 1511SOL    HW1 5432   1.612   2.779   0.782
 1511SOL    HW2 5433   1.584   2.651   0.684
 1512SOL     OW 5434   6.152   0.819   2.444
 1512SOL    HW1 5435   6.057   0.846   2.429
 1512SOL    HW2 5436   6.187   0.866   2.526
 1513SOL     OW 5437   3.965   1.085   2.459
 1513SOL    HW1 5438   3.996   1.100   2.365
 1513SOL    HW2 5439   3.940   1.173   2.501
 1514SOL     OW 5440   4.920   1.168   6.377
 1514SOL    HW1 5441   4.965   1.096   6.323
 1514SOL    HW2 5442   4.906   1.249   6.320
 1515SOL     OW 5443   6.243   5.581   5.202
 1515SOL    HW1 5444   6.336   5.547   5.183
 1515SOL    HW2 5445   6.242   5.628   5.290
 1516SOL     OW 5446   0.534   0.995   0.860
 1516SOL    HW1 5447   0.540   1.025   0.765
 1516SOL    HW2 5448   0.454   0.936   0.871
 1517SOL     OW 5449   3.538   5.166   3.655
 1517SOL    HW1 5450   3.478   5.086   3.650
 1517SOL    HW2 5451   3.525   5.211   3.744
 1518SOL     OW 5452   0.575   4.947   0.937
 1518SOL    HW1 5453   0.636   4.869   0.926
 1518SOL    HW2 5454   0.625   5.023   0.978
 1519SOL     OW 5455   0.139   4.243   1.310
 1519SOL    HW1 5456   0.066   4.253   1.377
 1519SOL    HW2 5457   0.207   4.178   1.344
 1520SOL     OW 5458   1.602   2.740   2.437
 1520SOL    HW1 5459   1.642   2.810   2.496
 1520SOL    HW2 5460   1.510   2.768   2.410
 1521SOL     OW 5461   2.734   4.249   5.294
 1521SOL    HW1 5462   2.753   4.332   5.242
 1521SOL    HW2 5463   2.756   4.169   5.237
 1522SOL     OW 5464   0.914   2.442   6.410
 1522SOL    HW1 5465   0.882   2.358   6.454
 1522SOL    HW2 5466   0.916   2.429   6.311
 1523SOL     OW 5467   6.594   1.080   0.712
 1523SOL    HW1 5468   6.549   1.061   0.624
 1523SOL    HW2 5469   6.641   1.168   0.707
 1524SOL     OW 5470   6.191   0.651   3.274
 1524SOL    HW1 5471   6.101   0.672   3.312
 1524SOL    HW2 5472   6.229   0.572   3.321
 1525SOL     OW 5473   4.489   1.541   5.900
 1525SOL    HW1 5474   4.500   1.442   5.905
 1525SOL    HW2 5475   4.391   1.563   5.892
 1526SOL     OW 5476   6.587   1.520   6.979
 1526SOL    HW1 5477   6.674   1.476   6.954
 1526SOL    HW2 5478   6.577   1.605   6.928
 1527SOL     OW 5479   3.018   1.607   5.709
 1527SOL    HW1 5480   3.046   1.683   5.650
 1527SOL    HW2 5481   2.932   1.629   5.754
 1528SOL     OW 5482   4.942   5.489   4.170
 1528SOL    HW1 5483   4.961   5.409   4.227
 1528SOL    HW2 5484   4.988   5.478   4.081
 1529SOL     OW 5485   2.976   0.711   4.911
 1529SOL    HW1 5486   2.898   0.649   4.919
 1529SOL    HW2 5487   2.944   0.806   4.909
 1530SOL     OW 5488   3.042   0.105   1.889
 1530SOL    HW1 5489   2.976   0.125   1.817
 1530SOL    HW2 5490   2.994   0.086   1.975
 1531SOL     OW 5491   5.733   0.243   6.400
 1531SOL    HW1 5492   5.717   0.323   6.343
 1531SOL    HW2 5493   5.730   0.160   6.344
 1532SOL     OW 5494   3.252   2.666   5.299
 1532SOL    HW1 5495   3.216   2.611   5.224
 1532SOL    HW2 5496   3.268   2.607   5.378
 1533SOL     OW 5497   5.233   2.677   6.737
 1533SOL    HW1 5498   5.281   2.634   6.813
 1533SOL    HW2 5499   5.163   2.739   6.773
 1534SOL     OW 5500   6.622   6.851   2.218
 1534SOL    HW1 5501   6.571   6.831   2.134
 1534SOL    HW2 5502   6.564   6.904   2.280
 1535SOL     OW 5503   4.940   4.402   4.419
 1535SOL    HW1 5504   4.899   4.487   4.453
 1535SOL    HW2 5505   4.870   4.332   4.412
 1536SOL     OW 5506   3.065   5.185   3.494
 1536SOL    HW1 5507   3.153   5.174   3.540
 1536SOL    HW2 5508   3.016   5.263   3.534
 1537SOL     OW 5509   2.662   5.517   4.196
 1537SOL    HW1 5510   2.576   5.496   4.148
 1537SOL    HW2 5511   2.726   5.559   4.132
 1538SOL     OW 5512   3.282   4.810   6.302
 1538SOL    HW1 5513   3.214   4.765   6.359
 1538SOL    HW2 5514   3.239   4.846   6.220
 1539SOL     OW 5515   3.785   5.564   1.810
 1539SOL    HW1 5516   3.695   5.580   1.769
 1539SOL    HW2 5517   3.795   5.621   1.891
 1540SOL     OW 5518   5.794   0.438   5.241
 1540SOL    HW1 5519   5.854   0.469   5.167
 1540SOL    HW2 5520   5.849   0.407   5.318
 1541SOL     OW 5521   4.681   1.595   1.012
 1541SOL    HW1 5522   4.654   1.649   0.932
 1541SOL    HW2 5523   4.757   1.641   1.059
 1542SOL     OW 5524   1.069   6.186   0.877
 1542SOL    HW1 5525   1.002   6.237   0.931
 1542SOL    HW2 5526   1.153   6.240   0.869
 1543SOL     OW 5527   3.657   3.982   3.430
 1543SOL    HW1 5528   3.719   4.008   3.503
 1543SOL    HW2 5529   3.663   4.049   3.355
 1544SOL     OW 5530   3.489   3.871   2.974
 1544SOL    HW1 5531   3.483   3.970   2.962
 1544SOL    HW2 5532   3.435   3.843   3.053
 1545SOL     OW 5533   6.928   0.585   4.141
 1545SOL    HW1 5534   7.006   0.585   4.204
 1545SOL    HW2 5535   6.945   0.522   4.066
 1546SOL     OW 5536   6.450   6.928   6.358
 1546SOL    HW1 5537   6.356   6.944   6.329
 1546SOL    HW2 5538   6.506   6.905   6.278
 1547SOL     OW 5539   3.160   5.921   6.910
 1547SOL    HW1 5540   3.118   5.951   6.824
 1547SOL    HW2 5541   3.098   5.858   6.957
 1548SOL     OW 5542   5.855   4.055   4.132
 1548SOL    HW1 5543   5.932   4.097   4.180
 1548SOL    HW2 5544   5.789   4.021   4.199
 1549SOL     OW 5545   6.691   2.156   0.604
 1549SOL    HW1 5546   6.614   2.191   0.656
 1549SOL    HW2 5547   6.669   2.065   0.568
 1550SOL     OW 5548   2.260   5.819   2.483
 1550SOL    HW1 5549   2.352   5.819   2.523
 1550SOL    HW2 5550   2.253   5.746   2.416
 1551SOL     OW 5551   0.556   3.846   1.028
 1551SOL    HW1 5552   0.631   3.787   1.059
 1551SOL    HW2 5553   0.593   3.931   0.992
 1552SOL     OW 5554   0.748   6.695   1.573
 1552SOL    HW1 5555   0.759   6.622   1.641
 1552SOL    HW2 5556   0.778   6.782   1.613
 1553SOL     OW 5557   5.585   1.241   6.152
 1553SOL    HW1 5558   5.655   1.183   6.193
 1553SOL    HW2 5559   5.577   1.220   6.055
 1554SOL     OW 5560   2.388   2.270   1.333
 1554SOL    HW1 5561   2.389   2.179   1.291
 1554SOL    HW2 5562   2.475   2.286   1.380
 1555SOL     OW 5563   4.116   0.677   7.002
 1555SOL    HW1 5564   4.025   0.684   6.962
 1555SOL    HW2 5565   4.185   0.708   6.936
 1556SOL     OW 5566   4.285   2.006   6.459
 1556SOL    HW1 5567   4.224   2.022   6.382
 1556SOL    HW2 5568   4.305   1.908   6.467
 1557SOL     OW 5569   1.773   3.557   0.379
 1557SOL    HW1 5570   1.715   3.601   0.311
 1557SOL    HW2 5571   1.722   3.483   0.424
 1558SOL     OW 5572   5.121   2.822   6.312
 1558SOL    HW1 5573   5.119   2.731   6.351
 1558SOL    HW2 5574   5.090   2.889   6.380
 1559SOL     OW 5575   3.163   5.945   3.100
 1559SOL    HW1 5576   3.072   5.982   3.081
 1559SOL    HW2 5577   3.232   6.012   3.074
 1560SOL     OW 5578   3.561   2.412   1.266
 1560SOL    HW1 5579   3.566   2.359   1.182
 1560SOL    HW2 5580   3.631   2.380   1.330
 1561SOL     OW 5581   5.804   6.480   0.995
 1561SOL    HW1 5582   5.709   6.506   0.976
 1561SOL    HW2 5583   5.844   6.439   0.912
 1562SOL     OW 5584   3.565   0.073   2.319
 1562SOL    HW1 5585   3.555   0.105   2.413
 1562SOL    HW2 5586   3.616   0.141   2.266
 1563SOL     OW 5587   2.007   2.312   4.044
 1563SOL    HW1 5588   1.959   2.395   4.074
 1563SOL    HW2 5589   1.974   2.234   4.096
 1564SOL     OW 5590   0.303   1.158   2.907
 1564SOL    HW1 5591   0.204   1.145   2.917
 1564SOL    HW2 5592   0.322   1.196   2.817
 1565SOL     OW 5593   3.973   1.334   4.558
 1565SOL    HW1 5594   4.024   1.326   4.643
 1565SOL    HW2 5595   3.958   1.430   4.537
 1566SOL     OW 5596   6.180   4.092   3.728
 1566SOL    HW1 5597   6.128   4.171   3.697
 1566SOL    HW2 5598   6.157   4.013   3.672
 1567SOL     OW 5599   5.408   0.408   5.091
 1567SOL    HW1 5600   5.315   0.383   5.062
 1567SOL    HW2 5601   5.409   0.503   5.122
 1568SOL     OW 5602   3.021   4.953   1.664
 1568SOL    HW1 5603   2.955   4.931   1.737
 1568SOL    HW2 5604   3.005   4.893   1.586
 1569SOL     OW 5605   3.037   0.757   2.263
 1569SOL    HW1 5606   2.989   0.670   2.273
 1569SOL    HW2 5607   3.120   0.757   2.318
 1570SOL     OW 5608   2.693   6.112   6.185
 1570SOL    HW1 5609   2.745   6.033   6.153
 1570SOL    HW2 5610   2.721   6.135   6.278
 1571SOL     OW 5611   6.539   3.461   3.914
 1571SOL    HW1 5612   6.490   3.416   3.988
 1571SOL    HW2 5613   6.609   3.522   3.952
 1572SOL     OW 5614   2.883   5.699   2.702
 1572SOL    HW1 5615   2.811   5.649   2.653
 1572SOL    HW2 5616   2.969   5.649   2.694
 1573SOL     OW 5617   5.089   6.278   7.015
 1573SOL    HW1 5618   5.082   6.343   0.072
 1573SOL    HW2 5619   5.140   6.198   0.027
 1574SOL     OW 5620   0.625   4.748   2.806
 1574SOL    HW1 5621   0.659   4.672   2.861
 1574SOL    HW2 5622   0.526   4.737   2.791
 1575SOL     OW 5623   6.858   2.795   0.252
 1575SOL    HW1 5624   6.899   2.746   0.176
 1575SOL    HW2 5625   6.759   2.803   0.237
 1576SOL     OW 5626   1.887   5.966   1.570
 1576SOL    HW1 5627   1.968   5.914   1.596
 1576SOL    HW2 5628   1.911   6.063   1.560
 1577SOL     OW 5629   3.906   5.830   4.642
 1577SOL    HW1 5630   3.927   5.927   4.628
 1577SOL    HW2 5631   3.885   5.787   4.554
 1578SOL     OW 5632   5.189   1.114   1.907
 1578SOL    HW1 5633   5.266   1.171   1.879
 1578SOL    HW2 5634   5.197   1.023   1.866
 1579SOL     OW 5635   1.366   2.796   1.858
 1579SOL    HW1 5636   1.464   2.799   1.840
 1579SOL    HW2 5637   1.351   2.794   1.957
 1580SOL     OW 5638   2.929   3.622   2.543
 1580SOL    HW1 5639   2.919   3.592   2.448
 1580SOL    HW2 5640   2.958   3.545   2.599
 1581SOL     OW 5641   6.315   4.497   5.145
 1581SOL    HW1 5642   6.295   4.543   5.058
 1581SOL    HW2 5643   6.230   4.480   5.194
 1582SOL     OW 5644   4.452   5.936   5.095
 1582SOL    HW1 5645   4.499   5.990   5.024
 1582SOL    HW2 5646   4.445   5.841   5.065
 1583SOL     OW 5647   1.526   5.266   5.086
 1583SOL    HW1 5648   1.577   5.325   5.149
 1583SOL    HW2 5649   1.591   5.210   5.033
 1584SOL     OW 5650   0.030   3.752   0.131
 1584SOL    HW1 5651   0.030   3.773   0.034
 1584SOL    HW2 5652   6.957   3.723   0.159
 1585SOL     OW 5653   4.324   6.428   3.903
 1585SOL    HW1 5654   4.311   6.396   3.997
 1585SOL    HW2 5655   4.235   6.441   3.859
 1586SOL     OW 5656   3.393   6.172   3.023
 1586SOL    HW1 5657   3.339   6.150   2.941
 1586SOL    HW2 5658   3.459   6.100   3.040
 1587SOL     OW 5659   3.092   6.189   6.628
 1587SOL    HW1 5660   3.180   6.207   6.673
 1587SOL    HW2 5661   3.023   6.169   6.698
 1588SOL     OW 5662   6.564   1.813   3.707
 1588SOL    HW1 5663   6.602   1.888   3.653
 1588SOL    HW2 5664   6.580   1.726   3.660
 1589SOL     OW 5665   6.590   3.884   4.427
 1589SOL    HW1 5666   6.492   3.880   4.408
 1589SOL    HW2 5667   6.608   3.961   4.489
 1590SOL     OW 5668   6.665   1.848   3.222
 1590SOL    HW1 5669   6.680   1.933   3.172
 1590SOL    HW2 5670   6.752   1.814   3.257
 1591SOL     OW 5671   1.547   6.052   1.026
 1591SOL    HW1 5672   1.468   6.070   0.969
 1591SOL    HW2 5673   1.571   6.134   1.078
 1592SOL     OW 5674   0.346   3.304   6.247
 1592SOL    HW1 5675   0.381   3.219   6.207
 1592SOL    HW2 5676   0.409   3.379   6.227
 1593SOL     OW 5677   3.536   6.687   0.071
 1593SOL    HW1 5678   3.453   6.674   0.126
 1593SOL    HW2 5679   3.615   6.651   0.122
 1594SOL     OW 5680   5.550   1.101   2.722
 1594SOL    HW1 5681   5.583   1.171   2.659
 1594SOL    HW2 5682   5.450   1.107   2.729
 1595SOL     OW 5683   0.753   3.498   0.090
 1595SOL    HW1 5684   0.839   3.496   0.141
 1595SOL    HW2 5685   0.773   3.509   7.010
 1596SOL     OW 5686   4.970   4.757   2.641
 1596SOL    HW1 5687   4.911   4.742   2.720
 1596SOL    HW2 5688   5.065   4.736   2.665
 1597SOL     OW 5689   3.461   5.829   6.957
 1597SOL    HW1 5690   3.364   5.853   6.969
 1597SOL    HW2 5691   3.513   5.911   6.932
 1598SOL     OW 5692   0.980   4.829   6.541
 1598SOL    HW1 5693   0.944   4.738   6.562
 1598SOL    HW2 5694   0.921   4.899   6.582
 1599SOL     OW 5695   4.450   5.217   3.068
 1599SOL    HW1 5696   4.548   5.222   3.084
 1599SOL    HW2 5697   4.431   5.230   2.971
 1600SOL     OW 5698   3.971   0.494   1.717
 1600SOL    HW1 5699   3.880   0.531   1.734
 1600SOL    HW2 5700   4.008   0.454   1.800
 1601SOL     OW 5701   6.544   1.120   4.794
 1601SOL    HW1 5702   6.450   1.141   4.821
 1601SOL    HW2 5703   6.543   1.047   4.726
 1602SOL     OW 5704   4.151   5.851   4.098
 1602SOL    HW1 5705   4.057   5.829   4.124
 1602SOL    HW2 5706   4.210   5.848   4.179
 1603SOL     OW 5707   2.894   4.792   2.791
 1603SOL    HW1 5708   2.795   4.781   2.800
 1603SOL    HW2 5709   2.940   4.709   2.821
 1604SOL     OW 5710   4.586   4.798   2.883
 1604SOL    HW1 5711   4.539   4.802   2.970
 1604SOL    HW2 5712   4.673   4.748   2.893
 1605SOL     OW 5713   4.818   4.940   0.582
 1605SOL    HW1 5714   4.897   4.982   0.538
 1605SOL    HW2 5715   4.829   4.942   0.681
 1606SOL     OW 5716   3.208   5.893   4.617
 1606SOL    HW1 5717   3.301   5.928   4.625
 1606SOL    HW2 5718   3.189   5.868   4.522
 1607SOL     OW 5719   4.364   4.923   3.638
 1607SOL    HW1 5720   4.390   4.871   3.720
 1607SOL    HW2 5721   4.439   4.984   3.613
 1608SOL     OW 5722   5.367   1.863   3.525
 1608SOL    HW1 5723   5.464   1.879   3.506
 1608SOL    HW2 5724   5.318   1.849   3.439
 1609SOL     OW 5725   2.204   6.915   1.395
 1609SOL    HW1 5726   2.302   6.924   1.380
 1609SOL    HW2 5727   2.181   6.819   1.407
 1610SOL     OW 5728   5.369   0.223   1.146
 1610SOL    HW1 5729   5.376   0.150   1.214
 1610SOL    HW2 5730   5.415   0.194   1.062
 1611SOL     OW 5731   1.254   4.483   0.355
 1611SOL    HW1 5732   1.191   4.560   0.344
 1611SOL    HW2 5733   1.206   4.398   0.332
 1612SOL     OW 5734   4.715   0.285   2.719
 1612SOL    HW1 5735   4.670   0.365   2.759
 1612SOL    HW2 5736   4.702   0.286   2.620
 1613SOL     OW 5737   6.686   5.482   2.282
 1613SOL    HW1 5738   6.643   5.464   2.194
 1613SOL    HW2 5739   6.616   5.505   2.350
 1614SOL     OW 5740   6.230   1.674   5.963
 1614SOL    HW1 5741   6.242   1.761   5.916
 1614SOL    HW2 5742   6.156   1.681   6.029
 1615SOL     OW 5743   0.253   3.640   6.090
 1615SOL    HW1 5744   0.171   3.657   6.037
 1615SOL    HW2 5745   0.264   3.712   6.159
 1616SOL     OW 5746   0.833   0.349   3.836
 1616SOL    HW1 5747   0.765   0.374   3.767
 1616SOL    HW2 5748   0.795   0.278   3.896
 1617SOL     OW 5749   6.278   5.786   3.667
 1617SOL    HW1 5750   6.232   5.787   3.578
 1617SOL    HW2 5751   6.352   5.852   3.667
 1618SOL     OW 5752   3.357   5.318   3.475
 1618SOL    HW1 5753   3.360   5.417   3.471
 1618SOL    HW2 5754   3.439   5.283   3.521
 1619SOL     OW 5755   0.794   4.351   6.932
 1619SOL    HW1 5756   0.841   4.344   0.001
 1619SOL    HW2 5757   0.852   4.400   6.867
 1620SOL     OW 5758   3.699   5.566   4.256
 1620SOL    HW1 5759   3.646   5.617   4.324
 1620SOL    HW2 5760   3.768   5.626   4.217
 1621SOL     OW 5761   4.786   5.502   0.791
 1621SOL    HW1 5762   4.874   5.497   0.837
 1621SOL    HW2 5763   4.788   5.444   0.709
 1622SOL     OW 5764   6.579   4.097   4.577
 1622SOL    HW1 5765   6.666   4.143   4.559
 1622SOL    HW2 5766   6.510   4.166   4.600
 1623SOL     OW 5767   0.132   1.450   2.771
 1623SOL    HW1 5768   0.214   1.465   2.716
 1623SOL    HW2 5769   0.153   1.463   2.868
 1624SOL     OW 5770   4.124   3.138   0.697
 1624SOL    HW1 5771   4.042   3.102   0.742
 1624SOL    HW2 5772   4.111   3.139   0.598
 1625SOL     OW 5773   0.756   6.838   1.108
 1625SOL    HW1 5774   0.799   6.928   1.098
 1625SOL    HW2 5775   0.723   6.807   1.020
 1626SOL     OW 5776   2.708   1.689   2.021
 1626SOL    HW1 5777   2.639   1.745   2.067
 1626SOL    HW2 5778   2.798   1.731   2.034
 1627SOL     OW 5779   3.711   2.176   5.728
 1627SOL    HW1 5780   3.674   2.197   5.818
 1627SOL    HW2 5781   3.727   2.078   5.720
 1628SOL     OW 5782   5.661   6.862   1.068
 1628SOL    HW1 5783   5.751   6.825   1.094
 1628SOL    HW2 5784   5.647   6.848   0.970
 1629SOL     OW 5785   1.847   0.083   3.618
 1629SOL    HW1 5786   1.887   0.015   3.556
 1629SOL    HW2 5787   1.876   0.064   3.712
 1630SOL     OW 5788   0.498   3.584   6.392
 1630SOL    HW1 5789   0.454   3.570   6.481
 1630SOL    HW2 5790   0.493   3.680   6.366
 1631SOL     OW 5791   6.797   3.547   0.180
 1631SOL    HW1 5792   6.697   3.536   0.173
 1631SOL    HW2 5793   6.825   3.536   0.275
 1632SOL     OW 5794   6.471   5.500   2.462
 1632SOL    HW1 5795   6.382   5.456   2.472
 1632SOL    HW2 5796   6.460   5.599   2.471
 1633SOL     OW 5797   5.288   3.757   5.196
 1633SOL    HW1 5798   5.270   3.806   5.111
 1633SOL    HW2 5799   5.326   3.821   5.264
 1634SOL     OW 5800   6.754   1.800   5.103
 1634SOL    HW1 5801   6.743   1.884   5.051
 1634SOL    HW2 5802   6.783   1.822   5.196
 1635SOL     OW 5803   3.243   6.444   3.365
 1635SOL    HW1 5804   3.321   6.467   3.307
 1635SOL    HW2 5805   3.158   6.462   3.316
 1636SOL     OW 5806   6.175   6.418   1.281
 1636SOL    HW1 5807   6.087   6.381   1.251
 1636SOL    HW2 5808   6.161   6.485   1.354
 1637SOL     OW 5809   0.889   0.963   3.078
 1637SOL    HW1 5810   0.939   1.047   3.100
 1637SOL    HW2 5811   0.943   0.908   3.015
 1638SOL     OW 5812   5.724   2.789   2.263
 1638SOL    HW1 5813   5.685   2.789   2.171
 1638SOL    HW2 5814   5.662   2.837   2.325
 1639SOL     OW 5815   5.060   2.530   2.668
 1639SOL    HW1 5816   4.965   2.522   2.637
 1639SOL    HW2 5817   5.068   2.609   2.728
 1640SOL     OW 5818   6.043   0.469   6.710
 1640SOL    HW1 5819   6.073   0.552   6.758
 1640SOL    HW2 5820   5.998   0.408   6.775
 1641SOL     OW 5821   6.067   2.307   2.907
 1641SOL    HW1 5822   6.013   2.329   2.989
 1641SOL    HW2 5823   6.115   2.388   2.876
 1642SOL     OW 5824   0.065   3.127   6.539
 1642SOL    HW1 5825   6.994   3.125   6.493
 1642SOL    HW2 5826   0.131   3.076   6.484
 1643SOL     OW 5827   2.418   5.639   4.018
 1643SOL    HW1 5828   2.397   5.736   4.005
 1643SOL    HW2 5829   2.351   5.598   4.081
 1644SOL     OW 5830   6.437   2.299   1.985
 1644SOL    HW1 5831   6.351   2.297   1.934
 1644SOL    HW2 5832   6.513   2.274   1.924
 1645SOL     OW 5833   2.291   0.481   5.543
 1645SOL    HW1 5834   2.205   0.517   5.579
 1645SOL    HW2 5835   2.349   0.556   5.513
 1646SOL     OW 5836   1.280   4.763   0.565
 1646SOL    HW1 5837   1.235   4.677   0.589
 1646SOL    HW2 5838   1.372   4.744   0.530
 1647SOL     OW 5839   5.121   3.059   4.399
 1647SOL    HW1 5840   5.107   3.024   4.492
 1647SOL    HW2 5841   5.201   3.119   4.398
 1648SOL     OW 5842   5.330   6.248   1.433
 1648SOL    HW1 5843   5.357   6.264   1.338
 1648SOL    HW2 5844   5.411   6.236   1.489
 1649SOL     OW 5845   3.660   1.508   2.941
 1649SOL    HW1 5846   3.621   1.418   2.963
 1649SOL    HW2 5847   3.618   1.578   2.998
 1650SOL     OW 5848   2.868   4.101   5.843
 1650SOL    HW1 5849   2.936   4.028   5.856
 1650SOL    HW2 5850   2.859   4.122   5.746
 1651SOL     OW 5851   1.233   2.228   3.926
 1651SOL    HW1 5852   1.156   2.284   3.957
 1651SOL    HW2 5853   1.237   2.229   3.826
 1652SOL     OW 5854   0.756   3.106   1.817
 1652SOL    HW1 5855   0.719   3.199   1.818
 1652SOL    HW2 5856   0.804   3.091   1.731
 1653SOL     OW 5857   0.277   5.004   2.675
 1653SOL    HW1 5858   0.186   5.046   2.678
 1653SOL    HW2 5859   0.345   5.070   2.707
 1654SOL     OW 5860   0.400   3.392   2.366
 1654SOL    HW1 5861   0.353   3.306   2.344
 1654SOL    HW2 5862   0.396   3.408   2.464
 1655SOL     OW 5863   0.009   0.516   5.188
 1655SOL    HW1 5864   6.961   0.579   5.146
 1655SOL    HW2 5865   7.011   0.423   5.154
 1656SOL     OW 5866   2.069   4.397   3.047
 1656SOL    HW1 5867   2.151   4.371   3.097
 1656SOL    HW2 5868   2.047   4.493   3.066
 1657SOL     OW 5869   0.199   6.635   5.904
 1657SOL    HW1 5870   0.266   6.619   5.976
 1657SOL    HW2 5871   0.230   6.592   5.819
 1658SOL     OW 5872   5.414   6.299   6.188
 1658SOL    HW1 5873   5.324   6.300   6.143
 1658SOL    HW2 5874   5.425   6.382   6.243
 1659SOL     OW 5875   3.937   6.878   5.864
 1659SOL    HW1 5876   4.018   6.897   5.919
 1659SOL    HW2 5877   3.857   6.922   5.906
 1660SOL     OW 5878   2.345   0.883   1.974
 1660SOL    HW1 5879   2.271   0.847   1.917
 1660SOL    HW2 5880   2.432   0.867   1.929
 1661SOL     OW 5881   5.019   4.253   2.502
 1661SOL    HW1 5882   4.928   4.222   2.527
 1661SOL    HW2 5883   5.023   4.353   2.505
 1662SOL     OW 5884   0.659   2.129   3.687
 1662SOL    HW1 5885   0.752   2.163   3.695
 1662SOL    HW2 5886   0.657   2.031   3.707
 1663SOL     OW 5887   5.040   4.599   0.849
 1663SOL    HW1 5888   4.999   4.658   0.918
 1663SOL    HW2 5889   5.014   4.504   0.866
 1664SOL     OW 5890   0.723   0.229   6.489
 1664SOL    HW1 5891   0.770   0.228   6.577
 1664SOL    HW2 5892   0.631   0.191   6.499
 1665SOL     OW 5893   2.836   4.088   0.076
 1665SOL    HW1 5894   2.832   4.149   0.155
 1665SOL    HW2 5895   2.916   4.111   0.021
 1666SOL     OW 5896   5.004   6.462   5.879
 1666SOL    HW1 5897   4.916   6.414   5.879
 1666SOL    HW2 5898   4.999   6.540   5.817
 1667SOL     OW 5899   6.669   6.328   1.167
 1667SOL    HW1 5900   6.702   6.367   1.082
 1667SOL    HW2 5901   6.633   6.236   1.150
 1668SOL     OW 5902   5.700   3.724   2.318
 1668SOL    HW1 5903   5.738   3.794   2.258
 1668SOL    HW2 5904   5.717   3.748   2.413
 1669SOL     OW 5905   6.743   3.628   5.395
 1669SOL    HW1 5906   6.732   3.613   5.494
 1669SOL    HW2 5907   6.667   3.684   5.362
 1670SOL     OW 5908   2.397   4.624   5.788
 1670SOL    HW1 5909   2.458   4.653   5.714
 1670SOL    HW2 5910   2.451   4.592   5.865
 1671SOL     OW 5911   6.162   2.240   0.734
 1671SOL    HW1 5912   6.166   2.140   0.731
 1671SOL    HW2 5913   6.218   2.277   0.660
 1672SOL     OW 5914   0.548   2.528   0.835
 1672SOL    HW1 5915   0.489   2.545   0.756
 1672SOL    HW2 5916   0.632   2.580   0.825
 1673SOL     OW 5917   1.606   0.668   4.450
 1673SOL    HW1 5918   1.700   0.649   4.482
 1673SOL    HW2 5919   1.605   0.671   4.350
 1674SOL     OW 5920   4.661   1.763   2.585
 1674SOL    HW1 5921   4.652   1.853   2.627
 1674SOL    HW2 5922   4.736   1.713   2.629
 1675SOL     OW 5923   5.138   0.677   1.683
 1675SOL    HW1 5924   5.042   0.680   1.712
 1675SOL    HW2 5925   5.155   0.593   1.632
 1676SOL     OW 5926   1.226   2.431   2.979
 1676SOL    HW1 5927   1.138   2.469   2.951
 1676SOL    HW2 5928   1.297   2.460   2.914
 1677SOL     OW 5929   3.463   2.929   3.404
 1677SOL    HW1 5930   3.452   2.895   3.311
 1677SOL    HW2 5931   3.534   3.000   3.405
 1678SOL     OW 5932   1.213   0.082   0.869
 1678SOL    HW1 5933   1.310   0.107   0.871
 1678SOL    HW2 5934   1.170   0.119   0.786
 1679SOL     OW 5935   6.840   1.882   6.745
 1679SOL    HW1 5936   6.903   1.840   6.680
 1679SOL    HW2 5937   6.890   1.910   6.827
 1680SOL     OW 5938   5.445   2.487   3.195
 1680SOL    HW1 5939   5.484   2.401   3.162
 1680SOL    HW2 5940   5.355   2.470   3.235
 1681SOL     OW 5941   2.811   6.240   4.660
 1681SOL    HW1 5942   2.877   6.256   4.734
 1681SOL    HW2 5943   2.739   6.309   4.665
 1682SOL     OW 5944   3.624   0.371   4.076
 1682SOL    HW1 5945   3.723   0.367   4.080
 1682SOL    HW2 5946   3.596   0.457   4.032
 1683SOL     OW 5947   6.281   3.696   3.024
 1683SOL    HW1 5948   6.362   3.642   3.005
 1683SOL    HW2 5949   6.232   3.658   3.102
 1684SOL     OW 5950   2.431   5.252   2.171
 1684SOL    HW1 5951   2.443   5.282   2.077
 1684SOL    HW2 5952   2.383   5.164   2.172
 1685SOL     OW 5953   0.349   0.922   5.704
 1685SOL    HW1 5954   0.294   0.857   5.653
 1685SOL    HW2 5955   0.368   1.002   5.647
 1686SOL     OW 5956   4.710   5.199   3.092
 1686SOL    HW1 5957   4.758   5.172   3.175
 1686SOL    HW2 5958   4.769   5.257   3.036
 1687SOL     OW 5959   4.963   4.728   1.098
 1687SOL    HW1 5960   4.925   4.636   1.089
 1687SOL    HW2 5961   4.898   4.786   1.148
 1688SOL     OW 5962   1.133   0.944   2.569
 1688SOL    HW1 5963   1.224   0.980   2.588
 1688SOL    HW2 5964   1.136   0.885   2.489
 1689SOL     OW 5965   4.478   0.682   1.585
 1689SOL    HW1 5966   4.386   0.644   1.576
 1689SOL    HW2 5967   4.542   0.627   1.531
 1690SOL     OW 5968   0.367   5.305   3.903
 1690SOL    HW1 5969   0.405   5.315   3.811
 1690SOL    HW2 5970   0.331   5.212   3.914
 1691SOL     OW 5971   4.454   2.484   5.092
 1691SOL    HW1 5972   4.472   2.574   5.051
 1691SOL    HW2 5973   4.357   2.479   5.116
 1692SOL     OW 5974   4.999   5.029   1.598
 1692SOL    HW1 5975   4.938   4.989   1.667
 1692SOL    HW2 5976   4.954   5.107   1.555
 1693SOL     OW 5977   5.614   6.741   5.751
 1693SOL    HW1 5978   5.683   6.796   5.799
 1693SOL    HW2 5979   5.659   6.681   5.685
 1694SOL     OW 5980   4.671   1.808   6.336
 1694SOL    HW1 5981   4.675   1.862   6.252
 1694SOL    HW2 5982   4.695   1.866   6.414
 1695SOL     OW 5983   3.159   0.898   6.500
 1695SOL    HW1 5984   3.204   0.986   6.517
 1695SOL    HW2 5985   3.182   0.834   6.573
 1696SOL     OW 5986   4.753   6.066   0.604
 1696SOL    HW1 5987   4.850   6.077   0.624
 1696SOL    HW2 5988   4.699   6.109   0.677
 1697SOL     OW 5989   4.783   2.777   2.141
 1697SOL    HW1 5990   4.881   2.788   2.127
 1697SOL    HW2 5991   4.735   2.860   2.112
 1698SOL     OW 5992   4.124   1.390   1.360
 1698SOL    HW1 5993   4.188   1.363   1.288
 1698SOL    HW2 5994   4.075   1.472   1.333
 1699SOL     OW 5995   2.323   0.203   0.215
 1699SOL    HW1 5996   2.325   0.138   0.139
 1699SOL    HW2 5997   2.334   0.153   0.302
 1700SOL     OW 5998   5.190   2.545   3.023
 1700SOL    HW1 5999   5.153   2.451   3.025
 1700SOL    HW2 6000   5.284   2.543   2.990
 1701SOL     OW 6001   6.890   6.116   5.143
 1701SOL    HW1 6002   6.891   6.181   5.218
 1701SOL    HW2 6003   6.861   6.162   5.059
 1702SOL     OW 6004   2.395   2.319   6.923
 1702SOL    HW1 6005   2.313   2.298   6.976
 1702SOL    HW2 6006   2.390   2.273   6.834
 1703SOL     OW 6007   1.157   1.828   1.761
 1703SOL    HW1 6008   1.200   1.782   1.839
 1703SOL    HW2 6009   1.141   1.762   1.687
 1704SOL     OW 6010   3.515   2.279   0.645
 1704SOL    HW1 6011   3.431   2.241   0.684
 1704SOL    HW2 6012   3.535   2.234   0.558
 1705SOL     OW 6013   4.632   2.883   0.650
 1705SOL    HW1 6014   4.731   2.878   0.666
 1705SOL    HW2 6015   4.595   2.790   0.640
 1706SOL     OW 6016   5.783   2.632   6.325
 1706SOL    HW1 6017   5.765   2.535   6.309
 1706SOL    HW2 6018   5.794   2.648   6.423
 1707SOL     OW 6019   4.606   1.390   2.349
 1707SOL    HW1 6020   4.553   1.405   2.432
 1707SOL    HW2 6021   4.548   1.411   2.269
 1708SOL     OW 6022   2.957   4.767   2.201
 1708SOL    HW1 6023   2.886   4.731   2.141
 1708SOL    HW2 6024   3.047   4.749   2.161
 1709SOL     OW 6025   4.777   5.203   0.901
 1709SOL    HW1 6026   4.732   5.227   0.987
 1709SOL    HW2 6027   4.863   5.253   0.894
 1710SOL     OW 6028   4.955   4.541   2.473
 1710SOL    HW1 6029   4.976   4.628   2.517
 1710SOL    HW2 6030   4.859   4.518   2.489
 1711SOL     OW 6031   4.017   4.948   6.689
 1711SOL    HW1 6032   3.976   4.913   6.773
 1711SOL    HW2 6033   3.969   4.909   6.610
 1712SOL     OW 6034   0.820   1.682   1.740
 1712SOL    HW1 6035   0.882   1.606   1.761
 1712SOL    HW2 6036   0.752   1.652   1.674
 1713SOL     OW 6037   3.826   1.328   2.853
 1713SOL    HW1 6038   3.776   1.413   2.869
 1713SOL    HW2 6039   3.774   1.251   2.891
 1714SOL     OW 6040   3.212   3.859   0.874
 1714SOL    HW1 6041   3.259   3.869   0.787
 1714SOL    HW2 6042   3.144   3.932   0.884
 1715SOL     OW 6043   2.149   6.333   1.983
 1715SOL    HW1 6044   2.216   6.404   2.007
 1715SOL    HW2 6045   2.190   6.268   1.920
 1716SOL     OW 6046   4.093   0.818   3.001
 1716SOL    HW1 6047   4.047   0.816   2.912
 1716SOL    HW2 6048   4.124   0.726   3.025
 1717SOL     OW 6049   3.460   5.872   4.788
 1717SOL    HW1 6050   3.460   5.776   4.760
 1717SOL    HW2 6051   3.471   5.931   4.708
 1718SOL     OW 6052   1.525   2.809   1.440
 1718SOL    HW1 6053   1.535   2.860   1.354
 1718SOL    HW2 6054   1.523   2.711   1.421
 1719SOL     OW 6055   0.787   5.415   2.421
 1719SOL    HW1 6056   0.830   5.365   2.346
 1719SOL    HW2 6057   0.692   5.436   2.397
 1720SOL     OW 6058   0.550   3.464   5.266
 1720SOL    HW1 6059   0.528   3.431   5.357
 1720SOL    HW2 6060   0.635   3.423   5.234
 1721SOL     OW 6061   2.204   2.694   0.099
 1721SOL    HW1 6062   2.193   2.788   0.068
 1721SOL    HW2 6063   2.245   2.693   0.190
 1722SOL     OW 6064   2.564   2.309   4.520
 1722SOL    HW1 6065   2.510   2.392   4.524
 1722SOL    HW2 6066   2.643   2.317   4.581
 1723SOL     OW 6067   6.313   4.487   1.356
 1723SOL    HW1 6068   6.407   4.473   1.325
 1723SOL    HW2 6069   6.309   4.474   1.455
 1724SOL     OW 6070   5.713   2.749   1.045
 1724SOL    HW1 6071   5.671   2.752   0.955
 1724SOL    HW2 6072   5.677   2.824   1.101
 1725SOL     OW 6073   1.955   6.149   6.304
 1725SOL    HW1 6074   1.863   6.175   6.334
 1725SOL    HW2 6075   1.965   6.167   6.206
 1726SOL     OW 6076   5.449   4.014   2.791
 1726SOL    HW1 6077   5.464   4.110   2.766
 1726SOL    HW2 6078   5.351   3.995   2.794
 1727SOL     OW 6079   3.266   4.107   3.369
 1727SOL    HW1 6080   3.236   4.112   3.464
 1727SOL    HW2 6081   3.207   4.045   3.318
 1728SOL     OW 6082   5.349   2.746   4.133
 1728SOL    HW1 6083   5.356   2.835   4.087
 1728SOL    HW2 6084   5.305   2.759   4.222
 1729SOL     OW 6085   1.549   2.881   3.020
 1729SOL    HW1 6086   1.607   2.803   2.996
 1729SOL    HW2 6087   1.454   2.852   3.026
 1730SOL     OW 6088   1.930   5.792   4.310
 1730SOL    HW1 6089   2.009   5.849   4.333
 1730SOL    HW2 6090   1.871   5.841   4.246
 1731SOL     OW 6091   5.693   5.193   3.910
 1731SOL    HW1 6092   5.707   5.149   3.999
 1731SOL    HW2 6093   5.779   5.192   3.858
 1732SOL     OW 6094   2.594   3.636   5.360
 1732SOL    HW1 6095   2.671   3.633   5.296
 1732SOL    HW2 6096   2.567   3.731   5.374
 1733SOL     OW 6097   1.977   3.041   5.849
 1733SOL    HW1 6098   1.926   3.127   5.856
 1733SOL    HW2 6099   2.072   3.060   5.825
 1734SOL     OW 6100   6.728   3.133   0.983
 1734SOL    HW1 6101   6.717   3.085   0.897
 1734SOL    HW2 6102   6.813   3.186   0.981
 1735SOL     OW 6103   3.549   5.468   6.298
 1735SOL    HW1 6104   3.547   5.568   6.307
 1735SOL    HW2 6105   3.601   5.429   6.374
 1736SOL     OW 6106   5.128   2.244   6.601
 1736SOL    HW1 6107   5.192   2.314   6.568
 1736SOL    HW2 6108   5.083   2.202   6.522
 1737SOL     OW 6109   3.605   1.191   5.589
 1737SOL    HW1 6110   3.588   1.195   5.687
 1737SOL    HW2 6111   3.612   1.096   5.560
 1738SOL     OW 6112   2.133   3.085   3.308
 1738SOL    HW1 6113   2.149   3.081   3.209
 1738SOL    HW2 6114   2.180   3.009   3.353
 1739SOL     OW 6115   5.464   0.170   3.012
 1739SOL    HW1 6116   5.445   0.248   2.952
 1739SOL    HW2 6117   5.442   0.085   2.963
 1740SOL     OW 6118   6.126   3.086   4.692
 1740SOL    HW1 6119   6.077   3.007   4.656
 1740SOL    HW2 6120   6.062   3.148   4.738
 1741SOL     OW 6121   0.325   1.853   4.912
 1741SOL    HW1 6122   0.352   1.949   4.902
 1741SOL    HW2 6123   0.357   1.801   4.832
 1742SOL     OW 6124   6.419   6.708   6.586
 1742SOL    HW1 6125   6.510   6.670   6.571
 1742SOL    HW2 6126   6.407   6.789   6.529
 1743SOL     OW 6127   1.818   1.555   2.267
 1743SOL    HW1 6128   1.814   1.514   2.358
 1743SOL    HW2 6129   1.914   1.571   2.242
 1744SOL     OW 6130   3.615   2.170   5.273
 1744SOL    HW1 6131   3.622   2.087   5.328
 1744SOL    HW2 6132   3.667   2.158   5.188
 1745SOL     OW 6133   5.931   6.850   1.312
 1745SOL    HW1 6134   5.916   6.802   1.398
 1745SOL    HW2 6135   5.878   6.935   1.311
 1746SOL     OW 6136   2.451   4.587   3.294
 1746SOL    HW1 6137   2.421   4.542   3.210
 1746SOL    HW2 6138   2.390   4.664   3.314
 1747SOL     OW 6139   3.913   0.040   2.740
 1747SOL    HW1 6140   3.953   6.969   2.757
 1747SOL    HW2 6141   3.817   0.040   2.766
 1748SOL     OW 6142   0.258   2.427   4.338
 1748SOL    HW1 6143   0.257   2.509   4.282
 1748SOL    HW2 6144   0.184   2.432   4.405
 1749SOL     OW 6145   0.140   5.341   1.547
 1749SOL    HW1 6146   0.060   5.327   1.488
 1749SOL    HW2 6147   0.110   5.356   1.641
 1750SOL     OW 6148   3.029   0.659   0.296
 1750SOL    HW1 6149   3.100   0.589   0.299
 1750SOL    HW2 6150   2.940   0.615   0.285
 1751SOL     OW 6151   5.516   3.309   4.713
 1751SOL    HW1 6152   5.419   3.317   4.689
 1751SOL    HW2 6153   5.532   3.222   4.760
 1752SOL     OW 6154   6.982   0.723   2.387
 1752SOL    HW1 6155   6.943   0.662   2.455
 1752SOL    HW2 6156   6.944   0.815   2.398
 1753SOL     OW 6157   6.671   1.377   1.301
 1753SOL    HW1 6158   6.609   1.408   1.228
 1753SOL    HW2 6159   6.648   1.282   1.325
 1754SOL     OW 6160   2.974   5.416   3.592
 1754SOL    HW1 6161   2.906   5.441   3.661
 1754SOL    HW2 6162   2.945   5.451   3.503
 1755SOL     OW 6163   6.824   6.907   5.379
 1755SOL    HW1 6164   6.898   6.970   5.398
 1755SOL    HW2 6165   6.751   6.919   5.447
 1756SOL     OW 6166   4.904   5.735   0.625
 1756SOL    HW1 6167   4.870   5.678   0.699
 1756SOL    HW2 6168   4.843   5.729   0.546
 1757SOL     OW 6169   2.845   4.821   5.211
 1757SOL    HW1 6170   2.838   4.768   5.126
 1757SOL    HW2 6171   2.807   4.768   5.287
 1758SOL     OW 6172   1.268   5.896   4.036
 1758SOL    HW1 6173   1.344   5.845   4.076
 1758SOL    HW2 6174   1.207   5.926   4.110
 1759SOL     OW 6175   1.108   6.181   6.996
 1759SOL    HW1 6176   1.049   6.119   6.945
 1759SOL    HW2 6177   1.176   6.128   0.029
 1760SOL     OW 6178   6.972   1.542   4.403
 1760SOL    HW1 6179   0.040   1.497   4.378
 1760SOL    HW2 6180   6.909   1.538   4.326
 1761SOL     OW 6181   5.226   1.050   2.650
 1761SOL    HW1 6182   5.229   1.096   2.740
 1761SOL    HW2 6183   5.140   1.073   2.604
 1762SOL     OW 6184   0.661   1.759   5.332
 1762SOL    HW1 6185   0.719   1.788   5.408
 1762SOL    HW2 6186   0.583   1.707   5.367
 1763SOL     OW 6187   1.217   4.792   3.816
 1763SOL    HW1 6188   1.230   4.741   3.731
 1763SOL    HW2 6189   1.274   4.874   3.814
 1764SOL     OW 6190   1.308   6.182   3.472
 1764SOL    HW1 6191   1.237   6.251   3.456
 1764SOL    HW2 6192   1.307   6.154   3.568
 1765SOL     OW 6193   5.839   3.915   2.133
 1765SOL    HW1 6194   5.861   4.004   2.174
 1765SOL    HW2 6195   5.759   3.924   2.074
 1766SOL     OW 6196   4.226   4.727   3.929
 1766SOL    HW1 6197   4.127   4.716   3.925
 1766SOL    HW2 6198   4.248   4.822   3.950
 1767SOL     OW 6199   0.392   4.943   2.214
 1767SOL    HW1 6200   0.441   4.910   2.133
 1767SOL    HW2 6201   0.293   4.944   2.196
 1768SOL     OW 6202   5.589   4.795   2.155
 1768SOL    HW1 6203   5.560   4.803   2.059
 1768SOL    HW2 6204   5.512   4.765   2.211
 1769SOL     OW 6205   5.371   0.328   0.802
 1769SOL    HW1 6206   5.409   0.235   0.792
 1769SOL    HW2 6207   5.435   0.384   0.853
 1770SOL     OW 6208   1.739   4.767   0.461
 1770SOL    HW1 6209   1.821   4.797   0.411
 1770SOL    HW2 6210   1.675   4.725   0.397
 1771SOL     OW 6211   1.740   3.283   5.683
 1771SOL    HW1 6212   1.648   3.315   5.703
 1771SOL    HW2 6213   1.797   3.360   5.653
 1772SOL     OW 6214   2.195   4.136   2.284
 1772SOL    HW1 6215   2.175   4.057   2.226
 1772SOL    HW2 6216   2.188   4.109   2.380
 1773SOL     OW 6217   2.173   6.225   6.064
 1773SOL    HW1 6218   2.266   6.222   6.100
 1773SOL    HW2 6219   2.159   6.150   6.000
 1774SOL     OW 6220   5.439   5.585   1.025
 1774SOL    HW1 6221   5.401   5.642   0.953
 1774SOL    HW2 6222   5.517   5.631   1.067
 1775SOL     OW 6223   1.902   5.099   0.788
 1775SOL    HW1 6224   1.968   5.138   0.852
 1775SOL    HW2 6225   1.920   5.001   0.776
 1776SOL     OW 6226   4.565   2.678   5.641
 1776SOL    HW1 6227   4.524   2.699   5.730
 1776SOL    HW2 6228   4.654   2.723   5.634
 1777SOL     OW 6229   4.454   5.931   0.180
 1777SOL    HW1 6230   4.519   5.941   0.105
 1777SOL    HW2 6231   4.501   5.893   0.260
 1778SOL     OW 6232   6.270   0.178   4.379
 1778SOL    HW1 6233   6.256   0.090   4.333
 1778SOL    HW2 6234   6.261   0.166   4.478
 1779SOL     OW 6235   5.700   0.546   4.030
 1779SOL    HW1 6236   5.796   0.553   4.056
 1779SOL    HW2 6237   5.680   0.455   3.996
 1780SOL     OW 6238   2.226   5.481   5.572
 1780SOL    HW1 6239   2.314   5.500   5.617
 1780SOL    HW2 6240   2.232   5.395   5.523
 1781SOL     OW 6241   4.326   0.556   5.352
 1781SOL    HW1 6242   4.314   0.489   5.426
 1781SOL    HW2 6243   4.244   0.611   5.344
 1782SOL     OW 6244   5.557   1.538   2.287
 1782SOL    HW1 6245   5.553   1.605   2.362
 1782SOL    HW2 6246   5.652   1.524   2.261
 1783SOL     OW 6247   1.913   4.120   0.114
 1783SOL    HW1 6248   1.923   4.028   0.075
 1783SOL    HW2 6249   1.862   4.115   0.200
 1784SOL     OW 6250   2.838   0.343   1.893
 1784SOL    HW1 6251   2.851   0.331   1.795
 1784SOL    HW2 6252   2.793   0.430   1.910
 1785SOL     OW 6253   1.438   6.546   4.670
 1785SOL    HW1 6254   1.458   6.482   4.595
 1785SOL    HW2 6255   1.520   6.599   4.690
 1786SOL     OW 6256   1.016   6.263   1.543
 1786SOL    HW1 6257   1.029   6.260   1.444
 1786SOL    HW2 6258   1.053   6.180   1.584
 1787SOL     OW 6259   2.146   3.157   5.455
 1787SOL    HW1 6260   2.196   3.188   5.536
 1787SOL    HW2 6261   2.117   3.062   5.468
 1788SOL     OW 6262   4.283   3.453   0.708
 1788SOL    HW1 6263   4.345   3.378   0.728
 1788SOL    HW2 6264   4.243   3.487   0.793
 1789SOL     OW 6265   6.587   3.344   2.448
 1789SOL    HW1 6266   6.533   3.261   2.464
 1789SOL    HW2 6267   6.530   3.424   2.466
 1790SOL     OW 6268   1.671   2.181   4.848
 1790SOL    HW1 6269   1.609   2.257   4.832
 1790SOL    HW2 6270   1.675   2.161   4.946
 1791SOL     OW 6271   4.971   0.429   3.893
 1791SOL    HW1 6272   5.052   0.419   3.951
 1791SOL    HW2 6273   4.899   0.475   3.944
 1792SOL     OW 6274   0.278   2.412   6.694
 1792SOL    HW1 6275   0.274   2.463   6.608
 1792SOL    HW2 6276   0.302   2.317   6.676
 1793SOL     OW 6277   6.791   1.261   5.530
 1793SOL    HW1 6278   6.778   1.322   5.608
 1793SOL    HW2 6279   6.749   1.172   5.550
 1794SOL     OW 6280   0.292   0.814   6.465
 1794SOL    HW1 6281   0.272   0.905   6.429
 1794SOL    HW2 6282   0.368   0.820   6.530
 1795SOL     OW 6283   5.344   4.515   0.992
 1795SOL    HW1 6284   5.256   4.481   0.957
 1795SOL    HW2 6285   5.405   4.438   1.009
 1796SOL     OW 6286   6.876   0.134   0.651
 1796SOL    HW1 6287   6.794   0.092   0.688
 1796SOL    HW2 6288   6.955   0.108   0.708
 1797SOL     OW 6289   2.710   5.495   5.526
 1797SOL    HW1 6290   2.791   5.547   5.497
 1797SOL    HW2 6291   2.679   5.436   5.451
 1798SOL     OW 6292   2.214   3.874   5.318
 1798SOL    HW1 6293   2.183   3.792   5.270
 1798SOL    HW2 6294   2.267   3.931   5.255
 1799SOL     OW 6295   2.996   1.354   1.467
 1799SOL    HW1 6296   3.023   1.404   1.549
 1799SOL    HW2 6297   3.067   1.365   1.397
 1800SOL     OW 6298   6.199   3.131   5.399
 1800SOL    HW1 6299   6.254   3.065   5.450
 1800SOL    HW2 6300   6.256   3.211   5.377
 1801SOL     OW 6301   0.537   0.369   3.042
 1801SOL    HW1 6302   0.552   0.461   3.079
 1801SOL    HW2 6303   0.618   0.313   3.060
 1802SOL     OW 6304   6.549   5.065   4.199
 1802SOL    HW1 6305   6.452   5.049   4.183
 1802SOL    HW2 6306   6.603   5.000   4.147
 1803SOL     OW 6307   0.127   0.325   3.596
 1803SOL    HW1 6308   0.223   0.305   3.576
 1803SOL    HW2 6309   0.080   0.242   3.625
 1804SOL     OW 6310   1.989   2.806   6.183
 1804SOL    HW1 6311   1.920   2.759   6.238
 1804SOL    HW2 6312   1.987   2.904   6.204
 1805SOL     OW 6313   6.428   4.761   0.655
 1805SOL    HW1 6314   6.515   4.772   0.609
 1805SOL    HW2 6315   6.354   4.797   0.597
 1806SOL     OW 6316   0.198   1.332   0.548
 1806SOL    HW1 6317   0.116   1.374   0.508
 1806SOL    HW2 6318   0.279   1.362   0.498
 1807SOL     OW 6319   6.362   2.819   2.756
 1807SOL    HW1 6320   6.302   2.877   2.701
 1807SOL    HW2 6321   6.453   2.817   2.715
 1808SOL     OW 6322   5.367   1.409   6.130
 1808SOL    HW1 6323   5.384   1.501   6.163
 1808SOL    HW2 6324   5.441   1.348   6.160
 1809SOL     OW 6325   5.253   0.212   5.320
 1809SOL    HW1 6326   5.229   0.308   5.313
 1809SOL    HW2 6327   5.348   0.203   5.351
 1810SOL     OW 6328   1.373   0.518   4.154
 1810SOL    HW1 6329   1.330   0.602   4.122
 1810SOL    HW2 6330   1.352   0.444   4.091
 1811SOL     OW 6331   3.839   6.042   1.855
 1811SOL    HW1 6332   3.926   6.029   1.807
 1811SOL    HW2 6333   3.777   6.096   1.798
 1812SOL     OW 6334   4.427   6.341   6.630
 1812SOL    HW1 6335   4.440   6.421   6.689
 1812SOL    HW2 6336   4.357   6.281   6.669
 1813SOL     OW 6337   4.837   3.910   2.315
 1813SOL    HW1 6338   4.844   3.813   2.291
 1813SOL    HW2 6339   4.903   3.963   2.261
 1814SOL     OW 6340   6.557   6.112   0.441
 1814SOL    HW1 6341   6.477   6.054   0.429
 1814SOL    HW2 6342   6.598   6.132   0.352
 1815SOL     OW 6343   5.353   6.050   1.137
 1815SOL    HW1 6344   5.308   6.003   1.061
 1815SOL    HW2 6345   5.342   5.996   1.221
 1816SOL     OW 6346   4.197   4.795   5.409
 1816SOL    HW1 6347   4.133   4.792   5.486
 1816SOL    HW2 6348   4.283   4.836   5.439
 1817SOL     OW 6349   0.561   2.670   3.625
 1817SOL    HW1 6350   0.563   2.653   3.724
 1817SOL    HW2 6351   0.591   2.764   3.607
 1818SOL     OW 6352   2.326   1.323   0.661
 1818SOL    HW1 6353   2.409   1.357   0.705
 1818SOL    HW2 6354   2.252   1.389   0.674
 1819SOL     OW 6355   1.748   3.942   2.198
 1819SOL    HW1 6356   1.795   4.028   2.217
 1819SOL    HW2 6357   1.731   3.893   2.283
 1820SOL     OW 6358   3.108   0.147   4.482
 1820SOL    HW1 6359   3.184   0.081   4.484
 1820SOL    HW2 6360   3.144   0.239   4.473
 1821SOL     OW 6361   3.416   1.629   2.779
 1821SOL    HW1 6362   3.436   1.705   2.841
 1821SOL    HW2 6363   3.492   1.564   2.781
 1822SOL     OW 6364   0.715   4.123   3.439
 1822SOL    HW1 6365   0.729   4.025   3.450
 1822SOL    HW2 6366   0.618   4.142   3.425
 1823SOL     OW 6367   4.148   6.626   2.757
 1823SOL    HW1 6368   4.225   6.657   2.702
 1823SOL    HW2 6369   4.175   6.545   2.810
 1824SOL     OW 6370   4.398   3.066   1.686
 1824SOL    HW1 6371   4.414   3.163   1.667
 1824SOL    HW2 6372   4.459   3.036   1.759
 1825SOL     OW 6373   0.770   3.166   5.634
 1825SOL    HW1 6374   0.773   3.071   5.604
 1825SOL    HW2 6375   0.675   3.197   5.639
 1826SOL     OW 6376   3.246   2.257   1.409
 1826SOL    HW1 6377   3.324   2.247   1.470
 1826SOL    HW2 6378   3.190   2.174   1.411
 1827SOL     OW 6379   5.417   4.942   0.741
 1827SOL    HW1 6380   5.380   4.949   0.833
 1827SOL    HW2 6381   5.433   4.845   0.719
 1828SOL     OW 6382   1.562   4.001   4.918
 1828SOL    HW1 6383   1.587   3.908   4.943
 1828SOL    HW2 6384   1.469   4.020   4.949
 1829SOL     OW 6385   3.632   6.590   2.092
 1829SOL    HW1 6386   3.606   6.494   2.088
 1829SOL    HW2 6387   3.727   6.600   2.064
 1830SOL     OW 6388   4.228   1.105   6.280
 1830SOL    HW1 6389   4.198   1.118   6.374
 1830SOL    HW2 6390   4.280   1.185   6.250
 1831SOL     OW 6391   3.233   4.609   0.711
 1831SOL    HW1 6392   3.231   4.669   0.632
 1831SOL    HW2 6393   3.287   4.651   0.784
 1832SOL     OW 6394   2.443   3.219   5.955
 1832SOL    HW1 6395   2.394   3.302   5.983
 1832SOL    HW2 6396   2.541   3.236   5.955
 1833SOL     OW 6397   5.994   1.165   0.099
 1833SOL    HW1 6398   5.999   1.065   0.101
 1833SOL    HW2 6399   6.066   1.203   0.157
 1834SOL     OW 6400   0.572   3.421   6.176
 1834SOL    HW1 6401   0.569   3.485   6.253
 1834SOL    HW2 6402   0.557   3.471   6.090
 1835SOL     OW 6403   6.899   6.077   1.136
 1835SOL    HW1 6404   6.800   6.070   1.131
 1835SOL    HW2 6405   6.932   6.033   1.220
 1836SOL     OW 6406   5.235   1.739   2.899
 1836SOL    HW1 6407   5.193   1.737   2.808
 1836SOL    HW2 6408   5.309   1.672   2.902
 1837SOL     OW 6409   2.673   2.052   6.910
 1837SOL    HW1 6410   2.663   1.984   6.983
 1837SOL    HW2 6411   2.637   2.014   6.825
 1838SOL     OW 6412   4.869   1.119   1.302
 1838SOL    HW1 6413   4.871   1.215   1.272
 1838SOL    HW2 6414   4.891   1.060   1.224
 1839SOL     OW 6415   6.093   0.499   0.352
 1839SOL    HW1 6416   6.106   0.406   0.319
 1839SOL    HW2 6417   6.137   0.564   0.290
 1840SOL     OW 6418   4.302   6.389   4.302
 1840SOL    HW1 6419   4.373   6.336   4.255
 1840SOL    HW2 6420   4.262   6.334   4.375
 1841SOL     OW 6421   1.561   0.889   1.769
 1841SOL    HW1 6422   1.466   0.858   1.763
 1841SOL    HW2 6423   1.576   0.934   1.857
 1842SOL     OW 6424   0.615   5.371   1.602
 1842SOL    HW1 6425   0.709   5.369   1.637
 1842SOL    HW2 6426   0.612   5.333   1.510
 1843SOL     OW 6427   2.721   0.888   0.232
 1843SOL    HW1 6428   2.764   0.887   0.322
 1843SOL    HW2 6429   2.750   0.806   0.181
 1844SOL     OW 6430   5.515   2.702   6.346
 1844SOL    HW1 6431   5.611   2.690   6.368
 1844SOL    HW2 6432   5.466   2.738   6.426
 1845SOL     OW 6433   1.154   2.723   3.490
 1845SOL    HW1 6434   1.063   2.726   3.451
 1845SOL    HW2 6435   1.209   2.799   3.455
 1846SOL     OW 6436   2.789   1.362   1.304
 1846SOL    HW1 6437   2.875   1.375   1.353
 1846SOL    HW2 6438   2.726   1.310   1.361
 1847SOL     OW 6439   2.246   5.581   6.049
 1847SOL    HW1 6440   2.242   5.671   6.006
 1847SOL    HW2 6441   2.191   5.582   6.133
 1848SOL     OW 6442   3.655   6.731   3.510
 1848SOL    HW1 6443   3.638   6.751   3.606
 1848SOL    HW2 6444   3.752   6.711   3.496
 1849SOL     OW 6445   4.681   2.669   2.366
 1849SOL    HW1 6446   4.721   2.577   2.363
 1849SOL    HW2 6447   4.711   2.721   2.286
 1850SOL     OW 6448   4.233   1.917   0.833
 1850SOL    HW1 6449   4.313   1.939   0.776
 1850SOL    HW2 6450   4.250   1.948   0.927
 1851SOL     OW 6451   0.011   4.891   4.554
 1851SOL    HW1 6452   7.001   4.848   4.468
 1851SOL    HW2 6453   0.083   4.959   4.535
 1852SOL     OW 6454   0.802   0.251   3.079
 1852SOL    HW1 6455   0.839   0.321   3.018
 1852SOL    HW2 6456   0.817   0.280   3.174
 1853SOL     OW 6457   0.619   2.318   5.689
 1853SOL    HW1 6458   0.605   2.407   5.646
 1853SOL    HW2 6459   0.653   2.331   5.782
 1854SOL     OW 6460   0.707   0.041   3.297
 1854SOL    HW1 6461   0.635   0.022   3.230
 1854SOL    HW2 6462   0.793   0.056   3.249
 1855SOL     OW 6463   5.563   2.541   4.702
 1855SOL    HW1 6464   5.627   2.466   4.687
 1855SOL    HW2 6465   5.488   2.510   4.760
 1856SOL     OW 6466   4.472   3.490   6.840
 1856SOL    HW1 6467   4.565   3.455   6.850
 1856SOL    HW2 6468   4.427   3.489   6.930
 1857SOL     OW 6469   3.851   1.124   6.462
 1857SOL    HW1 6470   3.844   1.026   6.444
 1857SOL    HW2 6471   3.782   1.151   6.529
 1858SOL     OW 6472   5.455   1.941   4.176
 1858SOL    HW1 6473   5.511   2.023   4.177
 1858SOL    HW2 6474   5.358   1.966   4.181
 1859SOL     OW 6475   0.089   1.037   4.121
 1859SOL    HW1 6476   0.017   1.103   4.140
 1859SOL    HW2 6477   0.139   1.017   4.205
 1860SOL     OW 6478   2.534   1.286   6.532
 1860SOL    HW1 6479   2.440   1.276   6.564
 1860SOL    HW2 6480   2.579   1.197   6.534
 1861SOL     OW 6481   6.278   6.610   4.571
 1861SOL    HW1 6482   6.289   6.557   4.655
 1861SOL    HW2 6483   6.213   6.684   4.587
 1862SOL     OW 6484   3.173   5.877   5.507
 1862SOL    HW1 6485   3.118   5.958   5.525
 1862SOL    HW2 6486   3.198   5.833   5.593
 1863SOL     OW 6487   6.464   1.675   0.935
 1863SOL    HW1 6488   6.539   1.685   0.870
 1863SOL    HW2 6489   6.466   1.751   1.001
 1864SOL     OW 6490   3.272   5.914   1.620
 1864SOL    HW1 6491   3.312   5.859   1.694
 1864SOL    HW2 6492   3.185   5.953   1.652
 1865SOL     OW 6493   6.188   2.559   5.945
 1865SOL    HW1 6494   6.185   2.522   6.038
 1865SOL    HW2 6495   6.271   2.527   5.899
 1866SOL     OW 6496   0.778   5.488   3.668
 1866SOL    HW1 6497   0.786   5.411   3.605
 1866SOL    HW2 6498   0.791   5.573   3.618
 1867SOL     OW 6499   0.659   2.303   1.393
 1867SOL    HW1 6500   0.639   2.208   1.416
 1867SOL    HW2 6501   0.740   2.333   1.442
 1868SOL     OW 6502   5.819   3.361   6.519
 1868SOL    HW1 6503   5.857   3.278   6.481
 1868SOL    HW2 6504   5.730   3.379   6.477
 1869SOL     OW 6505   5.442   0.696   5.181
 1869SOL    HW1 6506   5.496   0.726   5.260
 1869SOL    HW2 6507   5.384   0.771   5.150
 1870SOL     OW 6508   6.218   0.270   6.036
 1870SOL    HW1 6509   6.179   0.361   6.051
 1870SOL    HW2 6510   6.150   0.200   6.056
 1871SOL     OW 6511   0.706   6.383   6.955
 1871SOL    HW1 6512   0.699   6.327   0.020
 1871SOL    HW2 6513   0.760   6.334   6.887
 1872SOL     OW 6514   2.350   2.935   1.315
 1872SOL    HW1 6515   2.444   2.932   1.349
 1872SOL    HW2 6516   2.315   2.842   1.308
 1873SOL     OW 6517   6.212   1.095   1.174
 1873SOL    HW1 6518   6.243   1.095   1.269
 1873SOL    HW2 6519   6.263   1.026   1.122
 1874SOL     OW 6520   1.267   5.813   0.121
 1874SOL    HW1 6521   1.171   5.795   0.143
 1874SOL    HW2 6522   1.322   5.806   0.205
 1875SOL     OW 6523   0.177   6.273   2.070
 1875SOL    HW1 6524   0.204   6.315   2.157
 1875SOL    HW2 6525   0.176   6.173   2.081
 1876SOL     OW 6526   0.331   4.905   0.876
 1876SOL    HW1 6527   0.421   4.941   0.897
 1876SOL    HW2 6528   0.267   4.980   0.859
 1877SOL     OW 6529   1.355   2.071   2.451
 1877SOL    HW1 6530   1.416   2.044   2.377
 1877SOL    HW2 6531   1.329   2.167   2.441
 1878SOL     OW 6532   5.420   3.864   4.353
 1878SOL    HW1 6533   5.339   3.920   4.368
 1878SOL    HW2 6534   5.502   3.921   4.358
 1879SOL     OW 6535   4.706   6.192   4.633
 1879SOL    HW1 6536   4.713   6.093   4.617
 1879SOL    HW2 6537   4.781   6.221   4.691
 1880SOL     OW 6538   0.465   1.271   4.557
 1880SOL    HW1 6539   0.392   1.270   4.626
 1880SOL    HW2 6540   0.489   1.365   4.534
 1881SOL     OW 6541   2.197   0.994   3.651
 1881SOL    HW1 6542   2.112   1.016   3.604
 1881SOL    HW2 6543   2.238   0.913   3.611
 1882SOL     OW 6544   2.548   5.309   0.244
 1882SOL    HW1 6545   2.509   5.360   0.320
 1882SOL    HW2 6546   2.509   5.341   0.158
 1883SOL     OW 6547   2.510   2.517   2.569
 1883SOL    HW1 6548   2.545   2.425   2.553
 1883SOL    HW2 6549   2.515   2.538   2.667
 1884SOL     OW 6550   4.698   1.170   0.547
 1884SOL    HW1 6551   4.717   1.199   0.641
 1884SOL    HW2 6552   4.752   1.088   0.526
 1885SOL     OW 6553   0.502   1.938   0.593
 1885SOL    HW1 6554   0.432   1.955   0.523
 1885SOL    HW2 6555   0.476   1.985   0.677
 1886SOL     OW 6556   3.533   2.834   5.740
 1886SOL    HW1 6557   3.498   2.927   5.746
 1886SOL    HW2 6558   3.464   2.774   5.700
 1887SOL     OW 6559   0.580   6.262   5.180
 1887SOL    HW1 6560   0.647   6.290   5.112
 1887SOL    HW2 6561   0.577   6.163   5.186
 1888SOL     OW 6562   1.770   2.117   5.406
 1888SOL    HW1 6563   1.780   2.101   5.504
 1888SOL    HW2 6564   1.719   2.202   5.391
 1889SOL     OW 6565   2.910   2.991   0.508
 1889SOL    HW1 6566   2.814   3.020   0.516
 1889SOL    HW2 6567   2.967   3.052   0.563
 1890SOL     OW 6568   6.160   5.748   6.708
 1890SOL    HW1 6569   6.130   5.752   6.803
 1890SOL    HW2 6570   6.174   5.652   6.682
 1891SOL     OW 6571   5.626   3.699   6.772
 1891SOL    HW1 6572   5.625   3.786   6.721
 1891SOL    HW2 6573   5.534   3.680   6.807
 1892SOL     OW 6574   3.885   0.015   2.472
 1892SOL    HW1 6575   3.962   6.983   2.431
 1892SOL    HW2 6576   3.907   0.038   2.567
 1893SOL     OW 6577   3.116   1.034   5.533
 1893SOL    HW1 6578   3.085   0.944   5.500
 1893SOL    HW2 6579   3.124   1.096   5.455
 1894SOL     OW 6580   5.073   3.712   1.494
 1894SOL    HW1 6581   5.009   3.643   1.460
 1894SOL    HW2 6582   5.073   3.709   1.594
 1895SOL     OW 6583   4.289   6.114   3.444
 1895SOL    HW1 6584   4.346   6.100   3.363
 1895SOL    HW2 6585   4.234   6.197   3.432
 1896SOL     OW 6586   6.147   2.014   5.946
 1896SOL    HW1 6587   6.103   2.103   5.959
 1896SOL    HW2 6588   6.079   1.941   5.958
 1897SOL     OW 6589   5.896   4.736   3.500
 1897SOL    HW1 6590   5.903   4.763   3.404
 1897SOL    HW2 6591   5.967   4.783   3.553
 1898SOL     OW 6592   5.643   6.438   6.841
 1898SOL    HW1 6593   5.580   6.419   6.765
 1898SOL    HW2 6594   5.633   6.533   6.869
 1899SOL     OW 6595   1.717   2.217   3.424
 1899SOL    HW1 6596   1.659   2.298   3.409
 1899SOL    HW2 6597   1.761   2.191   3.338
 1900SOL     OW 6598   2.731   6.384   1.766
 1900SOL    HW1 6599   2.727   6.439   1.683
 1900SOL    HW2 6600   2.692   6.436   1.842
 1901SOL     OW 6601   1.270   0.783   5.933
 1901SOL    HW1 6602   1.364   0.777   5.900
 1901SOL    HW2 6603   1.212   0.724   5.877
 1902SOL     OW 6604   1.261   2.507   5.413
 1902SOL    HW1 6605   1.227   2.594   5.375
 1902SOL    HW2 6606   1.216   2.490   5.501
 1903SOL     OW 6607   6.838   4.631   4.002
 1903SOL    HW1 6608   6.782   4.579   3.937
 1903SOL    HW2 6609   6.934   4.607   3.988
 1904SOL     OW 6610   0.612   0.471   4.155
 1904SOL    HW1 6611   0.582   0.379   4.129
 1904SOL    HW2 6612   0.544   0.514   4.214
 1905SOL     OW 6613   6.270   2.972   4.284
 1905SOL    HW1 6614   6.244   3.064   4.253
 1905SOL    HW2 6615   6.189   2.915   4.293
 1906SOL     OW 6616   3.157   6.131   6.390
 1906SOL    HW1 6617   3.121   6.174   6.473
 1906SOL    HW2 6618   3.107   6.047   6.372
 1907SOL     OW 6619   4.696   6.061   3.948
 1907SOL    HW1 6620   4.691   6.147   3.999
 1907SOL    HW2 6621   4.774   6.007   3.981
 1908SOL     OW 6622   5.006   6.644   0.428
 1908SOL    HW1 6623   5.092   6.686   0.457
 1908SOL    HW2 6624   4.941   6.715   0.403
 1909SOL     OW 6625   4.479   5.386   4.166
 1909SOL    HW1 6626   4.395   5.351   4.124
 1909SOL    HW2 6627   4.480   5.486   4.160
 1910SOL     OW 6628   5.088   3.194   5.349
 1910SOL    HW1 6629   5.112   3.218   5.255
 1910SOL    HW2 6630   5.054   3.276   5.396
 1911SOL     OW 6631   0.299   3.492   5.671
 1911SOL    HW1 6632   0.331   3.494   5.576
 1911SOL    HW2 6633   0.259   3.580   5.694
 1912SOL     OW 6634   2.704   5.679   3.187
 1912SOL    HW1 6635   2.715   5.701   3.090
 1912SOL    HW2 6636   2.622   5.725   3.222
 1913SOL     OW 6637   1.624   4.612   5.030
 1913SOL    HW1 6638   1.644   4.594   4.934
 1913SOL    HW2 6639   1.699   4.578   5.087
 1914SOL     OW 6640   4.628   1.156   5.686
 1914SOL    HW1 6641   4.564   1.215   5.734
 1914SOL    HW2 6642   4.587   1.066   5.672
 1915SOL     OW 6643   3.129   0.487   4.982
 1915SOL    HW1 6644   3.212   0.484   5.038
 1915SOL    HW2 6645   3.103   0.582   4.966
 1916SOL     OW 6646   4.127   6.260   2.629
 1916SOL    HW1 6647   4.137   6.258   2.530
 1916SOL    HW2 6648   4.158   6.173   2.667
 1917SOL     OW 6649   3.141   3.505   4.636
 1917SOL    HW1 6650   3.046   3.481   4.656
 1917SOL    HW2 6651   3.149   3.526   4.538
 1918SOL     OW 6652   6.696   6.660   5.349
 1918SOL    HW1 6653   6.602   6.678   5.376
 1918SOL    HW2 6654   6.743   6.746   5.330
 1919SOL     OW 6655   6.445   0.263   2.252
 1919SOL    HW1 6656   6.471   0.172   2.221
 1919SOL    HW2 6657   6.346   0.274   2.245
 1920SOL     OW 6658   6.526   6.258   4.927
 1920SOL    HW1 6659   6.448   6.231   4.871
 1920SOL    HW2 6660   6.493   6.301   5.011
 1921SOL     OW 6661   1.422   0.209   6.856
 1921SOL    HW1 6662   1.460   0.141   6.919
 1921SOL    HW2 6663   1.341   0.171   6.811
 1922SOL     OW 6664   4.124   3.993   0.899
 1922SOL    HW1 6665   4.186   4.049   0.953
 1922SOL    HW2 6666   4.112   4.034   0.809
 1923SOL     OW 6667   1.771   2.736   0.301
 1923SOL    HW1 6668   1.798   2.831   0.315
 1923SOL    HW2 6669   1.821   2.678   0.366
 1924SOL     OW 6670   0.282   4.483   1.407
 1924SOL    HW1 6671   0.262   4.566   1.356
 1924SOL    HW2 6672   0.230   4.407   1.369
 1925SOL     OW 6673   3.638   4.403   0.287
 1925SOL    HW1 6674   3.573   4.378   0.359
 1925SOL    HW2 6675   3.732   4.397   0.322
 1926SOL     OW 6676   0.617   0.476   3.375
 1926SOL    HW1 6677   0.550   0.406   3.351
 1926SOL    HW2 6678   0.570   0.561   3.399
 1927SOL     OW 6679   4.371   3.655   0.536
 1927SOL    HW1 6680   4.450   3.708   0.567
 1927SOL    HW2 6681   4.346   3.587   0.605
 1928SOL     OW 6682   0.220   5.525   5.220
 1928SOL    HW1 6683   0.196   5.595   5.153
 1928SOL    HW2 6684   0.138   5.473   5.244
 1929SOL     OW 6685   1.686   5.891   2.887
 1929SOL    HW1 6686   1.702   5.942   2.803
 1929SOL    HW2 6687   1.589   5.868   2.894
 1930SOL     OW 6688   6.992   5.159   6.780
 1930SOL    HW1 6689   6.909   5.108   6.801
 1930SOL    HW2 6690   6.988   5.193   6.686
 1931SOL     OW 6691   0.563   1.769   5.052
 1931SOL    HW1 6692   0.574   1.784   5.150
 1931SOL    HW2 6693   0.469   1.789   5.025
 1932SOL     OW 6694   5.920   2.856   2.813
 1932SOL    HW1 6695   5.888   2.920   2.743
 1932SOL    HW2 6696   5.866   2.869   2.897
 1933SOL     OW 6697   2.051   4.752   0.558
 1933SOL    HW1 6698   2.051   4.653   0.542
 1933SOL    HW2 6699   1.993   4.773   0.637
 1934SOL     OW 6700   0.067   6.363   4.190
 1934SOL    HW1 6701   6.996   6.401   4.163
 1934SOL    HW2 6702   0.138   6.433   4.176
 1935SOL     OW 6703   2.333   0.780   3.578
 1935SOL    HW1 6704   2.351   0.753   3.673
 1935SOL    HW2 6705   2.346   0.701   3.518
 1936SOL     OW 6706   6.969   6.318   5.350
 1936SOL    HW1 6707   0.020   6.366   5.405
 1936SOL    HW2 6708   6.885   6.372   5.347
 1937SOL     OW 6709   4.309   0.599   2.524
 1937SOL    HW1 6710   4.273   0.685   2.487
 1937SOL    HW2 6711   4.387   0.618   2.584
 1938SOL     OW 6712   4.997   1.109   4.463
 1938SOL    HW1 6713   4.957   1.176   4.526
 1938SOL    HW2 6714   5.056   1.046   4.514
 1939SOL     OW 6715   2.882   0.470   3.617
 1939SOL    HW1 6716   2.788   0.459   3.584
 1939SOL    HW2 6717   2.881   0.483   3.716
 1940SOL     OW 6718   6.756   5.165   6.342
 1940SOL    HW1 6719   6.824   5.179   6.414
 1940SOL    HW2 6720   6.747   5.248   6.287
 1941SOL     OW 6721   5.464   4.864   2.771
 1941SOL    HW1 6722   5.499   4.881   2.863
 1941SOL    HW2 6723   5.497   4.775   2.738
 1942SOL     OW 6724   6.611   4.126   3.275
 1942SOL    HW1 6725   6.572   4.043   3.235
 1942SOL    HW2 6726   6.701   4.143   3.236
 1943SOL     OW 6727   2.992   6.073   2.238
 1943SOL    HW1 6728   2.930   6.041   2.166
 1943SOL    HW2 6729   3.045   5.996   2.274
 1944SOL     OW 6730   6.859   6.952   2.146
 1944SOL    HW1 6731   6.891   6.880   2.084
 1944SOL    HW2 6732   6.763   6.937   2.167
 1945SOL     OW 6733   3.184   4.938   3.705
 1945SOL    HW1 6734   3.111   4.897   3.651
 1945SOL    HW2 6735   3.272   4.914   3.665
 1946SOL     OW 6736   1.867   6.475   0.112
 1946SOL    HW1 6737   1.898   6.563   0.148
 1946SOL    HW2 6738   1.937   6.406   0.130
 1947SOL     OW 6739   5.347   6.998   3.708
 1947SOL    HW1 6740   5.326   6.924   3.772
 1947SOL    HW2 6741   5.284   6.993   3.631
 1948SOL     OW 6742   6.933   4.071   5.384
 1948SOL    HW1 6743   6.903   4.098   5.475
 1948SOL    HW2 6744   7.012   4.011   5.392
 1949SOL     OW 6745   5.287   3.808   6.334
 1949SOL    HW1 6746   5.256   3.901   6.350
 1949SOL    HW2 6747   5.237   3.745   6.393
 1950SOL     OW 6748   2.827   4.848   1.010
 1950SOL    HW1 6749   2.754   4.821   0.947
 1950SOL    HW2 6750   2.914   4.812   0.977
 1951SOL     OW 6751   6.863   3.260   0.272
 1951SOL    HW1 6752   6.828   3.346   0.309
 1951SOL    HW2 6753   6.789   3.210   0.227
 1952SOL     OW 6754   3.565   2.842   4.978
 1952SOL    HW1 6755   3.652   2.892   4.976
 1952SOL    HW2 6756   3.538   2.826   5.073
 1953SOL     OW 6757   7.011   2.771   4.785
 1953SOL    HW1 6758   6.972   2.829   4.714
 1953SOL    HW2 6759   6.939   2.741   4.847
 1954SOL     OW 6760   2.386   2.246   3.705
 1954SOL    HW1 6761   2.382   2.171   3.638
 1954SOL    HW2 6762   2.346   2.328   3.665
 1955SOL     OW 6763   6.110   5.442   1.672
 1955SOL    HW1 6764   6.027   5.442   1.727
 1955SOL    HW2 6765   6.152   5.352   1.674
 1956SOL     OW 6766   5.386   6.173   2.276
 1956SOL    HW1 6767   5.394   6.178   2.177
 1956SOL    HW2 6768   5.290   6.170   2.302
 1957SOL     OW 6769   0.935   6.536   5.623
 1957SOL    HW1 6770   1.024   6.531   5.577
 1957SOL    HW2 6771   0.921   6.453   5.676
 1958SOL     OW 6772   4.372   3.017   5.883
 1958SOL    HW1 6773   4.330   3.068   5.958
 1958SOL    HW2 6774   4.441   2.956   5.920
 1959SOL     OW 6775   2.030   1.935   0.298
 1959SOL    HW1 6776   2.044   2.019   0.246
 1959SOL    HW2 6777   2.062   1.857   0.243
 1960SOL     OW 6778   5.130   6.141   2.414
 1960SOL    HW1 6779   5.137   6.119   2.512
 1960SOL    HW2 6780   5.034   6.139   2.386
 1961SOL     OW 6781   5.815   5.462   5.209
 1961SOL    HW1 6782   5.738   5.409   5.245
 1961SOL    HW2 6783   5.855   5.414   5.131
 1962SOL     OW 6784   6.668   6.851   3.637
 1962SOL    HW1 6785   6.682   6.756   3.662
 1962SOL    HW2 6786   6.622   6.899   3.711
 1963SOL     OW 6787   2.826   0.348   3.081
 1963SOL    HW1 6788   2.747   0.359   3.141
 1963SOL    HW2 6789   2.910   0.365   3.132
 1964SOL     OW 6790   5.749   4.312   2.106
 1964SOL    HW1 6791   5.805   4.268   2.176
 1964SOL    HW2 6792   5.772   4.409   2.102
 1965SOL     OW 6793   2.162   5.302   3.946
 1965SOL    HW1 6794   2.132   5.383   3.997
 1965SOL    HW2 6795   2.108   5.293   3.862
 1966SOL     OW 6796   6.361   6.444   6.450
 1966SOL    HW1 6797   6.392   6.453   6.356
 1966SOL    HW2 6798   6.367   6.533   6.496
 1967SOL     OW 6799   4.985   3.593   4.518
 1967SOL    HW1 6800   5.070   3.646   4.515
 1967SOL    HW2 6801   4.940   3.605   4.607
 1968SOL     OW 6802   3.875   5.470   5.698
 1968SOL    HW1 6803   3.972   5.455   5.718
 1968SOL    HW2 6804   3.862   5.563   5.663
 1969SOL     OW 6805   6.689   2.224   1.562
 1969SOL    HW1 6806   6.689   2.124   1.562
 1969SOL    HW2 6807   6.685   2.257   1.468
 1970SOL     OW 6808   2.164   6.710   3.518
 1970SOL    HW1 6809   2.086   6.707   3.581
 1970SOL    HW2 6810   2.131   6.705   3.424
 1971SOL     OW 6811   0.373   0.884   5.993
 1971SOL    HW1 6812   0.376   0.899   5.894
 1971SOL    HW2 6813   0.346   0.790   6.012
 1972SOL     OW 6814   1.552   5.384   4.026
 1972SOL    HW1 6815   1.581   5.402   3.932
 1972SOL    HW2 6816   1.630   5.349   4.078
 1973SOL     OW 6817   2.841   2.640   6.504
 1973SOL    HW1 6818   2.882   2.558   6.463
 1973SOL    HW2 6819   2.877   2.721   6.459
 1974SOL     OW 6820   5.613   6.939   4.508
 1974SOL    HW1 6821   5.555   6.911   4.584
 1974SOL    HW2 6822   5.650   0.012   4.525
 1975SOL     OW 6823   2.978   0.745   3.618
 1975SOL    HW1 6824   2.970   0.656   3.575
 1975SOL    HW2 6825   2.996   0.814   3.548
 1976SOL     OW 6826   6.852   4.420   6.981
 1976SOL    HW1 6827   6.825   4.364   6.903
 1976SOL    HW2 6828   6.855   4.363   0.045
 1977SOL     OW 6829   2.766   2.374   5.287
 1977SOL    HW1 6830   2.827   2.413   5.356
 1977SOL    HW2 6831   2.814   2.366   5.200
 1978SOL     OW 6832   6.896   1.655   4.912
 1978SOL    HW1 6833   6.821   1.690   4.968
 1978SOL    HW2 6834   6.892   1.698   4.821
 1979SOL     OW 6835   5.807   4.646   3.068
 1979SOL    HW1 6836   5.888   4.610   3.021
 1979SOL    HW2 6837   5.831   4.731   3.115
 1980SOL     OW 6838   3.592   0.852   1.059
 1980SOL    HW1 6839   3.623   0.793   1.133
 1980SOL    HW2 6840   3.521   0.804   1.006
 1981SOL     OW 6841   5.045   3.477   1.733
 1981SOL    HW1 6842   5.059   3.424   1.650
 1981SOL    HW2 6843   5.087   3.567   1.723
 1982SOL     OW 6844   5.863   0.055   5.508
 1982SOL    HW1 6845   5.769   0.088   5.510
 1982SOL    HW2 6846   5.879   0.005   5.423
 1983SOL     OW 6847   0.574   4.354   2.182
 1983SOL    HW1 6848   0.637   4.292   2.228
 1983SOL    HW2 6849   0.570   4.441   2.232
 1984SOL     OW 6850   4.436   1.277   5.894
 1984SOL    HW1 6851   4.348   1.318   5.872
 1984SOL    HW2 6852   4.422   1.183   5.926
 1985SOL     OW 6853   1.715   6.786   1.169
 1985SOL    HW1 6854   1.750   6.880   1.167
 1985SOL    HW2 6855   1.755   6.738   1.247
 1986SOL     OW 6856   0.682   2.130   6.202
 1986SOL    HW1 6857   0.634   2.166   6.283
 1986SOL    HW2 6858   0.742   2.055   6.230
 1987SOL     OW 6859   2.696   3.948   0.389
 1987SOL    HW1 6860   2.673   4.041   0.359
 1987SOL    HW2 6861   2.795   3.934   0.380
 1988SOL     OW 6862   4.784   3.591   0.469
 1988SOL    HW1 6863   4.714   3.569   0.402
 1988SOL    HW2 6864   4.868   3.621   0.422
 1989SOL     OW 6865   2.607   0.860   4.320
 1989SOL    HW1 6866   2.608   0.958   4.299
 1989SOL    HW2 6867   2.698   0.832   4.352
 1990SOL     OW 6868   2.500   1.285   3.034
 1990SOL    HW1 6869   2.497   1.326   3.125
 1990SOL    HW2 6870   2.595   1.276   3.005
 1991SOL     OW 6871   4.721   5.316   3.780
 1991SOL    HW1 6872   4.816   5.284   3.770
 1991SOL    HW2 6873   4.706   5.395   3.721
 1992SOL     OW 6874   2.162   6.574   5.219
 1992SOL    HW1 6875   2.086   6.569   5.154
 1992SOL    HW2 6876   2.160   6.662   5.266
 1993SOL     OW 6877   3.124   3.183   4.363
 1993SOL    HW1 6878   3.163   3.173   4.272
 1993SOL    HW2 6879   3.145   3.102   4.418
 1994SOL     OW 6880   6.191   2.538   2.096
 1994SOL    HW1 6881   6.149   2.587   2.172
 1994SOL    HW2 6882   6.140   2.453   2.079
 1995SOL     OW 6883   4.671   2.422   1.234
 1995SOL    HW1 6884   4.629   2.337   1.265
 1995SOL    HW2 6885   4.604   2.475   1.182
 1996SOL     OW 6886   2.822   4.123   5.572
 1996SOL    HW1 6887   2.742   4.131   5.512
 1996SOL    HW2 6888   2.905   4.128   5.516
 1997SOL     OW 6889   5.753   0.074   4.229
 1997SOL    HW1 6890   5.656   0.059   4.211
 1997SOL    HW2 6891   5.804   7.008   4.208
 1998SOL     OW 6892   2.728   4.961   4.983
 1998SOL    HW1 6893   2.635   4.997   4.993
 1998SOL    HW2 6894   2.766   4.941   5.074
 1999SOL     OW 6895   1.965   0.788   2.119
 1999SOL    HW1 6896   1.995   0.847   2.044
 1999SOL    HW2 6897   1.877   0.747   2.097
 2000SOL     OW 6898   3.987   1.630   4.848
 2000SOL    HW1 6899   3.949   1.650   4.758
 2000SOL    HW2 6900   4.007   1.716   4.896
 2001SOL     OW 6901   2.675   3.311   0.434
 2001SOL    HW1 6902   2.722   3.400   0.435
 2001SOL    HW2 6903   2.705   3.260   0.353
 2002SOL     OW 6904   1.833   5.380   4.726
 2002SOL    HW1 6905   1.929   5.408   4.730
 2002SOL    HW2 6906   1.775   5.453   4.764
 2003SOL     OW 6907   6.259   4.747   3.356
 2003SOL    HW1 6908   6.250   4.816   3.428
 2003SOL    HW2 6909   6.172   4.700   3.343
 2004SOL     OW 6910   3.310   0.390   6.367
 2004SOL    HW1 6911   3.365   0.306   6.362
 2004SOL    HW2 6912   3.214   0.367   6.379
 2005SOL     OW 6913   2.867   6.702   5.178
 2005SOL    HW1 6914   2.853   6.745   5.089
 2005SOL    HW2 6915   2.869   6.603   5.167
 2006SOL     OW 6916   4.059   5.423   3.560
 2006SOL    HW1 6917   4.006   5.507   3.552
 2006SOL    HW2 6918   4.017   5.351   3.505
 2007SOL     OW 6919   6.820   5.341   0.338
 2007SOL    HW1 6920   6.863   5.409   0.397
 2007SOL    HW2 6921   6.827   5.371   0.242
 2008SOL     OW 6922   6.981   6.462   4.615
 2008SOL    HW1 6923   0.021   6.518   4.674
 2008SOL    HW2 6924   6.985   6.366   4.645
 2009SOL     OW 6925   0.464   0.603   0.902
 2009SOL    HW1 6926   0.533   0.654   0.954
 2009SOL    HW2 6927   0.389   0.576   0.963
 2010SOL     OW 6928   0.763   0.110   0.907
 2010SOL    HW1 6929   0.837   0.142   0.967
 2010SOL    HW2 6930   0.755   0.171   0.828
 2011SOL     OW 6931   6.779   2.380   4.844
 2011SOL    HW1 6932   6.814   2.473   4.844
 2011SOL    HW2 6933   6.853   2.317   4.819
 2012SOL     OW 6934   0.318   3.470   0.956
 2012SOL    HW1 6935   0.387   3.520   0.904
 2012SOL    HW2 6936   0.345   3.467   1.053
 2013SOL     OW 6937   4.752   0.764   2.195
 2013SOL    HW1 6938   4.724   0.857   2.217
 2013SOL    HW2 6939   4.851   0.761   2.179
 2014SOL     OW 6940   2.635   5.259   3.355
 2014SOL    HW1 6941   2.699   5.197   3.311
 2014SOL    HW2 6942   2.548   5.257   3.305
 2015SOL     OW 6943   3.446   6.908   6.954
 2015SOL    HW1 6944   3.477   6.836   7.015
 2015SOL    HW2 6945   3.490   6.897   6.865
 2016SOL     OW 6946   6.142   4.903   3.552
 2016SOL    HW1 6947   6.097   4.987   3.523
 2016SOL    HW2 6948   6.213   4.924   3.619
 2017SOL     OW 6949   2.313   5.548   1.715
 2017SOL    HW1 6950   2.403   5.558   1.673
 2017SOL    HW2 6951   2.264   5.472   1.670
 2018SOL     OW 6952   0.420   4.376   6.222
 2018SOL    HW1 6953   0.348   4.315   6.256
 2018SOL    HW2 6954   0.379   4.465   6.198
 2019SOL     OW 6955   5.564   1.748   3.052
 2019SOL    HW1 6956   5.521   1.831   3.015
 2019SOL    HW2 6957   5.653   1.735   3.010
 2020SOL     OW 6958   1.770   5.360   3.039
 2020SOL    HW1 6959   1.757   5.440   2.980
 2020SOL    HW2 6960   1.851   5.374   3.096
 2021SOL     OW 6961   1.522   6.746   1.543
 2021SOL    HW1 6962   1.498   6.763   1.447
 2021SOL    HW2 6963   1.453   6.685   1.584
 2022SOL     OW 6964   2.525   4.535   1.070
 2022SOL    HW1 6965   2.565   4.443   1.075
 2022SOL    HW2 6966   2.465   4.549   1.148
 2023SOL     OW 6967   6.321   1.584   6.365
 2023SOL    HW1 6968   6.409   1.608   6.407
 2023SOL    HW2 6969   6.253   1.573   6.437
 2024SOL     OW 6970   5.892   0.361   2.987
 2024SOL    HW1 6971   5.849   0.443   3.023
 2024SOL    HW2 6972   5.992   0.373   2.988
 2025SOL     OW 6973   6.694   0.914   0.374
 2025SOL    HW1 6974   6.725   0.987   0.436
 2025SOL    HW2 6975   6.648   0.843   0.427
 2026SOL     OW 6976   1.492   1.787   5.615
 2026SOL    HW1 6977   1.541   1.804   5.529
 2026SOL    HW2 6978   1.397   1.762   5.594
 2027SOL     OW 6979   0.361   1.526   2.608
 2027SOL    HW1 6980   0.325   1.523   2.515
 2027SOL    HW2 6981   0.421   1.605   2.618
 2028SOL     OW 6982   3.679   3.630   6.113
 2028SOL    HW1 6983   3.627   3.607   6.030
 2028SOL    HW2 6984   3.768   3.666   6.087
 2029SOL     OW 6985   1.617   0.418   0.466
 2029SOL    HW1 6986   1.538   0.472   0.495
 2029SOL    HW2 6987   1.626   0.338   0.525
 2030SOL     OW 6988   1.216   1.594   2.829
 2030SOL    HW1 6989   1.264   1.570   2.914
 2030SOL    HW2 6990   1.122   1.621   2.850
 2031SOL     OW 6991   4.777   0.129   3.073
 2031SOL    HW1 6992   4.814   0.208   3.024
 2031SOL    HW2 6993   4.814   0.127   3.166
 2032SOL     OW 6994   5.336   6.690   1.495
 2032SOL    HW1 6995   5.371   6.701   1.402
 2032SOL    HW2 6996   5.242   6.657   1.491
 2033SOL     OW 6997   0.328   5.128   6.499
 2033SOL    HW1 6998   0.413   5.075   6.497
 2033SOL    HW2 6999   0.349   5.224   6.515
 2034SOL     OW 7000   2.848   0.067   3.141
 2034SOL    HW1 7001   2.850   0.145   3.078
 2034SOL    HW2 7002   2.939   0.027   3.148
 2035SOL     OW 7003   1.108   3.225   1.861
 2035SOL    HW1 7004   1.101   3.211   1.762
 2035SOL    HW2 7005   1.192   3.181   1.895
 2036SOL     OW 7006   1.103   4.258   0.321
 2036SOL    HW1 7007   1.113   4.211   0.409
 2036SOL    HW2 7008   1.083   4.192   0.249
 2037SOL     OW 7009   7.006   0.865   6.285
 2037SOL    HW1 7010   0.002   0.767   6.274
 2037SOL    HW2 7011   0.077   0.911   6.288
 2038SOL     OW 7012   0.921   7.014   4.829
 2038SOL    HW1 7013   1.003   6.965   4.798
 2038SOL    HW2 7014   0.841   6.981   4.779
 2039SOL     OW 7015   1.061   4.952   2.022
 2039SOL    HW1 7016   1.074   4.892   1.943
 2039SOL    HW2 7017   1.082   4.902   2.106
 2040SOL     OW 7018   3.376   3.645   4.227
 2040SOL    HW1 7019   3.281   3.637   4.258
 2040SOL    HW2 7020   3.384   3.606   4.135
 2041SOL     OW 7021   6.405   3.539   6.533
 2041SOL    HW1 7022   6.324   3.483   6.553
 2041SOL    HW2 7023   6.390   3.631   6.569
 2042SOL     OW 7024   3.682   5.690   0.054
 2042SOL    HW1 7025   3.621   5.755   0.008
 2042SOL    HW2 7026   3.677   5.704   0.153
 2043SOL     OW 7027   4.421   4.584   2.236
 2043SOL    HW1 7028   4.356   4.549   2.168
 2043SOL    HW2 7029   4.504   4.528   2.234
 2044SOL     OW 7030   6.380   0.729   2.072
 2044SOL    HW1 7031   6.297   0.683   2.104
 2044SOL    HW2 7032   6.461   0.681   2.105
 2045SOL     OW 7033   2.222   5.130   6.211
 2045SOL    HW1 7034   2.190   5.183   6.132
 2045SOL    HW2 7035   2.234   5.034   6.185
 2046SOL     OW 7036   5.869   0.512   4.778
 2046SOL    HW1 7037   5.853   0.519   4.680
 2046SOL    HW2 7038   5.959   0.550   4.801
 2047SOL     OW 7039   5.846   2.934   0.117
 2047SOL    HW1 7040   5.831   2.993   0.037
 2047SOL    HW2 7041   5.868   2.842   0.086
 2048SOL     OW 7042   3.931   6.851   5.416
 2048SOL    HW1 7043   3.969   6.787   5.349
 2048SOL    HW2 7044   3.989   6.852   5.498
 2049SOL     OW 7045   4.773   6.197   0.333
 2049SOL    HW1 7046   4.775   6.126   0.403
 2049SOL    HW2 7047   4.740   6.159   0.247
 2050SOL     OW 7048   5.357   1.510   4.180
 2050SOL    HW1 7049   5.257   1.512   4.170
 2050SOL    HW2 7050   5.399   1.490   4.092
 2051SOL     OW 7051   1.928   5.253   0.558
 2051SOL    HW1 7052   1.845   5.216   0.515
 2051SOL    HW2 7053   1.929   5.227   0.654
 2052SOL     OW 7054   1.275   2.855   0.549
 2052SOL    HW1 7055   1.219   2.936   0.563
 2052SOL    HW2 7056   1.368   2.882   0.525
 2053SOL     OW 7057   5.314   0.723   0.807
 2053SOL    HW1 7058   5.238   0.680   0.854
 2053SOL    HW2 7059   5.322   0.818   0.835
 2054SOL     OW 7060   6.893   3.245   1.661
 2054SOL    HW1 7061   6.802   3.272   1.693
 2054SOL    HW2 7062   6.956   3.245   1.738
 2055SOL     OW 7063   6.551   2.192   4.010
 2055SOL    HW1 7064   6.577   2.105   4.053
 2055SOL    HW2 7065   6.502   2.248   4.077
 2056SOL     OW 7066   1.658   0.599   2.626
 2056SOL    HW1 7067   1.675   0.546   2.542
 2056SOL    HW2 7068   1.559   0.602   2.644
 2057SOL     OW 7069   6.723   2.493   4.034
 2057SOL    HW1 7070   6.765   2.575   4.075
 2057SOL    HW2 7071   6.668   2.447   4.104
 2058SOL     OW 7072   0.148   2.029   1.166
 2058SOL    HW1 7073   0.079   1.957   1.175
 2058SOL    HW2 7074   0.220   2.014   1.235
 2059SOL     OW 7075   1.543   0.977   6.608
 2059SOL    HW1 7076   1.447   0.949   6.614
 2059SOL    HW2 7077   1.548   1.075   6.593
 2060SOL     OW 7078   0.492   5.412   2.332
 2060SOL    HW1 7079   0.459   5.345   2.399
 2060SOL    HW2 7080   0.521   5.365   2.249
 2061SOL     OW 7081   6.842   1.482   1.818
 2061SOL    HW1 7082   6.824   1.558   1.881
 2061SOL    HW2 7083   6.936   1.489   1.783
 2062SOL     OW 7084   4.451   0.465   3.345
 2062SOL    HW1 7085   4.389   0.511   3.409
 2062SOL    HW2 7086   4.500   0.392   3.393
 2063SOL     OW 7087   2.816   1.768   0.491
 2063SOL    HW1 7088   2.880   1.841   0.466
 2063SOL    HW2 7089   2.726   1.807   0.511
 2064SOL     OW 7090   0.725   2.318   0.201
 2064SOL    HW1 7091   0.690   2.226   0.213
 2064SOL    HW2 7092   0.762   2.352   0.287
 2065SOL     OW 7093   6.019   2.957   2.099
 2065SOL    HW1 7094   6.019   3.051   2.135
 2065SOL    HW2 7095   5.990   2.894   2.171
 2066SOL     OW 7096   2.299   6.483   3.576
 2066SOL    HW1 7097   2.247   6.415   3.628
 2066SOL    HW2 7098   2.249   6.570   3.578
 2067SOL     OW 7099   0.236   0.073   1.295
 2067SOL    HW1 7100   0.302   0.119   1.355
 2067SOL    HW2 7101   0.273   0.069   1.202
 2068SOL     OW 7102   1.927   1.597   5.180
 2068SOL    HW1 7103   1.966   1.641   5.261
 2068SOL    HW2 7104   1.930   1.661   5.103
 2069SOL     OW 7105   0.655   2.027   1.433
 2069SOL    HW1 7106   0.670   1.941   1.384
 2069SOL    HW2 7107   0.673   2.014   1.531
 2070SOL     OW 7108   0.555   1.090   2.967
 2070SOL    HW1 7109   0.458   1.111   2.964
 2070SOL    HW2 7110   0.607   1.170   2.996
 2071SOL     OW 7111   1.543   6.092   4.862
 2071SOL    HW1 7112   1.472   6.096   4.932
 2071SOL    HW2 7113   1.514   6.143   4.781
 2072SOL     OW 7114   5.288   5.052   2.421
 2072SOL    HW1 7115   5.269   5.113   2.345
 2072SOL    HW2 7116   5.362   4.989   2.396
 2073SOL     OW 7117   3.117   0.028   5.458
 2073SOL    HW1 7118   3.186   6.976   5.440
 2073SOL    HW2 7119   3.122   0.056   5.554
 2074SOL     OW 7120   6.332   2.086   1.627
 2074SOL    HW1 7121   6.325   2.006   1.566
 2074SOL    HW2 7122   6.349   2.055   1.720
 2075SOL     OW 7123   4.432   3.506   5.775
 2075SOL    HW1 7124   4.465   3.413   5.763
 2075SOL    HW2 7125   4.343   3.516   5.729
 2076SOL     OW 7126   4.877   0.472   1.387
 2076SOL    HW1 7127   4.795   0.526   1.402
 2076SOL    HW2 7128   4.945   0.495   1.456
 2077SOL     OW 7129   5.471   1.497   3.455
 2077SOL    HW1 7130   5.470   1.533   3.548
 2077SOL    HW2 7131   5.450   1.570   3.390
 2078SOL     OW 7132   4.290   5.862   5.490
 2078SOL    HW1 7133   4.376   5.823   5.522
 2078SOL    HW2 7134   4.281   5.955   5.525
 2079SOL     OW 7135   5.828   1.659   3.764
 2079SOL    HW1 7136   5.756   1.600   3.727
 2079SOL    HW2 7137   5.910   1.604   3.779
 2080SOL     OW 7138   3.350   2.120   4.591
 2080SOL    HW1 7139   3.317   2.125   4.497
 2080SOL    HW2 7140   3.282   2.158   4.653
 2081SOL     OW 7141   0.397   6.404   5.026
 2081SOL    HW1 7142   0.310   6.361   5.051
 2081SOL    HW2 7143   0.472   6.340   5.044
 2082SOL     OW 7144   5.114   0.404   1.579
 2082SOL    HW1 7145   5.111   0.305   1.562
 2082SOL    HW2 7146   5.180   0.446   1.517
 2083SOL     OW 7147   3.581   5.440   5.386
 2083SOL    HW1 7148   3.585   5.445   5.486
 2083SOL    HW2 7149   3.532   5.358   5.359
 2084SOL     OW 7150   6.973   3.339   2.957
 2084SOL    HW1 7151   6.928   3.428   2.954
 2084SOL    HW2 7152   6.906   3.268   2.977
 2085SOL     OW 7153   5.512   6.302   6.591
 2085SOL    HW1 7154   5.542   6.382   6.539
 2085SOL    HW2 7155   5.418   6.279   6.565
 2086SOL     OW 7156   2.583   4.882   1.284
 2086SOL    HW1 7157   2.587   4.943   1.363
 2086SOL    HW2 7158   2.546   4.932   1.205
 2087SOL     OW 7159   5.648   6.471   3.665
 2087SOL    HW1 7160   5.658   6.384   3.617
 2087SOL    HW2 7161   5.573   6.464   3.732
 2088SOL     OW 7162   2.745   6.651   0.752
 2088SOL    HW1 7163   2.745   6.552   0.767
 2088SOL    HW2 7164   2.652   6.687   0.764
 2089SOL     OW 7165   2.987   0.539   6.657
 2089SOL    HW1 7166   2.892   0.571   6.664
 2089SOL    HW2 7167   2.990   0.460   6.596
 2090SOL     OW 7168   2.923   3.242   3.897
 2090SOL    HW1 7169   2.916   3.177   3.821
 2090SOL    HW2 7170   3.009   3.292   3.890
 2091SOL     OW 7171   1.942   4.879   0.322
 2091SOL    HW1 7172   2.012   4.840   0.382
 2091SOL    HW2 7173   1.970   4.971   0.295
 2092SOL     OW 7174   6.324   6.536   0.808
 2092SOL    HW1 7175   6.372   6.617   0.775
 2092SOL    HW2 7176   6.343   6.523   0.905
 2093SOL     OW 7177   1.332   2.037   1.414
 2093SOL    HW1 7178   1.342   1.942   1.383
 2093SOL    HW2 7179   1.312   2.039   1.511
 2094SOL     OW 7180   5.662   0.334   2.428
 2094SOL    HW1 7181   5.671   0.291   2.518
 2094SOL    HW2 7182   5.595   0.407   2.432
 2095SOL     OW 7183   6.987   5.052   5.064
 2095SOL    HW1 7184   0.022   4.994   5.127
 2095SOL    HW2 7185   6.925   4.994   5.011
 2096SOL     OW 7186   4.865   3.500   2.827
 2096SOL    HW1 7187   4.875   3.565   2.752
 2096SOL    HW2 7188   4.868   3.549   2.914
 2097SOL     OW 7189   0.015   3.031   6.807
 2097SOL    HW1 7190   0.025   3.070   6.715
 2097SOL    HW2 7191   0.000   3.105   6.873
 2098SOL     OW 7192   4.699   0.665   4.303
 2098SOL    HW1 7193   4.695   0.567   4.325
 2098SOL    HW2 7194   4.682   0.677   4.205
 2099SOL     OW 7195   2.641   1.606   4.434
 2099SOL    HW1 7196   2.643   1.698   4.472
 2099SOL    HW2 7197   2.587   1.605   4.350
 2100SOL     OW 7198   3.661   3.833   6.794
 2100SOL    HW1 7199   3.569   3.871   6.789
 2100SOL    HW2 7200   3.724   3.902   6.828
 2101SOL     OW 7201   6.956   0.492   3.485
 2101SOL    HW1 7202   0.010   0.440   3.532
 2101SOL    HW2 7203   6.907   0.547   3.552
 2102SOL     OW 7204   0.067   4.910   2.251
 2102SOL    HW1 7205   0.037   4.947   2.163
 2102SOL    HW2 7206   0.003   4.934   2.323
 2103SOL     OW 7207   2.820   3.616   6.697
 2103SOL    HW1 7208   2.845   3.614   6.600
 2103SOL    HW2 7209   2.721   3.634   6.705
 2104SOL     OW 7210   1.194   3.597   4.911
 2104SOL    HW1 7211   1.266   3.548   4.959
 2104SOL    HW2 7212   1.113   3.538   4.902
 2105SOL     OW 7213   5.787   5.765   1.533
 2105SOL    HW1 7214   5.854   5.827   1.574
 2105SOL    HW2 7215   5.813   5.744   1.439
 2106SOL     OW 7216   5.061   5.994   0.053
 2106SOL    HW1 7217   5.109   5.952   0.130
 2106SOL    HW2 7218   4.973   6.030   0.085
 2107SOL     OW 7219   3.553   4.203   6.717
 2107SOL    HW1 7220   3.511   4.243   6.798
 2107SOL    HW2 7221   3.497   4.127   6.684
 2108SOL     OW 7222   5.463   4.591   5.865
 2108SOL    HW1 7223   5.482   4.665   5.800
 2108SOL    HW2 7224   5.383   4.539   5.833
 2109SOL     OW 7225   5.469   6.648   2.690
 2109SOL    HW1 7226   5.568   6.652   2.687
 2109SOL    HW2 7227   5.437   6.663   2.784
 2110SOL     OW 7228   2.487   4.978   5.621
 2110SOL    HW1 7229   2.517   5.020   5.535
 2110SOL    HW2 7230   2.535   4.892   5.634
 2111SOL     OW 7231   1.367   2.671   6.592
 2111SOL    HW1 7232   1.351   2.768   6.605
 2111SOL    HW2 7233   1.287   2.629   6.548
 2112SOL     OW 7234   5.058   3.245   1.158
 2112SOL    HW1 7235   4.981   3.303   1.183
 2112SOL    HW2 7236   5.025   3.159   1.120
 2113SOL     OW 7237   0.042   1.318   3.312
 2113SOL    HW1 7238   0.086   1.362   3.390
 2113SOL    HW2 7239   0.112   1.274   3.255
 2114SOL     OW 7240   1.638   3.925   6.779
 2114SOL    HW1 7241   1.576   3.995   6.812
 2114SOL    HW2 7242   1.657   3.940   6.682
 2115SOL     OW 7243   2.673   4.938   2.342
 2115SOL    HW1 7244   2.716   4.869   2.401
 2115SOL    HW2 7245   2.741   5.007   2.316
 2116SOL     OW 7246   0.147   4.434   3.293
 2116SOL    HW1 7247   0.224   4.473   3.243
 2116SOL    HW2 7248   0.154   4.460   3.390
 2117SOL     OW 7249   6.651   5.055   0.681
 2117SOL    HW1 7250   6.723   5.062   0.750
 2117SOL    HW2 7251   6.686   5.083   0.592
 2118SOL     OW 7252   6.655   3.950   2.238
 2118SOL    HW1 7253   6.684   4.032   2.287
 2118SOL    HW2 7254   6.697   3.949   2.147
 2119SOL     OW 7255   3.038   5.633   1.220
 2119SOL    HW1 7256   3.035   5.687   1.136
 2119SOL    HW2 7257   3.111   5.565   1.214
 2120SOL     OW 7258   0.176   5.326   2.242
 2120SOL    HW1 7259   0.125   5.412   2.235
 2120SOL    HW2 7260   0.234   5.314   2.162
 2121SOL     OW 7261   0.594   4.486   4.743
 2121SOL    HW1 7262   0.679   4.480   4.796
 2121SOL    HW2 7263   0.614   4.477   4.646
 2122SOL     OW 7264   4.560   4.404   5.156
 2122SOL    HW1 7265   4.556   4.465   5.235
 2122SOL    HW2 7266   4.493   4.433   5.088
 2123SOL     OW 7267   5.623   4.487   3.205
 2123SOL    HW1 7268   5.667   4.563   3.157
 2123SOL    HW2 7269   5.623   4.406   3.147
 2124SOL     OW 7270   2.396   1.694   0.867
 2124SOL    HW1 7271   2.354   1.781   0.843
 2124SOL    HW2 7272   2.350   1.654   0.946
 2125SOL     OW 7273   2.691   6.717   1.154
 2125SOL    HW1 7274   2.716   6.633   1.107
 2125SOL    HW2 7275   2.761   6.786   1.139
 2126SOL     OW 7276   2.606   0.858   1.916
 2126SOL    HW1 7277   2.649   0.860   2.006
 2126SOL    HW2 7278   2.666   0.902   1.849
 2127SOL     OW 7279   5.731   3.097   5.018
 2127SOL    HW1 7280   5.786   3.115   5.100
 2127SOL    HW2 7281   5.638   3.132   5.032
 2128SOL     OW 7282   0.302   5.261   4.232
 2128SOL    HW1 7283   0.387   5.295   4.190
 2128SOL    HW2 7284   0.234   5.334   4.231
 2129SOL     OW 7285   3.778   1.925   5.674
 2129SOL    HW1 7286   3.816   1.856   5.612
 2129SOL    HW2 7287   3.692   1.891   5.713
 2130SOL     OW 7288   4.213   6.355   3.359
 2130SOL    HW1 7289   4.129   6.404   3.336
 2130SOL    HW2 7290   4.276   6.416   3.407
 2131SOL     OW 7291   5.925   2.359   0.039
 2131SOL    HW1 7292   5.835   2.396   0.061
 2131SOL    HW2 7293   5.977   2.344   0.124
 2132SOL     OW 7294   2.320   2.634   0.347
 2132SOL    HW1 7295   2.407   2.585   0.346
 2132SOL    HW2 7296   2.322   2.705   0.417
 2133SOL     OW 7297   3.146   3.554   6.024
 2133SOL    HW1 7298   3.188   3.644   6.021
 2133SOL    HW2 7299   3.057   3.557   5.977
 2134SOL     OW 7300   1.206   7.010   1.228
 2134SOL    HW1 7301   1.183   0.033   1.316
 2134SOL    HW2 7302   1.179   0.053   1.154
 2135SOL     OW 7303   7.015   4.466   4.388
 2135SOL    HW1 7304   0.094   4.461   4.365
 2135SOL    HW2 7305   6.962   4.416   4.320
 2136SOL     OW 7306   1.557   5.209   1.029
 2136SOL    HW1 7307   1.591   5.165   1.112
 2136SOL    HW2 7308   1.494   5.283   1.054
 2137SOL     OW 7309   1.578   5.837   4.153
 2137SOL    HW1 7310   1.547   5.875   4.240
 2137SOL    HW2 7311   1.674   5.858   4.139
 2138SOL     OW 7312   4.959   1.577   1.661
 2138SOL    HW1 7313   4.962   1.662   1.713
 2138SOL    HW2 7314   5.031   1.515   1.694
 2139SOL     OW 7315   2.722   0.774   5.354
 2139SOL    HW1 7316   2.653   0.766   5.282
 2139SOL    HW2 7317   2.743   0.871   5.369
 2140SOL     OW 7318   2.267   1.210   4.991
 2140SOL    HW1 7319   2.316   1.165   5.066
 2140SOL    HW2 7320   2.185   1.254   5.027
 2141SOL     OW 7321   6.934   3.698   2.520
 2141SOL    HW1 7322   0.007   3.677   2.485
 2141SOL    HW2 7323   6.890   3.613   2.550
 2142SOL     OW 7324   1.523   2.159   2.655
 2142SOL    HW1 7325   1.585   2.226   2.614
 2142SOL    HW2 7326   1.456   2.130   2.586
 2143SOL     OW 7327   1.215   4.461   6.879
 2143SOL    HW1 7328   1.145   4.396   6.849
 2143SOL    HW2 7329   1.300   4.411   6.899
 2144SOL     OW 7330   6.116   4.531   4.010
 2144SOL    HW1 7331   6.097   4.625   3.979
 2144SOL    HW2 7332   6.041   4.472   3.982
 2145SOL     OW 7333   4.298   0.658   3.727
 2145SOL    HW1 7334   4.273   0.676   3.632
 2145SOL    HW2 7335   4.269   0.735   3.784
 2146SOL     OW 7336   2.323   2.754   6.848
 2146SOL    HW1 7337   2.294   2.740   6.943
 2146SOL    HW2 7338   2.397   2.692   6.825
 2147SOL     OW 7339   5.988   0.188   4.402
 2147SOL    HW1 7340   5.953   0.111   4.349
 2147SOL    HW2 7341   6.072   0.223   4.361
 2148SOL     OW 7342   0.659   3.133   6.139
 2148SOL    HW1 7343   0.750   3.117   6.101
 2148SOL    HW2 7344   0.651   3.228   6.169
 2149SOL     OW 7345   0.694   0.436   0.307
 2149SOL    HW1 7346   0.745   0.352   0.322
 2149SOL    HW2 7347   0.757   0.513   0.300
 2150SOL     OW 7348   2.434   2.535   1.254
 2150SOL    HW1 7349   2.459   2.591   1.333
 2150SOL    HW2 7350   2.415   2.441   1.284
 2151SOL     OW 7351   1.339   5.268   0.351
 2151SOL    HW1 7352   1.240   5.264   0.340
 2151SOL    HW2 7353   1.362   5.328   0.428
 2152SOL     OW 7354   5.228   5.697   4.512
 2152SOL    HW1 7355   5.312   5.718   4.462
 2152SOL    HW2 7356   5.157   5.763   4.487
 2153SOL     OW 7357   4.601   1.203   3.428
 2153SOL    HW1 7358   4.527   1.184   3.363
 2153SOL    HW2 7359   4.601   1.133   3.500
 2154SOL     OW 7360   3.309   0.157   3.565
 2154SOL    HW1 7361   3.233   0.145   3.500
 2154SOL    HW2 7362   3.375   0.221   3.528
 2155SOL     OW 7363   4.568   0.543   1.116
 2155SOL    HW1 7364   4.651   0.591   1.087
 2155SOL    HW2 7365   4.491   0.569   1.058
 2156SOL     OW 7366   5.061   1.651   4.935
 2156SOL    HW1 7367   4.970   1.688   4.955
 2156SOL    HW2 7368   5.114   1.720   4.886
 2157SOL     OW 7369   3.408   6.326   4.049
 2157SOL    HW1 7370   3.495   6.280   4.031
 2157SOL    HW2 7371   3.351   6.268   4.107
 2158SOL     OW 7372   3.483   0.552   0.348
 2158SOL    HW1 7373   3.561   0.608   0.321
 2158SOL    HW2 7374   3.512   0.456   0.357
 2159SOL     OW 7375   0.621   1.214   5.745
 2159SOL    HW1 7376   0.581   1.304   5.763
 2159SOL    HW2 7377   0.555   1.158   5.694
 2160SOL     OW 7378   5.779   6.727   0.321
 2160SOL    HW1 7379   5.842   6.669   0.268
 2160SOL    HW2 7380   5.784   6.821   0.289
 2161SOL     OW 7381   1.608   2.455   1.648
 2161SOL    HW1 7382   1.647   2.377   1.599
 2161SOL    HW2 7383   1.677   2.526   1.660
 2162SOL     OW 7384   1.287   6.899   1.842
 2162SOL    HW1 7385   1.224   6.920   1.767
 2162SOL    HW2 7386   1.327   6.809   1.828
 2163SOL     OW 7387   1.852   2.733   2.925
 2163SOL    HW1 7388   1.848   2.714   2.827
 2163SOL    HW2 7389   1.947   2.744   2.953
 2164SOL     OW 7390   2.139   3.020   2.746
 2164SOL    HW1 7391   2.076   2.954   2.787
 2164SOL    HW2 7392   2.088   3.085   2.690
 2165SOL     OW 7393   6.747   1.547   3.778
 2165SOL    HW1 7394   6.676   1.516   3.715
 2165SOL    HW2 7395   6.806   1.470   3.803
 2166SOL     OW 7396   6.966   4.387   2.705
 2166SOL    HW1 7397   0.008   4.315   2.670
 2166SOL    HW2 7398   6.872   4.352   2.712
 2167SOL     OW 7399   2.334   1.858   3.093
 2167SOL    HW1 7400   2.247   1.808   3.088
 2167SOL    HW2 7401   2.316   1.952   3.121
 2168SOL     OW 7402   1.180   1.860   3.309
 2168SOL    HW1 7403   1.175   1.775   3.257
 2168SOL    HW2 7404   1.270   1.867   3.353
 2169SOL     OW 7405   0.670   0.264   1.588
 2169SOL    HW1 7406   0.638   0.343   1.536
 2169SOL    HW2 7407   0.689   0.189   1.525
 2170SOL     OW 7408   1.094   3.836   5.000
 2170SOL    HW1 7409   0.997   3.844   4.980
 2170SOL    HW2 7410   1.126   3.744   4.975
 2171SOL     OW 7411   6.903   5.428   1.779
 2171SOL    HW1 7412   6.903   5.376   1.865
 2171SOL    HW2 7413   6.811   5.459   1.758
 2172SOL     OW 7414   1.470   1.531   5.339
 2172SOL    HW1 7415   1.475   1.524   5.438
 2172SOL    HW2 7416   1.442   1.443   5.301
 2173SOL     OW 7417   6.265   0.962   5.166
 2173SOL    HW1 7418   6.315   1.047   5.148
 2173SOL    HW2 7419   6.319   0.904   5.227
 2174SOL     OW 7420   5.937   0.177   6.149
 2174SOL    HW1 7421   5.973   0.142   6.235
 2174SOL    HW2 7422   5.866   0.115   6.115
 2175SOL     OW 7423   2.592   3.909   5.329
 2175SOL    HW1 7424   2.580   3.905   5.429
 2175SOL    HW2 7425   2.506   3.937   5.286
 2176SOL     OW 7426   5.544   2.481   2.574
 2176SOL    HW1 7427   5.461   2.537   2.571
 2176SOL    HW2 7428   5.555   2.433   2.487
 2177SOL     OW 7429   0.427   0.367   4.449
 2177SOL    HW1 7430   0.373   0.359   4.533
 2177SOL    HW2 7431   0.404   0.453   4.403
 2178SOL     OW 7432   0.351   1.856   2.892
 2178SOL    HW1 7433   0.408   1.779   2.865
 2178SOL    HW2 7434   0.256   1.826   2.901
 2179SOL     OW 7435   1.371   4.421   6.333
 2179SOL    HW1 7436   1.304   4.492   6.310
 2179SOL    HW2 7437   1.370   4.350   6.263
 2180SOL     OW 7438   0.728   6.236   2.531
 2180SOL    HW1 7439   0.813   6.251   2.582
 2180SOL    HW2 7440   0.732   6.147   2.486
 2181SOL     OW 7441   3.078   4.952   4.566
 2181SOL    HW1 7442   3.048   4.939   4.661
 2181SOL    HW2 7443   2.998   4.953   4.506
 2182SOL     OW 7444   0.098   6.541   2.988
 2182SOL    HW1 7445   0.062   6.488   2.912
 2182SOL    HW2 7446   0.183   6.500   3.021
 2183SOL     OW 7447   3.385   2.781   6.238
 2183SOL    HW1 7448   3.372   2.826   6.326
 2183SOL    HW2 7449   3.412   2.686   6.253
 2184SOL     OW 7450   6.605   1.735   6.781
 2184SOL    HW1 7451   6.639   1.684   6.703
 2184SOL    HW2 7452   6.681   1.780   6.828
 2185SOL     OW 7453   1.180   0.044   6.835
 2185SOL    HW1 7454   1.139   0.130   6.806
 2185SOL    HW2 7455   1.198   0.047   6.934
 2186SOL     OW 7456   0.219   5.328   5.714
 2186SOL    HW1 7457   0.266   5.371   5.636
 2186SOL    HW2 7458   0.122   5.318   5.692
 2187SOL     OW 7459   0.793   5.940   2.850
 2187SOL    HW1 7460   0.860   5.948   2.776
 2187SOL    HW2 7461   0.768   5.844   2.862
 2188SOL     OW 7462   2.382   0.254   0.879
 2188SOL    HW1 7463   2.429   0.170   0.851
 2188SOL    HW2 7464   2.411   0.279   0.971
 2189SOL     OW 7465   2.116   1.470   1.592
 2189SOL    HW1 7466   2.073   1.381   1.578
 2189SOL    HW2 7467   2.050   1.543   1.574
 2190SOL     OW 7468   6.303   3.994   1.986
 2190SOL    HW1 7469   6.296   4.029   1.893
 2190SOL    HW2 7470   6.333   4.068   2.047
 2191SOL     OW 7471   2.708   0.140   0.181
 2191SOL    HW1 7472   2.795   0.186   0.168
 2191SOL    HW2 7473   2.650   0.154   0.100
 2192SOL     OW 7474   4.596   1.914   1.566
 2192SOL    HW1 7475   4.604   1.833   1.508
 2192SOL    HW2 7476   4.660   1.984   1.534
 2193SOL     OW 7477   1.940   6.821   5.929
 2193SOL    HW1 7478   1.947   6.875   5.846
 2193SOL    HW2 7479   1.977   6.872   6.006
 2194SOL     OW 7480   1.055   3.900   6.092
 2194SOL    HW1 7481   0.964   3.859   6.093
 2194SOL    HW2 7482   1.121   3.834   6.055
 2195SOL     OW 7483   6.958   3.585   5.225
 2195SOL    HW1 7484   6.879   3.635   5.261
 2195SOL    HW2 7485   6.965   3.599   5.126
 2196SOL     OW 7486   2.713   0.421   6.550
 2196SOL    HW1 7487   2.762   0.381   6.473
 2196SOL    HW2 7488   2.690   0.350   6.617
 2197SOL     OW 7489   3.831   5.606   5.964
 2197SOL    HW1 7490   3.793   5.515   5.946
 2197SOL    HW2 7491   3.821   5.663   5.882
 2198SOL     OW 7492   0.696   0.352   0.039
 2198SOL    HW1 7493   0.611   0.315   0.001
 2198SOL    HW2 7494   0.678   0.386   0.131
 2199SOL     OW 7495   3.877   6.469   5.091
 2199SOL    HW1 7496   3.881   6.372   5.069
 2199SOL    HW2 7497   3.786   6.504   5.068
 2200SOL     OW 7498   2.574   1.924   4.200
 2200SOL    HW1 7499   2.586   1.828   4.176
 2200SOL    HW2 7500   2.656   1.956   4.249
 2201SOL     OW 7501   6.620   3.996   4.883
 2201SOL    HW1 7502   6.612   4.001   4.783
 2201SOL    HW2 7503   6.698   4.050   4.913
 2202SOL     OW 7504   3.715   6.719   1.462
 2202SOL    HW1 7505   3.700   6.684   1.554
 2202SOL    HW2 7506   3.746   6.645   1.403
 2203SOL     OW 7507   2.275   4.022   0.766
 2203SOL    HW1 7508   2.352   3.988   0.820
 2203SOL    HW2 7509   2.308   4.054   0.678
 2204SOL     OW 7510   5.515   3.320   1.108
 2204SOL    HW1 7511   5.480   3.241   1.158
 2204SOL    HW2 7512   5.588   3.363   1.162
 2205SOL     OW 7513   0.459   5.455   0.446
 2205SOL    HW1 7514   0.366   5.421   0.464
 2205SOL    HW2 7515   0.524   5.379   0.451
 2206SOL     OW 7516   3.383   2.344   5.776
 2206SOL    HW1 7517   3.328   2.409   5.829
 2206SOL    HW2 7518   3.403   2.264   5.833
 2207SOL     OW 7519   4.388   5.873   1.144
 2207SOL    HW1 7520   4.462   5.938   1.127
 2207SOL    HW2 7521   4.341   5.899   1.229
 2208SOL     OW 7522   6.730   6.600   3.710
 2208SOL    HW1 7523   6.748   6.507   3.677
 2208SOL    HW2 7524   6.816   6.646   3.730
 2209SOL     OW 7525   2.783   5.753   3.984
 2209SOL    HW1 7526   2.728   5.744   3.901
 2209SOL    HW2 7527   2.821   5.663   4.008
 2210SOL     OW 7528   4.816   0.068   1.131
 2210SOL    HW1 7529   4.779   6.994   1.121
 2210SOL    HW2 7530   4.906   0.073   1.088
 2211SOL     OW 7531   0.436   2.027   0.840
 2211SOL    HW1 7532   0.353   1.979   0.868
 2211SOL    HW2 7533   0.431   2.122   0.874
 2212SOL     OW 7534   3.001   5.910   6.666
 2212SOL    HW1 7535   2.902   5.898   6.664
 2212SOL    HW2 7536   3.034   5.932   6.574
 2213SOL     OW 7537   3.486   1.525   5.061
 2213SOL    HW1 7538   3.550   1.458   5.096
 2213SOL    HW2 7539   3.404   1.526   5.118
 2214SOL     OW 7540   4.581   3.956   6.754
 2214SOL    HW1 7541   4.578   3.948   6.853
 2214SOL    HW2 7542   4.599   3.866   6.713
 2215SOL     OW 7543   3.934   0.004   0.135
 2215SOL    HW1 7544   3.935   6.988   0.228
 2215SOL    HW2 7545   3.917   0.102   0.135
 2216SOL     OW 7546   0.510   0.111   6.581
 2216SOL    HW1 7547   0.505   0.110   6.681
 2216SOL    HW2 7548   0.421   0.085   6.543
 2217SOL     OW 7549   4.262   0.811   3.970
 2217SOL    HW1 7550   4.193   0.836   4.038
 2217SOL    HW2 7551   4.332   0.754   4.013
 2218SOL     OW 7552   0.754   5.869   5.534
 2218SOL    HW1 7553   0.664   5.913   5.544
 2218SOL    HW2 7554   0.812   5.896   5.611
 2219SOL     OW 7555   5.967   1.027   0.917
 2219SOL    HW1 7556   6.023   1.052   0.838
 2219SOL    HW2 7557   5.924   1.110   0.955
 2220SOL     OW 7558   0.554   5.774   5.034
 2220SOL    HW1 7559   0.513   5.683   5.047
 2220SOL    HW2 7560   0.531   5.808   4.943
 2221SOL     OW 7561   6.546   1.513   3.585
 2221SOL    HW1 7562   6.452   1.521   3.619
 2221SOL    HW2 7563   6.545   1.482   3.490
 2222SOL     OW 7564   4.912   6.669   2.243
 2222SOL    HW1 7565   4.929   6.628   2.333
 2222SOL    HW2 7566   4.901   6.768   2.254
 2223SOL     OW 7567   0.405   6.245   5.611
 2223SOL    HW1 7568   0.418   6.321   5.675
 2223SOL    HW2 7569   0.401   6.281   5.518
 2224SOL     OW 7570   6.053   3.731   0.765
 2224SOL    HW1 7571   5.959   3.759   0.787
 2224SOL    HW2 7572   6.115   3.763   0.837
 2225SOL     OW 7573   6.661   6.406   2.970
 2225SOL    HW1 7574   6.720   6.329   2.944
 2225SOL    HW2 7575   6.674   6.481   2.906
 2226SOL     OW 7576   2.189   4.915   0.783
 2226SOL    HW1 7577   2.195   4.957   0.693
 2226SOL    HW2 7578   2.185   4.816   0.774
 2227SOL     OW 7579   3.696   2.071   1.741
 2227SOL    HW1 7580   3.761   2.021   1.799
 2227SOL    HW2 7581   3.679   2.162   1.780
 2228SOL     OW 7582   5.583   5.053   6.780
 2228SOL    HW1 7583   5.523   5.125   6.746
 2228SOL    HW2 7584   5.550   5.022   6.870
 2229SOL     OW 7585   3.405   3.238   3.654
 2229SOL    HW1 7586   3.502   3.245   3.631
 2229SOL    HW2 7587   3.366   3.329   3.667
 2230SOL     OW 7588   5.254   0.622   0.272
 2230SOL    HW1 7589   5.277   0.527   0.290
 2230SOL    HW2 7590   5.181   0.627   0.204
 2231SOL     OW 7591   1.437   6.893   6.859
 2231SOL    HW1 7592   1.496   6.941   6.794
 2231SOL    HW2 7593   1.344   6.926   6.851
 2232SOL     OW 7594   0.922   0.785   5.121
 2232SOL    HW1 7595   0.945   0.865   5.176
 2232SOL    HW2 7596   1.005   0.736   5.097
 2233SOL     OW 7597   2.715   4.318   1.064
 2233SOL    HW1 7598   2.748   4.248   1.128
 2233SOL    HW2 7599   2.775   4.398   1.070
 2234SOL     OW 7600   5.218   1.627   1.275
 2234SOL    HW1 7601   5.315   1.611   1.287
 2234SOL    HW2 7602   5.184   1.684   1.350
 2235SOL     OW 7603   1.174   1.596   3.200
 2235SOL    HW1 7604   1.269   1.591   3.167
 2235SOL    HW2 7605   1.113   1.555   3.132
 2236SOL     OW 7606   1.788   4.550   5.245
 2236SOL    HW1 7607   1.884   4.541   5.217
 2236SOL    HW2 7608   1.774   4.639   5.287
 2237SOL     OW 7609   6.760   5.373   5.856
 2237SOL    HW1 7610   6.728   5.346   5.947
 2237SOL    HW2 7611   6.706   5.451   5.823
 2238SOL     OW 7612   5.649   4.437   1.860
 2238SOL    HW1 7613   5.569   4.398   1.815
 2238SOL    HW2 7614   5.656   4.402   1.954
 2239SOL     OW 7615   4.388   6.532   3.455
 2239SOL    HW1 7616   4.419   6.539   3.549
 2239SOL    HW2 7617   4.347   6.619   3.426
 2240SOL     OW 7618   4.934   4.879   3.342
 2240SOL    HW1 7619   4.842   4.839   3.342
 2240SOL    HW2 7620   4.939   4.950   3.412
 2241SOL     OW 7621   0.673   1.148   1.602
 2241SOL    HW1 7622   0.591   1.172   1.550
 2241SOL    HW2 7623   0.746   1.214   1.582
 2242SOL     OW 7624   4.799   2.781   3.324
 2242SOL    HW1 7625   4.861   2.826   3.388
 2242SOL    HW2 7626   4.775   2.691   3.359
 2243SOL     OW 7627   1.573   6.215   0.511
 2243SOL    HW1 7628   1.619   6.303   0.511
 2243SOL    HW2 7629   1.636   6.144   0.478
 2244SOL     OW 7630   2.755   0.886   0.532
 2244SOL    HW1 7631   2.661   0.850   0.530
 2244SOL    HW2 7632   2.762   0.964   0.471
 2245SOL     OW 7633   0.342   0.224   0.112
 2245SOL    HW1 7634   0.385   0.310   0.141
 2245SOL    HW2 7635   0.364   0.152   0.178
 2246SOL     OW 7636   2.668   0.762   4.816
 2246SOL    HW1 7637   2.741   0.719   4.763
 2246SOL    HW2 7638   2.591   0.699   4.823
 2247SOL     OW 7639   3.026   3.869   2.664
 2247SOL    HW1 7640   2.969   3.879   2.746
 2247SOL    HW2 7641   3.012   3.777   2.625
 2248SOL     OW 7642   4.890   3.913   5.207
 2248SOL    HW1 7643   4.966   3.855   5.237
 2248SOL    HW2 7644   4.809   3.892   5.261
 2249SOL     OW 7645   1.967   5.838   3.282
 2249SOL    HW1 7646   1.881   5.787   3.271
 2249SOL    HW2 7647   1.946   5.935   3.292
 2250SOL     OW 7648   4.743   5.307   6.066
 2250SOL    HW1 7649   4.835   5.308   6.028
 2250SOL    HW2 7650   4.701   5.217   6.051
 2251SOL     OW 7651   5.498   6.375   5.874
 2251SOL    HW1 7652   5.470   6.393   5.780
 2251SOL    HW2 7653   5.479   6.280   5.898
 2252SOL     OW 7654   4.459   1.598   2.912
 2252SOL    HW1 7655   4.522   1.592   2.989
 2252SOL    HW2 7656   4.427   1.507   2.887
 2253SOL     OW 7657   0.432   3.463   1.202
 2253SOL    HW1 7658   0.409   3.422   1.290
 2253SOL    HW2 7659   0.516   3.422   1.167
 2254SOL     OW 7660   3.670   3.651   2.624
 2254SOL    HW1 7661   3.725   3.577   2.586
 2254SOL    HW2 7662   3.576   3.620   2.637
 2255SOL     OW 7663   3.328   3.435   6.369
 2255SOL    HW1 7664   3.420   3.450   6.333
 2255SOL    HW2 7665   3.276   3.379   6.304
 2256SOL     OW 7666   4.348   0.139   2.079
 2256SOL    HW1 7667   4.264   0.092   2.108
 2256SOL    HW2 7668   4.379   0.100   1.993
 2257SOL     OW 7669   0.541   1.062   5.015
 2257SOL    HW1 7670   0.570   1.119   4.938
 2257SOL    HW2 7671   0.622   1.030   5.064
 2258SOL     OW 7672   2.642   5.795   3.730
 2258SOL    HW1 7673   2.545   5.775   3.716
 2258SOL    HW2 7674   2.656   5.893   3.738
 2259SOL     OW 7675   5.951   2.090   4.320
 2259SOL    HW1 7676   5.908   2.115   4.234
 2259SOL    HW2 7677   5.996   2.170   4.360
 2260SOL     OW 7678   1.015   3.970   1.493
 2260SOL    HW1 7679   1.070   3.896   1.455
 2260SOL    HW2 7680   0.986   4.031   1.420
 2261SOL     OW 7681   5.458   4.233   6.977
 2261SOL    HW1 7682   5.489   4.251   0.052
 2261SOL    HW2 7683   5.522   4.169   6.933
 2262SOL     OW 7684   6.551   0.570   4.717
 2262SOL    HW1 7685   6.602   0.485   4.703
 2262SOL    HW2 7686   6.614   0.642   4.744
 2263SOL     OW 7687   2.434   4.541   6.681
 2263SOL    HW1 7688   2.353   4.598   6.667
 2263SOL    HW2 7689   2.429   4.460   6.622
 2264SOL     OW 7690   2.447   0.140   5.680
 2264SOL    HW1 7691   2.416   0.172   5.591
 2264SOL    HW2 7692   2.398   0.188   5.752
 2265SOL     OW 7693   0.500   6.419   4.681
 2265SOL    HW1 7694   0.500   6.477   4.599
 2265SOL    HW2 7695   0.514   6.476   4.762
 2266SOL     OW 7696   4.563   1.825   6.752
 2266SOL    HW1 7697   4.603   1.838   6.661
 2266SOL    HW2 7698   4.590   1.736   6.788
 2267SOL     OW 7699   4.877   2.561   4.277
 2267SOL    HW1 7700   4.919   2.543   4.188
 2267SOL    HW2 7701   4.876   2.476   4.330
 2268SOL     OW 7702   0.637   5.346   5.265
 2268SOL    HW1 7703   0.549   5.304   5.242
 2268SOL    HW2 7704   0.688   5.284   5.325
 2269SOL     OW 7705   1.994   2.305   4.950
 2269SOL    HW1 7706   1.951   2.353   4.874
 2269SOL    HW2 7707   1.938   2.316   5.032
 2270SOL     OW 7708   4.771   1.912   6.082
 2270SOL    HW1 7709   4.754   1.929   5.985
 2270SOL    HW2 7710   4.851   1.852   6.091
 2271SOL     OW 7711   5.211   5.377   6.036
 2271SOL    HW1 7712   5.209   5.277   6.029
 2271SOL    HW2 7713   5.122   5.413   6.007
 2272SOL     OW 7714   5.549   1.163   5.873
 2272SOL    HW1 7715   5.641   1.156   5.912
 2272SOL    HW2 7716   5.553   1.144   5.775
 2273SOL     OW 7717   1.246   2.496   2.666
 2273SOL    HW1 7718   1.344   2.479   2.661
 2273SOL    HW2 7719   1.200   2.414   2.703
 2274SOL     OW 7720   0.149   1.623   6.389
 2274SOL    HW1 7721   0.214   1.664   6.325
 2274SOL    HW2 7722   0.164   1.524   6.393
 2275SOL     OW 7723   5.639   4.970   2.555
 2275SOL    HW1 7724   5.573   4.943   2.625
 2275SOL    HW2 7725   5.712   5.025   2.597
 2276SOL     OW 7726   1.207   2.565   1.099
 2276SOL    HW1 7727   1.122   2.595   1.143
 2276SOL    HW2 7728   1.206   2.466   1.088
 2277SOL     OW 7729   3.658   3.312   3.563
 2277SOL    HW1 7730   3.693   3.402   3.537
 2277SOL    HW2 7731   3.644   3.257   3.480
 2278SOL     OW 7732   0.242   2.229   3.933
 2278SOL    HW1 7733   0.313   2.299   3.924
 2278SOL    HW2 7734   0.284   2.138   3.922
 2279SOL     OW 7735   0.559   5.997   5.187
 2279SOL    HW1 7736   0.524   5.957   5.272
 2279SOL    HW2 7737   0.564   5.927   5.116
 2280SOL     OW 7738   4.673   1.579   5.079
 2280SOL    HW1 7739   4.703   1.506   5.140
 2280SOL    HW2 7740   4.717   1.665   5.106
 2281SOL     OW 7741   5.337   0.242   2.601
 2281SOL    HW1 7742   5.404   0.194   2.544
 2281SOL    HW2 7743   5.263   0.276   2.544
 2282SOL     OW 7744   4.273   6.089   5.622
 2282SOL    HW1 7745   4.254   6.050   5.712
 2282SOL    HW2 7746   4.350   6.153   5.629
 2283SOL     OW 7747   0.360   0.368   3.807
 2283SOL    HW1 7748   0.298   0.363   3.728
 2283SOL    HW2 7749   0.452   0.389   3.776
 2284SOL     OW 7750   1.573   3.024   6.877
 2284SOL    HW1 7751   1.606   2.930   6.870
 2284SOL    HW2 7752   1.476   3.023   6.903
 2285SOL     OW 7753   1.265   4.294   6.579
 2285SOL    HW1 7754   1.285   4.354   6.501
 2285SOL    HW2 7755   1.330   4.314   6.653
 2286SOL     OW 7756   4.468   5.660   4.146
 2286SOL    HW1 7757   4.482   5.735   4.082
 2286SOL    HW2 7758   4.370   5.646   4.161
 2287SOL     OW 7759   2.049   1.112   3.241
 2287SOL    HW1 7760   1.993   1.031   3.259
 2287SOL    HW2 7761   2.054   1.128   3.142
 2288SOL     OW 7762   0.344   6.468   3.052
 2288SOL    HW1 7763   0.372   6.405   3.125
 2288SOL    HW2 7764   0.424   6.521   3.023
 2289SOL     OW 7765   0.960   5.260   1.795
 2289SOL    HW1 7766   0.898   5.265   1.873
 2289SOL    HW2 7767   1.006   5.348   1.784
 2290SOL     OW 7768   0.630   5.654   0.563
 2290SOL    HW1 7769   0.645   5.629   0.659
 2290SOL    HW2 7770   0.554   5.599   0.526
 2291SOL     OW 7771   2.537   2.030   6.376
 2291SOL    HW1 7772   2.439   2.010   6.368
 2291SOL    HW2 7773   2.574   1.981   6.456
 2292SOL     OW 7774   1.392   1.075   4.755
 2292SOL    HW1 7775   1.361   1.155   4.704
 2292SOL    HW2 7776   1.386   0.994   4.697
 2293SOL     OW 7777   5.725   4.994   2.309
 2293SOL    HW1 7778   5.677   4.923   2.258
 2293SOL    HW2 7779   5.697   4.991   2.405
 2294SOL     OW 7780   4.008   6.508   6.501
 2294SOL    HW1 7781   4.005   6.508   6.601
 2294SOL    HW2 7782   4.032   6.417   6.468
 2295SOL     OW 7783   0.619   2.602   1.077
 2295SOL    HW1 7784   0.559   2.579   1.153
 2295SOL    HW2 7785   0.565   2.608   0.992
 2296SOL     OW 7786   3.451   6.448   6.915
 2296SOL    HW1 7787   3.449   6.419   6.819
 2296SOL    HW2 7788   3.471   6.546   6.919
 2297SOL     OW 7789   4.397   5.363   5.863
 2297SOL    HW1 7790   4.450   5.366   5.779
 2297SOL    HW2 7791   4.444   5.414   5.935
 2298SOL     OW 7792   4.099   3.163   0.390
 2298SOL    HW1 7793   4.036   3.148   0.314
 2298SOL    HW2 7794   4.180   3.106   0.378
 2299SOL     OW 7795   4.762   5.603   0.006
 2299SOL    HW1 7796   4.802   5.537   0.069
 2299SOL    HW2 7797   4.835   5.648   6.973
 2300SOL     OW 7798   1.770   5.170   1.254
 2300SOL    HW1 7799   1.769   5.269   1.242
 2300SOL    HW2 7800   1.846   5.145   1.314
 2301SOL     OW 7801   4.167   3.419   2.633
 2301SOL    HW1 7802   4.253   3.468   2.644
 2301SOL    HW2 7803   4.159   3.350   2.705
 2302SOL     OW 7804   3.455   5.558   2.653
 2302SOL    HW1 7805   3.461   5.499   2.733
 2302SOL    HW2 7806   3.443   5.653   2.682
 2303SOL     OW 7807   1.231   2.706   4.901
 2303SOL    HW1 7808   1.248   2.796   4.860
 2303SOL    HW2 7809   1.262   2.634   4.840
 2304SOL     OW 7810   2.226   0.953   3.916
 2304SOL    HW1 7811   2.278   0.871   3.940
 2304SOL    HW2 7812   2.208   0.953   3.818
 2305SOL     OW 7813   3.408   5.301   1.826
 2305SOL    HW1 7814   3.478   5.357   1.782
 2305SOL    HW2 7815   3.420   5.206   1.801
 2306SOL     OW 7816   1.223   3.876   0.967
 2306SOL    HW1 7817   1.303   3.822   0.940
 2306SOL    HW2 7818   1.173   3.827   1.038
 2307SOL     OW 7819   0.586   2.522   3.012
 2307SOL    HW1 7820   0.640   2.444   2.982
 2307SOL    HW2 7821   0.489   2.496   3.017
 2308SOL     OW 7822   0.208   0.221   0.422
 2308SOL    HW1 7823   0.288   0.254   0.473
 2308SOL    HW2 7824   0.153   0.299   0.392
 2309SOL     OW 7825   3.305   5.499   6.162
 2309SOL    HW1 7826   3.317   5.470   6.067
 2309SOL    HW2 7827   3.395   5.511   6.205
 2310SOL     OW 7828   5.794   0.662   1.723
 2310SOL    HW1 7829   5.813   0.717   1.642
 2310SOL    HW2 7830   5.740   0.716   1.788
 2311SOL     OW 7831   3.117   0.106   2.716
 2311SOL    HW1 7832   3.136   0.028   2.656
 2311SOL    HW2 7833   3.065   0.174   2.666
 2312SOL     OW 7834   3.943   0.862   2.786
 2312SOL    HW1 7835   3.952   0.849   2.687
 2312SOL    HW2 7836   3.846   0.870   2.810
 2313SOL     OW 7837   5.069   3.999   2.192
 2313SOL    HW1 7838   5.109   4.032   2.107
 2313SOL    HW2 7839   5.090   4.063   2.266
 2314SOL     OW 7840   6.478   0.344   3.191
 2314SOL    HW1 7841   6.469   0.440   3.166
 2314SOL    HW2 7842   6.561   0.331   3.245
 2315SOL     OW 7843   4.330   4.668   5.730
 2315SOL    HW1 7844   4.361   4.757   5.697
 2315SOL    HW2 7845   4.239   4.678   5.770
 2316SOL     OW 7846   2.906   1.281   5.960
 2316SOL    HW1 7847   2.899   1.240   5.869
 2316SOL    HW2 7848   2.824   1.336   5.977
 2317SOL     OW 7849   6.117   5.619   3.797
 2317SOL    HW1 7850   6.182   5.673   3.745
 2317SOL    HW2 7851   6.033   5.671   3.811
 2318SOL     OW 7852   1.702   4.575   4.781
 2318SOL    HW1 7853   1.752   4.656   4.751
 2318SOL    HW2 7854   1.718   4.500   4.717
 2319SOL     OW 7855   2.585   4.983   4.181
 2319SOL    HW1 7856   2.593   5.083   4.175
 2319SOL    HW2 7857   2.488   4.958   4.188
 2320SOL     OW 7858   1.343   3.375   4.986
 2320SOL    HW1 7859   1.284   3.295   4.977
 2320SOL    HW2 7860   1.429   3.359   4.938
 2321SOL     OW 7861   2.979   5.175   6.357
 2321SOL    HW1 7862   2.923   5.239   6.304
 2321SOL    HW2 7863   3.061   5.222   6.389
 2322SOL     OW 7864   1.433   3.587   2.371
 2322SOL    HW1 7865   1.407   3.612   2.464
 2322SOL    HW2 7866   1.451   3.489   2.366
 2323SOL     OW 7867   2.102   4.947   1.620
 2323SOL    HW1 7868   2.026   4.962   1.683
 2323SOL    HW2 7869   2.181   4.913   1.671
 2324SOL     OW 7870   0.369   5.548   1.564
 2324SOL    HW1 7871   0.467   5.533   1.555
 2324SOL    HW2 7872   0.322   5.460   1.571
 2325SOL     OW 7873   6.552   5.421   2.021
 2325SOL    HW1 7874   6.535   5.519   2.029
 2325SOL    HW2 7875   6.563   5.397   1.925
 2326SOL     OW 7876   1.075   0.631   6.596
 2326SOL    HW1 7877   1.115   0.540   6.603
 2326SOL    HW2 7878   1.148   0.699   6.582
 2327SOL     OW 7879   6.485   0.432   2.673
 2327SOL    HW1 7880   6.499   0.345   2.719
 2327SOL    HW2 7881   6.391   0.463   2.688
 2328SOL     OW 7882   1.643   2.709   2.043
 2328SOL    HW1 7883   1.728   2.748   2.078
 2328SOL    HW2 7884   1.663   2.622   1.998
 2329SOL     OW 7885   0.962   5.436   3.912
 2329SOL    HW1 7886   0.892   5.452   3.842
 2329SOL    HW2 7887   1.048   5.477   3.883
 2330SOL     OW 7888   6.661   3.162   0.081
 2330SOL    HW1 7889   6.605   3.213   0.016
 2330SOL    HW2 7890   6.609   3.147   0.165
 2331SOL     OW 7891   3.860   5.942   6.945
 2331SOL    HW1 7892   3.959   5.953   6.952
 2331SOL    HW2 7893   3.836   5.846   6.959
 2332SOL     OW 7894   5.213   6.675   6.427
 2332SOL    HW1 7895   5.167   6.718   6.505
 2332SOL    HW2 7896   5.184   6.579   6.420
 2333SOL     OW 7897   0.166   5.220   2.862
 2333SOL    HW1 7898   0.173   5.297   2.798
 2333SOL    HW2 7899   0.256   5.198   2.898
 2334SOL     OW 7900   2.643   0.927   5.752
 2334SOL    HW1 7901   2.583   0.866   5.804
 2334SOL    HW2 7902   2.718   0.959   5.811
 2335SOL     OW 7903   6.166   1.914   3.500
 2335SOL    HW1 7904   6.198   1.911   3.595
 2335SOL    HW2 7905   6.166   2.009   3.468
 2336SOL     OW 7906   2.285   1.727   2.716
 2336SOL    HW1 7907   2.259   1.697   2.624
 2336SOL    HW2 7908   2.249   1.664   2.784
 2337SOL     OW 7909   3.915   1.891   1.415
 2337SOL    HW1 7910   3.859   1.849   1.487
 2337SOL    HW2 7911   3.922   1.990   1.432
 2338SOL     OW 7912   0.592   3.828   4.149
 2338SOL    HW1 7913   0.570   3.895   4.219
 2338SOL    HW2 7914   0.523   3.831   4.077
 2339SOL     OW 7915   3.181   2.910   2.364
 2339SOL    HW1 7916   3.128   2.825   2.354
 2339SOL    HW2 7917   3.163   2.970   2.287
 2340SOL     OW 7918   1.140   4.879   6.297
 2340SOL    HW1 7919   1.100   4.934   6.370
 2340SOL    HW2 7920   1.112   4.784   6.307
 2341SOL     OW 7921   2.414   4.492   3.038
 2341SOL    HW1 7922   2.404   4.499   2.939
 2341SOL    HW2 7923   2.365   4.411   3.071
 2342SOL     OW 7924   3.202   6.467   4.251
 2342SOL    HW1 7925   3.110   6.479   4.213
 2342SOL    HW2 7926   3.246   6.389   4.207
 2343SOL     OW 7927   2.010   6.376   2.701
 2343SOL    HW1 7928   2.002   6.396   2.603
 2343SOL    HW2 7929   2.100   6.335   2.720
 2344SOL     OW 7930   6.415   4.636   0.900
 2344SOL    HW1 7931   6.325   4.670   0.928
 2344SOL    HW2 7932   6.449   4.690   0.823
 2345SOL     OW 7933   2.904   5.785   4.509
 2345SOL    HW1 7934   2.878   5.838   4.429
 2345SOL    HW2 7935   2.902   5.843   4.590
 2346SOL     OW 7936   4.069   3.748   6.006
 2346SOL    HW1 7937   4.031   3.739   6.098
 2346SOL    HW2 7938   4.159   3.705   6.003
 2347SOL     OW 7939   1.295   2.073   1.670
 2347SOL    HW1 7940   1.225   2.025   1.723
 2347SOL    HW2 7941   1.384   2.065   1.716
 2348SOL     OW 7942   1.355   5.431   3.174
 2348SOL    HW1 7943   1.308   5.478   3.248
 2348SOL    HW2 7944   1.382   5.339   3.204
 2349SOL     OW 7945   0.742   4.246   6.471
 2349SOL    HW1 7946   0.693   4.321   6.515
 2349SOL    HW2 7947   0.799   4.199   6.538
 2350SOL     OW 7948   6.245   4.292   5.829
 2350SOL    HW1 7949   6.218   4.378   5.786
 2350SOL    HW2 7950   6.191   4.217   5.791
 2351SOL     OW 7951   2.612   4.702   3.036
 2351SOL    HW1 7952   2.615   4.752   2.949
 2351SOL    HW2 7953   2.550   4.624   3.028
 2352SOL     OW 7954   0.168   3.118   3.352
 2352SOL    HW1 7955   0.228   3.038   3.347
 2352SOL    HW2 7956   0.190   3.181   3.278
 2353SOL     OW 7957   4.160   5.412   5.738
 2353SOL    HW1 7958   4.183   5.396   5.642
 2353SOL    HW2 7959   4.239   5.391   5.795
 2354SOL     OW 7960   2.816   1.950   4.342
 2354SOL    HW1 7961   2.773   1.925   4.429
 2354SOL    HW2 7962   2.874   2.031   4.356
 2355SOL     OW 7963   2.338   5.998   4.563
 2355SOL    HW1 7964   2.413   5.943   4.527
 2355SOL    HW2 7965   2.362   6.095   4.556
 2356SOL     OW 7966   0.661   2.794   6.695
 2356SOL    HW1 7967   0.725   2.822   6.623
 2356SOL    HW2 7968   0.601   2.870   6.718
 2357SOL     OW 7969   3.423   1.026   2.505
 2357SOL    HW1 7970   3.517   1.060   2.513
 2357SOL    HW2 7971   3.392   0.993   2.594
 2358SOL     OW 7972   3.241   4.583   6.056
 2358SOL    HW1 7973   3.148   4.610   6.032
 2358SOL    HW2 7974   3.297   4.665   6.069
 2359SOL     OW 7975   1.173   0.048   5.343
 2359SOL    HW1 7976   1.112   0.053   5.264
 2359SOL    HW2 7977   1.121   0.018   5.423
 2360SOL     OW 7978   6.238   3.533   0.823
 2360SOL    HW1 7979   6.309   3.592   0.863
 2360SOL    HW2 7980   6.149   3.578   0.832
 2361SOL     OW 7981   3.165   1.471   5.912
 2361SOL    HW1 7982   3.096   1.515   5.854
 2361SOL    HW2 7983   3.119   1.416   5.982
 2362SOL     OW 7984   3.438   4.892   3.602
 2362SOL    HW1 7985   3.525   4.870   3.647
 2362SOL    HW2 7986   3.442   4.861   3.507
 2363SOL     OW 7987   3.841   1.562   3.518
 2363SOL    HW1 7988   3.765   1.601   3.570
 2363SOL    HW2 7989   3.900   1.635   3.484
 2364SOL     OW 7990   1.109   2.468   1.606
 2364SOL    HW1 7991   1.195   2.515   1.627
 2364SOL    HW2 7992   1.032   2.523   1.641
 2365SOL     OW 7993   6.038   2.248   0.268
 2365SOL    HW1 7994   6.105   2.220   0.200
 2365SOL    HW2 7995   6.080   2.310   0.334
 2366SOL     OW 7996   3.765   5.344   0.656
 2366SOL    HW1 7997   3.759   5.245   0.659
 2366SOL    HW2 7998   3.743   5.382   0.747
 2367SOL     OW 7999   2.333   3.260   6.981
 2367SOL    HW1 8000   2.388   3.202   6.921
 2367SOL    HW2 8001   2.239   3.262   6.948
 2368SOL     OW 8002   6.088   6.779   3.855
 2368SOL    HW1 8003   6.047   6.844   3.791
 2368SOL    HW2 8004   6.018   6.747   3.919
 2369SOL     OW 8005   1.795   0.047   3.957
 2369SOL    HW1 8006   1.855   0.078   4.030
 2369SOL    HW2 8007   1.717   0.109   3.949
 2370SOL     OW 8008   5.730   2.726   6.599
 2370SOL    HW1 8009   5.670   2.669   6.655
 2370SOL    HW2 8010   5.686   2.814   6.582
 2371SOL     OW 8011   2.216   0.147   1.589
 2371SOL    HW1 8012   2.243   0.060   1.548
 2371SOL    HW2 8013   2.165   0.201   1.522
 2372SOL     OW 8014   0.153   2.673   2.168
 2372SOL    HW1 8015   0.112   2.614   2.098
 2372SOL    HW2 8016   0.082   2.731   2.208
 2373SOL     OW 8017   2.097   3.393   5.878
 2373SOL    HW1 8018   2.079   3.486   5.844
 2373SOL    HW2 8019   2.123   3.334   5.802
 2374SOL     OW 8020   6.465   1.886   4.683
 2374SOL    HW1 8021   6.372   1.853   4.666
 2374SOL    HW2 8022   6.483   1.965   4.624
 2375SOL     OW 8023   3.611   5.732   5.351
 2375SOL    HW1 8024   3.536   5.793   5.377
 2375SOL    HW2 8025   3.579   5.637   5.355
 2376SOL     OW 8026   6.052   3.247   3.591
 2376SOL    HW1 8027   6.121   3.297   3.644
 2376SOL    HW2 8028   5.966   3.298   3.592
 2377SOL     OW 8029   2.879   3.523   3.876
 2377SOL    HW1 8030   2.854   3.426   3.886
 2377SOL    HW2 8031   2.898   3.562   3.966
 2378SOL     OW 8032   5.043   2.353   0.250
 2378SOL    HW1 8033   5.005   2.443   0.229
 2378SOL    HW2 8034   4.969   2.292   0.279
 2379SOL     OW 8035   6.198   0.812   0.901
 2379SOL    HW1 8036   6.106   0.844   0.924
 2379SOL    HW2 8037   6.266   0.867   0.949
 2380SOL     OW 8038   6.462   2.703   0.985
 2380SOL    HW1 8039   6.411   2.782   1.018
 2380SOL    HW2 8040   6.552   2.732   0.952
 2381SOL     OW 8041   1.692   5.611   2.902
 2381SOL    HW1 8042   1.621   5.590   2.970
 2381SOL    HW2 8043   1.709   5.709   2.900
 2382SOL     OW 8044   2.179   3.180   4.660
 2382SOL    HW1 8045   2.203   3.130   4.577
 2382SOL    HW2 8046   2.177   3.117   4.737
 2383SOL     OW 8047   6.574   6.256   1.431
 2383SOL    HW1 8048   6.489   6.215   1.398
 2383SOL    HW2 8049   6.630   6.282   1.352
 2384SOL     OW 8050   4.989   2.180   2.072
 2384SOL    HW1 8051   5.001   2.124   2.154
 2384SOL    HW2 8052   4.900   2.159   2.031
 2385SOL     OW 8053   0.145   0.877   0.014
 2385SOL    HW1 8054   0.047   0.862   0.006
 2385SOL    HW2 8055   0.177   0.843   0.102
 2386SOL     OW 8056   5.064   5.738   5.224
 2386SOL    HW1 8057   4.976   5.778   5.251
 2386SOL    HW2 8058   5.134   5.763   5.291
 2387SOL     OW 8059   2.002   0.934   4.081
 2387SOL    HW1 8060   2.093   0.927   4.040
 2387SOL    HW2 8061   1.937   0.965   4.012
 2388SOL     OW 8062   6.543   2.865   3.533
 2388SOL    HW1 8063   6.543   2.765   3.539
 2388SOL    HW2 8064   6.493   2.894   3.452
 2389SOL     OW 8065   4.466   4.461   3.221
 2389SOL    HW1 8066   4.394   4.519   3.182
 2389SOL    HW2 8067   4.426   4.373   3.246
 2390SOL     OW 8068   4.023   3.715   2.956
 2390SOL    HW1 8069   3.925   3.728   2.942
 2390SOL    HW2 8070   4.051   3.764   3.039
 2391SOL     OW 8071   4.585   4.804   6.188
 2391SOL    HW1 8072   4.617   4.736   6.253
 2391SOL    HW2 8073   4.625   4.785   6.098
 2392SOL     OW 8074   2.760   0.211   6.757
 2392SOL    HW1 8075   2.841   0.241   6.809
 2392SOL    HW2 8076   2.684   0.197   6.820
 2393SOL     OW 8077   4.336   4.544   6.101
 2393SOL    HW1 8078   4.321   4.643   6.094
 2393SOL    HW2 8079   4.286   4.498   6.028
 2394SOL     OW 8080   0.260   4.155   4.691
 2394SOL    HW1 8081   0.337   4.128   4.634
 2394SOL    HW2 8082   0.238   4.082   4.756
 2395SOL     OW 8083   4.150   6.600   5.987
 2395SOL    HW1 8084   4.204   6.653   6.053
 2395SOL    HW2 8085   4.194   6.605   5.897
 2396SOL     OW 8086   3.950   4.990   1.001
 2396SOL    HW1 8087   4.022   5.059   0.992
 2396SOL    HW2 8088   3.979   4.905   0.958
 2397SOL     OW 8089   0.460   4.235   4.471
 2397SOL    HW1 8090   0.550   4.253   4.510
 2397SOL    HW2 8091   0.465   4.159   4.408
 2398SOL     OW 8092   5.299   4.517   6.154
 2398SOL    HW1 8093   5.240   4.562   6.222
 2398SOL    HW2 8094   5.372   4.467   6.201
 2399SOL     OW 8095   4.378   1.647   1.779
 2399SOL    HW1 8096   4.457   1.589   1.796
 2399SOL    HW2 8097   4.370   1.715   1.852
 2400SOL     OW 8098   2.197   4.607   0.847
 2400SOL    HW1 8099   2.105   4.591   0.883
 2400SOL    HW2 8100   2.236   4.521   0.816
 2401SOL     OW 8101   6.723   6.034   6.124
 2401SOL    HW1 8102   6.750   5.940   6.147
 2401SOL    HW2 8103   6.646   6.062   6.181
 2402SOL     OW 8104   0.902   6.804   4.322
 2402SOL    HW1 8105   0.860   6.742   4.388
 2402SOL    HW2 8106   0.986   6.762   4.286
 2403SOL     OW 8107   0.490   2.547   5.029
 2403SOL    HW1 8108   0.437   2.614   4.978
 2403SOL    HW2 8109   0.549   2.496   4.967
 2404SOL     OW 8110   1.832   0.594   0.839
 2404SOL    HW1 8111   1.866   0.550   0.922
 2404SOL    HW2 8112   1.837   0.530   0.763
 2405SOL     OW 8113   3.248   4.005   2.558
 2405SOL    HW1 8114   3.315   3.939   2.594
 2405SOL    HW2 8115   3.156   3.977   2.588
 2406SOL     OW 8116   3.993   1.996   0.696
 2406SOL    HW1 8117   4.069   1.953   0.746
 2406SOL    HW2 8118   4.024   2.082   0.656
 2407SOL     OW 8119   5.273   0.979   3.638
 2407SOL    HW1 8120   5.211   0.979   3.559
 2407SOL    HW2 8121   5.367   0.974   3.606
 2408SOL     OW 8122   4.612   4.540   1.904
 2408SOL    HW1 8123   4.702   4.583   1.902
 2408SOL    HW2 8124   4.617   4.455   1.957
 2409SOL     OW 8125   2.138   3.532   0.661
 2409SOL    HW1 8126   2.139   3.513   0.759
 2409SOL    HW2 8127   2.066   3.478   0.617
 2410SOL     OW 8128   3.170   3.444   3.484
 2410SOL    HW1 8129   3.211   3.357   3.456
 2410SOL    HW2 8130   3.204   3.517   3.426
 2411SOL     OW 8131   5.355   6.849   4.716
 2411SOL    HW1 8132   5.306   6.914   4.775
 2411SOL    HW2 8133   5.289   6.800   4.659
 2412SOL     OW 8134   5.343   3.569   1.256
 2412SOL    HW1 8135   5.429   3.518   1.256
 2412SOL    HW2 8136   5.362   3.666   1.243
 2413SOL     OW 8137   5.258   0.795   1.928
 2413SOL    HW1 8138   5.179   0.760   1.877
 2413SOL    HW2 8139   5.228   0.827   2.018
 2414SOL     OW 8140   5.020   3.103   3.847
 2414SOL    HW1 8141   5.087   3.031   3.829
 2414SOL    HW2 8142   4.957   3.110   3.770
 2415SOL     OW 8143   4.940   0.901   2.970
 2415SOL    HW1 8144   4.947   0.885   2.872
 2415SOL    HW2 8145   5.032   0.900   3.011
 2416SOL     OW 8146   5.371   1.489   5.843
 2416SOL    HW1 8147   5.384   1.451   5.934
 2416SOL    HW2 8148   5.373   1.589   5.849
 2417SOL     OW 8149   2.980   3.253   4.760
 2417SOL    HW1 8150   3.000   3.269   4.856
 2417SOL    HW2 8151   2.974   3.155   4.743
 2418SOL     OW 8152   3.615   3.164   3.324
 2418SOL    HW1 8153   3.681   3.091   3.343
 2418SOL    HW2 8154   3.612   3.182   3.226
 2419SOL     OW 8155   0.626   6.824   2.840
 2419SOL    HW1 8156   0.539   6.853   2.801
 2419SOL    HW2 8157   0.683   6.904   2.859
 2420SOL     OW 8158   2.423   0.115   1.897
 2420SOL    HW1 8159   2.493   0.155   1.955
 2420SOL    HW2 8160   2.383   0.185   1.839
 2421SOL     OW 8161   2.184   2.123   4.836
 2421SOL    HW1 8162   2.149   2.047   4.781
 2421SOL    HW2 8163   2.112   2.154   4.898
 2422SOL     OW 8164   4.967   1.614   1.127
 2422SOL    HW1 8165   5.045   1.617   1.189
 2422SOL    HW2 8166   4.997   1.582   1.037
 2423SOL     OW 8167   2.600   5.721   2.330
 2423SOL    HW1 8168   2.541   5.645   2.304
 2423SOL    HW2 8169   2.666   5.738   2.257
 2424SOL     OW 8170   6.274   1.191   0.541
 2424SOL    HW1 8171   6.362   1.177   0.496
 2424SOL    HW2 8172   6.288   1.203   0.639
 2425SOL     OW 8173   6.801   6.959   3.949
 2425SOL    HW1 8174   6.702   6.952   3.961
 2425SOL    HW2 8175   6.832   0.032   3.976
 2426SOL     OW 8176   2.452   4.726   4.295
 2426SOL    HW1 8177   2.447   4.770   4.385
 2426SOL    HW2 8178   2.391   4.772   4.231
 2427SOL     OW 8179   6.641   6.850   5.604
 2427SOL    HW1 8180   6.645   6.771   5.666
 2427SOL    HW2 8181   6.561   6.841   5.545
 2428SOL     OW 8182   0.597   0.783   1.048
 2428SOL    HW1 8183   0.650   0.792   1.133
 2428SOL    HW2 8184   0.589   0.873   1.005
 2429SOL     OW 8185   4.864   6.093   2.297
 2429SOL    HW1 8186   4.846   6.052   2.208
 2429SOL    HW2 8187   4.847   6.191   2.292
 2430SOL     OW 8188   6.115   0.584   3.032
 2430SOL    HW1 8189   6.088   0.663   2.976
 2430SOL    HW2 8190   6.123   0.612   3.128
 2431SOL     OW 8191   4.056   0.805   1.937
 2431SOL    HW1 8192   4.034   0.882   1.878
 2431SOL    HW2 8193   3.974   0.748   1.950
 2432SOL     OW 8194   3.492   6.387   1.940
 2432SOL    HW1 8195   3.417   6.423   1.885
 2432SOL    HW2 8196   3.572   6.374   1.882
 2433SOL     OW 8197   3.717   0.468   0.067
 2433SOL    HW1 8198   3.807   0.512   0.064
 2433SOL    HW2 8199   3.661   0.511   0.138
 2434SOL     OW 8200   3.943   2.337   5.722
 2434SOL    HW1 8201   3.936   2.428   5.764
 2434SOL    HW2 8202   3.851   2.303   5.702
 2435SOL     OW 8203   5.899   5.695   4.934
 2435SOL    HW1 8204   5.858   5.734   5.016
 2435SOL    HW2 8205   5.983   5.646   4.959
 2436SOL     OW 8206   2.913   5.320   0.160
 2436SOL    HW1 8207   2.820   5.351   0.178
 2436SOL    HW2 8208   2.978   5.382   0.204
 2437SOL     OW 8209   6.899   0.199   5.914
 2437SOL    HW1 8210   6.930   0.118   5.964
 2437SOL    HW2 8211   6.857   0.171   5.828
 2438SOL     OW 8212   2.633   2.690   0.996
 2438SOL    HW1 8213   2.722   2.662   1.033
 2438SOL    HW2 8214   2.573   2.610   0.991
 2439SOL     OW 8215   6.060   4.484   5.251
 2439SOL    HW1 8216   6.032   4.390   5.236
 2439SOL    HW2 8217   6.032   4.540   5.173
 2440SOL     OW 8218   5.893   5.133   6.531
 2440SOL    HW1 8219   5.835   5.193   6.586
 2440SOL    HW2 8220   5.852   5.120   6.441
 2441SOL     OW 8221   5.923   2.602   1.189
 2441SOL    HW1 8222   6.005   2.598   1.133
 2441SOL    HW2 8223   5.849   2.645   1.137
 2442SOL     OW 8224   6.942   3.784   4.776
 2442SOL    HW1 8225   6.869   3.776   4.709
 2442SOL    HW2 8226   6.915   3.847   4.848
 2443SOL     OW 8227   2.934   4.904   5.844
 2443SOL    HW1 8228   2.954   4.988   5.794
 2443SOL    HW2 8229   2.992   4.830   5.810
 2444SOL     OW 8230   2.924   3.745   5.603
 2444SOL    HW1 8231   2.866   3.781   5.677
 2444SOL    HW2 8232   2.900   3.790   5.517
 2445SOL     OW 8233   0.918   0.657   0.936
 2445SOL    HW1 8234   1.016   0.664   0.951
 2445SOL    HW2 8235   0.874   0.745   0.954
 2446SOL     OW 8236   6.232   3.925   6.132
 2446SOL    HW1 8237   6.256   3.913   6.036
 2446SOL    HW2 8238   6.315   3.927   6.187
 2447SOL     OW 8239   0.687   1.926   6.921
 2447SOL    HW1 8240   0.781   1.923   6.887
 2447SOL    HW2 8241   0.645   2.013   6.895
 2448SOL     OW 8242   0.762   0.107   4.446
 2448SOL    HW1 8243   0.691   0.083   4.379
 2448SOL    HW2 8244   0.849   0.123   4.399
 2449SOL     OW 8245   0.293   2.873   5.116
 2449SOL    HW1 8246   0.203   2.865   5.074
 2449SOL    HW2 8247   0.296   2.817   5.198
 2450SOL     OW 8248   2.154   3.369   2.809
 2450SOL    HW1 8249   2.195   3.281   2.833
 2450SOL    HW2 8250   2.179   3.438   2.876
 2451SOL     OW 8251   2.786   6.362   3.861
 2451SOL    HW1 8252   2.701   6.391   3.905
 2451SOL    HW2 8253   2.811   6.426   3.789
 2452SOL     OW 8254   1.225   2.325   4.288
 2452SOL    HW1 8255   1.252   2.268   4.365
 2452SOL    HW2 8256   1.269   2.415   4.297
 2453SOL     OW 8257   0.030   3.477   1.179
 2453SOL    HW1 8258   0.059   3.395   1.129
 2453SOL    HW2 8259   0.005   3.452   1.272
 2454SOL     OW 8260   2.182   0.698   2.250
 2454SOL    HW1 8261   2.178   0.660   2.342
 2454SOL    HW2 8262   2.093   0.737   2.225
 2455SOL     OW 8263   5.575   4.604   0.399
 2455SOL    HW1 8264   5.494   4.663   0.408
 2455SOL    HW2 8265   5.569   4.529   0.465
 2456SOL     OW 8266   3.319   6.176   1.294
 2456SOL    HW1 8267   3.398   6.133   1.251
 2456SOL    HW2 8268   3.236   6.127   1.268
 2457SOL     OW 8269   5.644   6.311   1.364
 2457SOL    HW1 8270   5.612   6.405   1.373
 2457SOL    HW2 8271   5.703   6.303   1.284
 2458SOL     OW 8272   0.422   5.820   3.761
 2458SOL    HW1 8273   0.513   5.847   3.792
 2458SOL    HW2 8274   0.377   5.768   3.834
 2459SOL     OW 8275   1.448   0.586   0.617
 2459SOL    HW1 8276   1.349   0.593   0.632
 2459SOL    HW2 8277   1.494   0.579   0.706
 2460SOL     OW 8278   3.420   5.114   1.319
 2460SOL    HW1 8279   3.421   5.183   1.247
 2460SOL    HW2 8280   3.458   5.152   1.403
 2461SOL     OW 8281   4.645   0.921   2.878
 2461SOL    HW1 8282   4.705   0.934   2.958
 2461SOL    HW2 8283   4.699   0.932   2.795
 2462SOL     OW 8284   2.514   4.562   6.359
 2462SOL    HW1 8285   2.595   4.572   6.417
 2462SOL    HW2 8286   2.461   4.483   6.389
 2463SOL     OW 8287   0.277   1.519   4.411
 2463SOL    HW1 8288   0.266   1.530   4.510
 2463SOL    HW2 8289   0.370   1.545   4.386
 2464SOL     OW 8290   1.123   3.445   1.326
 2464SOL    HW1 8291   1.045   3.397   1.284
 2464SOL    HW2 8292   1.131   3.417   1.422
 2465SOL     OW 8293   6.234   5.075   3.278
 2465SOL    HW1 8294   6.181   5.090   3.361
 2465SOL    HW2 8295   6.331   5.069   3.300
 2466SOL     OW 8296   3.345   1.697   2.122
 2466SOL    HW1 8297   3.254   1.656   2.108
 2466SOL    HW2 8298   3.368   1.753   2.043
 2467SOL     OW 8299   6.670   1.494   5.646
 2467SOL    HW1 8300   6.579   1.475   5.683
 2467SOL    HW2 8301   6.669   1.581   5.597
 2468SOL     OW 8302   0.151   3.978   0.237
 2468SOL    HW1 8303   0.115   3.907   0.176
 2468SOL    HW2 8304   0.088   3.989   0.314
 2469SOL     OW 8305   3.059   3.501   5.593
 2469SOL    HW1 8306   3.017   3.589   5.568
 2469SOL    HW2 8307   3.158   3.508   5.584
 2470SOL     OW 8308   5.656   2.859   0.315
 2470SOL    HW1 8309   5.715   2.877   0.237
 2470SOL    HW2 8310   5.574   2.916   0.310
 2471SOL     OW 8311   0.438   0.252   3.295
 2471SOL    HW1 8312   0.350   0.225   3.257
 2471SOL    HW2 8313   0.512   0.207   3.244
 2472SOL     OW 8314   5.288   1.323   3.548
 2472SOL    HW1 8315   5.362   1.378   3.508
 2472SOL    HW2 8316   5.322   1.278   3.631
 2473SOL     OW 8317   0.394   6.988   5.565
 2473SOL    HW1 8318   0.449   6.983   5.482
 2473SOL    HW2 8319   0.333   6.909   5.570
 2474SOL     OW 8320   5.833   6.012   4.633
 2474SOL    HW1 8321   5.902   6.048   4.569
 2474SOL    HW2 8322   5.817   5.916   4.614
 2475SOL     OW 8323   4.613   2.342   6.313
 2475SOL    HW1 8324   4.647   2.275   6.247
 2475SOL    HW2 8325   4.613   2.301   6.405
 2476SOL     OW 8326   0.747   1.677   3.756
 2476SOL    HW1 8327   0.794   1.735   3.822
 2476SOL    HW2 8328   0.793   1.684   3.667
 2477SOL     OW 8329   4.565   5.075   2.580
 2477SOL    HW1 8330   4.496   5.147   2.579
 2477SOL    HW2 8331   4.565   5.026   2.493
 2478SOL     OW 8332   6.448   6.689   3.063
 2478SOL    HW1 8333   6.405   6.618   3.008
 2478SOL    HW2 8334   6.517   6.648   3.122
 2479SOL     OW 8335   0.684   3.025   6.989
 2479SOL    HW1 8336   0.632   3.011   6.904
 2479SOL    HW2 8337   0.656   3.111   0.013
 2480SOL     OW 8338   0.911   4.669   2.099
 2480SOL    HW1 8339   0.938   4.739   2.165
 2480SOL    HW2 8340   0.926   4.579   2.139
 2481SOL     OW 8341   3.859   5.376   2.678
 2481SOL    HW1 8342   3.798   5.352   2.603
 2481SOL    HW2 8343   3.859   5.302   2.745
 2482SOL     OW 8344   4.548   2.116   4.111
 2482SOL    HW1 8345   4.491   2.137   4.190
 2482SOL    HW2 8346   4.596   2.198   4.080
 2483SOL     OW 8347   0.668   2.437   6.946
 2483SOL    HW1 8348   0.670   2.413   0.025
 2483SOL    HW2 8349   0.602   2.511   6.932
 2484SOL     OW 8350   3.649   2.919   6.409
 2484SOL    HW1 8351   3.666   3.003   6.357
 2484SOL    HW2 8352   3.653   2.841   6.346
 2485SOL     OW 8353   1.178   5.846   1.086
 2485SOL    HW1 8354   1.211   5.912   1.018
 2485SOL    HW2 8355   1.242   5.843   1.163
 2486SOL     OW 8356   0.610   5.388   3.238
 2486SOL    HW1 8357   0.619   5.356   3.144
 2486SOL    HW2 8358   0.533   5.341   3.282
 2487SOL     OW 8359   3.268   1.073   1.171
 2487SOL    HW1 8360   3.351   1.077   1.116
 2487SOL    HW2 8361   3.205   1.007   1.130
 2488SOL     OW 8362   3.297   6.496   6.340
 2488SOL    HW1 8363   3.302   6.482   6.241
 2488SOL    HW2 8364   3.386   6.477   6.381
 2489SOL     OW 8365   6.555   6.045   4.624
 2489SOL    HW1 8366   6.509   6.128   4.657
 2489SOL    HW2 8367   6.521   6.023   4.532
 2490SOL     OW 8368   5.339   3.551   1.617
 2490SOL    HW1 8369   5.342   3.648   1.594
 2490SOL    HW2 8370   5.299   3.500   1.540
 2491SOL     OW 8371   0.203   4.370   2.922
 2491SOL    HW1 8372   0.121   4.371   2.864
 2491SOL    HW2 8373   0.254   4.286   2.907
 2492SOL     OW 8374   4.464   2.063   5.758
 2492SOL    HW1 8375   4.391   1.996   5.772
 2492SOL    HW2 8376   4.466   2.127   5.835
 2493SOL     OW 8377   6.701   1.251   4.291
 2493SOL    HW1 8378   6.621   1.311   4.293
 2493SOL    HW2 8379   6.681   1.169   4.238
 2494SOL     OW 8380   4.356   4.726   1.442
 2494SOL    HW1 8381   4.301   4.673   1.377
 2494SOL    HW2 8382   4.390   4.665   1.514
 2495SOL     OW 8383   6.589   0.820   3.868
 2495SOL    HW1 8384   6.575   0.787   3.961
 2495SOL    HW2 8385   6.563   0.748   3.803
 2496SOL     OW 8386   1.806   5.757   6.553
 2496SOL    HW1 8387   1.900   5.791   6.554
 2496SOL    HW2 8388   1.753   5.806   6.484
 2497SOL     OW 8389   5.626   1.142   6.932
 2497SOL    HW1 8390   5.620   1.177   6.838
 2497SOL    HW2 8391   5.586   1.050   6.935
 2498SOL     OW 8392   0.825   3.134   4.791
 2498SOL    HW1 8393   0.900   3.136   4.725
 2498SOL    HW2 8394   0.844   3.065   4.860
 2499SOL     OW 8395   5.122   0.350   6.828
 2499SOL    HW1 8396   5.110   0.256   6.859
 2499SOL    HW2 8397   5.185   0.352   6.750
 2500SOL     OW 8398   4.507   3.612   6.357
 2500SOL    HW1 8399   4.510   3.536   6.292
 2500SOL    HW2 8400   4.411   3.633   6.380
 2501SOL     OW 8401   6.309   5.070   0.985
 2501SOL    HW1 8402   6.403   5.049   0.960
 2501SOL    HW2 8403   6.268   5.129   0.915
 2502SOL     OW 8404   1.509   6.646   2.916
 2502SOL    HW1 8405   1.448   6.720   2.946
 2502SOL    HW2 8406   1.601   6.661   2.952
 2503SOL     OW 8407   5.039   6.890   4.459
 2503SOL    HW1 8408   5.018   6.793   4.446
 2503SOL    HW2 8409   5.026   6.939   4.372
 2504SOL     OW 8410   1.945   4.070   3.213
 2504SOL    HW1 8411   1.883   4.147   3.199
 2504SOL    HW2 8412   2.014   4.069   3.141
 2505SOL     OW 8413   5.250   4.514   4.675
 2505SOL    HW1 8414   5.248   4.510   4.575
 2505SOL    HW2 8415   5.174   4.460   4.712
 2506SOL     OW 8416   0.662   1.888   0.878
 2506SOL    HW1 8417   0.691   1.825   0.806
 2506SOL    HW2 8418   0.568   1.917   0.861
 2507SOL     OW 8419   6.607   6.219   0.901
 2507SOL    HW1 8420   6.661   6.303   0.906
 2507SOL    HW2 8421   6.513   6.238   0.929
 2508SOL     OW 8422   2.525   2.365   1.814
 2508SOL    HW1 8423   2.601   2.394   1.758
 2508SOL    HW2 8424   2.504   2.269   1.795
 2509SOL     OW 8425   4.876   1.128   3.477
 2509SOL    HW1 8426   4.852   1.067   3.553
 2509SOL    HW2 8427   4.793   1.172   3.441
 2510SOL     OW 8428   3.964   5.744   1.725
 2510SOL    HW1 8429   3.889   5.679   1.711
 2510SOL    HW2 8430   4.033   5.702   1.783
 2511SOL     OW 8431   0.772   6.395   3.828
 2511SOL    HW1 8432   0.764   6.464   3.899
 2511SOL    HW2 8433   0.742   6.307   3.863
 2512SOL     OW 8434   5.071   2.903   4.618
 2512SOL    HW1 8435   5.007   2.902   4.694
 2512SOL    HW2 8436   5.055   2.823   4.560
 2513SOL     OW 8437   0.493   4.826   1.420
 2513SOL    HW1 8438   0.499   4.786   1.329
 2513SOL    HW2 8439   0.420   4.894   1.423
 2514SOL     OW 8440   0.528   2.254   3.349
 2514SOL    HW1 8441   0.500   2.194   3.423
 2514SOL    HW2 8442   0.581   2.330   3.386
 2515SOL     OW 8443   0.894   4.665   0.164
 2515SOL    HW1 8444   0.898   4.671   0.263
 2515SOL    HW2 8445   0.944   4.742   0.124
 2516SOL     OW 8446   5.104   6.361   4.397
 2516SOL    HW1 8447   5.010   6.384   4.373
 2516SOL    HW2 8448   5.167   6.418   4.345
 2517SOL     OW 8449   2.430   5.318   0.677
 2517SOL    HW1 8450   2.420   5.244   0.611
 2517SOL    HW2 8451   2.342   5.362   0.692
 2518SOL     OW 8452   2.239   3.030   6.545
 2518SOL    HW1 8453   2.162   3.083   6.582
 2518SOL    HW2 8454   2.262   3.065   6.455
 2519SOL     OW 8455   5.348   3.953   5.376
 2519SOL    HW1 8456   5.399   4.029   5.417
 2519SOL    HW2 8457   5.322   3.887   5.447
 2520SOL     OW 8458   3.204   5.586   1.721
 2520SOL    HW1 8459   3.270   5.635   1.777
 2520SOL    HW2 8460   3.252   5.527   1.656
 2521SOL     OW 8461   5.878   6.732   6.306
 2521SOL    HW1 8462   5.797   6.701   6.356
 2521SOL    HW2 8463   5.911   6.657   6.248
 2522SOL     OW 8464   2.085   4.500   4.276
 2522SOL    HW1 8465   2.134   4.544   4.351
 2522SOL    HW2 8466   2.080   4.401   4.293
 2523SOL     OW 8467   0.126   3.041   5.696
 2523SOL    HW1 8468   0.070   3.050   5.779
 2523SOL    HW2 8469   0.189   2.964   5.707
 2524SOL     OW 8470   1.338   6.870   5.092
 2524SOL    HW1 8471   1.336   6.969   5.107
 2524SOL    HW2 8472   1.421   6.832   5.133
 2525SOL     OW 8473   1.878   3.931   2.898
 2525SOL    HW1 8474   1.831   4.004   2.848
 2525SOL    HW2 8475   1.975   3.930   2.873
 2526SOL     OW 8476   0.611   2.354   4.864
 2526SOL    HW1 8477   0.643   2.300   4.786
 2526SOL    HW2 8478   0.627   2.302   4.948
 2527SOL     OW 8479   6.453   6.962   3.791
 2527SOL    HW1 8480   6.377   0.008   3.789
 2527SOL    HW2 8481   6.423   6.874   3.754
 2528SOL     OW 8482   6.149   5.090   0.468
 2528SOL    HW1 8483   6.058   5.083   0.509
 2528SOL    HW2 8484   6.211   5.133   0.534
 2529SOL     OW 8485   5.282   3.858   4.897
 2529SOL    HW1 8486   5.272   3.941   4.953
 2529SOL    HW2 8487   5.373   3.856   4.857
 2530SOL     OW 8488   1.230   6.458   3.592
 2530SOL    HW1 8489   1.170   6.523   3.640
 2530SOL    HW2 8490   1.280   6.403   3.659
 2531SOL     OW 8491   5.127   1.380   0.328
 2531SOL    HW1 8492   5.159   1.387   0.234
 2531SOL    HW2 8493   5.110   1.284   0.351
 2532SOL     OW 8494   1.048   4.548   6.022
 2532SOL    HW1 8495   0.999   4.477   5.972
 2532SOL    HW2 8496   0.991   4.582   6.097
 2533SOL     OW 8497   5.923   6.514   5.533
 2533SOL    HW1 8498   5.834   6.474   5.553
 2533SOL    HW2 8499   5.941   6.589   5.597
 2534SOL     OW 8500   6.850   1.566   3.073
 2534SOL    HW1 8501   6.886   1.602   3.159
 2534SOL    HW2 8502   6.841   1.641   3.007
 2535SOL     OW 8503   1.627   1.600   2.916
 2535SOL    HW1 8504   1.658   1.635   2.828
 2535SOL    HW2 8505   1.704   1.594   2.979
 2536SOL     OW 8506   0.532   0.581   3.899
 2536SOL    HW1 8507   0.445   0.533   3.891
 2536SOL    HW2 8508   0.565   0.577   3.993
 2537SOL     OW 8509   3.817   5.716   2.031
 2537SOL    HW1 8510   3.793   5.677   2.120
 2537SOL    HW2 8511   3.873   5.797   2.043
 2538SOL     OW 8512   1.364   4.320   4.693
 2538SOL    HW1 8513   1.280   4.297   4.744
 2538SOL    HW2 8514   1.443   4.313   4.755
 2539SOL     OW 8515   2.558   1.062   5.528
 2539SOL    HW1 8516   2.576   1.031   5.621
 2539SOL    HW2 8517   2.612   1.008   5.463
 2540SOL     OW 8518   5.285   1.817   2.499
 2540SOL    HW1 8519   5.211   1.783   2.558
 2540SOL    HW2 8520   5.274   1.915   2.484
 2541SOL     OW 8521   0.290   0.394   5.977
 2541SOL    HW1 8522   0.388   0.415   5.980
 2541SOL    HW2 8523   0.275   0.308   5.929
 2542SOL     OW 8524   3.945   2.062   3.539
 2542SOL    HW1 8525   3.908   2.054   3.632
 2542SOL    HW2 8526   3.873   2.093   3.477
 2543SOL     OW 8527   0.259   1.895   4.119
 2543SOL    HW1 8528   0.252   1.796   4.105
 2543SOL    HW2 8529   0.174   1.930   4.158
 2544SOL     OW 8530   6.509   6.065   1.855
 2544SOL    HW1 8531   6.550   6.156   1.844
 2544SOL    HW2 8532   6.523   6.034   1.949
 2545SOL     OW 8533   6.165   1.665   0.391
 2545SOL    HW1 8534   6.170   1.616   0.304
 2545SOL    HW2 8535   6.088   1.729   0.389
 2546SOL     OW 8536   6.614   3.527   1.942
 2546SOL    HW1 8537   6.558   3.467   1.999
 2546SOL    HW2 8538   6.697   3.553   1.992
 2547SOL     OW 8539   5.393   4.456   1.434
 2547SOL    HW1 8540   5.492   4.467   1.434
 2547SOL    HW2 8541   5.370   4.359   1.425
 2548SOL     OW 8542   6.060   0.373   5.675
 2548SOL    HW1 8543   6.142   0.412   5.717
 2548SOL    HW2 8544   6.058   0.274   5.692
 2549SOL     OW 8545   2.689   3.774   0.740
 2549SOL    HW1 8546   2.720   3.739   0.828
 2549SOL    HW2 8547   2.602   3.732   0.716
 2550SOL     OW 8548   3.663   6.195   0.173
 2550SOL    HW1 8549   3.627   6.130   0.106
 2550SOL    HW2 8550   3.617   6.182   0.260
 2551SOL     OW 8551   3.694   5.046   0.980
 2551SOL    HW1 8552   3.657   4.955   1.001
 2551SOL    HW2 8553   3.787   5.053   1.017
 2552SOL     OW 8554   2.070   4.709   1.937
 2552SOL    HW1 8555   1.991   4.751   1.892
 2552SOL    HW2 8556   2.154   4.744   1.897
 2553SOL     OW 8557   4.902   1.522   0.222
 2553SOL    HW1 8558   4.867   1.615   0.236
 2553SOL    HW2 8559   5.001   1.521   0.236
 2554SOL     OW 8560   1.352   5.425   1.030
 2554SOL    HW1 8561   1.319   5.499   0.972
 2554SOL    HW2 8562   1.279   5.356   1.040
 2555SOL     OW 8563   6.253   6.892   4.995
 2555SOL    HW1 8564   6.167   6.925   5.034
 2555SOL    HW2 8565   6.329   6.927   5.050
 2556SOL     OW 8566   4.091   6.669   0.745
 2556SOL    HW1 8567   4.033   6.690   0.667
 2556SOL    HW2 8568   4.172   6.728   0.743
 2557SOL     OW 8569   3.047   0.948   6.909
 2557SOL    HW1 8570   3.063   1.044   6.887
 2557SOL    HW2 8571   3.082   0.890   6.835
 2558SOL     OW 8572   5.140   2.377   1.407
 2558SOL    HW1 8573   5.134   2.324   1.323
 2558SOL    HW2 8574   5.235   2.378   1.440
 2559SOL     OW 8575   0.186   5.085   3.517
 2559SOL    HW1 8576   0.132   5.085   3.433
 2559SOL    HW2 8577   0.139   5.139   3.587
 2560SOL     OW 8578   5.152   2.298   2.811
 2560SOL    HW1 8579   5.079   2.290   2.879
 2560SOL    HW2 8580   5.141   2.383   2.759
 2561SOL     OW 8581   3.645   6.786   4.221
 2561SOL    HW1 8582   3.600   6.697   4.219
 2561SOL    HW2 8583   3.580   6.856   4.253
 2562SOL     OW 8584   1.493   6.976   4.629
 2562SOL    HW1 8585   1.426   6.931   4.689
 2562SOL    HW2 8586   1.542   0.027   4.681
 2563SOL     OW 8587   3.711   2.587   6.658
 2563SOL    HW1 8588   3.772   2.528   6.604
 2563SOL    HW2 8589   3.620   2.545   6.663
 2564SOL     OW 8590   1.275   1.786   0.273
 2564SOL    HW1 8591   1.347   1.754   0.334
 2564SOL    HW2 8592   1.306   1.868   0.224
 2565SOL     OW 8593   1.123   0.747   0.442
 2565SOL    HW1 8594   1.148   0.667   0.386
 2565SOL    HW2 8595   1.036   0.784   0.409
 2566SOL     OW 8596   2.905   0.755   1.238
 2566SOL    HW1 8597   2.949   0.686   1.295
 2566SOL    HW2 8598   2.947   0.844   1.255
 2567SOL     OW 8599   1.426   0.548   6.348
 2567SOL    HW1 8600   1.495   0.618   6.366
 2567SOL    HW2 8601   1.383   0.565   6.259
 2568SOL     OW 8602   1.918   5.718   0.901
 2568SOL    HW1 8603   1.917   5.657   0.822
 2568SOL    HW2 8604   1.979   5.680   0.971
 2569SOL     OW 8605   1.647   0.219   0.631
 2569SOL    HW1 8606   1.613   0.130   0.599
 2569SOL    HW2 8607   1.746   0.214   0.643
 2570SOL     OW 8608   0.466   5.904   4.802
 2570SOL    HW1 8609   0.440   5.829   4.742
 2570SOL    HW2 8610   0.484   5.986   4.748
 2571SOL     OW 8611   3.445   4.129   3.959
 2571SOL    HW1 8612   3.459   4.124   4.058
 2571SOL    HW2 8613   3.347   4.128   3.939
 2572SOL     OW 8614   1.823   5.362   2.183
 2572SOL    HW1 8615   1.922   5.360   2.198
 2572SOL    HW2 8616   1.803   5.335   2.089
 2573SOL     OW 8617   0.164   1.731   3.615
 2573SOL    HW1 8618   0.066   1.718   3.625
 2573SOL    HW2 8619   0.213   1.668   3.676
 2574SOL     OW 8620   0.692   3.765   2.487
 2574SOL    HW1 8621   0.780   3.745   2.444
 2574SOL    HW2 8622   0.618   3.752   2.421
 2575SOL     OW 8623   5.228   3.330   6.325
 2575SOL    HW1 8624   5.246   3.236   6.296
 2575SOL    HW2 8625   5.231   3.390   6.245
 2576SOL     OW 8626   1.703   6.882   3.153
 2576SOL    HW1 8627   1.645   6.959   3.181
 2576SOL    HW2 8628   1.799   6.910   3.156
 2577SOL     OW 8629   1.629   5.535   1.435
 2577SOL    HW1 8630   1.558   5.464   1.437
 2577SOL    HW2 8631   1.654   5.560   1.528
 2578SOL     OW 8632   4.267   2.028   4.505
 2578SOL    HW1 8633   4.359   2.007   4.538
 2578SOL    HW2 8634   4.199   1.997   4.572
 2579SOL     OW 8635   6.828   1.201   6.078
 2579SOL    HW1 8636   6.857   1.234   5.988
 2579SOL    HW2 8637   6.756   1.260   6.114
 2580SOL     OW 8638   1.426   1.541   6.064
 2580SOL    HW1 8639   1.518   1.513   6.091
 2580SOL    HW2 8640   1.432   1.603   5.985
 2581SOL     OW 8641   6.585   0.016   4.698
 2581SOL    HW1 8642   6.636   6.962   4.745
 2581SOL    HW2 8643   6.487   7.016   4.707
 2582SOL     OW 8644   0.510   5.627   2.858
 2582SOL    HW1 8645   0.448   5.664   2.790
 2582SOL    HW2 8646   0.602   5.665   2.844
 2583SOL     OW 8647   2.314   0.930   6.762
 2583SOL    HW1 8648   2.365   0.917   6.677
 2583SOL    HW2 8649   2.220   0.899   6.750
 2584SOL     OW 8650   4.962   6.857   2.461
 2584SOL    HW1 8651   5.050   6.880   2.503
 2584SOL    HW2 8652   4.932   6.933   2.403
 2585SOL     OW 8653   4.294   1.220   1.774
 2585SOL    HW1 8654   4.248   1.300   1.736
 2585SOL    HW2 8655   4.391   1.221   1.746
 2586SOL     OW 8656   6.419   1.491   3.979
 2586SOL    HW1 8657   6.444   1.403   3.938
 2586SOL    HW2 8658   6.390   1.554   3.907
 2587SOL     OW 8659   6.715   6.039   2.970
 2587SOL    HW1 8660   6.731   6.007   2.876
 2587SOL    HW2 8661   6.648   5.979   3.014
 2588SOL     OW 8662   5.237   0.171   1.854
 2588SOL    HW1 8663   5.290   0.255   1.838
 2588SOL    HW2 8664   5.252   0.140   1.948
 2589SOL     OW 8665   5.497   6.118   0.666
 2589SOL    HW1 8666   5.487   6.129   0.567
 2589SOL    HW2 8667   5.568   6.051   0.686
 2590SOL     OW 8668   3.439   6.427   3.127
 2590SOL    HW1 8669   3.412   6.336   3.097
 2590SOL    HW2 8670   3.425   6.492   3.052
 2591SOL     OW 8671   6.287   0.062   1.513
 2591SOL    HW1 8672   6.354   0.027   1.579
 2591SOL    HW2 8673   6.212   0.107   1.562
 2592SOL     OW 8674   3.256   4.776   1.473
 2592SOL    HW1 8675   3.218   4.854   1.422
 2592SOL    HW2 8676   3.182   4.726   1.517
 2593SOL     OW 8677   3.614   6.848   3.007
 2593SOL    HW1 8678   3.592   6.767   2.952
 2593SOL    HW2 8679   3.707   6.841   3.041
 2594SOL     OW 8680   1.370   6.603   6.802
 2594SOL    HW1 8681   1.403   6.696   6.816
 2594SOL    HW2 8682   1.277   6.605   6.767
 2595SOL     OW 8683   6.187   3.152   3.921
 2595SOL    HW1 8684   6.207   3.184   4.013
 2595SOL    HW2 8685   6.211   3.055   3.913
 2596SOL     OW 8686   4.181   2.297   1.537
 2596SOL    HW1 8687   4.130   2.379   1.564
 2596SOL    HW2 8688   4.270   2.298   1.582
 2597SOL     OW 8689   1.900   2.235   6.409
 2597SOL    HW1 8690   1.928   2.266   6.319
 2597SOL    HW2 8691   1.979   2.201   6.459
 2598SOL     OW 8692   6.089   1.456   2.997
 2598SOL    HW1 8693   6.107   1.366   2.956
 2598SOL    HW2 8694   6.085   1.446   3.097
 2599SOL     OW 8695   4.258   4.546   6.691
 2599SOL    HW1 8696   4.229   4.586   6.604
 2599SOL    HW2 8697   4.241   4.612   6.765
 2600SOL     OW 8698   6.631   3.212   3.774
 2600SOL    HW1 8699   6.603   3.119   3.794
 2600SOL    HW2 8700   6.602   3.272   3.849
 2601SOL     OW 8701   3.674   3.568   5.181
 2601SOL    HW1 8702   3.657   3.631   5.105
 2601SOL    HW2 8703   3.772   3.559   5.195
 2602SOL     OW 8704   6.214   6.051   5.692
 2602SOL    HW1 8705   6.277   6.028   5.618
 2602SOL    HW2 8706   6.157   6.128   5.665
 2603SOL     OW 8707   1.922   2.399   6.899
 2603SOL    HW1 8708   1.871   2.338   6.838
 2603SOL    HW2 8709   1.898   2.494   6.878
 2604SOL     OW 8710   5.985   1.508   1.135
 2604SOL    HW1 8711   5.929   1.499   1.217
 2604SOL    HW2 8712   5.966   1.596   1.092
 2605SOL     OW 8713   4.942   3.685   3.920
 2605SOL    HW1 8714   4.885   3.618   3.966
 2605SOL    HW2 8715   5.021   3.707   3.977
 2606SOL     OW 8716   6.792   4.814   1.192
 2606SOL    HW1 8717   6.861   4.794   1.122
 2606SOL    HW2 8718   6.716   4.751   1.182
 2607SOL     OW 8719   1.031   1.802   4.424
 2607SOL    HW1 8720   1.038   1.741   4.503
 2607SOL    HW2 8721   0.950   1.779   4.371
 2608SOL     OW 8722   5.545   0.103   0.538
 2608SOL    HW1 8723   5.474   0.055   0.590
 2608SOL    HW2 8724   5.529   0.090   0.440
 2609SOL     OW 8725   0.643   2.910   3.935
 2609SOL    HW1 8726   0.651   3.007   3.913
 2609SOL    HW2 8727   0.723   2.861   3.901
 2610SOL     OW 8728   5.413   5.367   5.108
 2610SOL    HW1 8729   5.439   5.329   5.020
 2610SOL    HW2 8730   5.455   5.458   5.119
 2611SOL     OW 8731   3.158   5.912   1.942
 2611SOL    HW1 8732   3.134   5.842   2.009
 2611SOL    HW2 8733   3.091   5.910   1.867
 2612SOL     OW 8734   6.466   6.987   5.208
 2612SOL    HW1 8735   6.508   0.053   5.242
 2612SOL    HW2 8736   6.536   6.931   5.164
 2613SOL     OW 8737   3.362   0.772   0.908
 2613SOL    HW1 8738   3.374   0.681   0.868
 2613SOL    HW2 8739   3.280   0.815   0.869
 2614SOL     OW 8740   6.494   6.230   6.547
 2614SOL    HW1 8741   6.561   6.300   6.523
 2614SOL    HW2 8742   6.403   6.270   6.550
 2615SOL     OW 8743   5.510   5.254   2.041
 2615SOL    HW1 8744   5.523   5.276   2.138
 2615SOL    HW2 8745   5.596   5.266   1.992
 2616SOL     OW 8746   4.010   3.578   2.479
 2616SOL    HW1 8747   4.055   3.530   2.554
 2616SOL    HW2 8748   3.925   3.530   2.456
 2617SOL     OW 8749   3.128   0.525   1.139
 2617SOL    HW1 8750   3.097   0.514   1.233
 2617SOL    HW2 8751   3.112   0.440   1.088
 2618SOL     OW 8752   0.875   0.642   0.275
 2618SOL    HW1 8753   0.937   0.688   0.212
 2618SOL    HW2 8754   0.853   0.702   0.351
 2619SOL     OW 8755   5.575   1.512   1.631
 2619SOL    HW1 8756   5.622   1.595   1.600
 2619SOL    HW2 8757   5.584   1.503   1.730
 2620SOL     OW 8758   1.432   5.060   4.126
 2620SOL    HW1 8759   1.359   5.022   4.071
 2620SOL    HW2 8760   1.515   5.004   4.116
 2621SOL     OW 8761   0.789   5.242   4.044
 2621SOL    HW1 8762   0.845   5.175   4.091
 2621SOL    HW2 8763   0.844   5.290   3.975
 2622SOL     OW 8764   2.738   3.249   5.996
 2622SOL    HW1 8765   2.751   3.150   6.002
 2622SOL    HW2 8766   2.727   3.275   5.900
 2623SOL     OW 8767   3.466   1.053   6.265
 2623SOL    HW1 8768   3.496   1.050   6.360
 2623SOL    HW2 8769   3.426   0.965   6.240
 2624SOL     OW 8770   6.986   1.916   3.942
 2624SOL    HW1 8771   7.004   2.001   3.991
 2624SOL    HW2 8772   6.964   1.937   3.846
 2625SOL     OW 8773   4.783   0.297   5.507
 2625SOL    HW1 8774   4.722   0.353   5.451
 2625SOL    HW2 8775   4.878   0.328   5.492
 2626SOL     OW 8776   2.589   0.259   2.298
 2626SOL    HW1 8777   2.574   0.192   2.371
 2626SOL    HW2 8778   2.517   0.251   2.230
 2627SOL     OW 8779   0.396   0.977   4.715
 2627SOL    HW1 8780   0.401   1.055   4.778
 2627SOL    HW2 8781   0.486   0.934   4.708
 2628SOL     OW 8782   3.842   6.129   6.031
 2628SOL    HW1 8783   3.792   6.216   6.038
 2628SOL    HW2 8784   3.923   6.133   6.089
 2629SOL     OW 8785   3.006   3.874   1.327
 2629SOL    HW1 8786   3.060   3.798   1.291
 2629SOL    HW2 8787   3.046   3.907   1.412
 2630SOL     OW 8788   2.847   2.160   2.251
 2630SOL    HW1 8789   2.900   2.190   2.172
 2630SOL    HW2 8790   2.790   2.235   2.284
 2631SOL     OW 8791   4.521   6.558   4.796
 2631SOL    HW1 8792   4.450   6.517   4.739
 2631SOL    HW2 8793   4.551   6.644   4.755
 2632SOL     OW 8794   5.811   1.497   1.345
 2632SOL    HW1 8795   5.716   1.527   1.343
 2632SOL    HW2 8796   5.868   1.569   1.385
 2633SOL     OW 8797   6.731   2.448   6.090
 2633SOL    HW1 8798   6.769   2.365   6.048
 2633SOL    HW2 8799   6.780   2.468   6.175
 2634SOL     OW 8800   2.895   5.104   1.134
 2634SOL    HW1 8801   2.988   5.123   1.103
 2634SOL    HW2 8802   2.866   5.015   1.099
 2635SOL     OW 8803   5.641   4.434   3.776
 2635SOL    HW1 8804   5.699   4.443   3.695
 2635SOL    HW2 8805   5.558   4.489   3.763
 2636SOL     OW 8806   5.767   0.234   4.846
 2636SOL    HW1 8807   5.706   0.250   4.924
 2636SOL    HW2 8808   5.825   0.314   4.833
 2637SOL     OW 8809   4.744   6.461   2.884
 2637SOL    HW1 8810   4.782   6.441   2.793
 2637SOL    HW2 8811   4.792   6.406   2.953
 2638SOL     OW 8812   5.693   5.630   0.796
 2638SOL    HW1 8813   5.603   5.586   0.786
 2638SOL    HW2 8814   5.765   5.561   0.784
 2639SOL     OW 8815   6.691   6.479   0.223
 2639SOL    HW1 8816   6.632   6.436   0.154
 2639SOL    HW2 8817   6.646   6.561   0.258
 2640SOL     OW 8818   6.132   0.048   6.464
 2640SOL    HW1 8819   6.149   0.130   6.518
 2640SOL    HW2 8820   6.076   7.002   6.516
 2641SOL     OW 8821   5.875   5.338   6.944
 2641SOL    HW1 8822   5.969   5.361   6.917
 2641SOL    HW2 8823   5.862   5.239   6.938
 2642SOL     OW 8824   6.548   6.923   3.377
 2642SOL    HW1 8825   6.630   6.962   3.334
 2642SOL    HW2 8826   6.574   6.845   3.434
 2643SOL     OW 8827   1.101   0.564   1.920
 2643SOL    HW1 8828   1.166   0.501   1.878
 2643SOL    HW2 8829   1.141   0.603   2.003
 2644SOL     OW 8830   0.503   5.766   6.502
 2644SOL    HW1 8831   0.442   5.844   6.492
 2644SOL    HW2 8832   0.547   5.747   6.415
 2645SOL     OW 8833   5.901   5.251   5.723
 2645SOL    HW1 8834   5.811   5.278   5.757
 2645SOL    HW2 8835   5.962   5.235   5.800
 2646SOL     OW 8836   6.595   6.421   6.990
 2646SOL    HW1 8837   6.498   6.442   6.979
 2646SOL    HW2 8838   6.649   6.491   6.944
 2647SOL     OW 8839   3.716   3.024   0.619
 2647SOL    HW1 8840   3.728   2.978   0.531
 2647SOL    HW2 8841   3.622   3.009   0.652
 2648SOL     OW 8842   3.576   0.994   3.032
 2648SOL    HW1 8843   3.665   0.966   3.067
 2648SOL    HW2 8844   3.575   0.986   2.932
 2649SOL     OW 8845   3.489   2.878   5.267
 2649SOL    HW1 8846   3.510   2.905   5.361
 2649SOL    HW2 8847   3.412   2.814   5.267
 2650SOL     OW 8848   0.165   6.630   1.939
 2650SOL    HW1 8849   0.236   6.577   1.892
 2650SOL    HW2 8850   0.165   6.606   2.036
 2651SOL     OW 8851   0.808   0.006   3.646
 2651SOL    HW1 8852   0.868   0.075   3.605
 2651SOL    HW2 8853   0.713   0.030   3.628
 2652SOL     OW 8854   3.462   2.858   2.488
 2652SOL    HW1 8855   3.533   2.840   2.419
 2652SOL    HW2 8856   3.373   2.869   2.442
 2653SOL     OW 8857   6.555   5.303   0.102
 2653SOL    HW1 8858   6.476   5.312   0.042
 2653SOL    HW2 8859   6.548   5.217   0.153
 2654SOL     OW 8860   5.157   1.844   6.099
 2654SOL    HW1 8861   5.225   1.771   6.108
 2654SOL    HW2 8862   5.183   1.905   6.024
 2655SOL     OW 8863   4.628   5.395   5.173
 2655SOL    HW1 8864   4.670   5.393   5.264
 2655SOL    HW2 8865   4.638   5.487   5.135
 2656SOL     OW 8866   5.163   3.494   4.202
 2656SOL    HW1 8867   5.203   3.566   4.146
 2656SOL    HW2 8868   5.137   3.416   4.145
 2657SOL     OW 8869   2.493   2.204   5.794
 2657SOL    HW1 8870   2.529   2.131   5.852
 2657SOL    HW2 8871   2.526   2.292   5.828
 2658SOL     OW 8872   5.667   4.392   5.879
 2658SOL    HW1 8873   5.603   4.468   5.871
 2658SOL    HW2 8874   5.745   4.420   5.935
 2659SOL     OW 8875   6.784   2.036   3.085
 2659SOL    HW1 8876   6.866   2.077   3.124
 2659SOL    HW2 8877   6.762   2.080   2.998
 2660SOL     OW 8878   6.323   1.878   2.717
 2660SOL    HW1 8879   6.404   1.874   2.658
 2660SOL    HW2 8880   6.260   1.805   2.693
 2661SOL     OW 8881   4.035   6.649   1.766
 2661SOL    HW1 8882   4.036   6.721   1.696
 2661SOL    HW2 8883   3.984   6.570   1.732
 2662SOL     OW 8884   3.727   6.939   3.704
 2662SOL    HW1 8885   3.802   6.879   3.733
 2662SOL    HW2 8886   3.641   6.888   3.703
 2663SOL     OW 8887   0.983   4.428   2.919
 2663SOL    HW1 8888   1.011   4.332   2.931
 2663SOL    HW2 8889   1.021   4.483   2.993
 2664SOL     OW 8890   4.128   3.668   1.885
 2664SOL    HW1 8891   4.192   3.642   1.957
 2664SOL    HW2 8892   4.176   3.721   1.815
 2665SOL     OW 8893   4.407   0.959   4.329
 2665SOL    HW1 8894   4.449   1.020   4.396
 2665SOL    HW2 8895   4.335   0.906   4.373
 2666SOL     OW 8896   5.613   5.923   2.045
 2666SOL    HW1 8897   5.558   5.865   2.104
 2666SOL    HW2 8898   5.676   5.978   2.100
 2667SOL     OW 8899   1.676   4.988   3.680
 2667SOL    HW1 8900   1.739   4.950   3.749
 2667SOL    HW2 8901   1.728   5.019   3.601
 2668SOL     OW 8902   6.324   2.561   5.599
 2668SOL    HW1 8903   6.242   2.618   5.596
 2668SOL    HW2 8904   6.304   2.472   5.559
 2669SOL     OW 8905   4.068   5.045   5.795
 2669SOL    HW1 8906   4.109   5.082   5.712
 2669SOL    HW2 8907   3.976   5.083   5.807
 2670SOL     OW 8908   1.738   0.271   6.072
 2670SOL    HW1 8909   1.702   0.359   6.102
 2670SOL    HW2 8910   1.826   0.284   6.026
 2671SOL     OW 8911   3.413   3.969   6.147
 2671SOL    HW1 8912   3.512   3.963   6.135
 2671SOL    HW2 8913   3.391   3.976   6.244
 2672SOL     OW 8914   1.190   3.895   0.602
 2672SOL    HW1 8915   1.144   3.825   0.656
 2672SOL    HW2 8916   1.283   3.865   0.581
 2673SOL     OW 8917   4.533   1.943   3.901
 2673SOL    HW1 8918   4.510   1.855   3.943
 2673SOL    HW2 8919   4.533   2.014   3.971
 2674SOL     OW 8920   5.730   5.540   5.499
 2674SOL    HW1 8921   5.806   5.538   5.563
 2674SOL    HW2 8922   5.766   5.545   5.405
 2675SOL     OW 8923   0.163   3.884   5.444
 2675SOL    HW1 8924   0.227   3.934   5.386
 2675SOL    HW2 8925   0.173   3.786   5.430
 2676SOL     OW 8926   4.071   0.361   2.010
 2676SOL    HW1 8927   4.103   0.267   2.018
 2676SOL    HW2 8928   4.132   0.421   2.062
 2677SOL     OW 8929   2.891   4.753   2.465
 2677SOL    HW1 8930   2.971   4.783   2.517
 2677SOL    HW2 8931   2.917   4.738   2.370
 2678SOL     OW 8932   0.388   6.294   6.561
 2678SOL    HW1 8933   0.291   6.306   6.585
 2678SOL    HW2 8934   0.445   6.314   6.641
 2679SOL     OW 8935   2.712   4.651   1.341
 2679SOL    HW1 8936   2.752   4.610   1.259
 2679SOL    HW2 8937   2.670   4.739   1.317
 2680SOL     OW 8938   0.896   1.941   1.701
 2680SOL    HW1 8939   0.846   1.855   1.707
 2680SOL    HW2 8940   0.994   1.923   1.710
 2681SOL     OW 8941   1.261   1.300   2.633
 2681SOL    HW1 8942   1.332   1.327   2.699
 2681SOL    HW2 8943   1.292   1.220   2.582
 2682SOL     OW 8944   6.501   2.330   3.245
 2682SOL    HW1 8945   6.411   2.300   3.275
 2682SOL    HW2 8946   6.562   2.338   3.324
 2683SOL     OW 8947   1.365   0.205   1.804
 2683SOL    HW1 8948   1.456   0.166   1.789
 2683SOL    HW2 8949   1.335   0.185   1.897
 2684SOL     OW 8950   2.604   5.981   2.817
 2684SOL    HW1 8951   2.649   6.068   2.832
 2684SOL    HW2 8952   2.505   5.991   2.827
 2685SOL     OW 8953   5.775   6.014   5.138
 2685SOL    HW1 8954   5.812   5.930   5.179
 2685SOL    HW2 8955   5.765   6.002   5.039
 2686SOL     OW 8956   1.081   2.907   4.608
 2686SOL    HW1 8957   1.008   2.852   4.650
 2686SOL    HW2 8958   1.083   2.888   4.510
 2687SOL     OW 8959   5.267   4.724   3.476
 2687SOL    HW1 8960   5.195   4.739   3.408
 2687SOL    HW2 8961   5.351   4.767   3.444
 2688SOL     OW 8962   3.621   5.462   5.697
 2688SOL    HW1 8963   3.721   5.460   5.696
 2688SOL    HW2 8964   3.586   5.370   5.676
 2689SOL     OW 8965   0.069   2.996   4.398
 2689SOL    HW1 8966   0.103   2.909   4.433
 2689SOL    HW2 8967   0.144   3.049   4.359
 2690SOL     OW 8968   2.851   3.601   3.272
 2690SOL    HW1 8969   2.857   3.592   3.372
 2690SOL    HW2 8970   2.889   3.520   3.229
 2691SOL     OW 8971   1.370   5.822   1.311
 2691SOL    HW1 8972   1.447   5.771   1.273
 2691SOL    HW2 8973   1.356   5.795   1.406
 2692SOL     OW 8974   6.771   5.430   3.128
 2692SOL    HW1 8975   6.831   5.412   3.206
 2692SOL    HW2 8976   6.798   5.372   3.051
 2693SOL     OW 8977   1.637   3.495   3.681
 2693SOL    HW1 8978   1.579   3.415   3.689
 2693SOL    HW2 8979   1.730   3.467   3.655
 2694SOL     OW 8980   2.845   0.660   2.631
 2694SOL    HW1 8981   2.826   0.757   2.617
 2694SOL    HW2 8982   2.768   0.618   2.679
 2695SOL     OW 8983   3.979   2.097   2.833
 2695SOL    HW1 8984   4.028   2.169   2.882
 2695SOL    HW2 8985   3.941   2.133   2.748
 2696SOL     OW 8986   4.163   3.448   4.923
 2696SOL    HW1 8987   4.077   3.397   4.911
 2696SOL    HW2 8988   4.234   3.386   4.955
 2697SOL     OW 8989   2.256   2.173   4.332
 2697SOL    HW1 8990   2.220   2.258   4.369
 2697SOL    HW2 8991   2.201   2.096   4.366
 2698SOL     OW 8992   2.374   3.351   6.547
 2698SOL    HW1 8993   2.407   3.439   6.579
 2698SOL    HW2 8994   2.275   3.356   6.530
 2699SOL     OW 8995   3.527   5.790   2.081
 2699SOL    HW1 8996   3.622   5.786   2.051
 2699SOL    HW2 8997   3.503   5.705   2.127
 2700SOL     OW 8998   1.120   3.466   2.960
 2700SOL    HW1 8999   1.176   3.547   2.974
 2700SOL    HW2 9000   1.055   3.457   3.036
 2701SOL     OW 9001   3.420   0.078   5.862
 2701SOL    HW1 9002   3.458   7.015   5.818
 2701SOL    HW2 9003   3.338   0.107   5.813
 2702SOL     OW 9004   0.068   6.985   3.063
 2702SOL    HW1 9005   6.987   6.976   3.073
 2702SOL    HW2 9006   0.090   7.015   2.971
 2703SOL     OW 9007   1.459   1.307   3.154
 2703SOL    HW1 9008   1.469   1.364   3.236
 2703SOL    HW2 9009   1.542   1.254   3.139
 2704SOL     OW 9010   1.582   5.783   0.261
 2704SOL    HW1 9011   1.651   5.735   0.315
 2704SOL    HW2 9012   1.627   5.849   0.201
 2705SOL     OW 9013   0.296   4.541   2.557
 2705SOL    HW1 9014   0.394   4.535   2.575
 2705SOL    HW2 9015   0.260   4.449   2.540
 2706SOL     OW 9016   6.706   2.006   1.966
 2706SOL    HW1 9017   6.615   1.981   2.000
 2706SOL    HW2 9018   6.725   1.955   1.882
 2707SOL     OW 9019   2.402   1.637   5.816
 2707SOL    HW1 9020   2.306   1.659   5.834
 2707SOL    HW2 9021   2.412   1.538   5.806
 2708SOL     OW 9022   1.984   3.272   0.823
 2708SOL    HW1 9023   2.008   3.288   0.919
 2708SOL    HW2 9024   2.066   3.274   0.767
 2709SOL     OW 9025   4.239   6.785   1.932
 2709SOL    HW1 9026   4.233   6.768   2.030
 2709SOL    HW2 9027   4.154   6.757   1.888
 2710SOL     OW 9028   6.019   4.067   2.454
 2710SOL    HW1 9029   6.044   3.970   2.456
 2710SOL    HW2 9030   5.990   4.095   2.546
 2711SOL     OW 9031   1.163   6.982   2.075
 2711SOL    HW1 9032   1.210   6.982   1.986
 2711SOL    HW2 9033   1.203   6.912   2.134
 2712SOL     OW 9034   3.138   5.246   1.049
 2712SOL    HW1 9035   3.091   5.324   1.007
 2712SOL    HW2 9036   3.165   5.181   0.978
 2713SOL     OW 9037   1.893   2.904   4.695
 2713SOL    HW1 9038   1.966   2.924   4.761
 2713SOL    HW2 9039   1.814   2.961   4.715
 2714SOL     OW 9040   5.388   6.788   5.390
 2714SOL    HW1 9041   5.369   6.787   5.488
 2714SOL    HW2 9042   5.456   6.718   5.368
 2715SOL     OW 9043   6.844   0.501   6.868
 2715SOL    HW1 9044   6.806   0.409   6.855
 2715SOL    HW2 9045   6.796   0.546   6.944
 2716SOL     OW 9046   0.841   6.772   2.688
 2716SOL    HW1 9047   0.789   6.800   2.769
 2716SOL    HW2 9048   0.826   6.675   2.670
 2717SOL     OW 9049   1.374   0.579   2.673
 2717SOL    HW1 9050   1.300   0.597   2.737
 2717SOL    HW2 9051   1.359   0.491   2.628
 2718SOL     OW 9052   1.461   4.594   3.350
 2718SOL    HW1 9053   1.476   4.685   3.389
 2718SOL    HW2 9054   1.379   4.554   3.392
 2719SOL     OW 9055   4.052   4.851   2.607
 2719SOL    HW1 9056   3.983   4.813   2.547
 2719SOL    HW2 9057   4.046   4.807   2.697
 2720SOL     OW 9058   0.653   5.662   4.170
 2720SOL    HW1 9059   0.666   5.610   4.086
 2720SOL    HW2 9060   0.741   5.676   4.215
 2721SOL     OW 9061   4.749   6.733   4.656
 2721SOL    HW1 9062   4.764   6.784   4.741
 2721SOL    HW2 9063   4.747   6.797   4.579
 2722SOL     OW 9064   1.545   5.653   1.194
 2722SOL    HW1 9065   1.529   5.594   1.115
 2722SOL    HW2 9066   1.558   5.596   1.276
 2723SOL     OW 9067   1.383   1.268   5.250
 2723SOL    HW1 9068   1.384   1.179   5.297
 2723SOL    HW2 9069   1.404   1.254   5.153
 2724SOL     OW 9070   3.008   5.631   6.202
 2724SOL    HW1 9071   3.040   5.587   6.286
 2724SOL    HW2 9072   3.021   5.569   6.125
 2725SOL     OW 9073   3.101   4.849   3.278
 2725SOL    HW1 9074   3.042   4.851   3.359
 2725SOL    HW2 9075   3.048   4.816   3.199
 2726SOL     OW 9076   4.708   5.704   2.436
 2726SOL    HW1 9077   4.808   5.707   2.427
 2726SOL    HW2 9078   4.671   5.642   2.367
 2727SOL     OW 9079   2.162   5.139   3.534
 2727SOL    HW1 9080   2.146   5.111   3.440
 2727SOL    HW2 9081   2.080   5.184   3.570
 2728SOL     OW 9082   3.744   0.006   5.481
 2728SOL    HW1 9083   3.744   0.087   5.421
 2728SOL    HW2 9084   3.826   6.969   5.463
 2729SOL     OW 9085   6.563   5.029   2.478
 2729SOL    HW1 9086   6.585   4.945   2.528
 2729SOL    HW2 9087   6.524   5.006   2.389
 2730SOL     OW 9088   1.523   4.282   1.492
 2730SOL    HW1 9089   1.487   4.375   1.484
 2730SOL    HW2 9090   1.496   4.242   1.579
 2731SOL     OW 9091   3.076   3.864   1.660
 2731SOL    HW1 9092   3.096   3.768   1.639
 2731SOL    HW2 9093   3.118   3.889   1.747
 2732SOL     OW 9094   5.378   2.331   3.435
 2732SOL    HW1 9095   5.478   2.335   3.432
 2732SOL    HW2 9096   5.349   2.268   3.507
 2733SOL     OW 9097   1.604   0.749   5.420
 2733SOL    HW1 9098   1.587   0.655   5.390
 2733SOL    HW2 9099   1.577   0.759   5.516
 2734SOL     OW 9100   2.527   6.120   3.563
 2734SOL    HW1 9101   2.585   6.190   3.522
 2734SOL    HW2 9102   2.471   6.077   3.492
 2735SOL     OW 9103   2.278   4.813   1.793
 2735SOL    HW1 9104   2.345   4.836   1.863
 2735SOL    HW2 9105   2.311   4.736   1.739
 2736SOL     OW 9106   3.799   6.974   6.553
 2736SOL    HW1 9107   3.748   0.001   6.480
 2736SOL    HW2 9108   3.736   6.927   6.614
 2737SOL     OW 9109   4.384   3.833   5.714
 2737SOL    HW1 9110   4.293   3.803   5.685
 2737SOL    HW2 9111   4.411   3.914   5.662
 2738SOL     OW 9112   6.311   4.732   4.298
 2738SOL    HW1 9113   6.363   4.693   4.223
 2738SOL    HW2 9114   6.232   4.674   4.318
 2739SOL     OW 9115   5.558   3.519   0.912
 2739SOL    HW1 9116   5.657   3.531   0.908
 2739SOL    HW2 9117   5.537   3.440   0.970
 2740SOL     OW 9118   6.730   2.762   3.227
 2740SOL    HW1 9119   6.779   2.679   3.254
 2740SOL    HW2 9120   6.790   2.820   3.172
 2741SOL     OW 9121   1.462   2.286   5.858
 2741SOL    HW1 9122   1.547   2.269   5.809
 2741SOL    HW2 9123   1.404   2.348   5.804
 2742SOL     OW 9124   2.216   6.730   5.980
 2742SOL    HW1 9125   2.121   6.763   5.971
 2742SOL    HW2 9126   2.220   6.657   6.047
 2743SOL     OW 9127   5.729   4.870   0.639
 2743SOL    HW1 9128   5.683   4.799   0.693
 2743SOL    HW2 9129   5.666   4.904   0.569
 2744SOL     OW 9130   4.247   0.742   6.768
 2744SOL    HW1 9131   4.181   0.673   6.737
 2744SOL    HW2 9132   4.264   0.807   6.694
 2745SOL     OW 9133   2.372   5.526   1.148
 2745SOL    HW1 9134   2.303   5.480   1.092
 2745SOL    HW2 9135   2.345   5.524   1.244
 2746SOL     OW 9136   1.430   2.341   6.301
 2746SOL    HW1 9137   1.342   2.293   6.300
 2746SOL    HW2 9138   1.440   2.396   6.218
 2747SOL     OW 9139   5.419   5.636   4.085
 2747SOL    HW1 9140   5.419   5.575   4.006
 2747SOL    HW2 9141   5.330   5.681   4.092
 2748SOL     OW 9142   3.835   1.157   4.408
 2748SOL    HW1 9143   3.741   1.134   4.434
 2748SOL    HW2 9144   3.883   1.192   4.488
 2749SOL     OW 9145   4.662   4.692   3.801
 2749SOL    HW1 9146   4.582   4.658   3.753
 2749SOL    HW2 9147   4.641   4.704   3.898
 2750SOL     OW 9148   0.176   6.221   1.800
 2750SOL    HW1 9149   0.143   6.289   1.736
 2750SOL    HW2 9150   0.143   6.242   1.892
 2751SOL     OW 9151   1.562   0.042   0.347
 2751SOL    HW1 9152   1.563   0.101   0.266
 2751SOL    HW2 9153   1.640   6.998   0.345
 2752SOL     OW 9154   6.504   6.374   5.840
 2752SOL    HW1 9155   6.465   6.437   5.774
 2752SOL    HW2 9156   6.568   6.312   5.794
 2753SOL     OW 9157   2.817   5.921   5.016
 2753SOL    HW1 9158   2.816   5.887   4.922
 2753SOL    HW2 9159   2.725   5.915   5.055
 2754SOL     OW 9160   0.957   5.918   4.286
 2754SOL    HW1 9161   0.920   5.964   4.367
 2754SOL    HW2 9162   0.963   5.820   4.304
 2755SOL     OW 9163   3.447   5.928   2.393
 2755SOL    HW1 9164   3.520   5.898   2.331
 2755SOL    HW2 9165   3.358   5.900   2.355
 2756SOL     OW 9166   0.218   3.134   5.237
 2756SOL    HW1 9167   0.187   3.223   5.204
 2756SOL    HW2 9168   0.209   3.066   5.164
 2757SOL     OW 9169   4.363   3.379   6.610
 2757SOL    HW1 9170   4.266   3.369   6.627
 2757SOL    HW2 9171   4.406   3.427   6.686
 2758SOL     OW 9172   6.928   6.765   1.962
 2758SOL    HW1 9173   7.013   6.714   1.956
 2758SOL    HW2 9174   6.851   6.702   1.964
 2759SOL     OW 9175   3.571   3.466   5.437
 2759SOL    HW1 9176   3.576   3.523   5.355
 2759SOL    HW2 9177   3.650   3.486   5.496
 2760SOL     OW 9178   5.821   6.200   2.684
 2760SOL    HW1 9179   5.763   6.278   2.705
 2760SOL    HW2 9180   5.889   6.189   2.757
 2761SOL     OW 9181   1.543   3.227   3.171
 2761SOL    HW1 9182   1.638   3.251   3.154
 2761SOL    HW2 9183   1.531   3.203   3.267
 2762SOL     OW 9184   3.145   2.200   0.495
 2762SOL    HW1 9185   3.182   2.254   0.420
 2762SOL    HW2 9186   3.218   2.178   0.560
 2763SOL     OW 9187   6.479   1.411   4.219
 2763SOL    HW1 9188   6.461   1.474   4.295
 2763SOL    HW2 9189   6.469   1.460   4.133
 2764SOL     OW 9190   0.293   3.196   2.935
 2764SOL    HW1 9191   0.363   3.261   2.905
 2764SOL    HW2 9192   0.202   3.235   2.918
 2765SOL     OW 9193   5.574   6.520   6.292
 2765SOL    HW1 9194   5.607   6.541   6.384
 2765SOL    HW2 9195   5.647   6.477   6.239
 2766SOL     OW 9196   4.565   6.657   0.083
 2766SOL    HW1 9197   4.480   6.620   0.119
 2766SOL    HW2 9198   4.583   6.746   0.123
 2767SOL     OW 9199   0.519   5.479   6.293
 2767SOL    HW1 9200   0.443   5.451   6.352
 2767SOL    HW2 9201   0.499   5.451   6.199
 2768SOL     OW 9202   4.098   0.018   1.622
 2768SOL    HW1 9203   4.175   6.975   1.639
 2768SOL    HW2 9204   4.020   7.010   1.679
 2769SOL     OW 9205   0.633   5.004   5.517
 2769SOL    HW1 9206   0.534   5.015   5.530
 2769SOL    HW2 9207   0.673   5.091   5.491
 2770SOL     OW 9208   2.388   6.228   0.572
 2770SOL    HW1 9209   2.322   6.195   0.639
 2770SOL    HW2 9210   2.471   6.172   0.578
 2771SOL     OW 9211   4.375   0.594   5.099
 2771SOL    HW1 9212   4.370   0.572   5.196
 2771SOL    HW2 9213   4.296   0.553   5.052
 2772SOL     OW 9214   4.568   0.848   3.410
 2772SOL    HW1 9215   4.641   0.800   3.458
 2772SOL    HW2 9216   4.481   0.831   3.457
 2773SOL     OW 9217   6.005   2.025   4.608
 2773SOL    HW1 9218   5.992   2.101   4.672
 2773SOL    HW2 9219   5.953   2.042   4.525
 2774SOL     OW 9220   5.894   1.644   4.187
 2774SOL    HW1 9221   5.853   1.555   4.164
 2774SOL    HW2 9222   5.978   1.656   4.134
 2775SOL     OW 9223   6.822   3.105   4.046
 2775SOL    HW1 9224   6.900   3.159   4.079
 2775SOL    HW2 9225   6.749   3.110   4.114
 2776SOL     OW 9226   4.980   4.797   6.225
 2776SOL    HW1 9227   5.031   4.716   6.252
 2776SOL    HW2 9228   4.882   4.777   6.227
 2777SOL     OW 9229   2.428   2.204   6.628
 2777SOL    HW1 9230   2.519   2.242   6.644
 2777SOL    HW2 9231   2.384   2.251   6.552
 2778SOL     OW 9232   2.478   0.840   6.515
 2778SOL    HW1 9233   2.491   0.741   6.518
 2778SOL    HW2 9234   2.453   0.868   6.422
 2779SOL     OW 9235   5.155   1.117   1.393
 2779SOL    HW1 9236   5.069   1.097   1.345
 2779SOL    HW2 9237   5.171   1.047   1.463
 2780SOL     OW 9238   6.931   1.362   4.952
 2780SOL    HW1 9239   6.958   1.454   4.924
 2780SOL    HW2 9240   6.834   1.362   4.977
 2781SOL     OW 9241   5.611   0.653   3.484
 2781SOL    HW1 9242   5.659   0.657   3.572
 2781SOL    HW2 9243   5.529   0.711   3.488
 2782SOL     OW 9244   5.670   0.618   6.072
 2782SOL    HW1 9245   5.758   0.643   6.112
 2782SOL    HW2 9246   5.611   0.698   6.068
 2783SOL     OW 9247   5.892   3.813   1.654
 2783SOL    HW1 9248   5.887   3.911   1.672
 2783SOL    HW2 9249   5.945   3.768   1.726
 2784SOL     OW 9250   0.733   2.900   1.063
 2784SOL    HW1 9251   0.672   2.821   1.067
 2784SOL    HW2 9252   0.822   2.873   1.026
 2785SOL     OW 9253   6.346   3.127   2.268
 2785SOL    HW1 9254   6.395   3.201   2.223
 2785SOL    HW2 9255   6.320   3.057   2.201
 2786SOL     OW 9256   0.939   6.482   6.603
 2786SOL    HW1 9257   0.950   6.452   6.509
 2786SOL    HW2 9258   0.871   6.555   6.607
 2787SOL     OW 9259   0.477   5.915   6.792
 2787SOL    HW1 9260   0.429   5.838   6.835
 2787SOL    HW2 9261   0.478   5.992   6.855
 2788SOL     OW 9262   2.575   0.139   6.326
 2788SOL    HW1 9263   2.527   0.160   6.411
 2788SOL    HW2 9264   2.669   0.113   6.347
 2789SOL     OW 9265   1.145   2.366   4.804
 2789SOL    HW1 9266   1.244   2.365   4.815
 2789SOL    HW2 9267   1.120   2.436   4.737
 2790SOL     OW 9268   0.876   5.326   1.489
 2790SOL    HW1 9269   0.886   5.290   1.581
 2790SOL    HW2 9270   0.921   5.415   1.482
 2791SOL     OW 9271   0.977   3.117   4.018
 2791SOL    HW1 9272   1.012   3.081   3.932
 2791SOL    HW2 9273   1.049   3.171   4.063
 2792SOL     OW 9274   3.713   1.962   6.063
 2792SOL    HW1 9275   3.750   1.934   6.151
 2792SOL    HW2 9276   3.677   1.881   6.016
 2793SOL     OW 9277   3.868   3.974   0.340
 2793SOL    HW1 9278   3.960   4.006   0.365
 2793SOL    HW2 9279   3.838   3.906   0.407
 2794SOL     OW 9280   1.696   2.459   0.190
 2794SOL    HW1 9281   1.675   2.548   0.230
 2794SOL    HW2 9282   1.781   2.425   0.229
 2795SOL     OW 9283   1.836   6.155   0.821
 2795SOL    HW1 9284   1.843   6.254   0.814
 2795SOL    HW2 9285   1.740   6.128   0.826
 2796SOL     OW 9286   2.060   6.031   6.736
 2796SOL    HW1 9287   2.062   6.111   6.675
 2796SOL    HW2 9288   2.102   6.054   6.823
 2797SOL     OW 9289   5.265   4.723   3.058
 2797SOL    HW1 9290   5.258   4.623   3.057
 2797SOL    HW2 9291   5.361   4.750   3.055
 2798SOL     OW 9292   5.678   0.864   1.893
 2798SOL    HW1 9293   5.691   0.937   1.827
 2798SOL    HW2 9294   5.689   0.900   1.986
 2799SOL     OW 9295   3.421   6.705   4.593
 2799SOL    HW1 9296   3.517   6.720   4.614
 2799SOL    HW2 9297   3.412   6.633   4.525
 2800SOL     OW 9298   5.081   0.518   6.584
 2800SOL    HW1 9299   5.077   0.430   6.538
 2800SOL    HW2 9300   5.027   0.515   6.668
 2801SOL     OW 9301   0.282   4.477   4.198
 2801SOL    HW1 9302   0.293   4.378   4.201
 2801SOL    HW2 9303   0.362   4.521   4.238
 2802SOL     OW 9304   1.670   5.107   4.915
 2802SOL    HW1 9305   1.699   5.030   4.972
 2802SOL    HW2 9306   1.750   5.162   4.889
 2803SOL     OW 9307   3.613   2.467   6.283
 2803SOL    HW1 9308   3.702   2.423   6.292
 2803SOL    HW2 9309   3.558   2.448   6.365
 2804SOL     OW 9310   7.004   2.665   3.515
 2804SOL    HW1 9311   0.084   2.680   3.504
 2804SOL    HW2 9312   6.956   2.753   3.509
 2805SOL     OW 9313   3.320   4.256   0.928
 2805SOL    HW1 9314   3.239   4.312   0.911
 2805SOL    HW2 9315   3.379   4.258   0.847
 2806SOL     OW 9316   0.352   2.911   5.566
 2806SOL    HW1 9317   0.369   3.005   5.539
 2806SOL    HW2 9318   0.428   2.877   5.620
 2807SOL     OW 9319   4.295   1.403   3.932
 2807SOL    HW1 9320   4.336   1.330   3.987
 2807SOL    HW2 9321   4.300   1.379   3.835
 2808SOL     OW 9322   0.999   5.457   5.562
 2808SOL    HW1 9323   1.018   5.359   5.558
 2808SOL    HW2 9324   1.085   5.507   5.571
 2809SOL     OW 9325   0.116   5.811   1.984
 2809SOL    HW1 9326   0.118   5.719   1.945
 2809SOL    HW2 9327   0.047   5.866   1.937
 2810SOL     OW 9328   1.692   6.979   2.903
 2810SOL    HW1 9329   1.682   6.910   2.831
 2810SOL    HW2 9330   1.716   6.935   2.989
 2811SOL     OW 9331   1.274   1.315   0.873
 2811SOL    HW1 9332   1.311   1.318   0.966
 2811SOL    HW2 9333   1.307   1.233   0.827
 2812SOL     OW 9334   1.254   2.083   0.502
 2812SOL    HW1 9335   1.292   2.123   0.419
 2812SOL    HW2 9336   1.327   2.043   0.556
 2813SOL     OW 9337   0.753   3.373   1.773
 2813SOL    HW1 9338   0.801   3.412   1.852
 2813SOL    HW2 9339   0.811   3.382   1.692
 2814SOL     OW 9340   2.778   3.943   6.765
 2814SOL    HW1 9341   2.875   3.967   6.773
 2814SOL    HW2 9342   2.724   4.026   6.750
 2815SOL     OW 9343   6.717   5.545   4.603
 2815SOL    HW1 9344   6.766   5.533   4.517
 2815SOL    HW2 9345   6.691   5.456   4.641
 2816SOL     OW 9346   0.769   5.929   4.789
 2816SOL    HW1 9347   0.826   5.847   4.803
 2816SOL    HW2 9348   0.673   5.902   4.781
 2817SOL     OW 9349   3.352   0.818   2.330
 2817SOL    HW1 9350   3.317   0.838   2.238
 2817SOL    HW2 9351   3.390   0.902   2.370
 2818SOL     OW 9352   1.948   0.608   0.258
 2818SOL    HW1 9353   1.945   0.708   0.251
 2818SOL    HW2 9354   2.007   0.582   0.334
 2819SOL     OW 9355   0.825   0.323   6.770
 2819SOL    HW1 9356   0.817   0.400   6.706
 2819SOL    HW2 9357   0.760   0.337   6.845
 2820SOL     OW 9358   1.592   1.820   0.190
 2820SOL    HW1 9359   1.534   1.848   0.114
 2820SOL    HW2 9360   1.572   1.878   0.270
 2821SOL     OW 9361   3.209   3.227   6.229
 2821SOL    HW1 9362   3.249   3.149   6.277
 2821SOL    HW2 9363   3.238   3.225   6.133
 2822SOL     OW 9364   4.966   2.420   0.541
 2822SOL    HW1 9365   4.934   2.346   0.483
 2822SOL    HW2 9366   5.011   2.490   0.485
 2823SOL     OW 9367   4.809   3.620   1.783
 2823SOL    HW1 9368   4.732   3.566   1.749
 2823SOL    HW2 9369   4.893   3.567   1.774
 2824SOL     OW 9370   1.324   4.586   4.781
 2824SOL    HW1 9371   1.342   4.497   4.739
 2824SOL    HW2 9372   1.280   4.572   4.870
 2825SOL     OW 9373   5.126   1.294   6.144
 2825SOL    HW1 9374   5.141   1.226   6.073
 2825SOL    HW2 9375   5.212   1.341   6.164
 2826SOL     OW 9376   2.577   2.878   6.663
 2826SOL    HW1 9377   2.482   2.886   6.692
 2826SOL    HW2 9378   2.580   2.835   6.572
 2827SOL     OW 9379   5.615   2.060   0.037
 2827SOL    HW1 9380   5.558   1.997   7.001
 2827SOL    HW2 9381   5.707   2.021   0.047
 2828SOL     OW 9382   1.587   3.576   1.551
 2828SOL    HW1 9383   1.566   3.486   1.513
 2828SOL    HW2 9384   1.657   3.621   1.495
 2829SOL     OW 9385   3.439   3.447   2.106
 2829SOL    HW1 9386   3.476   3.354   2.094
 2829SOL    HW2 9387   3.512   3.514   2.093
 2830SOL     OW 9388   3.053   6.006   4.828
 2830SOL    HW1 9389   3.108   6.012   4.745
 2830SOL    HW2 9390   2.958   5.985   4.803
 2831SOL     OW 9391   6.813   1.691   1.450
 2831SOL    HW1 9392   6.748   1.619   1.474
 2831SOL    HW2 9393   6.764   1.778   1.439
 2832SOL     OW 9394   0.799   4.050   2.794
 2832SOL    HW1 9395   0.881   3.993   2.792
 2832SOL    HW2 9396   0.721   3.996   2.763
 2833SOL     OW 9397   0.552   2.740   2.641
 2833SOL    HW1 9398   0.625   2.694   2.592
 2833SOL    HW2 9399   0.526   2.823   2.592
 2834SOL     OW 9400   3.898   6.775   4.085
 2834SOL    HW1 9401   3.951   6.820   4.157
 2834SOL    HW2 9402   3.821   6.726   4.126
 2835SOL     OW 9403   6.269   0.590   6.931
 2835SOL    HW1 9404   6.305   0.500   6.956
 2835SOL    HW2 9405   6.224   0.632   7.010
 2836SOL     OW 9406   3.215   5.680   3.018
 2836SOL    HW1 9407   3.168   5.609   3.071
 2836SOL    HW2 9408   3.174   5.769   3.038
 2837SOL     OW 9409   5.032   4.495   1.711
 2837SOL    HW1 9410   5.103   4.565   1.714
 2837SOL    HW2 9411   5.071   4.409   1.677
 2838SOL     OW 9412   6.771   4.004   6.155
 2838SOL    HW1 9413   6.744   4.060   6.234
 2838SOL    HW2 9414   6.825   4.060   6.093
 2839SOL     OW 9415   5.877   3.366   5.274
 2839SOL    HW1 9416   5.952   3.430   5.254
 2839SOL    HW2 9417   5.825   3.401   5.352
 2840SOL     OW 9418   6.202   6.427   4.115
 2840SOL    HW1 9419   6.151   6.443   4.199
 2840SOL    HW2 9420   6.299   6.412   4.138
 2841SOL     OW 9421   5.634   4.023   2.450
 2841SOL    HW1 9422   5.627   4.108   2.502
 2841SOL    HW2 9423   5.685   3.955   2.503
 2842SOL     OW 9424   0.824   6.721   3.678
 2842SOL    HW1 9425   0.832   6.820   3.665
 2842SOL    HW2 9426   0.906   6.676   3.642
 2843SOL     OW 9427   2.310   2.147   3.161
 2843SOL    HW1 9428   2.284   2.209   3.234
 2843SOL    HW2 9429   2.263   2.173   3.076
 2844SOL     OW 9430   4.839   3.612   0.976
 2844SOL    HW1 9431   4.901   3.655   1.041
 2844SOL    HW2 9432   4.870   3.629   0.882
 2845SOL     OW 9433   2.582   1.710   1.596
 2845SOL    HW1 9434   2.495   1.669   1.568
 2845SOL    HW2 9435   2.602   1.788   1.537
 2846SOL     OW 9436   6.456   0.176   6.519
 2846SOL    HW1 9437   6.510   0.095   6.540
 2846SOL    HW2 9438   6.450   0.188   6.420
 2847SOL     OW 9439   4.711   5.494   1.049
 2847SOL    HW1 9440   4.723   5.507   0.950
 2847SOL    HW2 9441   4.634   5.433   1.066
 2848SOL     OW 9442   0.459   4.140   5.978
 2848SOL    HW1 9443   0.483   4.222   6.031
 2848SOL    HW2 9444   0.512   4.138   5.893
 2849SOL     OW 9445   5.469   0.804   1.626
 2849SOL    HW1 9446   5.475   0.725   1.688
 2849SOL    HW2 9447   5.376   0.811   1.590
 2850SOL     OW 9448   1.173   0.378   1.683
 2850SOL    HW1 9449   1.244   0.316   1.717
 2850SOL    HW2 9450   1.215   0.463   1.652
 2851SOL     OW 9451   2.708   3.209   1.224
 2851SOL    HW1 9452   2.729   3.111   1.219
 2851SOL    HW2 9453   2.788   3.262   1.200
 2852SOL     OW 9454   0.324   5.204   5.932
 2852SOL    HW1 9455   0.287   5.252   5.853
 2852SOL    HW2 9456   0.257   5.138   5.966
 2853SOL     OW 9457   0.186   4.633   5.530
 2853SOL    HW1 9458   0.252   4.680   5.589
 2853SOL    HW2 9459   0.214   4.642   5.435
 2854SOL     OW 9460   3.109   0.757   6.205
 2854SOL    HW1 9461   3.141   0.771   6.298
 2854SOL    HW2 9462   3.046   0.679   6.202
 2855SOL     OW 9463   2.311   1.133   4.273
 2855SOL    HW1 9464   2.284   1.153   4.367
 2855SOL    HW2 9465   2.232   1.098   4.222
 2856SOL     OW 9466   0.245   5.640   3.920
 2856SOL    HW1 9467   0.181   5.700   3.968
 2856SOL    HW2 9468   0.332   5.638   3.970
 2857SOL     OW 9469   6.978   4.709   0.984
 2857SOL    HW1 9470   7.005   4.765   0.906
 2857SOL    HW2 9471   0.025   4.634   0.995
 2858SOL     OW 9472   5.362   4.749   2.337
 2858SOL    HW1 9473   5.291   4.684   2.308
 2858SOL    HW2 9474   5.400   4.719   2.425
 2859SOL     OW 9475   5.502   5.255   1.602
 2859SOL    HW1 9476   5.598   5.266   1.628
 2859SOL    HW2 9477   5.462   5.178   1.653
 2860SOL     OW 9478   1.206   0.208   2.845
 2860SOL    HW1 9479   1.143   0.250   2.779
 2860SOL    HW2 9480   1.156   0.143   2.902
 2861SOL     OW 9481   5.065   4.103   6.236
 2861SOL    HW1 9482   5.138   4.104   6.304
 2861SOL    HW2 9483   5.057   4.193   6.193
 2862SOL     OW 9484   4.662   1.915   0.552
 2862SOL    HW1 9485   4.683   1.996   0.607
 2862SOL    HW2 9486   4.686   1.933   0.456
 2863SOL     OW 9487   5.873   2.138   4.967
 2863SOL    HW1 9488   5.930   2.192   4.905
 2863SOL    HW2 9489   5.885   2.171   5.060
 2864SOL     OW 9490   3.644   4.120   0.586
 2864SOL    HW1 9491   3.682   4.104   0.678
 2864SOL    HW2 9492   3.708   4.177   0.534
 2865SOL     OW 9493   5.625   5.304   5.341
 2865SOL    HW1 9494   5.606   5.236   5.270
 2865SOL    HW2 9495   5.599   5.267   5.430
 2866SOL     OW 9496   3.667   4.651   0.816
 2866SOL    HW1 9497   3.729   4.583   0.856
 2866SOL    HW2 9498   3.582   4.655   0.869
 2867SOL     OW 9499   6.139   6.119   3.409
 2867SOL    HW1 9500   6.164   6.184   3.337
 2867SOL    HW2 9501   6.069   6.159   3.467
 2868SOL     OW 9502   0.271   0.359   5.665
 2868SOL    HW1 9503   0.222   0.305   5.732
 2868SOL    HW2 9504   0.335   0.420   5.711
 2869SOL     OW 9505   6.388   4.629   4.052
 2869SOL    HW1 9506   6.405   4.716   4.005
 2869SOL    HW2 9507   6.310   4.584   4.010
 2870SOL     OW 9508   6.828   1.896   1.738
 2870SOL    HW1 9509   6.815   1.890   1.639
 2870SOL    HW2 9510   6.922   1.923   1.757
 2871SOL     OW 9511   5.177   1.486   3.075
 2871SOL    HW1 9512   5.260   1.534   3.046
 2871SOL    HW2 9513   5.200   1.391   3.097
 2872SOL     OW 9514   2.192   2.266   2.176
 2872SOL    HW1 9515   2.266   2.199   2.171
 2872SOL    HW2 9516   2.168   2.282   2.272
 2873SOL     OW 9517   1.150   0.145   1.456
 2873SOL    HW1 9518   1.080   0.213   1.472
 2873SOL    HW2 9519   1.240   0.188   1.460
 2874SOL     OW 9520   2.086   1.438   3.327
 2874SOL    HW1 9521   2.039   1.515   3.283
 2874SOL    HW2 9522   2.019   1.385   3.379
 2875SOL     OW 9523   2.651   6.998   2.978
 2875SOL    HW1 9524   2.736   6.997   3.031
 2875SOL    HW2 9525   2.673   7.007   2.881
 2876SOL     OW 9526   1.517   6.325   1.132
 2876SOL    HW1 9527   1.448   6.397   1.140
 2876SOL    HW2 9528   1.564   6.314   1.219
 2877SOL     OW 9529   1.602   2.650   6.073
 2877SOL    HW1 9530   1.654   2.675   6.155
 2877SOL    HW2 9531   1.666   2.631   5.998
 2878SOL     OW 9532   4.084   3.274   4.540
 2878SOL    HW1 9533   4.138   3.237   4.464
 2878SOL    HW2 9534   4.125   3.360   4.571
 2879SOL     OW 9535   5.292   4.476   0.081
 2879SOL    HW1 9536   5.339   4.497   7.014
 2879SOL    HW2 9537   5.243   4.556   0.113
 2880SOL     OW 9538   1.947   1.284   3.741
 2880SOL    HW1 9539   1.859   1.257   3.781
 2880SOL    HW2 9540   2.019   1.270   3.809
 2881SOL     OW 9541   5.351   5.161   0.582
 2881SOL    HW1 9542   5.421   5.231   0.597
 2881SOL    HW2 9543   5.367   5.084   0.643
 2882SOL     OW 9544   4.427   6.229   7.005
 2882SOL    HW1 9545   4.490   6.210   0.061
 2882SOL    HW2 9546   4.368   6.307   0.012
 2883SOL     OW 9547   5.886   6.732   3.504
 2883SOL    HW1 9548   5.926   6.644   3.530
 2883SOL    HW2 9549   5.952   6.784   3.450
 2884SOL     OW 9550   5.992   5.709   4.192
 2884SOL    HW1 9551   5.934   5.707   4.110
 2884SOL    HW2 9552   5.937   5.684   4.272
 2885SOL     OW 9553   1.688   2.474   3.860
 2885SOL    HW1 9554   1.721   2.412   3.789
 2885SOL    HW2 9555   1.600   2.440   3.894
 2886SOL     OW 9556   2.284   4.552   5.516
 2886SOL    HW1 9557   2.277   4.604   5.601
 2886SOL    HW2 9558   2.327   4.608   5.445
 2887SOL     OW 9559   6.971   5.748   2.838
 2887SOL    HW1 9560   7.002   5.819   2.775
 2887SOL    HW2 9561   6.940   5.790   2.923
 2888SOL     OW 9562   5.255   0.088   6.464
 2888SOL    HW1 9563   5.280   0.108   6.559
 2888SOL    HW2 9564   5.156   0.088   6.455
 2889SOL     OW 9565   4.475   6.096   4.219
 2889SOL    HW1 9566   4.416   6.116   4.298
 2889SOL    HW2 9567   4.422   6.047   4.150
 2890SOL     OW 9568   1.227   2.214   0.889
 2890SOL    HW1 9569   1.229   2.126   0.842
 2890SOL    HW2 9570   1.211   2.199   0.987
 2891SOL     OW 9571   0.430   1.972   5.298
 2891SOL    HW1 9572   0.480   1.954   5.383
 2891SOL    HW2 9573   0.392   1.886   5.263
 2892SOL     OW 9574   5.286   4.086   1.744
 2892SOL    HW1 9575   5.315   4.055   1.835
 2892SOL    HW2 9576   5.284   4.008   1.682
 2893SOL     OW 9577   6.786   5.793   5.424
 2893SOL    HW1 9578   6.863   5.778   5.487
 2893SOL    HW2 9579   6.811   5.761   5.332
 2894SOL     OW 9580   2.078   5.687   1.724
 2894SOL    HW1 9581   2.177   5.680   1.722
 2894SOL    HW2 9582   2.042   5.678   1.632
 2895SOL     OW 9583   3.922   6.603   5.811
 2895SOL    HW1 9584   3.989   6.560   5.872
 2895SOL    HW2 9585   3.940   6.701   5.806
 2896SOL     OW 9586   5.519   0.480   4.840
 2896SOL    HW1 9587   5.470   0.437   4.916
 2896SOL    HW2 9588   5.581   0.414   4.798
 2897SOL     OW 9589   3.632   4.901   3.196
 2897SOL    HW1 9590   3.550   4.882   3.249
 2897SOL    HW2 9591   3.635   4.998   3.171
 2898SOL     OW 9592   4.827   2.425   2.393
 2898SOL    HW1 9593   4.767   2.352   2.361
 2898SOL    HW2 9594   4.901   2.438   2.328
 2899SOL     OW 9595   0.034   3.468   0.770
 2899SOL    HW1 9596   6.983   3.531   0.805
 2899SOL    HW2 9597   0.054   3.490   0.674
 2900SOL     OW 9598   2.473   2.977   5.652
 2900SOL    HW1 9599   2.469   3.035   5.570
 2900SOL    HW2 9600   2.436   2.886   5.630
 2901SOL     OW 9601   1.037   4.165   2.988
 2901SOL    HW1 9602   1.023   4.116   3.074
 2901SOL    HW2 9603   0.976   4.128   2.918
 2902SOL     OW 9604   6.098   5.409   3.603
 2902SOL    HW1 9605   6.087   5.493   3.657
 2902SOL    HW2 9606   6.045   5.417   3.519
 2903SOL     OW 9607   5.937   4.689   0.534
 2903SOL    HW1 9608   5.864   4.710   0.599
 2903SOL    HW2 9609   6.011   4.755   0.545
 2904SOL     OW 9610   2.060   4.624   5.252
 2904SOL    HW1 9611   2.133   4.686   5.281
 2904SOL    HW2 9612   2.055   4.621   5.152
 2905SOL     OW 9613   1.971   5.562   1.110
 2905SOL    HW1 9614   2.020   5.641   1.147
 2905SOL    HW2 9615   2.037   5.491   1.085
 2906SOL     OW 9616   6.250   6.170   4.979
 2906SOL    HW1 9617   6.176   6.112   4.946
 2906SOL    HW2 9618   6.275   6.143   5.072
 2907SOL     OW 9619   0.833   0.515   5.116
 2907SOL    HW1 9620   0.762   0.497   5.048
 2907SOL    HW2 9621   0.862   0.611   5.109
 2908SOL     OW 9622   4.513   6.782   3.071
 2908SOL    HW1 9623   4.482   6.742   2.985
 2908SOL    HW2 9624   4.517   6.882   3.061
 2909SOL     OW 9625   6.849   6.555   1.568
 2909SOL    HW1 9626   6.754   6.560   1.536
 2909SOL    HW2 9627   6.900   6.491   1.510
 2910SOL     OW 9628   0.717   0.684   4.446
 2910SOL    HW1 9629   0.784   0.633   4.392
 2910SOL    HW2 9630   0.640   0.710   4.387
 2911SOL     OW 9631   7.000   4.493   5.824
 2911SOL    HW1 9632   6.974   4.404   5.786
 2911SOL    HW2 9633   0.037   4.480   5.906
 2912SOL     OW 9634   1.079   1.247   1.430
 2912SOL    HW1 9635   1.152   1.298   1.475
 2912SOL    HW2 9636   0.992   1.293   1.446
 2913SOL     OW 9637   2.388   6.685   2.789
 2913SOL    HW1 9638   2.478   6.642   2.778
 2913SOL    HW2 9639   2.321   6.616   2.815
 2914SOL     OW 9640   3.719   5.420   0.908
 2914SOL    HW1 9641   3.645   5.381   0.962
 2914SOL    HW2 9642   3.788   5.459   0.969
 2915SOL     OW 9643   2.949   0.220   3.546
 2915SOL    HW1 9644   3.013   0.201   3.472
 2915SOL    HW2 9645   2.952   0.318   3.568
 2916SOL     OW 9646   1.665   5.547   0.044
 2916SOL    HW1 9647   1.616   5.631   0.021
 2916SOL    HW2 9648   1.713   5.514   6.981
 2917SOL     OW 9649   2.638   6.610   2.777
 2917SOL    HW1 9650   2.681   6.573   2.694
 2917SOL    HW2 9651   2.708   6.633   2.844
 2918SOL     OW 9652   5.252   2.925   1.813
 2918SOL    HW1 9653   5.339   2.975   1.809
 2918SOL    HW2 9654   5.192   2.968   1.880
 2919SOL     OW 9655   0.229   5.826   4.957
 2919SOL    HW1 9656   0.313   5.874   4.934
 2919SOL    HW2 9657   0.186   5.792   4.874
 2920SOL     OW 9658   2.469   2.076   1.830
 2920SOL    HW1 9659   2.565   2.078   1.859
 2920SOL    HW2 9660   2.462   2.039   1.738
 2921SOL     OW 9661   1.370   5.921   3.296
 2921SOL    HW1 9662   1.326   6.011   3.292
 2921SOL    HW2 9663   1.461   5.928   3.254
 2922SOL     OW 9664   4.166   5.188   4.355
 2922SOL    HW1 9665   4.245   5.136   4.323
 2922SOL    HW2 9666   4.198   5.273   4.397
 2923SOL     OW 9667   0.088   5.493   4.983
 2923SOL    HW1 9668   0.048   5.410   4.944
 2923SOL    HW2 9669   0.072   5.569   4.920
 2924SOL     OW 9670   5.801   2.040   6.501
 2924SOL    HW1 9671   5.818   2.088   6.415
 2924SOL    HW2 9672   5.713   2.068   6.538
 2925SOL     OW 9673   5.891   6.827   4.803
 2925SOL    HW1 9674   5.878   6.747   4.861
 2925SOL    HW2 9675   5.802   6.867   4.781
 2926SOL     OW 9676   6.799   2.276   3.898
 2926SOL    HW1 9677   6.712   2.231   3.919
 2926SOL    HW2 9678   6.798   2.370   3.933
 2927SOL     OW 9679   0.919   2.048   1.955
 2927SOL    HW1 9680   0.841   2.101   1.989
 2927SOL    HW2 9681   0.903   2.023   1.860
 2928SOL     OW 9682   6.192   3.184   0.378
 2928SOL    HW1 9683   6.210   3.247   0.453
 2928SOL    HW2 9684   6.232   3.220   0.294
 2929SOL     OW 9685   1.678   1.969   4.275
 2929SOL    HW1 9686   1.631   1.996   4.359
 2929SOL    HW2 9687   1.615   1.975   4.198
 2930SOL     OW 9688   0.076   3.706   4.068
 2930SOL    HW1 9689   0.029   3.699   4.156
 2930SOL    HW2 9690   0.057   3.624   4.014
 2931SOL     OW 9691   5.329   4.315   5.550
 2931SOL    HW1 9692   5.294   4.320   5.457
 2931SOL    HW2 9693   5.423   4.349   5.553
 2932SOL     OW 9694   5.898   4.981   1.546
 2932SOL    HW1 9695   5.884   5.069   1.590
 2932SOL    HW2 9696   5.896   4.908   1.615
 2933SOL     OW 9697   0.915   6.771   0.066
 2933SOL    HW1 9698   0.829   6.727   0.092
 2933SOL    HW2 9699   0.949   6.731   6.999
 2934SOL     OW 9700   4.339   5.288   1.361
 2934SOL    HW1 9701   4.371   5.203   1.402
 2934SOL    HW2 9702   4.268   5.328   1.417
 2935SOL     OW 9703   0.760   2.760   5.793
 2935SOL    HW1 9704   0.799   2.808   5.715
 2935SOL    HW2 9705   0.830   2.701   5.834
 2936SOL     OW 9706   4.710   6.560   2.083
 2936SOL    HW1 9707   4.655   6.603   2.012
 2936SOL    HW2 9708   4.777   6.625   2.118
 2937SOL     OW 9709   5.579   3.807   2.886
 2937SOL    HW1 9710   5.679   3.808   2.885
 2937SOL    HW2 9711   5.545   3.890   2.842
 2938SOL     OW 9712   0.644   6.151   6.259
 2938SOL    HW1 9713   0.629   6.120   6.353
 2938SOL    HW2 9714   0.741   6.146   6.237
 2939SOL     OW 9715   0.106   5.969   1.339
 2939SOL    HW1 9716   0.165   5.992   1.416
 2939SOL    HW2 9717   0.162   5.939   1.262
 2940SOL     OW 9718   4.766   6.543   3.631
 2940SOL    HW1 9719   4.818   6.572   3.711
 2940SOL    HW2 9720   4.702   6.615   3.604
 2941SOL     OW 9721   2.236   4.676   2.862
 2941SOL    HW1 9722   2.292   4.617   2.804
 2941SOL    HW2 9723   2.291   4.754   2.893
 2942SOL     OW 9724   3.212   1.622   1.809
 2942SOL    HW1 9725   3.140   1.579   1.755
 2942SOL    HW2 9726   3.184   1.625   1.905
 2943SOL     OW 9727   5.831   3.716   2.940
 2943SOL    HW1 9728   5.902   3.735   2.873
 2943SOL    HW2 9729   5.841   3.622   2.973
 2944SOL     OW 9730   1.907   6.126   2.497
 2944SOL    HW1 9731   1.835   6.068   2.536
 2944SOL    HW2 9732   1.877   6.161   2.408
 2945SOL     OW 9733   5.184   3.902   1.323
 2945SOL    HW1 9734   5.126   3.983   1.317
 2945SOL    HW2 9735   5.140   3.835   1.383
 2946SOL     OW 9736   3.591   3.239   4.302
 2946SOL    HW1 9737   3.642   3.296   4.366
 2946SOL    HW2 9738   3.502   3.281   4.285
 2947SOL     OW 9739   6.425   5.759   0.986
 2947SOL    HW1 9740   6.496   5.761   1.056
 2947SOL    HW2 9741   6.412   5.665   0.954
 2948SOL     OW 9742   6.916   3.721   1.975
 2948SOL    HW1 9743   7.005   3.693   2.012
 2948SOL    HW2 9744   6.888   3.807   2.017
 2949SOL     OW 9745   2.042   6.219   0.505
 2949SOL    HW1 9746   2.085   6.231   0.595
 2949SOL    HW2 9747   2.109   6.178   0.442
 2950SOL     OW 9748   6.133   5.965   2.589
 2950SOL    HW1 9749   6.080   6.038   2.633
 2950SOL    HW2 9750   6.189   5.918   2.658
 2951SOL     OW 9751   0.661   1.544   1.550
 2951SOL    HW1 9752   0.641   1.614   1.481
 2951SOL    HW2 9753   0.576   1.515   1.593
 2952SOL     OW 9754   6.957   1.555   5.539
 2952SOL    HW1 9755   6.857   1.547   5.541
 2952SOL    HW2 9756   6.988   1.601   5.623
 2953SOL     OW 9757   1.596   4.976   3.231
 2953SOL    HW1 9758   1.681   4.923   3.225
 2953SOL    HW2 9759   1.562   4.994   3.139
 2954SOL     OW 9760   0.595   3.957   6.153
 2954SOL    HW1 9761   0.588   4.008   6.239
 2954SOL    HW2 9762   0.541   4.003   6.082
 2955SOL     OW 9763   1.554   4.470   6.583
 2955SOL    HW1 9764   1.492   4.472   6.505
 2955SOL    HW2 9765   1.629   4.406   6.564
 2956SOL     OW 9766   5.481   4.595   4.758
 2956SOL    HW1 9767   5.521   4.650   4.684
 2956SOL    HW2 9768   5.387   4.570   4.734
 2957SOL     OW 9769   2.320   5.519   1.427
 2957SOL    HW1 9770   2.403   5.559   1.465
 2957SOL    HW2 9771   2.276   5.462   1.496
 2958SOL     OW 9772   1.858   3.754   2.630
 2958SOL    HW1 9773   1.948   3.716   2.609
 2958SOL    HW2 9774   1.846   3.757   2.729
 2959SOL     OW 9775   6.892   3.479   3.644
 2959SOL    HW1 9776   6.908   3.380   3.641
 2959SOL    HW2 9777   6.977   3.527   3.620
 2960SOL     OW 9778   4.828   0.211   1.361
 2960SOL    HW1 9779   4.837   0.310   1.362
 2960SOL    HW2 9780   4.814   0.179   1.267
 2961SOL     OW 9781   5.626   2.928   1.788
 2961SOL    HW1 9782   5.613   2.845   1.734
 2961SOL    HW2 9783   5.724   2.942   1.805
 2962SOL     OW 9784   6.842   0.143   3.627
 2962SOL    HW1 9785   6.930   0.117   3.667
 2962SOL    HW2 9786   6.769   0.097   3.677
 2963SOL     OW 9787   1.602   0.875   5.063
 2963SOL    HW1 9788   1.550   0.801   5.107
 2963SOL    HW2 9789   1.670   0.909   5.127
 2964SOL     OW 9790   1.585   0.769   6.314
 2964SOL    HW1 9791   1.666   0.826   6.306
 2964SOL    HW2 9792   1.507   0.814   6.271
 2965SOL     OW 9793   6.428   0.480   6.260
 2965SOL    HW1 9794   6.504   0.418   6.241
 2965SOL    HW2 9795   6.399   0.469   6.355
 2966SOL     OW 9796   3.085   5.648   1.991
 2966SOL    HW1 9797   3.137   5.639   1.906
 2966SOL    HW2 9798   3.090   5.562   2.042
 2967SOL     OW 9799   5.739   6.795   5.216
 2967SOL    HW1 9800   5.697   6.864   5.157
 2967SOL    HW2 9801   5.822   6.833   5.258
 2968SOL     OW 9802   0.896   4.032   0.898
 2968SOL    HW1 9803   0.953   3.972   0.955
 2968SOL    HW2 9804   0.811   4.053   0.946
 2969SOL     OW 9805   4.600   2.731   5.072
 2969SOL    HW1 9806   4.680   2.764   5.123
 2969SOL    HW2 9807   4.614   2.747   4.975
 2970SOL     OW 9808   2.526   2.253   5.172
 2970SOL    HW1 9809   2.462   2.307   5.226
 2970SOL    HW2 9810   2.619   2.282   5.191
 2971SOL     OW 9811   5.023   2.865   6.786
 2971SOL    HW1 9812   5.044   2.958   6.817
 2971SOL    HW2 9813   4.956   2.869   6.712
 2972SOL     OW 9814   6.734   5.384   6.180
 2972SOL    HW1 9815   6.774   5.458   6.126
 2972SOL    HW2 9816   6.656   5.345   6.130
 2973SOL     OW 9817   5.438   1.273   4.425
 2973SOL    HW1 9818   5.354   1.286   4.476
 2973SOL    HW2 9819   5.476   1.362   4.399
 2974SOL     OW 9820   4.817   6.933   2.197
 2974SOL    HW1 9821   4.797   0.003   2.154
 2974SOL    HW2 9822   4.733   6.897   2.239
 2975SOL     OW 9823   5.841   3.988   5.168
 2975SOL    HW1 9824   5.825   3.898   5.209
 2975SOL    HW2 9825   5.824   3.982   5.069
 2976SOL     OW 9826   3.549   1.159   1.696
 2976SOL    HW1 9827   3.603   1.243   1.702
 2976SOL    HW2 9828   3.585   1.101   1.622
 2977SOL     OW 9829   0.881   0.803   1.656
 2977SOL    HW1 9830   0.872   0.801   1.756
 2977SOL    HW2 9831   0.904   0.712   1.623
 2978SOL     OW 9832   4.082   5.217   6.590
 2978SOL    HW1 9833   4.061   5.127   6.627
 2978SOL    HW2 9834   4.054   5.221   6.494
 2979SOL     OW 9835   3.360   0.875   4.872
 2979SOL    HW1 9836   3.302   0.931   4.932
 2979SOL    HW2 9837   3.302   0.821   4.811
 2980SOL     OW 9838   2.923   3.372   4.331
 2980SOL    HW1 9839   2.859   3.344   4.259
 2980SOL    HW2 9840   2.992   3.301   4.343
 2981SOL     OW 9841   2.345   1.204   1.525
 2981SOL    HW1 9842   2.300   1.260   1.595
 2981SOL    HW2 9843   2.402   1.135   1.570
 2982SOL     OW 9844   1.643   0.809   1.242
 2982SOL    HW1 9845   1.589   0.879   1.290
 2982SOL    HW2 9846   1.601   0.792   1.153
 2983SOL     OW 9847   6.327   3.320   5.253
 2983SOL    HW1 9848   6.386   3.249   5.216
 2983SOL    HW2 9849   6.324   3.398   5.191
 2984SOL     OW 9850   0.494   6.030   1.452
 2984SOL    HW1 9851   0.586   6.068   1.461
 2984SOL    HW2 9852   0.487   5.981   1.365
 2985SOL     OW 9853   5.805   0.565   6.940
 2985SOL    HW1 9854   5.832   0.470   6.954
 2985SOL    HW2 9855   5.740   0.570   6.864
 2986SOL     OW 9856   3.588   3.219   2.086
 2986SOL    HW1 9857   3.605   3.175   1.997
 2986SOL    HW2 9858   3.669   3.271   2.113
 2987SOL     OW 9859   2.593   5.879   4.458
 2987SOL    HW1 9860   2.641   5.804   4.504
 2987SOL    HW2 9861   2.602   5.869   4.359
 2988SOL     OW 9862   6.550   1.755   6.033
 2988SOL    HW1 9863   6.497   1.837   6.010
 2988SOL    HW2 9864   6.643   1.782   6.059
 2989SOL     OW 9865   5.668   3.352   4.494
 2989SOL    HW1 9866   5.612   3.345   4.577
 2989SOL    HW2 9867   5.614   3.392   4.421
 2990SOL     OW 9868   5.355   2.200   4.712
 2990SOL    HW1 9869   5.350   2.266   4.637
 2990SOL    HW2 9870   5.434   2.140   4.698
 2991SOL     OW 9871   0.483   3.152   0.476
 2991SOL    HW1 9872   0.499   3.148   0.575
 2991SOL    HW2 9873   0.549   3.094   0.429
 2992SOL     OW 9874   0.691   4.022   4.605
 2992SOL    HW1 9875   0.790   4.010   4.618
 2992SOL    HW2 9876   0.643   3.953   4.659
 2993SOL     OW 9877   2.793   4.578   1.091
 2993SOL    HW1 9878   2.700   4.561   1.059
 2993SOL    HW2 9879   2.820   4.672   1.070
 2994SOL     OW 9880   3.381   5.365   4.974
 2994SOL    HW1 9881   3.354   5.451   5.017
 2994SOL    HW2 9882   3.316   5.341   4.902
 2995SOL     OW 9883   4.412   0.458   1.829
 2995SOL    HW1 9884   4.472   0.448   1.908
 2995SOL    HW2 9885   4.373   0.550   1.827
 2996SOL     OW 9886   6.457   1.068   3.998
 2996SOL    HW1 9887   6.525   0.996   3.987
 2996SOL    HW2 9888   6.478   1.143   3.936
 2997SOL     OW 9889   4.716   6.191   4.209
 2997SOL    HW1 9890   4.630   6.142   4.227
 2997SOL    HW2 9891   4.697   6.273   4.155
 2998SOL     OW 9892   2.465   0.997   1.656
 2998SOL    HW1 9893   2.449   1.053   1.737
 2998SOL    HW2 9894   2.537   0.930   1.675
 2999SOL     OW 9895   1.950   4.289   0.585
 2999SOL    HW1 9896   1.869   4.332   0.626
 2999SOL    HW2 9897   1.931   4.191   0.570
 3000SOL     OW 9898   2.293   4.205   5.292
 3000SOL    HW1 9899   2.280   4.268   5.215
 3000SOL    HW2 9900   2.352   4.130   5.264
 3001SOL     OW 9901   4.749   0.434   6.352
 3001SOL    HW1 9902   4.684   0.406   6.424
 3001SOL    HW2 9903   4.811   0.358   6.333
 3002SOL     OW 9904   1.680   1.865   1.942
 3002SOL    HW1 9905   1.602   1.817   1.982
 3002SOL    HW2 9906   1.755   1.801   1.927
 3003SOL     OW 9907   1.406   6.728   0.849
 3003SOL    HW1 9908   1.482   6.703   0.908
 3003SOL    HW2 9909   1.370   6.646   0.804
 3004SOL     OW 9910   2.795   6.885   3.582
 3004SOL    HW1 9911   2.843   6.969   3.607
 3004SOL    HW2 9912   2.807   6.868   3.484
 3005SOL     OW 9913   2.380   1.982   0.660
 3005SOL    HW1 9914   2.296   1.929   0.667
 3005SOL    HW2 9915   2.364   2.076   0.690
 3006SOL     OW 9916   5.126   1.376   5.792
 3006SOL    HW1 9917   5.120   1.316   5.873
 3006SOL    HW2 9918   5.214   1.422   5.792
 3007SOL     OW 9919   6.447   5.747   6.370
 3007SOL    HW1 9920   6.474   5.729   6.464
 3007SOL    HW2 9921   6.415   5.841   6.362
 3008SOL     OW 9922   4.682   4.018   5.516
 3008SOL    HW1 9923   4.773   4.013   5.559
 3008SOL    HW2 9924   4.660   3.930   5.474
 3009SOL     OW 9925   6.198   3.009   2.596
 3009SOL    HW1 9926   6.148   3.090   2.625
 3009SOL    HW2 9927   6.245   3.028   2.510
 3010SOL     OW 9928   4.442   5.438   1.983
 3010SOL    HW1 9929   4.433   5.521   1.928
 3010SOL    HW2 9930   4.367   5.435   2.050
 3011SOL     OW 9931   6.409   0.272   0.241
 3011SOL    HW1 9932   6.424   0.298   0.145
 3011SOL    HW2 9933   6.322   0.223   0.249
 3012SOL     OW 9934   1.992   1.329   5.050
 3012SOL    HW1 9935   1.946   1.344   4.962
 3012SOL    HW2 9936   1.945   1.381   5.121
 3013SOL     OW 9937   0.705   4.448   5.336
 3013SOL    HW1 9938   0.778   4.385   5.362
 3013SOL    HW2 9939   0.726   4.540   5.368
 3014SOL     OW 9940   4.966   0.216   6.535
 3014SOL    HW1 9941   4.990   0.120   6.521
 3014SOL    HW2 9942   4.942   0.230   6.631
 3015SOL     OW 9943   1.908   0.594   6.038
 3015SOL    HW1 9944   1.911   0.573   6.136
 3015SOL    HW2 9945   1.989   0.555   5.993
 3016SOL     OW 9946   2.077   6.901   4.282
 3016SOL    HW1 9947   2.094   6.892   4.380
 3016SOL    HW2 9948   2.163   6.904   4.233
 3017SOL     OW 9949   1.325   5.581   0.321
 3017SOL    HW1 9950   1.415   5.610   0.291
 3017SOL    HW2 9951   1.287   5.516   0.256
 3018SOL     OW 9952   3.460   1.564   1.701
 3018SOL    HW1 9953   3.365   1.591   1.717
 3018SOL    HW2 9954   3.484   1.584   1.606
 3019SOL     OW 9955   1.915   0.069   6.249
 3019SOL    HW1 9956   1.961   0.057   6.161
 3019SOL    HW2 9957   1.816   0.071   6.235
 3020SOL     OW 9958   6.119   4.952   0.042
 3020SOL    HW1 9959   6.187   4.953   6.988
 3020SOL    HW2 9960   6.030   4.926   0.004
 3021SOL     OW 9961   4.508   0.636   4.474
 3021SOL    HW1 9962   4.547   0.673   4.389
 3021SOL    HW2 9963   4.535   0.695   4.551
 3022SOL     OW 9964   4.537   6.067   3.588
 3022SOL    HW1 9965   4.448   6.092   3.552
 3022SOL    HW2 9966   4.576   6.144   3.638
 3023SOL     OW 9967   5.858   4.804   5.234
 3023SOL    HW1 9968   5.811   4.800   5.321
 3023SOL    HW2 9969   5.811   4.746   5.167
 3024SOL     OW 9970   0.121   0.765   0.316
 3024SOL    HW1 9971   0.053   0.837   0.329
 3024SOL    HW2 9972   0.212   0.804   0.320
 3025SOL     OW 9973   4.472   5.589   0.044
 3025SOL    HW1 9974   4.567   5.563   0.023
 3025SOL    HW2 9975   4.471   5.683   0.077
 3026SOL     OW 9976   0.281   0.726   1.967
 3026SOL    HW1 9977   0.232   0.641   1.983
 3026SOL    HW2 9978   0.259   0.792   2.039
 3027SOL     OW 9979   4.053   0.031   0.620
 3027SOL    HW1 9980   3.996   0.106   0.655
 3027SOL    HW2 9981   4.029   0.012   0.525
 3028SOL     OW 9982   3.127   3.767   4.929
 3028SOL    HW1 9983   3.208   3.721   4.892
 3028SOL    HW2 9984   3.065   3.699   4.969
 3029SOL     OW 9985   6.640   3.474   4.916
 3029SOL    HW1 9986   6.727   3.429   4.894
 3029SOL    HW2 9987   6.657   3.569   4.942
 3030SOL     OW 9988   2.082   2.530   6.603
 3030SOL    HW1 9989   2.038   2.557   6.689
 3030SOL    HW2 9990   2.158   2.592   6.584
 3031SOL     OW 9991   1.042   5.376   0.702
 3031SOL    HW1 9992   1.126   5.387   0.648
 3031SOL    HW2 9993   1.021   5.463   0.747
 3032SOL     OW 9994   2.349   6.871   3.589
 3032SOL    HW1 9995   2.395   6.926   3.520
 3032SOL    HW2 9996   2.288   6.806   3.544
 3033SOL     OW 9997   1.551   1.918   6.189
 3033SOL    HW1 9998   1.626   1.877   6.138
 3033SOL    HW2 9999   1.520   2.001   6.143
 3034SOL     OW10000   5.455   3.153   2.940
 3034SOL    HW110001   5.512   3.191   2.866
 3034SOL    HW210002   5.446   3.054   2.926
 3035SOL     OW10003   0.032   3.460   0.031
 3035SOL    HW110004   0.117   3.506   0.057
 3035SOL    HW210005   6.973   3.521   0.047
 3036SOL     OW10006   3.067   2.305   5.642
 3036SOL    HW110007   3.121   2.228   5.608
 3036SOL    HW210008   3.126   2.364   5.698
 3037SOL     OW10009   0.966   5.256   6.460
 3037SOL    HW110010   0.872   5.256   6.493
 3037SOL    HW210011   0.971   5.309   6.375
 3038SOL     OW10012   5.790   5.092   6.283
 3038SOL    HW110013   5.790   5.191   6.277
 3038SOL    HW210014   5.752   5.053   6.199
 3039SOL     OW10015   6.202   3.793   5.869
 3039SOL    HW110016   6.182   3.822   5.775
 3039SOL    HW210017   6.152   3.709   5.888
 3040SOL     OW10018   4.934   5.742   6.033
 3040SOL    HW110019   4.868   5.747   5.959
 3040SOL    HW210020   5.010   5.804   6.013
 3041SOL     OW10021   0.983   4.504   5.642
 3041SOL    HW110022   1.048   4.506   5.566
 3041SOL    HW210023   0.964   4.598   5.671
 3042SOL     OW10024   0.040   5.210   3.725
 3042SOL    HW110025   0.048   5.309   3.734
 3042SOL    HW210026   6.969   5.187   3.687
 3043SOL     OW10027   2.619   5.294   1.533
 3043SOL    HW110028   2.633   5.195   1.525
 3043SOL    HW210029   2.657   5.339   1.452
 3044SOL     OW10030   3.821   3.507   4.733
 3044SOL    HW110031   3.899   3.470   4.682
 3044SOL    HW210032   3.807   3.603   4.708
 3045SOL     OW10033   5.412   1.786   2.166
 3045SOL    HW110034   5.362   1.745   2.089
 3045SOL    HW210035   5.488   1.726   2.191
 3046SOL     OW10036   5.906   6.608   1.555
 3046SOL    HW110037   5.889   6.693   1.605
 3046SOL    HW210038   5.819   6.570   1.522
 3047SOL     OW10039   6.331   1.198   4.211
 3047SOL    HW110040   6.392   1.143   4.153
 3047SOL    HW210041   6.366   1.292   4.215
 3048SOL     OW10042   4.382   4.896   1.759
 3048SOL    HW110043   4.463   4.902   1.701
 3048SOL    HW210044   4.408   4.858   1.848
 3049SOL     OW10045   0.779   2.013   2.387
 3049SOL    HW110046   0.734   2.078   2.325
 3049SOL    HW210047   0.852   2.059   2.437
 3050SOL     OW10048   3.397   2.278   6.463
 3050SOL    HW110049   3.475   2.223   6.493
 3050SOL    HW210050   3.362   2.244   6.376
 3051SOL     OW10051   2.589   5.589   5.101
 3051SOL    HW110052   2.622   5.670   5.150
 3051SOL    HW210053   2.654   5.565   5.029
 3052SOL     OW10054   7.014   6.672   3.315
 3052SOL    HW110055   6.964   6.730   3.380
 3052SOL    HW210056   0.092   6.699   3.315
 3053SOL     OW10057   0.812   3.859   6.889
 3053SOL    HW110058   0.755   3.941   6.886
 3053SOL    HW210059   0.827   3.825   6.796
 3054SOL     OW10060   5.547   0.565   2.856
 3054SOL    HW110061   5.628   0.588   2.909
 3054SOL    HW210062   5.484   0.643   2.856
 3055SOL     OW10063   5.947   6.542   0.228
 3055SOL    HW110064   6.013   6.478   0.268
 3055SOL    HW210065   5.956   6.540   0.129
 3056SOL     OW10066   4.008   1.515   6.481
 3056SOL    HW110067   3.917   1.482   6.502
 3056SOL    HW210068   4.032   1.492   6.386
 3057SOL     OW10069   5.143   3.804   3.190
 3057SOL    HW110070   5.220   3.843   3.139
 3057SOL    HW210071   5.144   3.705   3.183
 3058SOL     OW10072   0.492   5.392   6.053
 3058SOL    HW110073   0.496   5.300   6.014
 3058SOL    HW210074   0.503   5.459   5.979
 3059SOL     OW10075   1.348   1.826   2.207
 3059SOL    HW110076   1.266   1.864   2.165
 3059SOL    HW210077   1.419   1.897   2.211
 3060SOL     OW10078   5.605   4.027   3.412
 3060SOL    HW110079   5.631   4.074   3.496
 3060SOL    HW210080   5.526   4.073   3.372
 3061SOL     OW10081   5.855   6.907   3.737
 3061SOL    HW110082   5.763   6.932   3.767
 3061SOL    HW210083   5.849   6.851   3.654
 3062SOL     OW10084   3.741   5.258   1.254
 3062SOL    HW110085   3.643   5.276   1.248
 3062SOL    HW210086   3.756   5.170   1.299
 3063SOL     OW10087   6.342   4.891   1.907
 3063SOL    HW110088   6.401   4.821   1.946
 3063SOL    HW210089   6.284   4.930   1.978
 3064SOL     OW10090   5.048   2.171   6.861
 3064SOL    HW110091   5.000   2.257   6.879
 3064SOL    HW210092   5.042   2.149   6.763
 3065SOL     OW10093   5.447   1.179   6.403
 3065SOL    HW110094   5.523   1.172   6.338
 3065SOL    HW210095   5.438   1.274   6.433
 3066SOL     OW10096   5.376   0.050   5.560
 3066SOL    HW110097   5.279   0.070   5.552
 3066SOL    HW210098   5.389   6.976   5.596
 3067SOL     OW10099   1.318   2.318   5.190
 3067SOL    HW110100   1.254   2.241   5.187
 3067SOL    HW210101   1.286   2.385   5.256
 3068SOL     OW10102   6.564   0.417   0.422
 3068SOL    HW110103   6.644   0.358   0.413
 3068SOL    HW210104   6.487   0.374   0.375
 3069SOL     OW10105   4.998   6.754   4.130
 3069SOL    HW110106   5.065   6.728   4.200
 3069SOL    HW210107   4.909   6.766   4.173
 3070SOL     OW10108   2.179   0.885   1.248
 3070SOL    HW110109   2.138   0.953   1.309
 3070SOL    HW210110   2.265   0.921   1.211
 3071SOL     OW10111   5.786   4.823   5.485
 3071SOL    HW110112   5.732   4.800   5.566
 3071SOL    HW210113   5.807   4.920   5.486
 3072SOL     OW10114   2.192   6.583   6.459
 3072SOL    HW110115   2.095   6.580   6.437
 3072SOL    HW210116   2.226   6.490   6.473
 3073SOL     OW10117   0.317   5.372   1.991
 3073SOL    HW110118   0.411   5.402   1.975
 3073SOL    HW210119   0.313   5.272   1.984
 3074SOL     OW10120   3.204   2.889   1.600
 3074SOL    HW110121   3.201   2.800   1.555
 3074SOL    HW210122   3.298   2.925   1.597
 3075SOL     OW10123   4.040   5.063   1.444
 3075SOL    HW110124   3.946   5.036   1.464
 3075SOL    HW210125   4.040   5.156   1.407
 3076SOL     OW10126   1.011   0.858   4.611
 3076SOL    HW110127   1.049   0.787   4.670
 3076SOL    HW210128   1.060   0.944   4.626
 3077SOL     OW10129   6.841   3.667   1.728
 3077SOL    HW110130   6.869   3.679   1.824
 3077SOL    HW210131   6.751   3.708   1.715
 3078SOL     OW10132   0.310   3.711   1.920
 3078SOL    HW110133   0.398   3.671   1.946
 3078SOL    HW210134   0.238   3.674   1.979
 3079SOL     OW10135   2.142   3.828   4.627
 3079SOL    HW110136   2.140   3.797   4.532
 3079SOL    HW210137   2.164   3.751   4.687
 3080SOL     OW10138   4.375   4.995   1.444
 3080SOL    HW110139   4.391   4.899   1.466
 3080SOL    HW210140   4.398   5.012   1.348
 3081SOL     OW10141   1.989   3.655   6.385
 3081SOL    HW110142   1.995   3.662   6.485
 3081SOL    HW210143   1.937   3.733   6.349
 3082SOL     OW10144   5.283   4.706   5.318
 3082SOL    HW110145   5.382   4.697   5.312
 3082SOL    HW210146   5.246   4.636   5.379
 3083SOL     OW10147   3.520   5.473   1.650
 3083SOL    HW110148   3.567   5.527   1.581
 3083SOL    HW210149   3.444   5.423   1.607
 3084SOL     OW10150   6.876   4.839   3.713
 3084SOL    HW110151   6.972   4.849   3.689
 3084SOL    HW210152   6.840   4.928   3.743
 3085SOL     OW10153   6.077   5.626   0.337
 3085SOL    HW110154   6.099   5.708   0.389
 3085SOL    HW210155   6.011   5.570   0.388
 3086SOL     OW10156   6.517   6.169   6.269
 3086SOL    HW110157   6.544   6.249   6.322
 3086SOL    HW210158   6.472   6.103   6.328
 3087SOL     OW10159   3.607   0.411   2.335
 3087SOL    HW110160   3.534   0.456   2.284
 3087SOL    HW210161   3.627   0.463   2.418
 3088SOL     OW10162   2.261   3.814   5.587
 3088SOL    HW110163   2.233   3.835   5.493
 3088SOL    HW210164   2.359   3.829   5.597
 3089SOL     OW10165   4.420   4.918   5.632
 3089SOL    HW110166   4.511   4.920   5.592
 3089SOL    HW210167   4.418   4.977   5.713
 3090SOL     OW10168   0.740   2.676   2.440
 3090SOL    HW110169   0.835   2.675   2.474
 3090SOL    HW210170   0.734   2.734   2.359
 3091SOL     OW10171   0.893   2.605   0.978
 3091SOL    HW110172   0.822   2.559   1.032
 3091SOL    HW210173   0.884   2.579   0.882
 3092SOL     OW10174   6.280   1.319   2.158
 3092SOL    HW110175   6.335   1.255   2.104
 3092SOL    HW210176   6.230   1.267   2.228
 3093SOL     OW10177   6.773   5.555   6.762
 3093SOL    HW110178   6.798   5.650   6.747
 3093SOL    HW210179   6.850   5.507   6.804
 3094SOL     OW10180   2.397   1.631   6.512
 3094SOL    HW110181   2.412   1.678   6.599
 3094SOL    HW210182   2.458   1.669   6.443
 3095SOL     OW10183   1.553   4.142   5.205
 3095SOL    HW110184   1.628   4.077   5.211
 3095SOL    HW210185   1.488   4.111   5.136
 3096SOL     OW10186   1.364   3.079   3.989
 3096SOL    HW110187   1.282   3.118   4.032
 3096SOL    HW210188   1.445   3.130   4.018
 3097SOL     OW10189   5.504   2.823   5.209
 3097SOL    HW110190   5.502   2.724   5.215
 3097SOL    HW210191   5.430   2.862   5.264
 3098SOL     OW10192   1.932   3.163   3.003
 3098SOL    HW110193   1.877   3.117   3.072
 3098SOL    HW210194   1.895   3.144   2.912
 3099SOL     OW10195   0.584   0.188   4.818
 3099SOL    HW110196   0.600   0.239   4.733
 3099SOL    HW210197   0.622   0.096   4.809
 3100SOL     OW10198   5.520   4.766   1.650
 3100SOL    HW110199   5.598   4.779   1.589
 3100SOL    HW210200   5.442   4.730   1.599
 3101SOL     OW10201   4.817   0.312   5.174
 3101SOL    HW110202   4.759   0.371   5.231
 3101SOL    HW210203   4.852   0.236   5.229
 3102SOL     OW10204   6.189   4.614   2.284
 3102SOL    HW110205   6.147   4.696   2.323
 3102SOL    HW210206   6.276   4.637   2.242
 3103SOL     OW10207   2.142   2.050   1.511
 3103SOL    HW110208   2.073   1.985   1.544
 3103SOL    HW210209   2.100   2.112   1.445
 3104SOL     OW10210   5.759   2.777   5.054
 3104SOL    HW110211   5.784   2.818   5.142
 3104SOL    HW210212   5.714   2.689   5.070
 3105SOL     OW10213   5.689   3.768   0.425
 3105SOL    HW110214   5.673   3.683   0.374
 3105SOL    HW210215   5.779   3.764   0.468
 3106SOL     OW10216   5.091   1.728   5.354
 3106SOL    HW110217   5.014   1.684   5.401
 3106SOL    HW210218   5.177   1.691   5.389
 3107SOL     OW10219   3.208   2.087   5.551
 3107SOL    HW110220   3.305   2.074   5.534
 3107SOL    HW210221   3.160   2.102   5.465
 3108SOL     OW10222   2.294   4.284   3.186
 3108SOL    HW110223   2.262   4.196   3.153
 3108SOL    HW210224   2.286   4.287   3.286
 3109SOL     OW10225   6.943   6.755   3.856
 3109SOL    HW110226   6.877   6.817   3.898
 3109SOL    HW210227   6.997   6.804   3.788
 3110SOL     OW10228   0.945   5.668   3.125
 3110SOL    HW110229   0.890   5.608   3.068
 3110SOL    HW210230   0.935   5.762   3.093
 3111SOL     OW10231   6.126   4.145   4.188
 3111SOL    HW110232   6.163   4.215   4.127
 3111SOL    HW210233   6.195   4.122   4.257
 3112SOL     OW10234   3.715   1.166   6.724
 3112SOL    HW110235   3.643   1.104   6.756
 3112SOL    HW210236   3.804   1.122   6.733
 3113SOL     OW10237   1.313   6.511   3.110
 3113SOL    HW110238   1.327   6.546   3.202
 3113SOL    HW210239   1.360   6.569   3.044
 3114SOL     OW10240   4.780   0.484   5.773
 3114SOL    HW110241   4.816   0.391   5.766
 3114SOL    HW210242   4.827   0.532   5.847
 3115SOL     OW10243   5.052   5.441   5.264
 3115SOL    HW110244   5.062   5.524   5.209
 3115SOL    HW210245   5.124   5.437   5.332
 3116SOL     OW10246   0.753   1.178   6.619
 3116SOL    HW110247   0.831   1.145   6.672
 3116SOL    HW210248   0.684   1.215   6.681
 3117SOL     OW10249   4.462   0.314   0.663
 3117SOL    HW110250   4.400   0.245   0.626
 3117SOL    HW210251   4.504   0.366   0.589
 3118SOL     OW10252   1.671   1.163   3.439
 3118SOL    HW110253   1.637   1.154   3.533
 3118SOL    HW210254   1.769   1.180   3.441
 3119SOL     OW10255   4.815   5.767   4.788
 3119SOL    HW110256   4.801   5.822   4.705
 3119SOL    HW210257   4.860   5.823   4.857
 3120SOL     OW10258   2.100   5.239   6.434
 3120SOL    HW110259   2.124   5.185   6.353
 3120SOL    HW210260   2.183   5.257   6.487
 3121SOL     OW10261   3.811   2.160   4.479
 3121SOL    HW110262   3.818   2.201   4.388
 3121SOL    HW210263   3.881   2.198   4.539
 3122SOL     OW10264   5.433   4.920   5.869
 3122SOL    HW110265   5.503   4.923   5.940
 3122SOL    HW210266   5.370   4.844   5.887
 3123SOL     OW10267   1.477   1.353   2.796
 3123SOL    HW110268   1.509   1.447   2.808
 3123SOL    HW210269   1.552   1.290   2.813
 3124SOL     OW10270   4.806   0.052   4.742
 3124SOL    HW110271   4.899   0.018   4.730
 3124SOL    HW210272   4.807   0.130   4.805
 3125SOL     OW10273   1.969   1.348   5.630
 3125SOL    HW110274   2.012   1.333   5.720
 3125SOL    HW210275   1.878   1.388   5.643
 3126SOL     OW10276   4.993   4.494   5.865
 3126SOL    HW110277   5.073   4.460   5.816
 3126SOL    HW210278   4.969   4.585   5.830
 3127SOL     OW10279   0.424   1.253   5.288
 3127SOL    HW110280   0.371   1.202   5.221
 3127SOL    HW210281   0.491   1.311   5.241
 3128SOL     OW10282   3.415   0.659   0.593
 3128SOL    HW110283   3.419   0.634   0.497
 3128SOL    HW210284   3.487   0.726   0.613
 3129SOL     OW10285   4.276   3.883   0.141
 3129SOL    HW110286   4.290   3.838   0.229
 3129SOL    HW210287   4.182   3.868   0.110
 3130SOL     OW10288   0.065   5.617   2.233
 3130SOL    HW110289   0.079   5.676   2.154
 3130SOL    HW210290   7.007   5.652   2.287
 3131SOL     OW10291   6.382   4.265   3.210
 3131SOL    HW110292   6.424   4.356   3.203
 3131SOL    HW210293   6.447   4.201   3.250
 3132SOL     OW10294   4.881   3.919   0.353
 3132SOL    HW110295   4.906   3.823   0.345
 3132SOL    HW210296   4.788   3.926   0.389
 3133SOL     OW10297   4.768   6.925   4.436
 3133SOL    HW110298   4.698   6.996   4.442
 3133SOL    HW210299   4.856   6.961   4.466
 3134SOL     OW10300   6.319   5.049   2.613
 3134SOL    HW110301   6.359   5.051   2.704
 3134SOL    HW210302   6.392   5.045   2.544
 3135SOL     OW10303   3.790   5.080   7.009
 3135SOL    HW110304   3.835   5.169   7.008
 3135SOL    HW210305   3.719   5.080   0.061
 3136SOL     OW10306   5.921   0.632   3.333
 3136SOL    HW110307   5.850   0.676   3.279
 3136SOL    HW210308   5.913   0.659   3.428
 3137SOL     OW10309   5.184   6.221   0.375
 3137SOL    HW110310   5.097   6.262   0.350
 3137SOL    HW210311   5.183   6.123   0.353
 3138SOL     OW10312   6.575   6.559   4.930
 3138SOL    HW110313   6.622   6.533   4.845
 3138SOL    HW210314   6.499   6.497   4.946
 3139SOL     OW10315   2.182   5.236   1.846
 3139SOL    HW110316   2.223   5.281   1.925
 3139SOL    HW210317   2.118   5.166   1.877
 3140SOL     OW10318   0.159   6.572   0.041
 3140SOL    HW110319   0.246   6.619   0.053
 3140SOL    HW210320   0.136   6.521   0.124
 3141SOL     OW10321   5.560   2.061   6.656
 3141SOL    HW110322   5.571   1.981   6.715
 3141SOL    HW210323   5.463   2.080   6.643
 3142SOL     OW10324   4.772   0.907   3.657
 3142SOL    HW110325   4.803   0.815   3.637
 3142SOL    HW210326   4.682   0.922   3.614
 3143SOL     OW10327   6.740   1.321   0.675
 3143SOL    HW110328   6.835   1.353   0.670
 3143SOL    HW210329   6.679   1.400   0.669
 3144SOL     OW10330   3.540   4.619   0.111
 3144SOL    HW110331   3.584   4.545   0.163
 3144SOL    HW210332   3.454   4.644   0.155
 3145SOL     OW10333   0.517   6.055   0.020
 3145SOL    HW110334   0.601   6.094   0.056
 3145SOL    HW210335   0.477   5.993   0.087
 3146SOL     OW10336   6.528   1.710   4.350
 3146SOL    HW110337   6.593   1.738   4.420
 3146SOL    HW210338   6.471   1.788   4.324
 3147SOL     OW10339   3.890   6.265   0.281
 3147SOL    HW110340   3.967   6.246   0.221
 3147SOL    HW210341   3.804   6.241   0.235
 3148SOL     OW10342   6.823   5.105   1.520
 3148SOL    HW110343   6.858   5.186   1.472
 3148SOL    HW210344   6.899   5.045   1.543
 3149SOL     OW10345   3.390   2.596   0.045
 3149SOL    HW110346   3.361   2.652   6.986
 3149SOL    HW210347   3.322   2.604   0.118
 3150SOL     OW10348   0.039   6.483   5.546
 3150SOL    HW110349   6.996   6.562   5.541
 3150SOL    HW210350   0.050   6.456   5.642
 3151SOL     OW10351   0.048   0.989   5.401
 3151SOL    HW110352   0.025   1.079   5.364
 3151SOL    HW210353   0.063   0.924   5.325
 3152SOL     OW10354   1.626   2.821   5.311
 3152SOL    HW110355   1.592   2.752   5.246
 3152SOL    HW210356   1.548   2.868   5.352
 3153SOL     OW10357   5.706   5.551   1.858
 3153SOL    HW110358   5.800   5.518   1.867
 3153SOL    HW210359   5.691   5.586   1.766
 3154SOL     OW10360   4.065   1.370   0.431
 3154SOL    HW110361   4.035   1.385   0.525
 3154SOL    HW210362   4.118   1.449   0.400
 3155SOL     OW10363   0.928   4.927   0.050
 3155SOL    HW110364   1.007   4.962   7.017
 3155SOL    HW210365   0.844   4.959   0.007
 3156SOL     OW10366   3.907   4.229   1.256
 3156SOL    HW110367   3.982   4.284   1.217
 3156SOL    HW210368   3.934   4.133   1.258
 3157SOL     OW10369   1.132   0.685   4.984
 3157SOL    HW110370   1.214   0.741   4.991
 3157SOL    HW210371   1.115   0.661   4.888
 3158SOL     OW10372   1.905   1.074   5.642
 3158SOL    HW110373   1.896   1.017   5.560
 3158SOL    HW210374   1.904   1.170   5.617
 3159SOL     OW10375   4.972   0.497   0.538
 3159SOL    HW110376   5.023   0.439   0.602
 3159SOL    HW210377   5.025   0.579   0.518
 3160SOL     OW10378   1.903   0.562   5.452
 3160SOL    HW110379   1.905   0.638   5.386
 3160SOL    HW210380   1.901   0.475   5.403
 3161SOL     OW10381   2.074   3.135   2.210
 3161SOL    HW110382   2.045   3.222   2.170
 3161SOL    HW210383   2.084   3.067   2.137
 3162SOL     OW10384   1.125   5.187   1.436
 3162SOL    HW110385   1.038   5.236   1.435
 3162SOL    HW210386   1.160   5.180   1.343
 3163SOL     OW10387   4.519   4.360   0.690
 3163SOL    HW110388   4.566   4.425   0.750
 3163SOL    HW210389   4.554   4.369   0.597
 3164SOL     OW10390   2.633   6.679   3.632
 3164SOL    HW110391   2.704   6.611   3.615
 3164SOL    HW210392   2.671   6.771   3.622
 3165SOL     OW10393   1.333   5.835   6.072
 3165SOL    HW110394   1.243   5.856   6.110
 3165SOL    HW210395   1.331   5.850   5.973
 3166SOL     OW10396   5.041   1.232   5.090
 3166SOL    HW110397   5.134   1.202   5.069
 3166SOL    HW210398   5.042   1.284   5.175
 3167SOL     OW10399   5.581   2.925   1.263
 3167SOL    HW110400   5.504   2.937   1.200
 3167SOL    HW210401   5.584   3.001   1.328
 3168SOL     OW10402   4.512   1.553   0.472
 3168SOL    HW110403   4.603   1.517   0.457
 3168SOL    HW210404   4.504   1.644   0.430
 3169SOL     OW10405   1.783   4.419   1.831
 3169SOL    HW110406   1.754   4.397   1.737
 3169SOL    HW210407   1.871   4.376   1.849
 3170SOL     OW10408   2.058   3.711   3.685
 3170SOL    HW110409   2.128   3.769   3.644
 3170SOL    HW210410   1.969   3.733   3.646
 3171SOL     OW10411   5.206   1.688   3.646
 3171SOL    HW110412   5.254   1.761   3.597
 3171SOL    HW210413   5.147   1.639   3.582
 3172SOL     OW10414   5.436   4.334   1.728
 3172SOL    HW110415   5.407   4.335   1.632
 3172SOL    HW210416   5.380   4.269   1.779
 3173SOL     OW10417   4.894   2.879   0.695
 3173SOL    HW110418   4.946   2.918   0.619
 3173SOL    HW210419   4.913   2.781   0.701
 3174SOL     OW10420   3.201   2.495   5.930
 3174SOL    HW110421   3.225   2.592   5.943
 3174SOL    HW210422   3.103   2.483   5.944
 3175SOL     OW10423   5.449   0.204   5.797
 3175SOL    HW110424   5.448   0.168   5.704
 3175SOL    HW210425   5.441   0.304   5.794
 3176SOL     OW10426   0.425   5.006   3.666
 3176SOL    HW110427   0.383   5.067   3.599
 3176SOL    HW210428   0.384   5.022   3.756
 3177SOL     OW10429   5.585   3.338   3.362
 3177SOL    HW110430   5.497   3.314   3.321
 3177SOL    HW210431   5.618   3.262   3.418
 3178SOL     OW10432   0.235   0.745   2.316
 3178SOL    HW110433   0.137   0.731   2.332
 3178SOL    HW210434   0.271   0.808   2.384
 3179SOL     OW10435   1.321   2.761   2.363
 3179SOL    HW110436   1.330   2.776   2.461
 3179SOL    HW210437   1.228   2.729   2.343
 3180SOL     OW10438   0.070   5.631   0.265
 3180SOL    HW110439   0.029   5.721   0.275
 3180SOL    HW210440   0.140   5.618   0.336
 3181SOL     OW10441   1.340   6.480   5.450
 3181SOL    HW110442   1.285   6.510   5.372
 3181SOL    HW210443   1.348   6.381   5.448
 3182SOL     OW10444   2.143   0.630   1.141
 3182SOL    HW110445   2.181   0.574   1.214
 3182SOL    HW210446   2.170   0.725   1.154
 3183SOL     OW10447   4.042   2.889   1.340
 3183SOL    HW110448   3.943   2.892   1.352
 3183SOL    HW210449   4.080   2.980   1.355
 3184SOL     OW10450   6.383   1.928   4.284
 3184SOL    HW110451   6.418   1.935   4.191
 3184SOL    HW210452   6.283   1.922   4.283
 3185SOL     OW10453   0.574   5.886   6.163
 3185SOL    HW110454   0.617   5.975   6.178
 3185SOL    HW210455   0.489   5.880   6.216
 3186SOL     OW10456   0.341   2.479   6.391
 3186SOL    HW110457   0.358   2.425   6.308
 3186SOL    HW210458   0.383   2.569   6.382
 3187SOL     OW10459   5.096   6.429   3.111
 3187SOL    HW110460   5.044   6.404   3.030
 3187SOL    HW210461   5.049   6.504   3.159
 3188SOL     OW10462   1.881   5.902   6.978
 3188SOL    HW110463   1.865   5.953   6.894
 3188SOL    HW210464   1.812   5.927   0.028
 3189SOL     OW10465   3.461   1.372   5.466
 3189SOL    HW110466   3.537   1.336   5.520
 3189SOL    HW210467   3.399   1.422   5.527
 3190SOL     OW10468   6.003   6.265   4.479
 3190SOL    HW110469   5.920   6.267   4.423
 3190SOL    HW210470   6.057   6.184   4.457
 3191SOL     OW10471   3.441   5.531   1.136
 3191SOL    HW110472   3.536   5.543   1.168
 3191SOL    HW210473   3.439   5.463   1.063
 3192SOL     OW10474   5.642   1.249   2.515
 3192SOL    HW110475   5.730   1.294   2.531
 3192SOL    HW210476   5.649   1.191   2.434
 3193SOL     OW10477   3.333   6.751   4.960
 3193SOL    HW110478   3.375   6.841   4.946
 3193SOL    HW210479   3.382   6.683   4.905
 3194SOL     OW10480   1.815   0.023   6.535
 3194SOL    HW110481   1.757   0.064   6.465
 3194SOL    HW210482   1.901   7.013   6.494
 3195SOL     OW10483   0.973   1.237   1.125
 3195SOL    HW110484   0.968   1.150   1.174
 3195SOL    HW210485   0.904   1.238   1.053
 3196SOL     OW10486   5.312   6.752   3.487
 3196SOL    HW110487   5.248   6.827   3.506
 3196SOL    HW210488   5.403   6.776   3.522
 3197SOL     OW10489   2.458   0.557   6.484
 3197SOL    HW110490   2.382   0.508   6.527
 3197SOL    HW210491   2.545   0.519   6.517
 3198SOL     OW10492   5.643   2.932   3.680
 3198SOL    HW110493   5.615   2.842   3.713
 3198SOL    HW210494   5.652   2.995   3.758
 3199SOL     OW10495   5.291   3.661   2.615
 3199SOL    HW110496   5.339   3.733   2.565
 3199SOL    HW210497   5.337   3.573   2.599
 3200SOL     OW10498   5.194   3.779   3.991
 3200SOL    HW110499   5.273   3.819   4.038
 3200SOL    HW210500   5.191   3.811   3.897
 3201SOL     OW10501   5.949   4.164   2.220
 3201SOL    HW110502   6.023   4.212   2.173
 3201SOL    HW210503   5.986   4.118   2.301
 3202SOL     OW10504   2.438   3.545   6.724
 3202SOL    HW110505   2.463   3.506   6.813
 3202SOL    HW210506   2.472   3.639   6.719
 3203SOL     OW10507   3.220   6.970   1.111
 3203SOL    HW110508   3.227   0.020   1.184
 3203SOL    HW210509   3.296   6.983   1.047
 3204SOL     OW10510   3.751   1.423   4.015
 3204SOL    HW110511   3.701   1.370   4.084
 3204SOL    HW210512   3.688   1.486   3.970
 3205SOL     OW10513   4.717   3.591   6.007
 3205SOL    HW110514   4.641   3.531   6.035
 3205SOL    HW210515   4.691   3.642   5.925
 3206SOL     OW10516   2.735   3.796   1.385
 3206SOL    HW110517   2.828   3.833   1.385
 3206SOL    HW210518   2.698   3.800   1.478
 3207SOL     OW10519   2.231   5.278   4.957
 3207SOL    HW110520   2.324   5.308   4.978
 3207SOL    HW210521   2.234   5.201   4.893
 3208SOL     OW10522   6.637   4.968   6.462
 3208SOL    HW110523   6.693   5.040   6.421
 3208SOL    HW210524   6.696   4.908   6.516
 3209SOL     OW10525   5.135   5.993   6.173
 3209SOL    HW110526   5.078   6.029   6.247
 3209SOL    HW210527   5.085   6.001   6.086
 3210SOL     OW10528   5.461   5.884   1.789
 3210SOL    HW110529   5.524   5.872   1.866
 3210SOL    HW210530   5.376   5.834   1.808
 3211SOL     OW10531   2.172   6.124   6.459
 3211SOL    HW110532   2.173   6.027   6.484
 3211SOL    HW210533   2.095   6.141   6.398
 3212SOL     OW10534   2.264   6.989   3.249
 3212SOL    HW110535   2.313   0.052   3.218
 3212SOL    HW210536   2.226   6.941   3.170
 3213SOL     OW10537   1.325   6.741   5.967
 3213SOL    HW110538   1.396   6.805   5.998
 3213SOL    HW210539   1.247   6.793   5.932
 3214SOL     OW10540   3.385   0.894   2.745
 3214SOL    HW110541   3.378   0.794   2.747
 3214SOL    HW210542   3.353   0.931   2.832
 3215SOL     OW10543   1.815   3.311   1.940
 3215SOL    HW110544   1.772   3.395   1.908
 3215SOL    HW210545   1.887   3.333   2.006
 3216SOL     OW10546   6.121   4.715   1.003
 3216SOL    HW110547   6.065   4.795   0.982
 3216SOL    HW210548   6.159   4.725   1.095
 3217SOL     OW10549   6.946   5.976   2.308
 3217SOL    HW110550   0.021   5.985   2.274
 3217SOL    HW210551   6.882   6.013   2.241
 3218SOL     OW10552   5.256   1.148   2.920
 3218SOL    HW110553   5.326   1.124   2.988
 3218SOL    HW210554   5.174   1.180   2.967
 3219SOL     OW10555   6.664   1.304   4.992
 3219SOL    HW110556   6.651   1.300   5.091
 3219SOL    HW210557   6.629   1.220   4.950
 3220SOL     OW10558   0.194   4.402   5.996
 3220SOL    HW110559   0.215   4.316   5.948
 3220SOL    HW210560   0.168   4.382   6.090
 3221SOL     OW10561   3.076   1.597   2.069
 3221SOL    HW110562   3.081   1.503   2.033
 3221SOL    HW210563   3.026   1.596   2.156
 3222SOL     OW10564   2.964   1.125   3.865
 3222SOL    HW110565   2.903   1.120   3.786
 3222SOL    HW210566   2.915   1.166   3.942
 3223SOL     OW10567   1.595   5.340   0.242
 3223SOL    HW110568   1.593   5.406   0.168
 3223SOL    HW210569   1.502   5.306   0.259
 3224SOL     OW10570   3.828   1.807   3.897
 3224SOL    HW110571   3.887   1.726   3.899
 3224SOL    HW210572   3.802   1.832   3.990
 3225SOL     OW10573   4.229   1.432   4.266
 3225SOL    HW110574   4.226   1.335   4.291
 3225SOL    HW210575   4.268   1.442   4.175
 3226SOL     OW10576   5.730   0.430   0.761
 3226SOL    HW110577   5.661   0.451   0.831
 3226SOL    HW210578   5.712   0.485   0.680
 3227SOL     OW10579   5.575   4.562   5.282
 3227SOL    HW110580   5.629   4.483   5.254
 3227SOL    HW210581   5.564   4.624   5.204
 3228SOL     OW10582   2.412   4.443   0.129
 3228SOL    HW110583   2.392   4.494   0.045
 3228SOL    HW210584   2.502   4.401   0.122
 3229SOL     OW10585   1.810   2.152   0.519
 3229SOL    HW110586   1.734   2.093   0.493
 3229SOL    HW210587   1.775   2.242   0.546
 3230SOL     OW10588   2.975   6.089   5.539
 3230SOL    HW110589   2.916   6.056   5.465
 3230SOL    HW210590   2.982   6.189   5.533
 3231SOL     OW10591   1.979   2.012   2.695
 3231SOL    HW110592   1.975   2.019   2.795
 3231SOL    HW210593   2.037   2.084   2.659
 3232SOL     OW10594   3.460   4.912   4.265
 3232SOL    HW110595   3.382   4.876   4.215
 3232SOL    HW210596   3.440   4.913   4.363
 3233SOL     OW10597   0.977   0.994   0.336
 3233SOL    HW110598   0.884   0.972   0.365
 3233SOL    HW210599   0.975   1.035   0.244
 3234SOL     OW10600   2.985   2.831   0.969
 3234SOL    HW110601   2.975   2.918   1.017
 3234SOL    HW210602   2.959   2.843   0.873
 3235SOL     OW10603   1.209   0.335   3.567
 3235SOL    HW110604   1.279   0.328   3.638
 3235SOL    HW210605   1.253   0.335   3.477
 3236SOL     OW10606   4.460   1.164   0.439
 3236SOL    HW110607   4.551   1.158   0.481
 3236SOL    HW210608   4.463   1.225   0.360
 3237SOL     OW10609   5.854   1.885   5.389
 3237SOL    HW110610   5.826   1.935   5.471
 3237SOL    HW210611   5.900   1.801   5.415
 3238SOL     OW10612   6.484   5.001   1.687
 3238SOL    HW110613   6.558   5.061   1.716
 3238SOL    HW210614   6.438   4.963   1.767
 3239SOL     OW10615   6.666   0.301   4.708
 3239SOL    HW110616   6.638   0.205   4.709
 3239SOL    HW210617   6.750   0.311   4.655
 3240SOL     OW10618   6.994   0.597   0.164
 3240SOL    HW110619   0.011   0.644   0.245
 3240SOL    HW210620   6.899   0.624   0.149
 3241SOL     OW10621   6.329   2.959   5.573
 3241SOL    HW110622   6.278   2.873   5.577
 3241SOL    HW210623   6.419   2.946   5.614
 3242SOL     OW10624   6.156   3.832   4.787
 3242SOL    HW110625   6.077   3.772   4.799
 3242SOL    HW210626   6.157   3.901   4.859
 3243SOL     OW10627   6.097   4.568   4.282
 3243SOL    HW110628   6.106   4.537   4.187
 3243SOL    HW210629   6.014   4.529   4.322
 3244SOL     OW10630   4.799   0.062   0.059
 3244SOL    HW110631   4.894   0.085   0.040
 3244SOL    HW210632   4.762   0.008   7.001
 3245SOL     OW10633   3.816   6.890   5.095
 3245SOL    HW110634   3.878   6.902   5.017
 3245SOL    HW210635   3.790   6.980   5.130
 3246SOL     OW10636   0.092   0.505   2.718
 3246SOL    HW110637   0.115   0.602   2.715
 3246SOL    HW210638   0.169   0.451   2.684
 3247SOL     OW10639   0.680   4.015   3.814
 3247SOL    HW110640   0.664   4.113   3.820
 3247SOL    HW210641   0.700   3.991   3.719
 3248SOL     OW10642   5.391   2.121   3.610
 3248SOL    HW110643   5.332   2.116   3.691
 3248SOL    HW210644   5.410   2.029   3.576
 3249SOL     OW10645   3.206   4.054   3.638
 3249SOL    HW110646   3.165   4.061   3.729
 3249SOL    HW210647   3.302   4.027   3.648
 3250SOL     OW10648   4.749   5.391   2.524
 3250SOL    HW110649   4.651   5.384   2.507
 3250SOL    HW210650   4.799   5.335   2.457
 3251SOL     OW10651   2.559   1.739   3.273
 3251SOL    HW110652   2.477   1.779   3.232
 3251SOL    HW210653   2.626   1.721   3.202
 3252SOL     OW10654   1.985   0.837   2.879
 3252SOL    HW110655   2.074   0.796   2.898
 3252SOL    HW210656   1.955   0.811   2.787
 3253SOL     OW10657   6.524   3.506   0.186
 3253SOL    HW110658   6.481   3.572   0.247
 3253SOL    HW210659   6.463   3.487   0.109
 3254SOL     OW10660   6.117   6.734   0.940
 3254SOL    HW110661   6.074   6.701   1.025
 3254SOL    HW210662   6.194   6.675   0.916
 3255SOL     OW10663   4.904   6.346   1.384
 3255SOL    HW110664   4.987   6.401   1.394
 3255SOL    HW210665   4.923   6.252   1.414
 3256SOL     OW10666   5.064   2.776   1.465
 3256SOL    HW110667   5.030   2.742   1.377
 3256SOL    HW210668   5.072   2.700   1.529
 3257SOL     OW10669   2.785   1.681   3.158
 3257SOL    HW110670   2.804   1.684   3.060
 3257SOL    HW210671   2.820   1.595   3.195
 3258SOL     OW10672   2.362   5.156   4.021
 3258SOL    HW110673   2.285   5.218   4.004
 3258SOL    HW210674   2.433   5.171   3.951
 3259SOL     OW10675   5.015   4.027   4.165
 3259SOL    HW110676   4.932   4.068   4.128
 3259SOL    HW210677   5.086   4.024   4.094
 3260SOL     OW10678   1.398   4.481   3.108
 3260SOL    HW110679   1.358   4.393   3.083
 3260SOL    HW210680   1.422   4.480   3.205
 3261SOL     OW10681   5.483   0.060   4.061
 3261SOL    HW110682   5.450   0.154   4.071
 3261SOL    HW210683   5.414   7.015   4.097
 3262SOL     OW10684   2.644   1.416   3.701
 3262SOL    HW110685   2.544   1.404   3.706
 3262SOL    HW210686   2.665   1.503   3.658
 3263SOL     OW10687   0.093   0.768   2.642
 3263SOL    HW110688   0.032   0.721   2.578
 3263SOL    HW210689   0.039   0.816   2.711
 3264SOL     OW10690   1.733   4.739   6.576
 3264SOL    HW110691   1.780   4.827   6.575
 3264SOL    HW210692   1.660   4.741   6.644
 3265SOL     OW10693   6.458   5.545   6.773
 3265SOL    HW110694   6.557   5.547   6.763
 3265SOL    HW210695   6.429   5.453   6.800
 3266SOL     OW10696   3.431   5.047   6.209
 3266SOL    HW110697   3.416   5.053   6.308
 3266SOL    HW210698   3.349   5.079   6.161
 3267SOL     OW10699   3.330   0.242   0.114
 3267SOL    HW110700   3.387   0.163   0.132
 3267SOL    HW210701   3.334   0.265   0.017
 3268SOL     OW10702   5.936   5.420   1.875
 3268SOL    HW110703   5.920   5.325   1.903
 3268SOL    HW210704   6.004   5.462   1.936
 3269SOL     OW10705   1.606   4.455   1.127
 3269SOL    HW110706   1.592   4.545   1.087
 3269SOL    HW210707   1.688   4.455   1.183
 3270SOL     OW10708   0.782   2.671   5.357
 3270SOL    HW110709   0.835   2.622   5.288
 3270SOL    HW210710   0.686   2.675   5.328
 3271SOL     OW10711   0.918   3.394   1.988
 3271SOL    HW110712   0.983   3.462   2.022
 3271SOL    HW210713   0.964   3.335   1.922
 3272SOL     OW10714   4.191   6.265   0.935
 3272SOL    HW110715   4.117   6.329   0.919
 3272SOL    HW210716   4.154   6.172   0.941
 3273SOL     OW10717   4.214   3.651   6.404
 3273SOL    HW110718   4.139   3.586   6.396
 3273SOL    HW210719   4.222   3.704   6.320
 3274SOL     OW10720   5.595   0.171   1.844
 3274SOL    HW110721   5.665   0.210   1.903
 3274SOL    HW210722   5.531   0.242   1.817
 3275SOL     OW10723   4.855   0.646   1.750
 3275SOL    HW110724   4.848   0.555   1.792
 3275SOL    HW210725   4.765   0.690   1.751
 3276SOL     OW10726   5.047   0.114   0.151
 3276SOL    HW110727   5.073   0.102   0.247
 3276SOL    HW210728   5.081   0.202   0.118
 3277SOL     OW10729   3.194   2.105   2.362
 3277SOL    HW110730   3.291   2.084   2.352
 3277SOL    HW210731   3.178   2.147   2.451
 3278SOL     OW10732   6.040   0.868   6.607
 3278SOL    HW110733   6.095   0.936   6.557
 3278SOL    HW210734   5.981   0.820   6.542
 3279SOL     OW10735   3.287   0.314   1.686
 3279SOL    HW110736   3.231   0.387   1.647
 3279SOL    HW210737   3.270   0.307   1.784
 3280SOL     OW10738   6.089   3.609   4.265
 3280SOL    HW110739   6.062   3.672   4.338
 3280SOL    HW210740   6.123   3.524   4.306
 3281SOL     OW10741   5.574   3.511   1.764
 3281SOL    HW110742   5.491   3.510   1.709
 3281SOL    HW210743   5.594   3.419   1.797
 3282SOL     OW10744   0.143   5.214   4.638
 3282SOL    HW110745   0.159   5.313   4.639
 3282SOL    HW210746   0.180   5.173   4.721
 3283SOL     OW10747   3.591   1.805   0.600
 3283SOL    HW110748   3.573   1.819   0.698
 3283SOL    HW210749   3.681   1.762   0.589
 3284SOL     OW10750   2.292   6.138   4.198
 3284SOL    HW110751   2.283   6.038   4.192
 3284SOL    HW210752   2.329   6.173   4.112
 3285SOL     OW10753   3.475   1.933   4.864
 3285SOL    HW110754   3.462   2.011   4.924
 3285SOL    HW210755   3.519   1.963   4.779
 3286SOL     OW10756   1.774   2.155   2.307
 3286SOL    HW110757   1.772   2.246   2.264
 3286SOL    HW210758   1.869   2.125   2.316
 3287SOL     OW10759   2.253   0.279   0.622
 3287SOL    HW110760   2.274   0.305   0.717
 3287SOL    HW210761   2.329   0.225   0.586
 3288SOL     OW10762   2.706   6.135   1.868
 3288SOL    HW110763   2.769   6.210   1.848
 3288SOL    HW210764   2.614   6.171   1.882
 3289SOL     OW10765   4.375   0.824   6.294
 3289SOL    HW110766   4.434   0.905   6.291
 3289SOL    HW210767   4.419   0.752   6.347
 3290SOL     OW10768   0.636   6.051   0.370
 3290SOL    HW110769   0.610   6.130   0.426
 3290SOL    HW210770   0.560   5.986   0.367
 3291SOL     OW10771   5.037   0.056   5.006
 3291SOL    HW110772   5.121   0.094   4.968
 3291SOL    HW210773   4.968   0.049   4.935
 3292SOL     OW10774   6.878   2.385   0.579
 3292SOL    HW110775   6.832   2.472   0.598
 3292SOL    HW210776   6.816   2.309   0.601
 3293SOL     OW10777   5.859   5.734   3.875
 3293SOL    HW110778   5.915   5.816   3.877
 3293SOL    HW210779   5.770   5.753   3.918
 3294SOL     OW10780   5.244   2.716   5.465
 3294SOL    HW110781   5.216   2.767   5.546
 3294SOL    HW210782   5.210   2.762   5.383
 3295SOL     OW10783   0.576   2.369   2.581
 3295SOL    HW110784   0.577   2.425   2.498
 3295SOL    HW210785   0.668   2.332   2.597
 3296SOL     OW10786   1.755   0.739   5.872
 3296SOL    HW110787   1.819   0.697   5.935
 3296SOL    HW210788   1.723   0.671   5.806
 3297SOL     OW10789   3.352   1.248   4.910
 3297SOL    HW110790   3.381   1.250   5.006
 3297SOL    HW210791   3.264   1.200   4.902
 3298SOL     OW10792   4.977   3.577   6.027
 3298SOL    HW110793   4.878   3.564   6.019
 3298SOL    HW210794   4.997   3.674   6.034
 3299SOL     OW10795   2.470   4.658   3.793
 3299SOL    HW110796   2.455   4.593   3.867
 3299SOL    HW210797   2.463   4.751   3.828
 3300SOL     OW10798   1.920   6.714   4.161
 3300SOL    HW110799   1.986   6.753   4.225
 3300SOL    HW210800   1.935   6.753   4.070
 3301SOL     OW10801   0.791   1.299   3.511
 3301SOL    HW110802   0.722   1.304   3.584
 3301SOL    HW210803   0.880   1.323   3.547
 3302SOL     OW10804   1.297   5.210   5.268
 3302SOL    HW110805   1.339   5.227   5.179
 3302SOL    HW210806   1.348   5.139   5.316
 3303SOL     OW10807   3.392   3.223   0.307
 3303SOL    HW110808   3.327   3.227   0.382
 3303SOL    HW210809   3.454   3.146   0.320
 3304SOL     OW10810   2.781   4.434   6.977
 3304SOL    HW110811   2.787   4.456   0.056
 3304SOL    HW210812   2.860   4.380   6.950
 3305SOL     OW10813   3.467   2.992   0.716
 3305SOL    HW110814   3.471   3.085   0.753
 3305SOL    HW210815   3.410   2.934   0.775
 3306SOL     OW10816   2.237   0.637   6.828
 3306SOL    HW110817   2.164   0.671   6.886
 3306SOL    HW210818   2.298   0.712   6.803
 3307SOL     OW10819   1.078   6.311   4.916
 3307SOL    HW110820   1.022   6.233   4.940
 3307SOL    HW210821   1.056   6.341   4.823
 3308SOL     OW10822   4.113   4.898   1.221
 3308SOL    HW110823   4.043   4.946   1.168
 3308SOL    HW210824   4.110   4.930   1.316
 3309SOL     OW10825   5.787   2.898   3.062
 3309SOL    HW110826   5.797   2.981   3.117
 3309SOL    HW210827   5.725   2.834   3.108
 3310SOL     OW10828   6.251   4.714   6.140
 3310SOL    HW110829   6.336   4.736   6.187
 3310SOL    HW210830   6.267   4.713   6.041
 3311SOL     OW10831   2.907   3.684   0.567
 3311SOL    HW110832   2.849   3.674   0.487
 3311SOL    HW210833   2.851   3.689   0.649
 3312SOL     OW10834   4.335   2.487   5.992
 3312SOL    HW110835   4.293   2.409   6.039
 3312SOL    HW210836   4.405   2.527   6.051
 3313SOL     OW10837   0.102   0.607   3.705
 3313SOL    HW110838   0.026   0.650   3.657
 3313SOL    HW210839   0.163   0.564   3.639
 3314SOL     OW10840   3.200   5.609   2.367
 3314SOL    HW110841   3.145   5.537   2.325
 3314SOL    HW210842   3.289   5.614   2.320
 3315SOL     OW10843   0.335   5.849   4.457
 3315SOL    HW110844   0.403   5.800   4.512
 3315SOL    HW210845   0.382   5.901   4.386
 3316SOL     OW10846   4.738   2.285   6.688
 3316SOL    HW110847   4.676   2.221   6.732
 3316SOL    HW210848   4.821   2.294   6.744
 3317SOL     OW10849   5.028   2.740   2.046
 3317SOL    HW110850   5.121   2.766   2.021
 3317SOL    HW210851   5.027   2.645   2.078
 3318SOL     OW10852   3.347   2.728   0.533
 3318SOL    HW110853   3.311   2.817   0.560
 3318SOL    HW210854   3.439   2.739   0.494
 3319SOL     OW10855   6.573   5.485   3.523
 3319SOL    HW110856   6.508   5.463   3.595
 3319SOL    HW210857   6.586   5.584   3.517
 3320SOL     OW10858   6.504   6.620   1.746
 3320SOL    HW110859   6.445   6.539   1.745
 3320SOL    HW210860   6.551   6.628   1.658
 3321SOL     OW10861   4.661   1.979   0.253
 3321SOL    HW110862   4.658   2.078   0.267
 3321SOL    HW210863   4.628   1.958   0.161
 3322SOL     OW10864   6.174   3.405   0.582
 3322SOL    HW110865   6.076   3.395   0.594
 3322SOL    HW210866   6.208   3.475   0.644
 3323SOL     OW10867   1.304   2.317   1.440
 3323SOL    HW110868   1.281   2.310   1.537
 3323SOL    HW210869   1.334   2.228   1.406
 3324SOL     OW10870   5.296   5.841   5.371
 3324SOL    HW110871   5.344   5.766   5.326
 3324SOL    HW210872   5.335   5.855   5.462
 3325SOL     OW10873   2.206   4.276   5.537
 3325SOL    HW110874   2.221   4.208   5.464
 3325SOL    HW210875   2.217   4.368   5.500
 3326SOL     OW10876   4.167   1.571   2.481
 3326SOL    HW110877   4.163   1.651   2.542
 3326SOL    HW210878   4.111   1.587   2.401
 3327SOL     OW10879   0.654   5.023   6.500
 3327SOL    HW110880   0.727   5.035   6.566
 3327SOL    HW210881   0.656   5.098   6.434
 3328SOL     OW10882   4.720   2.406   5.810
 3328SOL    HW110883   4.761   2.494   5.836
 3328SOL    HW210884   4.678   2.415   5.719
 3329SOL     OW10885   6.687   6.227   5.735
 3329SOL    HW110886   6.659   6.201   5.643
 3329SOL    HW210887   6.767   6.174   5.763
 3330SOL     OW10888   0.189   3.627   2.823
 3330SOL    HW110889   0.163   3.536   2.790
 3330SOL    HW210890   0.108   3.686   2.821
 3331SOL     OW10891   2.042   3.498   0.354
 3331SOL    HW110892   1.948   3.529   0.369
 3331SOL    HW210893   2.098   3.575   0.325
 3332SOL     OW10894   6.197   4.755   1.702
 3332SOL    HW110895   6.205   4.809   1.618
 3332SOL    HW210896   6.224   4.811   1.780
 3333SOL     OW10897   3.884   5.377   6.676
 3333SOL    HW110898   3.962   5.323   6.644
 3333SOL    HW210899   3.889   5.469   6.636
 3334SOL     OW10900   2.294   4.194   1.490
 3334SOL    HW110901   2.240   4.229   1.567
 3334SOL    HW210902   2.346   4.114   1.520
 3335SOL     OW10903   5.844   3.980   4.509
 3335SOL    HW110904   5.762   3.947   4.557
 3335SOL    HW210905   5.900   4.033   4.572
 3336SOL     OW10906   2.523   6.072   5.753
 3336SOL    HW110907   2.591   6.028   5.694
 3336SOL    HW210908   2.570   6.112   5.832
 3337SOL     OW10909   3.927   1.782   0.373
 3337SOL    HW110910   3.898   1.787   0.469
 3337SOL    HW210911   4.023   1.754   0.368
 3338SOL     OW10912   6.808   4.356   0.424
 3338SOL    HW110913   6.723   4.343   0.373
 3338SOL    HW210914   6.818   4.284   0.492
 3339SOL     OW10915   0.609   5.856   5.855
 3339SOL    HW110916   0.560   5.927   5.803
 3339SOL    HW210917   0.587   5.864   5.952
 3340SOL     OW10918   3.733   6.665   1.758
 3340SOL    HW110919   3.745   6.581   1.810
 3340SOL    HW210920   3.646   6.707   1.783
 3341SOL     OW10921   0.776   6.956   2.058
 3341SOL    HW110922   0.809   7.001   2.141
 3341SOL    HW210923   0.753   6.861   2.078
 3342SOL     OW10924   2.538   6.972   4.350
 3342SOL    HW110925   2.518   0.049   4.373
 3342SOL    HW210926   2.625   6.968   4.299
 3343SOL     OW10927   6.253   2.457   1.407
 3343SOL    HW110928   6.323   2.421   1.470
 3343SOL    HW210929   6.178   2.497   1.459
 3344SOL     OW10930   6.728   3.224   5.303
 3344SOL    HW110931   6.786   3.254   5.379
 3344SOL    HW210932   6.685   3.303   5.260
 3345SOL     OW10933   3.178   3.856   6.052
 3345SOL    HW110934   3.261   3.895   6.091
 3345SOL    HW210935   3.109   3.846   6.124
 3346SOL     OW10936   1.667   5.872   2.279
 3346SOL    HW110937   1.666   5.810   2.201
 3346SOL    HW210938   1.745   5.934   2.271
 3347SOL     OW10939   5.563   3.967   4.694
 3347SOL    HW110940   5.562   3.892   4.760
 3347SOL    HW210941   5.525   4.049   4.736
 3348SOL     OW10942   4.049   3.452   3.028
 3348SOL    HW110943   3.954   3.420   3.024
 3348SOL    HW210944   4.054   3.543   2.987
 3349SOL     OW10945   6.276   3.704   5.410
 3349SOL    HW110946   6.301   3.609   5.390
 3349SOL    HW210947   6.355   3.750   5.451
 3350SOL     OW10948   1.671   2.093   1.097
 3350SOL    HW110949   1.585   2.124   1.139
 3350SOL    HW210950   1.747   2.142   1.140
 3351SOL     OW10951   5.483   2.054   1.517
 3351SOL    HW110952   5.574   2.039   1.555
 3351SOL    HW210953   5.450   1.970   1.474
 3352SOL     OW10954   0.621   3.510   0.512
 3352SOL    HW110955   0.720   3.522   0.515
 3352SOL    HW210956   0.599   3.415   0.490
 3353SOL     OW10957   1.922   6.814   6.325
 3353SOL    HW110958   1.982   6.810   6.405
 3353SOL    HW210959   1.934   6.902   6.279
 3354SOL     OW10960   0.982   1.100   2.768
 3354SOL    HW110961   0.912   1.030   2.781
 3354SOL    HW210962   1.050   1.067   2.703
 3355SOL     OW10963   6.722   1.923   2.726
 3355SOL    HW110964   6.634   1.950   2.687
 3355SOL    HW210965   6.793   1.932   2.656
 3356SOL     OW10966   2.289   3.410   6.085
 3356SOL    HW110967   2.203   3.382   6.044
 3356SOL    HW210968   2.273   3.484   6.150
 3357SOL     OW10969   2.118   5.354   2.256
 3357SOL    HW110970   2.183   5.321   2.325
 3357SOL    HW210971   2.150   5.442   2.220
 3358SOL     OW10972   5.870   4.316   2.948
 3358SOL    HW110973   5.914   4.238   2.903
 3358SOL    HW210974   5.916   4.400   2.921
 3359SOL     OW10975   0.966   1.212   1.764
 3359SOL    HW110976   0.961   1.207   1.864
 3359SOL    HW210977   0.984   1.122   1.727
 3360SOL     OW10978   1.410   0.242   6.413
 3360SOL    HW110979   1.402   0.337   6.383
 3360SOL    HW210980   1.502   0.224   6.445
 3361SOL     OW10981   5.034   0.527   2.948
 3361SOL    HW110982   4.947   0.558   2.986
 3361SOL    HW210983   5.057   0.582   2.868
 3362SOL     OW10984   2.008   1.674   5.433
 3362SOL    HW110985   2.104   1.647   5.443
 3362SOL    HW210986   1.963   1.665   5.522
 3363SOL     OW10987   0.243   1.126   6.892
 3363SOL    HW110988   0.216   1.047   6.948
 3363SOL    HW210989   0.296   1.189   6.948
 3364SOL     OW10990   1.863   4.664   5.749
 3364SOL    HW110991   1.945   4.624   5.789
 3364SOL    HW210992   1.871   4.763   5.748
 3365SOL     OW10993   5.924   1.835   5.967
 3365SOL    HW110994   5.895   1.756   6.021
 3365SOL    HW210995   5.890   1.825   5.874
 3366SOL     OW10996   5.293   1.116   5.984
 3366SOL    HW110997   5.367   1.171   5.945
 3366SOL    HW210998   5.273   1.039   5.923
 3367SOL     OW10999   1.132   0.773   2.350
 3367SOL    HW111000   1.104   0.796   2.257
 3367SOL    HW211001   1.094   0.684   2.375
 3368SOL     OW11002   6.456   0.146   5.936
 3368SOL    HW111003   6.375   0.195   5.968
 3368SOL    HW211004   6.430   0.074   5.872
 3369SOL     OW11005   3.406   6.471   5.687
 3369SOL    HW111006   3.496   6.497   5.724
 3369SOL    HW211007   3.385   6.529   5.608
 3370SOL     OW11008   4.898   0.523   5.046
 3370SOL    HW111009   4.877   0.440   5.098
 3370SOL    HW211010   4.841   0.527   4.964
 3371SOL     OW11011   0.180   4.945   1.844
 3371SOL    HW111012   0.227   4.857   1.849
 3371SOL    HW211013   0.145   4.959   1.752
 3372SOL     OW11014   0.446   1.875   2.255
 3372SOL    HW111015   0.502   1.956   2.273
 3372SOL    HW211016   0.349   1.901   2.251
 3373SOL     OW11017   0.568   2.060   5.573
 3373SOL    HW111018   0.574   2.145   5.625
 3373SOL    HW211019   0.619   1.988   5.620
 3374SOL     OW11020   3.429   5.194   5.189
 3374SOL    HW111021   3.417   5.242   5.102
 3374SOL    HW211022   3.375   5.240   5.260
 3375SOL     OW11023   4.272   3.982   5.303
 3375SOL    HW111024   4.367   3.977   5.273
 3375SOL    HW211025   4.239   4.075   5.294
 3376SOL     OW11026   3.070   3.696   2.171
 3376SOL    HW111027   3.066   3.794   2.156
 3376SOL    HW211028   3.009   3.671   2.246
 3377SOL     OW11029   2.675   5.857   5.603
 3377SOL    HW111030   2.726   5.838   5.520
 3377SOL    HW211031   2.670   5.775   5.660
 3378SOL     OW11032   0.782   1.520   1.238
 3378SOL    HW111033   0.870   1.542   1.281
 3378SOL    HW211034   0.713   1.586   1.268
 3379SOL     OW11035   1.172   4.588   6.591
 3379SOL    HW111036   1.200   4.682   6.611
 3379SOL    HW211037   1.168   4.536   6.676
 3380SOL     OW11038   0.702   3.701   5.872
 3380SOL    HW111039   0.613   3.662   5.895
 3380SOL    HW211040   0.751   3.724   5.956
 3381SOL     OW11041   3.468   3.149   1.061
 3381SOL    HW111042   3.538   3.081   1.083
 3381SOL    HW211043   3.507   3.241   1.069
 3382SOL     OW11044   6.485   6.761   0.714
 3382SOL    HW111045   6.454   6.810   0.795
 3382SOL    HW211046   6.578   6.790   0.691
 3383SOL     OW11047   6.652   4.692   3.095
 3383SOL    HW111048   6.698   4.775   3.063
 3383SOL    HW211049   6.698   4.612   3.056
 3384SOL     OW11050   3.261   2.908   4.495
 3384SOL    HW111051   3.245   2.809   4.494
 3384SOL    HW211052   3.354   2.928   4.463
 3385SOL     OW11053   6.128   3.823   3.344
 3385SOL    HW111054   6.177   3.742   3.312
 3385SOL    HW211055   6.121   3.821   3.444
 3386SOL     OW11056   6.149   4.321   4.857
 3386SOL    HW111057   6.217   4.283   4.919
 3386SOL    HW211058   6.162   4.420   4.849
 3387SOL     OW11059   2.783   1.951   3.344
 3387SOL    HW111060   2.752   1.868   3.297
 3387SOL    HW211061   2.751   2.032   3.295
 3388SOL     OW11062   5.261   2.801   2.278
 3388SOL    HW111063   5.267   2.772   2.183
 3388SOL    HW211064   5.220   2.892   2.283
 3389SOL     OW11065   5.829   4.392   3.366
 3389SOL    HW111066   5.814   4.301   3.327
 3389SOL    HW211067   5.773   4.459   3.319
 3390SOL     OW11068   5.108   2.843   5.687
 3390SOL    HW111069   5.033   2.789   5.650
 3390SOL    HW211070   5.073   2.932   5.718
 3391SOL     OW11071   3.585   1.619   3.918
 3391SOL    HW111072   3.489   1.615   3.948
 3391SOL    HW211073   3.619   1.712   3.928
 3392SOL     OW11074   4.680   5.819   3.628
 3392SOL    HW111075   4.696   5.786   3.721
 3392SOL    HW211076   4.634   5.907   3.631
 3393SOL     OW11077   6.065   0.070   6.847
 3393SOL    HW111078   6.058   6.991   6.825
 3393SOL    HW211079   6.141   0.111   6.796
 3394SOL     OW11080   5.745   2.469   1.801
 3394SOL    HW111081   5.675   2.531   1.766
 3394SOL    HW211082   5.835   2.500   1.771
 3395SOL     OW11083   1.475   3.464   4.721
 3395SOL    HW111084   1.557   3.407   4.727
 3395SOL    HW211085   1.500   3.554   4.685
 3396SOL     OW11086   0.402   4.426   3.906
 3396SOL    HW111087   0.408   4.436   4.006
 3396SOL    HW211088   0.388   4.515   3.865
 3397SOL     OW11089   3.649   6.546   5.800
 3397SOL    HW111090   3.748   6.548   5.814
 3397SOL    HW211091   3.615   6.639   5.791
 3398SOL     OW11092   0.128   6.640   4.259
 3398SOL    HW111093   0.151   6.633   4.357
 3398SOL    HW211094   0.211   6.631   4.205
 3399SOL     OW11095   4.508   5.213   4.848
 3399SOL    HW111096   4.500   5.164   4.935
 3399SOL    HW211097   4.429   5.191   4.790
 3400SOL     OW11098   4.811   2.579   6.657
 3400SOL    HW111099   4.884   2.599   6.591
 3400SOL    HW211100   4.817   2.484   6.687
 3401SOL     OW11101   6.185   5.326   0.215
 3401SOL    HW111102   6.228   5.262   0.278
 3401SOL    HW211103   6.086   5.310   0.214
 3402SOL     OW11104   4.792   5.758   1.915
 3402SOL    HW111105   4.795   5.670   1.964
 3402SOL    HW211106   4.700   5.796   1.921
 3403SOL     OW11107   3.032   1.019   5.164
 3403SOL    HW111108   2.934   1.006   5.150
 3403SOL    HW211109   3.048   1.099   5.221
 3404SOL     OW11110   4.349   0.679   0.998
 3404SOL    HW111111   4.288   0.658   1.074
 3404SOL    HW211112   4.378   0.775   1.004
 3405SOL     OW11113   5.934   3.688   0.517
 3405SOL    HW111114   5.987   3.694   0.601
 3405SOL    HW211115   5.985   3.634   0.449
 3406SOL     OW11116   1.431   4.767   1.985
 3406SOL    HW111117   1.476   4.690   1.939
 3406SOL    HW211118   1.352   4.797   1.931
 3407SOL     OW11119   1.710   5.952   2.619
 3407SOL    HW111120   1.623   6.000   2.613
 3407SOL    HW211121   1.699   5.859   2.587
 3408SOL     OW11122   5.052   4.073   3.229
 3408SOL    HW111123   5.083   3.980   3.211
 3408SOL    HW211124   4.964   4.071   3.276
 3409SOL     OW11125   3.131   0.387   5.649
 3409SOL    HW111126   3.062   0.396   5.577
 3409SOL    HW211127   3.094   0.334   5.725
 3410SOL     OW11128   6.840   7.016   6.673
 3410SOL    HW111129   6.803   6.977   6.588
 3410SOL    HW211130   6.917   6.961   6.704
 3411SOL     OW11131   5.092   2.439   2.115
 3411SOL    HW111132   5.181   2.410   2.151
 3411SOL    HW211133   5.040   2.359   2.088
 3412SOL     OW11134   4.017   4.171   0.609
 3412SOL    HW111135   4.053   4.159   0.516
 3412SOL    HW211136   3.923   4.206   0.603
 3413SOL     OW11137   3.918   2.217   2.580
 3413SOL    HW111138   3.833   2.235   2.628
 3413SOL    HW211139   3.899   2.163   2.498
 3414SOL     OW11140   2.830   2.047   5.450
 3414SOL    HW111141   2.919   2.081   5.420
 3414SOL    HW211142   2.769   2.124   5.468
 3415SOL     OW11143   7.007   5.261   3.990
 3415SOL    HW111144   0.009   5.210   3.906
 3415SOL    HW211145   6.950   5.340   3.968
 3416SOL     OW11146   1.747   4.197   5.516
 3416SOL    HW111147   1.749   4.280   5.572
 3416SOL    HW211148   1.741   4.223   5.419
 3417SOL     OW11149   5.647   0.223   2.688
 3417SOL    HW111150   5.714   0.190   2.754
 3417SOL    HW211151   5.564   0.253   2.736
 3418SOL     OW11152   3.136   1.194   6.094
 3418SOL    HW111153   3.053   1.248   6.081
 3418SOL    HW211154   3.120   1.100   6.066
 3419SOL     OW11155   4.329   4.486   0.561
 3419SOL    HW111156   4.402   4.455   0.622
 3419SOL    HW211157   4.368   4.514   0.473
 3420SOL     OW11158   3.827   2.131   4.187
 3420SOL    HW111159   3.870   2.165   4.104
 3420SOL    HW211160   3.843   2.032   4.195
 3421SOL     OW11161   0.014   6.227   4.699
 3421SOL    HW111162   6.977   6.178   4.767
 3421SOL    HW211163   0.110   6.229   4.730
 3422SOL     OW11164   2.985   1.452   1.728
 3422SOL    HW111165   3.015   1.413   1.816
 3422SOL    HW211166   2.901   1.504   1.743
 3423SOL     OW11167   2.508   0.406   1.144
 3423SOL    HW111168   2.500   0.436   1.239
 3423SOL    HW211169   2.557   0.475   1.091
 3424SOL     OW11170   4.333   1.326   2.825
 3424SOL    HW111171   4.252   1.269   2.808
 3424SOL    HW211172   4.413   1.267   2.837
 3425SOL     OW11173   4.448   4.569   1.655
 3425SOL    HW111174   4.515   4.561   1.730
 3425SOL    HW211175   4.369   4.512   1.675
 3426SOL     OW11176   4.576   3.519   0.330
 3426SOL    HW111177   4.508   3.590   0.349
 3426SOL    HW211178   4.530   3.431   0.317
 3427SOL     OW11179   0.202   1.966   6.612
 3427SOL    HW111180   0.121   1.920   6.576
 3427SOL    HW211181   0.188   1.989   6.708
 3428SOL     OW11182   4.615   4.411   2.796
 3428SOL    HW111183   4.673   4.453   2.866
 3428SOL    HW211184   4.657   4.326   2.764
 3429SOL     OW11185   1.276   3.111   6.580
 3429SOL    HW111186   1.323   3.027   6.606
 3429SOL    HW211187   1.291   3.181   6.651
 3430SOL     OW11188   1.363   6.829   0.167
 3430SOL    HW111189   1.458   6.818   0.141
 3430SOL    HW211190   1.328   6.744   0.206
 3431SOL     OW11191   0.868   5.911   0.332
 3431SOL    HW111192   0.831   5.876   0.246
 3431SOL    HW211193   0.800   5.970   0.376
 3432SOL     OW11194   3.295   1.582   6.352
 3432SOL    HW111195   3.322   1.496   6.307
 3432SOL    HW211196   3.234   1.633   6.292
 3433SOL     OW11197   3.983   0.856   5.133
 3433SOL    HW111198   4.080   0.835   5.145
 3433SOL    HW211199   3.960   0.854   5.036
 3434SOL     OW11200   4.432   2.113   2.433
 3434SOL    HW111201   4.420   2.014   2.429
 3434SOL    HW211202   4.411   2.145   2.526
 3435SOL     OW11203   0.263   1.018   0.614
 3435SOL    HW111204   0.309   0.967   0.542
 3435SOL    HW211205   0.245   1.111   0.582
 3436SOL     OW11206   3.923   6.744   3.809
 3436SOL    HW111207   3.929   6.768   3.906
 3436SOL    HW211208   3.876   6.656   3.799
 3437SOL     OW11209   4.076   6.999   6.487
 3437SOL    HW111210   4.116   6.917   6.446
 3437SOL    HW211211   3.983   6.979   6.519
 3438SOL     OW11212   1.477   3.172   6.396
 3438SOL    HW111213   1.465   3.125   6.309
 3438SOL    HW211214   1.402   3.147   6.458
 3439SOL     OW11215   2.612   5.764   3.453
 3439SOL    HW111216   2.608   5.664   3.451
 3439SOL    HW211217   2.665   5.794   3.532
 3440SOL     OW11218   5.034   2.750   0.948
 3440SOL    HW111219   4.970   2.691   0.900
 3440SOL    HW211220   5.026   2.844   0.914
 3441SOL     OW11221   2.889   0.500   3.918
 3441SOL    HW111222   2.866   0.582   3.970
 3441SOL    HW211223   2.959   0.448   3.966
 3442SOL     OW11224   2.127   5.127   2.971
 3442SOL    HW111225   2.066   5.205   2.957
 3442SOL    HW211226   2.085   5.045   2.932
 3443SOL     OW11227   5.467   0.824   3.807
 3443SOL    HW111228   5.473   0.898   3.874
 3443SOL    HW211229   5.437   0.740   3.852
 3444SOL     OW11230   4.428   5.237   0.041
 3444SOL    HW111231   4.346   5.200   7.016
 3444SOL    HW211232   4.403   5.316   0.098
 3445SOL     OW11233   6.043   4.115   4.627
 3445SOL    HW111234   6.093   4.159   4.701
 3445SOL    HW211235   6.099   4.115   4.544
 3446SOL     OW11236   3.485   6.615   3.329
 3446SOL    HW111237   3.569   6.641   3.376
 3446SOL    HW211238   3.502   6.534   3.274
 3447SOL     OW11239   5.689   5.650   6.320
 3447SOL    HW111240   5.735   5.738   6.319
 3447SOL    HW211241   5.720   5.595   6.242
 3448SOL     OW11242   3.715   2.027   1.013
 3448SOL    HW111243   3.655   2.100   0.980
 3448SOL    HW211244   3.706   1.948   0.952
 3449SOL     OW11245   6.500   5.942   3.687
 3449SOL    HW111246   6.529   5.878   3.759
 3449SOL    HW211247   6.501   6.035   3.723
 3450SOL     OW11248   1.005   1.629   1.363
 3450SOL    HW111249   0.987   1.716   1.315
 3450SOL    HW211250   1.027   1.648   1.458
 3451SOL     OW11251   1.170   5.859   4.578
 3451SOL    HW111252   1.097   5.792   4.563
 3451SOL    HW211253   1.146   5.918   4.655
 3452SOL     OW11254   5.991   1.928   6.712
 3452SOL    HW111255   5.925   1.929   6.637
 3452SOL    HW211256   5.991   2.017   6.758
 3453SOL     OW11257   5.527   5.635   5.115
 3453SOL    HW111258   5.489   5.704   5.054
 3453SOL    HW211259   5.624   5.621   5.094
 3454SOL     OW11260   0.771   0.818   0.483
 3454SOL    HW111261   0.793   0.744   0.546
 3454SOL    HW211262   0.689   0.866   0.514
 3455SOL     OW11263   1.670   2.619   4.241
 3455SOL    HW111264   1.590   2.634   4.183
 3455SOL    HW211265   1.743   2.575   4.188
 3456SOL     OW11266   5.952   6.969   1.924
 3456SOL    HW111267   5.928   0.048   1.926
 3456SOL    HW211268   5.998   6.945   2.010
 3457SOL     OW11269   2.375   5.242   2.884
 3457SOL    HW111270   2.423   5.319   2.924
 3457SOL    HW211271   2.308   5.206   2.949
 3458SOL     OW11272   5.356   5.783   0.841
 3458SOL    HW111273   5.301   5.838   0.904
 3458SOL    HW211274   5.309   5.775   0.754
 3459SOL     OW11275   6.499   6.112   3.969
 3459SOL    HW111276   6.595   6.139   3.958
 3459SOL    HW211277   6.440   6.180   3.925
 3460SOL     OW11278   4.526   3.277   6.407
 3460SOL    HW111279   4.589   3.228   6.467
 3460SOL    HW211280   4.458   3.326   6.461
 3461SOL     OW11281   3.218   6.109   2.839
 3461SOL    HW111282   3.243   6.116   2.743
 3461SOL    HW211283   3.129   6.153   2.854
 3462SOL     OW11284   5.286   3.324   3.316
 3462SOL    HW111285   5.230   3.345   3.395
 3462SOL    HW211286   5.262   3.233   3.281
 3463SOL     OW11287   2.107   2.874   0.984
 3463SOL    HW111288   2.185   2.915   0.936
 3463SOL    HW211289   2.073   2.938   1.053
 3464SOL     OW11290   4.664   2.708   6.839
 3464SOL    HW111291   4.650   2.804   6.814
 3464SOL    HW211292   4.735   2.668   6.781
 3465SOL     OW11293   2.050   3.701   2.124
 3465SOL    HW111294   2.109   3.635   2.077
 3465SOL    HW211295   1.954   3.680   2.105
 3466SOL     OW11296   6.079   4.790   3.961
 3466SOL    HW111297   5.987   4.784   3.999
 3466SOL    HW211298   6.108   4.886   3.959
 3467SOL     OW11299   3.444   2.713   1.451
 3467SOL    HW111300   3.510   2.714   1.375
 3467SOL    HW211301   3.370   2.649   1.430
 3468SOL     OW11302   3.636   1.780   0.878
 3468SOL    HW111303   3.720   1.728   0.893
 3468SOL    HW211304   3.559   1.731   0.919
 3469SOL     OW11305   4.584   6.458   5.656
 3469SOL    HW111306   4.577   6.455   5.556
 3469SOL    HW211307   4.496   6.432   5.696
 3470SOL     OW11308   0.592   2.889   1.736
 3470SOL    HW111309   0.640   2.949   1.800
 3470SOL    HW211310   0.507   2.932   1.708
 3471SOL     OW11311   4.851   3.165   3.652
 3471SOL    HW111312   4.771   3.106   3.653
 3471SOL    HW211313   4.845   3.227   3.573
 3472SOL     OW11314   4.314   1.536   3.576
 3472SOL    HW111315   4.307   1.633   3.599
 3472SOL    HW211316   4.224   1.502   3.548
 3473SOL     OW11317   0.141   4.319   1.936
 3473SOL    HW111318   0.145   4.419   1.938
 3473SOL    HW211319   0.211   4.281   1.997
 3474SOL     OW11320   5.803   5.093   4.133
 3474SOL    HW111321   5.774   4.998   4.140
 3474SOL    HW211322   5.828   5.127   4.223
 3475SOL     OW11323   6.757   3.865   4.195
 3475SOL    HW111324   6.682   3.876   4.261
 3475SOL    HW211325   6.729   3.905   4.107
 3476SOL     OW11326   1.077   0.895   3.454
 3476SOL    HW111327   1.049   0.989   3.437
 3476SOL    HW211328   0.996   0.836   3.455
 3477SOL     OW11329   0.671   4.354   1.557
 3477SOL    HW111330   0.688   4.445   1.595
 3477SOL    HW211331   0.638   4.294   1.630
 3478SOL     OW11332   2.112   0.509   0.510
 3478SOL    HW111333   2.160   0.431   0.549
 3478SOL    HW211334   2.140   0.593   0.557
 3479SOL     OW11335   1.705   4.129   4.007
 3479SOL    HW111336   1.742   4.036   4.005
 3479SOL    HW211337   1.683   4.154   4.102
 3480SOL     OW11338   1.871   4.966   6.683
 3480SOL    HW111339   1.971   4.968   6.692
 3480SOL    HW211340   1.830   5.029   6.749
 3481SOL     OW11341   6.390   0.800   5.330
 3481SOL    HW111342   6.361   0.760   5.417
 3481SOL    HW211343   6.459   0.870   5.346
 3482SOL     OW11344   6.153   4.025   5.060
 3482SOL    HW111345   6.212   3.946   5.078
 3482SOL    HW211346   6.207   4.109   5.065
 3483SOL     OW11347   4.772   2.961   4.661
 3483SOL    HW111348   4.781   2.931   4.566
 3483SOL    HW211349   4.800   3.056   4.669
 3484SOL     OW11350   2.121   3.307   4.917
 3484SOL    HW111351   2.161   3.278   4.830
 3484SOL    HW211352   2.169   3.260   4.993
 3485SOL     OW11353   0.556   2.057   5.962
 3485SOL    HW111354   0.590   2.078   6.054
 3485SOL    HW211355   0.512   2.138   5.924
 3486SOL     OW11356   2.121   6.867   4.593
 3486SOL    HW111357   2.085   6.845   4.684
 3486SOL    HW211358   2.094   6.959   4.567
 3487SOL     OW11359   5.160   1.296   6.758
 3487SOL    HW111360   5.212   1.212   6.771
 3487SOL    HW211361   5.062   1.276   6.762
 3488SOL     OW11362   5.991   0.464   4.285
 3488SOL    HW111363   5.998   0.529   4.210
 3488SOL    HW211364   5.908   0.482   4.338
 3489SOL     OW11365   2.983   6.841   0.458
 3489SOL    HW111366   3.008   6.776   0.530
 3489SOL    HW211367   3.028   6.929   0.475
 3490SOL     OW11368   3.965   5.379   0.186
 3490SOL    HW111369   3.968   5.346   0.091
 3490SOL    HW211370   4.012   5.467   0.191
 3491SOL     OW11371   5.208   4.418   6.490
 3491SOL    HW111372   5.183   4.379   6.578
 3491SOL    HW211373   5.223   4.343   6.424
 3492SOL     OW11374   6.145   4.259   2.704
 3492SOL    HW111375   6.131   4.242   2.802
 3492SOL    HW211376   6.234   4.303   2.691
 3493SOL     OW11377   5.643   3.544   4.826
 3493SOL    HW111378   5.597   3.465   4.786
 3493SOL    HW211379   5.671   3.521   4.919
 3494SOL     OW11380   4.571   1.519   1.913
 3494SOL    HW111381   4.667   1.524   1.939
 3494SOL    HW211382   4.516   1.503   1.995
 3495SOL     OW11383   0.928   2.749   2.754
 3495SOL    HW111384   0.959   2.759   2.659
 3495SOL    HW211385   0.899   2.655   2.771
 3496SOL     OW11386   5.585   5.458   1.264
 3496SOL    HW111387   5.580   5.393   1.188
 3496SOL    HW211388   5.493   5.474   1.300
 3497SOL     OW11389   3.335   0.645   2.683
 3497SOL    HW111390   3.236   0.634   2.688
 3497SOL    HW211391   3.366   0.628   2.590
 3498SOL     OW11392   2.230   1.832   1.350
 3498SOL    HW111393   2.217   1.903   1.419
 3498SOL    HW211394   2.171   1.851   1.271
 3499SOL     OW11395   6.405   5.495   5.508
 3499SOL    HW111396   6.376   5.422   5.570
 3499SOL    HW211397   6.457   5.456   5.432
 3500SOL     OW11398   1.210   2.054   4.152
 3500SOL    HW111399   1.194   2.132   4.212
 3500SOL    HW211400   1.202   2.083   4.056
 3501SOL     OW11401   1.420   0.124   5.771
 3501SOL    HW111402   1.472   0.056   5.720
 3501SOL    HW211403   1.468   0.211   5.768
 3502SOL     OW11404   4.872   3.085   2.245
 3502SOL    HW111405   4.828   3.027   2.313
 3502SOL    HW211406   4.833   3.067   2.155
 3503SOL     OW11407   6.475   6.162   6.836
 3503SOL    HW111408   6.462   6.237   6.771
 3503SOL    HW211409   6.551   6.104   6.805
 3504SOL     OW11410   1.696   1.152   1.040
 3504SOL    HW111411   1.792   1.132   1.060
 3504SOL    HW211412   1.644   1.066   1.038
 3505SOL     OW11413   5.998   4.901   6.633
 3505SOL    HW111414   5.977   4.981   6.576
 3505SOL    HW211415   5.949   4.821   6.599
 3506SOL     OW11416   5.026   4.726   4.773
 3506SOL    HW111417   5.041   4.639   4.725
 3506SOL    HW211418   5.037   4.802   4.708
 3507SOL     OW11419   2.940   6.262   0.723
 3507SOL    HW111420   2.976   6.272   0.630
 3507SOL    HW211421   3.010   6.286   0.789
 3508SOL     OW11422   2.991   2.473   5.410
 3508SOL    HW111423   3.030   2.425   5.489
 3508SOL    HW211424   3.039   2.444   5.327
 3509SOL     OW11425   4.285   5.358   6.745
 3509SOL    HW111426   4.376   5.349   6.707
 3509SOL    HW211427   4.222   5.295   6.698
 3510SOL     OW11428   2.850   0.731   0.972
 3510SOL    HW111429   2.882   0.726   1.067
 3510SOL    HW211430   2.756   0.697   0.967
 3511SOL     OW11431   2.642   4.746   1.697
 3511SOL    HW111432   2.570   4.701   1.750
 3511SOL    HW211433   2.725   4.753   1.752
 3512SOL     OW11434   0.542   4.366   6.612
 3512SOL    HW111435   0.466   4.307   6.587
 3512SOL    HW211436   0.514   4.425   6.688
 3513SOL     OW11437   5.895   1.968   0.123
 3513SOL    HW111438   5.859   2.005   0.209
 3513SOL    HW211439   5.994   1.960   0.129
 3514SOL     OW11440   3.985   0.824   2.527
 3514SOL    HW111441   4.079   0.800   2.501
 3514SOL    HW211442   3.964   0.916   2.495
 3515SOL     OW11443   6.232   5.672   4.342
 3515SOL    HW111444   6.169   5.716   4.278
 3515SOL    HW211445   6.231   5.573   4.328
 3516SOL     OW11446   5.079   0.194   0.998
 3516SOL    HW111447   5.076   0.275   1.056
 3516SOL    HW211448   5.114   0.116   1.051
 3517SOL     OW11449   6.316   0.770   0.604
 3517SOL    HW111450   6.263   0.687   0.590
 3517SOL    HW211451   6.337   0.780   0.702
 3518SOL     OW11452   5.414   1.577   5.225
 3518SOL    HW111453   5.466   1.638   5.165
 3518SOL    HW211454   5.323   1.561   5.186
 3519SOL     OW11455   3.247   1.046   0.435
 3519SOL    HW111456   3.257   0.949   0.412
 3519SOL    HW211457   3.151   1.065   0.457
 3520SOL     OW11458   2.750   6.304   5.019
 3520SOL    HW111459   2.784   6.388   5.061
 3520SOL    HW211460   2.812   6.277   4.945
 3521SOL     OW11461   2.744   2.670   0.013
 3521SOL    HW111462   2.816   2.603   0.032
 3521SOL    HW211463   2.711   2.708   0.099
 3522SOL     OW11464   0.071   5.878   6.845
 3522SOL    HW111465   0.108   5.970   6.854
 3522SOL    HW211466   0.018   5.871   6.760
 3523SOL     OW11467   1.146   5.492   5.834
 3523SOL    HW111468   1.240   5.505   5.864
 3523SOL    HW211469   1.119   5.568   5.775
 3524SOL     OW11470   5.251   1.047   3.233
 3524SOL    HW111471   5.187   1.124   3.238
 3524SOL    HW211472   5.343   1.081   3.220
 3525SOL     OW11473   6.116   4.284   3.292
 3525SOL    HW111474   6.070   4.203   3.256
 3525SOL    HW211475   6.213   4.281   3.269
 3526SOL     OW11476   0.974   6.524   2.962
 3526SOL    HW111477   0.897   6.464   2.981
 3526SOL    HW211478   1.054   6.494   3.014
 3527SOL     OW11479   6.772   2.791   5.753
 3527SOL    HW111480   6.712   2.825   5.680
 3527SOL    HW211481   6.839   2.861   5.776
 3528SOL     OW11482   2.509   6.447   4.911
 3528SOL    HW111483   2.560   6.482   4.832
 3528SOL    HW211484   2.570   6.392   4.969
 3529SOL     OW11485   4.841   5.356   0.561
 3529SOL    HW111486   4.933   5.332   0.531
 3529SOL    HW211487   4.775   5.290   0.526
 3530SOL     OW11488   6.923   0.622   2.138
 3530SOL    HW111489   6.907   0.524   2.127
 3530SOL    HW211490   6.936   0.643   2.235
 3531SOL     OW11491   5.373   1.662   0.980
 3531SOL    HW111492   5.313   1.645   0.901
 3531SOL    HW211493   5.349   1.750   1.021
 3532SOL     OW11494   1.854   1.431   2.023
 3532SOL    HW111495   1.831   1.448   2.119
 3532SOL    HW211496   1.868   1.519   1.976
 3533SOL     OW11497   6.983   1.163   2.942
 3533SOL    HW111498   6.959   1.142   3.037
 3533SOL    HW211499   6.962   1.259   2.922
 3534SOL     OW11500   6.969   0.883   1.002
 3534SOL    HW111501   6.922   0.823   1.066
 3534SOL    HW211502   6.909   0.903   0.924
 3535SOL     OW11503   2.678   5.388   4.737
 3535SOL    HW111504   2.769   5.348   4.736
 3535SOL    HW211505   2.662   5.437   4.651
 3536SOL     OW11506   3.438   2.070   2.755
 3536SOL    HW111507   3.449   1.972   2.743
 3536SOL    HW211508   3.410   2.090   2.849
 3537SOL     OW11509   1.721   5.697   2.484
 3537SOL    HW111510   1.702   5.763   2.412
 3537SOL    HW211511   1.655   5.622   2.479
 3538SOL     OW11512   3.207   5.523   4.314
 3538SOL    HW111513   3.196   5.542   4.217
 3538SOL    HW211514   3.297   5.483   4.330
 3539SOL     OW11515   3.734   3.738   4.605
 3539SOL    HW111516   3.635   3.752   4.614
 3539SOL    HW211517   3.751   3.678   4.527
 3540SOL     OW11518   2.068   2.000   3.774
 3540SOL    HW111519   2.069   2.093   3.736
 3540SOL    HW211520   1.974   1.969   3.783
 3541SOL     OW11521   2.988   4.002   4.965
 3541SOL    HW111522   3.042   3.918   4.971
 3541SOL    HW211523   2.942   4.018   5.053
 3542SOL     OW11524   0.551   5.116   1.732
 3542SOL    HW111525   0.608   5.053   1.680
 3542SOL    HW211526   0.559   5.208   1.694
 3543SOL     OW11527   5.578   3.012   4.751
 3543SOL    HW111528   5.626   3.008   4.838
 3543SOL    HW211529   5.635   2.971   4.679
 3544SOL     OW11530   2.002   4.935   6.027
 3544SOL    HW111531   2.054   4.856   6.057
 3544SOL    HW211532   1.905   4.912   6.022
 3545SOL     OW11533   3.997   5.247   6.315
 3545SOL    HW111534   3.901   5.220   6.308
 3545SOL    HW211535   4.027   5.287   6.228
 3546SOL     OW11536   6.330   4.876   3.102
 3546SOL    HW111537   6.298   4.817   3.177
 3546SOL    HW211538   6.287   4.965   3.110
 3547SOL     OW11539   5.366   4.937   4.454
 3547SOL    HW111540   5.312   5.006   4.500
 3547SOL    HW211541   5.328   4.920   4.363
 3548SOL     OW11542   4.828   2.834   5.619
 3548SOL    HW111543   4.808   2.882   5.705
 3548SOL    HW211544   4.860   2.901   5.551
 3549SOL     OW11545   5.678   4.653   2.769
 3549SOL    HW111546   5.690   4.658   2.869
 3549SOL    HW211547   5.766   4.671   2.725
 3550SOL     OW11548   5.987   1.813   2.377
 3550SOL    HW111549   6.029   1.894   2.416
 3550SOL    HW211550   6.058   1.752   2.342
 3551SOL     OW11551   2.724   6.878   3.301
 3551SOL    HW111552   2.644   6.888   3.359
 3551SOL    HW211553   2.744   6.965   3.256
 3552SOL     OW11554   6.452   4.941   2.852
 3552SOL    HW111555   6.505   5.022   2.830
 3552SOL    HW211556   6.451   4.927   2.951
 3553SOL     OW11557   5.423   1.538   2.958
 3553SOL    HW111558   5.481   1.610   2.997
 3553SOL    HW211559   5.480   1.474   2.907
 3554SOL     OW11560   4.286   4.857   6.144
 3554SOL    HW111561   4.250   4.935   6.092
 3554SOL    HW211562   4.385   4.851   6.130
 3555SOL     OW11563   1.297   2.937   3.382
 3555SOL    HW111564   1.305   2.857   3.322
 3555SOL    HW211565   1.282   3.019   3.326
 3556SOL     OW11566   3.453   0.639   6.384
 3556SOL    HW111567   3.436   0.706   6.312
 3556SOL    HW211568   3.394   0.560   6.370
 3557SOL     OW11569   1.425   0.216   5.274
 3557SOL    HW111570   1.371   0.142   5.314
 3557SOL    HW211571   1.429   0.204   5.174
 3558SOL     OW11572   6.855   5.844   1.574
 3558SOL    HW111573   6.861   5.894   1.661
 3558SOL    HW211574   6.943   5.803   1.553
 3559SOL     OW11575   0.737   0.297   5.381
 3559SOL    HW111576   0.820   0.352   5.393
 3559SOL    HW211577   0.679   0.306   5.461
 3560SOL     OW11578   6.942   6.361   1.372
 3560SOL    HW111579   6.900   6.366   1.281
 3560SOL    HW211580   0.022   6.381   1.365
 3561SOL     OW11581   5.006   4.793   5.264
 3561SOL    HW111582   4.983   4.702   5.228
 3561SOL    HW211583   5.099   4.791   5.301
 3562SOL     OW11584   4.829   0.673   3.040
 3562SOL    HW111585   4.860   0.766   3.020
 3562SOL    HW211586   4.731   0.674   3.060
 3563SOL     OW11587   4.639   0.822   1.763
 3563SOL    HW111588   4.583   0.759   1.709
 3563SOL    HW211589   4.603   0.827   1.856
 3564SOL     OW11590   6.880   4.699   3.463
 3564SOL    HW111591   6.905   4.739   3.552
 3564SOL    HW211592   6.855   4.603   3.476
 3565SOL     OW11593   2.137   0.386   5.039
 3565SOL    HW111594   2.207   0.454   5.061
 3565SOL    HW211595   2.112   0.393   4.943
 3566SOL     OW11596   0.310   3.601   5.338
 3566SOL    HW111597   0.355   3.533   5.280
 3566SOL    HW211598   0.380   3.657   5.384
 3567SOL     OW11599   0.361   3.195   1.337
 3567SOL    HW111600   0.318   3.105   1.341
 3567SOL    HW211601   0.350   3.233   1.245
 3568SOL     OW11602   4.784   4.109   3.350
 3568SOL    HW111603   4.779   4.055   3.433
 3568SOL    HW211604   4.806   4.204   3.373
 3569SOL     OW11605   3.808   3.286   3.780
 3569SOL    HW111606   3.879   3.220   3.756
 3569SOL    HW211607   3.743   3.296   3.704
 3570SOL     OW11608   0.132   2.162   5.868
 3570SOL    HW111609   0.087   2.159   5.778
 3570SOL    HW211610   0.228   2.189   5.855
 3571SOL     OW11611   2.312   6.673   4.858
 3571SOL    HW111612   2.217   6.698   4.839
 3571SOL    HW211613   2.370   6.704   4.784
 3572SOL     OW11614   4.948   4.837   2.048
 3572SOL    HW111615   4.986   4.829   2.140
 3572SOL    HW211616   4.963   4.752   1.998
 3573SOL     OW11617   0.196   4.161   3.239
 3573SOL    HW111618   0.191   4.261   3.246
 3573SOL    HW211619   0.104   4.124   3.227
 3574SOL     OW11620   1.947   2.771   5.803
 3574SOL    HW111621   2.027   2.754   5.861
 3574SOL    HW211622   1.943   2.868   5.780
 3575SOL     OW11623   5.390   0.471   0.558
 3575SOL    HW111624   5.378   0.407   0.634
 3575SOL    HW211625   5.468   0.530   0.576
 3576SOL     OW11626   1.503   2.950   0.913
 3576SOL    HW111627   1.491   3.045   0.940
 3576SOL    HW211628   1.419   2.899   0.932
 3577SOL     OW11629   2.791   3.315   5.719
 3577SOL    HW111630   2.709   3.352   5.675
 3577SOL    HW211631   2.860   3.296   5.650
 3578SOL     OW11632   3.311   3.032   5.905
 3578SOL    HW111633   3.300   3.131   5.910
 3578SOL    HW211634   3.374   3.001   5.976
 3579SOL     OW11635   0.824   2.810   2.096
 3579SOL    HW111636   0.736   2.821   2.141
 3579SOL    HW211637   0.865   2.900   2.079
 3580SOL     OW11638   0.644   4.444   1.947
 3580SOL    HW111639   0.681   4.352   1.935
 3580SOL    HW211640   0.612   4.455   2.041
 3581SOL     OW11641   1.912   0.019   2.701
 3581SOL    HW111642   1.974   0.091   2.731
 3581SOL    HW211643   1.868   6.996   2.781
 3582SOL     OW11644   3.679   4.561   6.139
 3582SOL    HW111645   3.649   4.653   6.113
 3582SOL    HW211646   3.627   4.529   6.218
 3583SOL     OW11647   0.550   5.161   0.483
 3583SOL    HW111648   0.614   5.206   0.546
 3583SOL    HW211649   0.587   5.073   0.455
 3584SOL     OW11650   6.131   4.690   4.980
 3584SOL    HW111651   6.037   4.724   4.976
 3584SOL    HW211652   6.190   4.761   5.017
 3585SOL     OW11653   2.789   1.257   2.987
 3585SOL    HW111654   2.854   1.307   3.043
 3585SOL    HW211655   2.838   1.200   2.921
 3586SOL     OW11656   6.416   1.934   5.059
 3586SOL    HW111657   6.376   1.864   5.118
 3586SOL    HW211658   6.466   1.890   4.984
 3587SOL     OW11659   3.016   6.869   6.459
 3587SOL    HW111660   3.046   6.854   6.553
 3587SOL    HW211661   2.962   6.952   6.453
 3588SOL     OW11662   6.403   4.310   4.666
 3588SOL    HW111663   6.315   4.320   4.713
 3588SOL    HW211664   6.476   4.347   4.723
 3589SOL     OW11665   0.141   0.201   5.832
 3589SOL    HW111666   0.143   0.113   5.786
 3589SOL    HW211667   0.046   0.229   5.847
 3590SOL     OW11668   6.774   5.075   0.415
 3590SOL    HW111669   6.811   5.167   0.400
 3590SOL    HW211670   6.839   5.007   0.383
 3591SOL     OW11671   5.542   1.678   6.685
 3591SOL    HW111672   5.581   1.715   6.601
 3591SOL    HW211673   5.609   1.617   6.729
 3592SOL     OW11674   1.948   6.236   1.582
 3592SOL    HW111675   2.004   6.254   1.663
 3592SOL    HW211676   1.871   6.300   1.581
 3593SOL     OW11677   4.578   3.142   5.516
 3593SOL    HW111678   4.605   3.216   5.454
 3593SOL    HW211679   4.547   3.063   5.463
 3594SOL     OW11680   4.430   4.717   5.143
 3594SOL    HW111681   4.392   4.641   5.089
 3594SOL    HW211682   4.513   4.751   5.100
 3595SOL     OW11683   5.478   6.618   4.831
 3595SOL    HW111684   5.442   6.701   4.790
 3595SOL    HW211685   5.467   6.623   4.931
 3596SOL     OW11686   3.820   2.048   3.795
 3596SOL    HW111687   3.874   2.107   3.855
 3596SOL    HW211688   3.836   1.952   3.819
 3597SOL     OW11689   2.424   3.146   5.432
 3597SOL    HW111690   2.460   3.111   5.346
 3597SOL    HW211691   2.324   3.144   5.430
 3598SOL     OW11692   1.364   5.660   5.036
 3598SOL    HW111693   1.282   5.716   5.049
 3598SOL    HW211694   1.338   5.569   5.006
 3599SOL     OW11695   3.597   1.261   4.766
 3599SOL    HW111696   3.511   1.264   4.816
 3599SOL    HW211697   3.668   1.310   4.817
 3600SOL     OW11698   3.171   3.509   0.310
 3600SOL    HW111699   3.174   3.435   0.243
 3600SOL    HW211700   3.087   3.562   0.298
 3601SOL     OW11701   4.960   0.755   4.893
 3601SOL    HW111702   4.905   0.827   4.936
 3601SOL    HW211703   4.905   0.672   4.884
 3602SOL     OW11704   2.001   1.841   1.665
 3602SOL    HW111705   1.995   1.777   1.589
 3602SOL    HW211706   1.918   1.897   1.669
 3603SOL     OW11707   2.610   0.553   5.495
 3603SOL    HW111708   2.607   0.504   5.408
 3603SOL    HW211709   2.623   0.650   5.478
 3604SOL     OW11710   0.177   0.157   3.231
 3604SOL    HW111711   0.124   0.241   3.219
 3604SOL    HW211712   0.141   0.086   3.171
 3605SOL     OW11713   1.353   6.229   3.755
 3605SOL    HW111714   1.311   6.139   3.745
 3605SOL    HW211715   1.410   6.230   3.837
 3606SOL     OW11716   2.766   6.466   2.556
 3606SOL    HW111717   2.757   6.546   2.497
 3606SOL    HW211718   2.862   6.442   2.566
 3607SOL     OW11719   5.562   1.783   2.456
 3607SOL    HW111720   5.610   1.773   2.543
 3607SOL    HW211721   5.472   1.822   2.471
 3608SOL     OW11722   2.763   2.001   6.245
 3608SOL    HW111723   2.793   1.909   6.270
 3608SOL    HW211724   2.697   2.035   6.312
 3609SOL     OW11725   2.491   0.556   4.835
 3609SOL    HW111726   2.452   0.536   4.745
 3609SOL    HW211727   2.535   0.473   4.871
 3610SOL     OW11728   1.809   0.006   5.218
 3610SOL    HW111729   1.815   0.062   5.135
 3610SOL    HW211730   1.815   0.066   5.298
 3611SOL     OW11731   5.494   4.887   3.077
 3611SOL    HW111732   5.487   4.853   3.171
 3611SOL    HW211733   5.494   4.987   3.078
 3612SOL     OW11734   6.211   1.517   0.161
 3612SOL    HW111735   6.296   1.467   0.147
 3612SOL    HW211736   6.166   1.532   0.073
 3613SOL     OW11737   4.477   5.869   2.068
 3613SOL    HW111738   4.409   5.939   2.049
 3613SOL    HW211739   4.539   5.901   2.140
 3614SOL     OW11740   3.617   5.074   6.760
 3614SOL    HW111741   3.702   5.106   6.802
 3614SOL    HW211742   3.595   4.983   6.794
 3615SOL     OW11743   5.649   2.388   5.957
 3615SOL    HW111744   5.747   2.395   5.941
 3615SOL    HW211745   5.608   2.479   5.948
 3616SOL     OW11746   1.028   1.888   0.275
 3616SOL    HW111747   1.114   1.840   0.293
 3616SOL    HW211748   1.047   1.986   0.263
 3617SOL     OW11749   3.988   5.989   5.542
 3617SOL    HW111750   3.949   6.017   5.629
 3617SOL    HW211751   4.086   5.971   5.553
 3618SOL     OW11752   1.345   5.116   4.388
 3618SOL    HW111753   1.369   5.083   4.297
 3618SOL    HW211754   1.371   5.212   4.397
 3619SOL     OW11755   5.571   3.773   1.383
 3619SOL    HW111756   5.608   3.857   1.343
 3619SOL    HW211757   5.639   3.734   1.445
 3620SOL     OW11758   6.203   5.869   5.043
 3620SOL    HW111759   6.182   5.778   5.079
 3620SOL    HW211760   6.123   5.906   4.996
 3621SOL     OW11761   3.126   3.041   3.299
 3621SOL    HW111762   3.034   3.054   3.335
 3621SOL    HW211763   3.192   3.046   3.374
 3622SOL     OW11764   1.223   6.013   6.487
 3622SOL    HW111765   1.319   6.038   6.490
 3622SOL    HW211766   1.168   6.084   6.530
 3623SOL     OW11767   0.944   5.549   6.098
 3623SOL    HW111768   0.873   5.519   6.034
 3623SOL    HW211769   1.033   5.545   6.053
 3624SOL     OW11770   2.635   2.426   1.084
 3624SOL    HW111771   2.722   2.387   1.115
 3624SOL    HW211772   2.580   2.452   1.164
 3625SOL     OW11773   6.935   1.957   0.500
 3625SOL    HW111774   6.989   2.004   0.569
 3625SOL    HW211775   6.841   1.991   0.501
 3626SOL     OW11776   1.450   2.706   5.117
 3626SOL    HW111777   1.356   2.700   5.083
 3626SOL    HW211778   1.514   2.680   5.045
 3627SOL     OW11779   3.466   2.082   2.164
 3627SOL    HW111780   3.541   2.096   2.099
 3627SOL    HW211781   3.494   2.112   2.255
 3628SOL     OW11782   6.678   2.338   1.312
 3628SOL    HW111783   6.588   2.314   1.275
 3628SOL    HW211784   6.749   2.310   1.247
 3629SOL     OW11785   0.990   1.178   4.071
 3629SOL    HW111786   0.923   1.123   4.121
 3629SOL    HW211787   0.943   1.233   4.003
 3630SOL     OW11788   0.167   2.219   2.181
 3630SOL    HW111789   0.152   2.253   2.089
 3630SOL    HW211790   0.152   2.293   2.247
 3631SOL     OW11791   1.979   0.036   2.239
 3631SOL    HW111792   1.948   0.070   2.150
 3631SOL    HW211793   2.077   0.020   2.236
 3632SOL     OW11794   4.637   3.819   1.683
 3632SOL    HW111795   4.657   3.723   1.703
 3632SOL    HW211796   4.696   3.877   1.739
 3633SOL     OW11797   3.973   4.027   6.745
 3633SOL    HW111798   4.044   4.084   6.705
 3633SOL    HW211799   3.922   3.980   6.673
 3634SOL     OW11800   3.541   5.544   6.824
 3634SOL    HW111801   3.498   5.602   6.893
 3634SOL    HW211802   3.626   5.587   6.793
 3635SOL     OW11803   1.273   6.266   1.829
 3635SOL    HW111804   1.334   6.228   1.898
 3635SOL    HW211805   1.221   6.342   1.869
 3636SOL     OW11806   0.505   4.802   6.494
 3636SOL    HW111807   0.574   4.729   6.486
 3636SOL    HW211808   0.551   4.889   6.514
 3637SOL     OW11809   6.094   3.573   0.075
 3637SOL    HW111810   6.087   3.644   0.145
 3637SOL    HW211811   6.065   3.485   0.113
 3638SOL     OW11812   6.466   3.882   3.169
 3638SOL    HW111813   6.545   3.822   3.176
 3638SOL    HW211814   6.401   3.844   3.102
 3639SOL     OW11815   3.312   3.041   3.907
 3639SOL    HW111816   3.392   3.085   3.949
 3639SOL    HW211817   3.342   2.980   3.834
 3640SOL     OW11818   4.250   2.041   1.069
 3640SOL    HW111819   4.264   1.972   1.139
 3640SOL    HW211820   4.277   2.131   1.104
 3641SOL     OW11821   5.892   4.196   2.672
 3641SOL    HW111822   5.894   4.125   2.742
 3641SOL    HW211823   5.983   4.236   2.662
 3642SOL     OW11824   5.568   3.351   6.419
 3642SOL    HW111825   5.505   3.429   6.412
 3642SOL    HW211826   5.549   3.286   6.345
 3643SOL     OW11827   3.983   5.872   5.194
 3643SOL    HW111828   3.977   5.880   5.094
 3643SOL    HW211829   4.076   5.894   5.223
 3644SOL     OW11830   2.711   0.819   1.440
 3644SOL    HW111831   2.744   0.803   1.533
 3644SOL    HW211832   2.784   0.798   1.375
 3645SOL     OW11833   1.316   4.228   3.046
 3645SOL    HW111834   1.322   4.182   3.135
 3645SOL    HW211835   1.225   4.215   3.008
 3646SOL     OW11836   1.495   4.536   5.406
 3646SOL    HW111837   1.592   4.525   5.424
 3646SOL    HW211838   1.471   4.487   5.323
 3647SOL     OW11839   2.851   0.340   6.341
 3647SOL    HW111840   2.943   0.311   6.314
 3647SOL    HW211841   2.817   0.408   6.276
 3648SOL     OW11842   4.330   5.282   3.312
 3648SOL    HW111843   4.330   5.244   3.220
 3648SOL    HW211844   4.424   5.307   3.337
 3649SOL     OW11845   6.197   2.826   0.109
 3649SOL    HW111846   6.111   2.775   0.100
 3649SOL    HW211847   6.200   2.899   0.041
 3650SOL     OW11848   5.360   6.058   0.056
 3650SOL    HW111849   5.412   6.137   0.088
 3650SOL    HW211850   5.372   6.048   6.976
 3651SOL     OW11851   0.839   1.813   5.575
 3651SOL    HW111852   0.800   1.857   5.656
 3651SOL    HW211853   0.937   1.833   5.570
 3652SOL     OW11854   4.129   1.391   1.638
 3652SOL    HW111855   4.166   1.482   1.659
 3652SOL    HW211856   4.093   1.391   1.545
 3653SOL     OW11857   1.125   1.476   1.175
 3653SOL    HW111858   1.089   1.506   1.263
 3653SOL    HW211859   1.064   1.408   1.134
 3654SOL     OW11860   5.068   6.587   1.495
 3654SOL    HW111861   4.996   6.586   1.565
 3654SOL    HW211862   5.049   6.660   1.430
 3655SOL     OW11863   1.481   1.752   4.021
 3655SOL    HW111864   1.539   1.670   4.018
 3655SOL    HW211865   1.464   1.778   4.116
 3656SOL     OW11866   0.072   0.120   1.578
 3656SOL    HW111867   0.057   0.029   1.617
 3656SOL    HW211868   0.088   0.111   1.479
 3657SOL     OW11869   5.972   5.518   5.645
 3657SOL    HW111870   6.068   5.542   5.664
 3657SOL    HW211871   5.959   5.420   5.658
 3658SOL     OW11872   1.811   4.993   5.611
 3658SOL    HW111873   1.766   5.067   5.663
 3658SOL    HW211874   1.881   4.950   5.668
 3659SOL     OW11875   6.985   2.293   6.017
 3659SOL    HW111876   6.949   2.243   6.096
 3659SOL    HW211877   0.016   2.231   5.957
 3660SOL     OW11878   5.456   5.669   6.449
 3660SOL    HW111879   5.535   5.672   6.388
 3660SOL    HW211880   5.485   5.639   6.540
 3661SOL     OW11881   0.191   1.517   4.977
 3661SOL    HW111882   0.125   1.498   5.049
 3661SOL    HW211883   0.282   1.530   5.017
 3662SOL     OW11884   2.828   1.785   5.383
 3662SOL    HW111885   2.737   1.744   5.390
 3662SOL    HW211886   2.823   1.881   5.411
 3663SOL     OW11887   2.688   2.320   6.624
 3663SOL    HW111888   2.642   2.408   6.612
 3663SOL    HW211889   2.762   2.312   6.557
 3664SOL     OW11890   3.673   1.382   1.674
 3664SOL    HW111891   3.718   1.414   1.590
 3664SOL    HW211892   3.616   1.455   1.711
 3665SOL     OW11893   0.848   5.943   5.764
 3665SOL    HW111894   0.852   6.027   5.817
 3665SOL    HW211895   0.775   5.885   5.799
 3666SOL     OW11896   2.281   2.782   4.572
 3666SOL    HW111897   2.308   2.786   4.668
 3666SOL    HW211898   2.362   2.767   4.515
 3667SOL     OW11899   1.790   0.050   1.145
 3667SOL    HW111900   1.849   0.119   1.187
 3667SOL    HW211901   1.695   0.079   1.151
 3668SOL     OW11902   6.541   0.882   0.875
 3668SOL    HW111903   6.587   0.952   0.820
 3668SOL    HW211904   6.550   0.793   0.831
 3669SOL     OW11905   1.042   1.139   3.739
 3669SOL    HW111906   1.008   1.175   3.652
 3669SOL    HW211907   1.018   1.202   3.813
 3670SOL     OW11908   2.733   0.098   1.984
 3670SOL    HW111909   2.724   0.037   1.906
 3670SOL    HW211910   2.768   0.187   1.953
 3671SOL     OW11911   6.700   0.548   4.274
 3671SOL    HW111912   6.743   0.489   4.342
 3671SOL    HW211913   6.771   0.598   4.224
 3672SOL     OW11914   3.503   6.756   3.760
 3672SOL    HW111915   3.467   6.681   3.705
 3672SOL    HW211916   3.455   6.760   3.847
 3673SOL     OW11917   3.363   6.680   0.990
 3673SOL    HW111918   3.412   6.707   1.073
 3673SOL    HW211919   3.429   6.653   0.920
 3674SOL     OW11920   0.915   4.538   6.498
 3674SOL    HW111921   0.928   4.484   6.414
 3674SOL    HW211922   0.996   4.529   6.556
 3675SOL     OW11923   1.298   0.332   3.969
 3675SOL    HW111924   1.215   0.290   3.932
 3675SOL    HW211925   1.356   0.363   3.893
 3676SOL     OW11926   3.630   1.630   4.572
 3676SOL    HW111927   3.605   1.543   4.531
 3676SOL    HW211928   3.582   1.641   4.660
 3677SOL     OW11929   1.713   1.003   4.707
 3677SOL    HW111930   1.664   1.090   4.714
 3677SOL    HW211931   1.747   0.991   4.613
 3678SOL     OW11932   1.198   0.741   4.021
 3678SOL    HW111933   1.131   0.691   4.076
 3678SOL    HW211934   1.195   0.707   3.927
 3679SOL     OW11935   4.383   0.293   2.301
 3679SOL    HW111936   4.355   0.241   2.382
 3679SOL    HW211937   4.400   0.230   2.225
 3680SOL     OW11938   3.290   1.563   4.487
 3680SOL    HW111939   3.308   1.645   4.541
 3680SOL    HW211940   3.373   1.507   4.485
 3681SOL     OW11941   1.133   6.338   3.887
 3681SOL    HW111942   1.229   6.339   3.860
 3681SOL    HW211943   1.083   6.405   3.832
 3682SOL     OW11944   5.226   2.078   1.400
 3682SOL    HW111945   5.319   2.079   1.435
 3682SOL    HW211946   5.224   2.111   1.306
 3683SOL     OW11947   6.104   1.562   6.944
 3683SOL    HW111948   6.178   1.586   6.881
 3683SOL    HW211949   6.035   1.635   6.945
 3684SOL     OW11950   2.282   6.344   5.111
 3684SOL    HW111951   2.226   6.380   5.185
 3684SOL    HW211952   2.223   6.297   5.045
 3685SOL     OW11953   2.101   6.009   4.372
 3685SOL    HW111954   2.175   5.993   4.437
 3685SOL    HW211955   2.128   6.080   4.306
 3686SOL     OW11956   0.420   3.726   1.239
 3686SOL    HW111957   0.437   3.757   1.145
 3686SOL    HW211958   0.400   3.628   1.238
 3687SOL     OW11959   5.836   4.684   4.974
 3687SOL    HW111960   5.862   4.590   4.950
 3687SOL    HW211961   5.737   4.694   4.965
 3688SOL     OW11962   6.468   2.578   0.731
 3688SOL    HW111963   6.451   2.480   0.732
 3688SOL    HW211964   6.465   2.614   0.824
 3689SOL     OW11965   1.151   6.975   5.933
 3689SOL    HW111966   1.106   6.958   5.846
 3689SOL    HW211967   1.092   0.013   5.991
 3690SOL     OW11968   5.317   5.444   1.927
 3690SOL    HW111969   5.381   5.368   1.938
 3690SOL    HW211970   5.363   5.521   1.882
 3691SOL     OW11971   2.028   2.887   0.376
 3691SOL    HW111972   2.004   2.798   0.338
 3691SOL    HW211973   1.977   2.902   0.460
 3692SOL     OW11974   1.025   3.022   5.472
 3692SOL    HW111975   1.077   3.076   5.537
 3692SOL    HW211976   0.952   3.078   5.432
 3693SOL     OW11977   6.872   1.720   2.308
 3693SOL    HW111978   6.931   1.648   2.345
 3693SOL    HW211979   6.916   1.760   2.227
 3694SOL     OW11980   6.950   0.132   2.783
 3694SOL    HW111981   6.857   0.147   2.748
 3694SOL    HW211982   6.997   0.067   2.724
 3695SOL     OW11983   5.753   3.444   3.040
 3695SOL    HW111984   5.722   3.350   3.033
 3695SOL    HW211985   5.792   3.460   3.130
 3696SOL     OW11986   4.239   0.751   4.471
 3696SOL    HW111987   4.172   0.676   4.472
 3696SOL    HW211988   4.329   0.715   4.495
 3697SOL     OW11989   6.804   6.203   3.262
 3697SOL    HW111990   6.780   6.208   3.165
 3697SOL    HW211991   6.898   6.235   3.274
 3698SOL     OW11992   1.472   0.161   2.928
 3698SOL    HW111993   1.374   0.160   2.909
 3698SOL    HW211994   1.511   0.071   2.906
 3699SOL     OW11995   2.594   2.476   3.345
 3699SOL    HW111996   2.570   2.551   3.406
 3699SOL    HW211997   2.643   2.405   3.397
 3700SOL     OW11998   0.799   5.518   5.047
 3700SOL    HW111999   0.815   5.450   4.975
 3700SOL    HW212000   0.743   5.476   5.119
 3701SOL     OW12001   0.863   0.669   1.913
 3701SOL    HW112002   0.807   0.618   1.847
 3701SOL    HW212003   0.955   0.628   1.916
 3702SOL     OW12004   5.990   4.028   3.203
 3702SOL    HW112005   6.049   3.948   3.202
 3702SOL    HW212006   5.898   4.002   3.231
 3703SOL     OW12007   1.391   1.801   3.484
 3703SOL    HW112008   1.474   1.785   3.430
 3703SOL    HW212009   1.415   1.843   3.571
 3704SOL     OW12010   6.494   1.125   0.400
 3704SOL    HW112011   6.527   1.219   0.406
 3704SOL    HW212012   6.520   1.085   0.312
 3705SOL     OW12013   5.604   4.217   3.971
 3705SOL    HW112014   5.593   4.293   3.906
 3705SOL    HW212015   5.558   4.136   3.935
 3706SOL     OW12016   1.367   3.898   6.221
 3706SOL    HW112017   1.331   3.837   6.150
 3706SOL    HW212018   1.305   3.976   6.233
 3707SOL     OW12019   1.159   5.127   3.274
 3707SOL    HW112020   1.163   5.055   3.343
 3707SOL    HW212021   1.244   5.180   3.276
 3708SOL     OW12022   2.130   6.265   1.282
 3708SOL    HW112023   2.128   6.170   1.316
 3708SOL    HW212024   2.086   6.325   1.349
 3709SOL     OW12025   1.316   1.371   1.542
 3709SOL    HW112026   1.409   1.374   1.506
 3709SOL    HW212027   1.303   1.286   1.594
 3710SOL     OW12028   1.082   4.098   5.159
 3710SOL    HW112029   1.052   4.013   5.203
 3710SOL    HW212030   1.173   4.085   5.120
 3711SOL     OW12031   0.876   6.018   4.531
 3711SOL    HW112032   0.812   6.094   4.541
 3711SOL    HW212033   0.881   5.967   4.617
 3712SOL     OW12034   1.814   5.526   4.205
 3712SOL    HW112035   1.829   5.444   4.259
 3712SOL    HW212036   1.817   5.606   4.264
 3713SOL     OW12037   6.203   0.479   4.481
 3713SOL    HW112038   6.299   0.472   4.453
 3713SOL    HW212039   6.144   0.454   4.405
 3714SOL     OW12040   0.991   3.939   0.380
 3714SOL    HW112041   1.063   3.910   0.443
 3714SOL    HW212042   1.032   3.981   0.299
 3715SOL     OW12043   5.689   4.980   3.610
 3715SOL    HW112044   5.665   5.077   3.615
 3715SOL    HW212045   5.751   4.964   3.533
 3716SOL     OW12046   5.048   5.463   4.839
 3716SOL    HW112047   5.070   5.375   4.882
 3716SOL    HW212048   5.058   5.455   4.740
 3717SOL     OW12049   4.734   1.159   0.811
 3717SOL    HW112050   4.707   1.063   0.818
 3717SOL    HW212051   4.696   1.210   0.889
 3718SOL     OW12052   5.928   6.521   6.544
 3718SOL    HW112053   5.951   6.459   6.469
 3718SOL    HW212054   6.005   6.526   6.607
 3719SOL     OW12055   3.570   3.665   7.002
 3719SOL    HW112056   3.478   3.694   0.010
 3719SOL    HW212057   3.596   3.707   6.915
 3720SOL     OW12058   0.272   3.242   1.096
 3720SOL    HW112059   0.277   3.156   1.045
 3720SOL    HW212060   0.281   3.319   1.032
 3721SOL     OW12061   6.827   0.093   5.677
 3721SOL    HW112062   6.876   0.068   5.594
 3721SOL    HW212063   6.733   0.058   5.673
 3722SOL     OW12064   5.573   6.915   2.586
 3722SOL    HW112065   5.544   6.997   2.537
 3722SOL    HW212066   5.515   6.838   2.559
 3723SOL     OW12067   4.519   3.841   6.985
 3723SOL    HW112068   4.441   3.831   6.923
 3723SOL    HW212069   4.486   3.870   0.057
 3724SOL     OW12070   0.126   5.042   4.287
 3724SOL    HW112071   0.193   5.112   4.264
 3724SOL    HW212072   0.155   4.954   4.251
 3725SOL     OW12073   1.543   6.423   0.256
 3725SOL    HW112074   1.620   6.463   0.306
 3725SOL    HW212075   1.457   6.451   0.298
 3726SOL     OW12076   6.049   3.880   5.372
 3726SOL    HW112077   6.075   3.933   5.291
 3726SOL    HW212078   6.128   3.829   5.406
 3727SOL     OW12079   6.846   2.895   3.815
 3727SOL    HW112080   6.823   2.812   3.867
 3727SOL    HW212081   6.848   2.973   3.878
 3728SOL     OW12082   2.478   3.408   0.603
 3728SOL    HW112083   2.522   3.376   0.519
 3728SOL    HW212084   2.505   3.349   0.678
 3729SOL     OW12085   0.252   0.672   5.901
 3729SOL    HW112086   0.256   0.592   5.961
 3729SOL    HW212087   0.328   0.669   5.836
 3730SOL     OW12088   5.104   5.426   4.556
 3730SOL    HW112089   5.020   5.479   4.543
 3730SOL    HW212090   5.179   5.470   4.506
 3731SOL     OW12091   6.734   2.249   7.011
 3731SOL    HW112092   6.650   2.275   0.040
 3731SOL    HW212093   6.772   2.168   0.037
 3732SOL     OW12094   3.593   2.851   7.008
 3732SOL    HW112095   3.653   2.838   6.930
 3732SOL    HW212096   3.523   2.780   7.010
 3733SOL     OW12097   1.583   0.164   3.557
 3733SOL    HW112098   1.672   0.143   3.596
 3733SOL    HW212099   1.525   0.082   3.560
 3734SOL     OW12100   4.178   0.296   0.943
 3734SOL    HW112101   4.204   0.378   0.891
 3734SOL    HW212102   4.087   0.266   0.915
 3735SOL     OW12103   4.535   6.646   2.797
 3735SOL    HW112104   4.465   6.664   2.728
 3735SOL    HW212105   4.560   6.548   2.795
 3736SOL     OW12106   6.854   1.019   6.700
 3736SOL    HW112107   6.896   0.941   6.747
 3736SOL    HW212108   6.792   0.987   6.629
 3737SOL     OW12109   6.460   2.032   2.912
 3737SOL    HW112110   6.435   2.129   2.900
 3737SOL    HW212111   6.395   1.975   2.862
 3738SOL     OW12112   6.765   6.919   1.541
 3738SOL    HW112113   6.840   6.882   1.487
 3738SOL    HW212114   6.704   6.972   1.481
 3739SOL     OW12115   3.359   3.286   0.014
 3739SOL    HW112116   3.263   3.313   0.015
 3739SOL    HW212117   3.390   3.269   0.108
 3740SOL     OW12118   4.757   5.513   6.678
 3740SOL    HW112119   4.705   5.598   6.687
 3740SOL    HW212120   4.718   5.443   6.738
 3741SOL     OW12121   5.281   3.275   0.279
 3741SOL    HW112122   5.192   3.312   0.251
 3741SOL    HW212123   5.318   3.332   0.353
 3742SOL     OW12124   3.989   5.874   1.196
 3742SOL    HW112125   3.971   5.948   1.131
 3742SOL    HW212126   3.985   5.786   1.149
 3743SOL     OW12127   3.526   3.458   1.300
 3743SOL    HW112128   3.516   3.360   1.318
 3743SOL    HW212129   3.453   3.508   1.346
 3744SOL     OW12130   0.136   6.658   2.223
 3744SOL    HW112131   0.186   6.731   2.269
 3744SOL    HW212132   0.046   6.648   2.264
 3745SOL     OW12133   4.801   2.753   2.586
 3745SOL    HW112134   4.892   2.787   2.563
 3745SOL    HW212135   4.749   2.737   2.502
 3746SOL     OW12136   6.493   0.533   4.453
 3746SOL    HW112137   6.581   0.555   4.410
 3746SOL    HW212138   6.499   0.550   4.552
 3747SOL     OW12139   3.364   6.211   5.462
 3747SOL    HW112140   3.454   6.250   5.483
 3747SOL    HW212141   3.302   6.227   5.539
 3748SOL     OW12142   5.002   2.069   3.296
 3748SOL    HW112143   5.079   2.131   3.285
 3748SOL    HW212144   4.917   2.117   3.276
 3749SOL     OW12145   7.006   6.408   2.763
 3749SOL    HW112146   0.008   6.324   2.814
 3749SOL    HW212147   6.931   6.391   2.700
 3750SOL     OW12148   5.540   4.299   0.927
 3750SOL    HW112149   5.635   4.326   0.913
 3750SOL    HW212150   5.509   4.244   0.850
 3751SOL     OW12151   1.552   3.908   2.024
 3751SOL    HW112152   1.478   3.852   2.060
 3751SOL    HW212153   1.627   3.912   2.091
 3752SOL     OW12154   0.836   6.591   5.931
 3752SOL    HW112155   0.933   6.570   5.944
 3752SOL    HW212156   0.784   6.562   6.011
 3753SOL     OW12157   7.003   0.698   4.708
 3753SOL    HW112158   6.975   0.753   4.629
 3753SOL    HW212159   0.071   0.735   4.745
 3754SOL     OW12160   6.533   6.421   2.009
 3754SOL    HW112161   6.443   6.434   1.967
 3754SOL    HW212162   6.603   6.464   1.951
 3755SOL     OW12163   4.852   2.557   3.086
 3755SOL    HW112164   4.816   2.567   3.178
 3755SOL    HW212165   4.844   2.644   3.037
 3756SOL     OW12166   2.995   0.442   6.916
 3756SOL    HW112167   3.078   0.492   6.939
 3756SOL    HW212168   2.956   0.479   6.831
 3757SOL     OW12169   3.319   4.866   6.994
 3757SOL    HW112170   3.284   4.886   0.067
 3757SOL    HW212171   3.308   4.946   6.936
 3758SOL     OW12172   0.536   0.661   3.614
 3758SOL    HW112173   0.552   0.670   3.712
 3758SOL    HW212174   0.441   0.632   3.598
 3759SOL     OW12175   4.968   4.730   0.299
 3759SOL    HW112176   4.941   4.817   0.258
 3759SOL    HW212177   4.935   4.655   0.242
 3760SOL     OW12178   2.326   2.326   5.328
 3760SOL    HW112179   2.354   2.357   5.419
 3760SOL    HW212180   2.227   2.310   5.328
 3761SOL     OW12181   0.204   6.650   3.931
 3761SOL    HW112182   0.256   6.629   3.848
 3761SOL    HW212183   0.145   6.729   3.913
 3762SOL     OW12184   0.692   3.846   6.618
 3762SOL    HW112185   0.622   3.813   6.681
 3762SOL    HW212186   0.679   3.804   6.528
 3763SOL     OW12187   6.484   3.465   6.098
 3763SOL    HW112188   6.391   3.429   6.110
 3763SOL    HW212189   6.549   3.390   6.105
 3764SOL     OW12190   2.004   6.603   3.717
 3764SOL    HW112191   1.972   6.650   3.800
 3764SOL    HW212192   1.965   6.511   3.714
 3765SOL     OW12193   5.945   1.208   3.912
 3765SOL    HW112194   6.001   1.165   3.983
 3765SOL    HW212195   5.989   1.195   3.823
 3766SOL     OW12196   1.436   0.372   4.837
 3766SOL    HW112197   1.344   0.354   4.871
 3766SOL    HW212198   1.433   0.445   4.769
 3767SOL     OW12199   1.512   4.208   1.228
 3767SOL    HW112200   1.513   4.281   1.160
 3767SOL    HW212201   1.491   4.246   1.318
 3768SOL     OW12202   4.738   6.497   0.596
 3768SOL    HW112203   4.833   6.471   0.617
 3768SOL    HW212204   4.736   6.590   0.559
 3769SOL     OW12205   4.492   6.458   5.081
 3769SOL    HW112206   4.486   6.358   5.078
 3769SOL    HW212207   4.490   6.494   4.988
 3770SOL     OW12208   2.221   1.518   0.252
 3770SOL    HW112209   2.247   1.499   0.157
 3770SOL    HW212210   2.290   1.480   0.314
 3771SOL     OW12211   5.096   1.183   5.451
 3771SOL    HW112212   5.013   1.159   5.500
 3771SOL    HW212213   5.082   1.269   5.402
 3772SOL     OW12214   4.987   1.162   2.630
 3772SOL    HW112215   4.994   1.187   2.727
 3772SOL    HW212216   4.927   1.226   2.583
 3773SOL     OW12217   6.572   2.839   6.594
 3773SOL    HW112218   6.644   2.798   6.538
 3773SOL    HW212219   6.541   2.924   6.553
 3774SOL     OW12220   0.859   1.444   2.075
 3774SOL    HW112221   0.854   1.464   2.173
 3774SOL    HW212222   0.868   1.345   2.061
 3775SOL     OW12223   5.635   3.217   3.742
 3775SOL    HW112224   5.567   3.268   3.795
 3775SOL    HW212225   5.709   3.188   3.803
 3776SOL     OW12226   2.932   3.095   6.604
 3776SOL    HW112227   2.886   3.131   6.522
 3776SOL    HW212228   2.867   3.089   6.679
 3777SOL     OW12229   1.626   4.094   3.379
 3777SOL    HW112230   1.688   4.153   3.430
 3777SOL    HW212231   1.668   4.004   3.366
 3778SOL     OW12232   2.347   6.889   2.018
 3778SOL    HW112233   2.346   6.961   1.949
 3778SOL    HW212234   2.402   6.812   1.985
 3779SOL     OW12235   3.050   4.852   6.454
 3779SOL    HW112236   3.023   4.944   6.425
 3779SOL    HW212237   2.976   4.810   6.507
 3780SOL     OW12238   2.782   6.838   4.560
 3780SOL    HW112239   2.722   6.881   4.628
 3780SOL    HW212240   2.741   6.752   4.529
 3781SOL     OW12241   2.968   5.145   4.975
 3781SOL    HW112242   3.043   5.111   4.919
 3781SOL    HW212243   2.889   5.083   4.966
 3782SOL     OW12244   1.717   1.914   2.913
 3782SOL    HW112245   1.669   1.826   2.919
 3782SOL    HW212246   1.810   1.904   2.948
 3783SOL     OW12247   4.794   5.362   5.747
 3783SOL    HW112248   4.698   5.366   5.720
 3783SOL    HW212249   4.836   5.279   5.710
 3784SOL     OW12250   4.746   1.382   3.806
 3784SOL    HW112251   4.817   1.330   3.854
 3784SOL    HW212252   4.778   1.408   3.716
 3785SOL     OW12253   1.627   1.607   1.778
 3785SOL    HW112254   1.625   1.698   1.735
 3785SOL    HW212255   1.543   1.595   1.832
 3786SOL     OW12256   3.294   5.329   2.585
 3786SOL    HW112257   3.316   5.426   2.570
 3786SOL    HW212258   3.256   5.291   2.501
 3787SOL     OW12259   4.049   1.574   4.396
 3787SOL    HW112260   3.963   1.571   4.344
 3787SOL    HW212261   4.118   1.519   4.349
 3788SOL     OW12262   5.971   3.638   2.071
 3788SOL    HW112263   5.963   3.734   2.099
 3788SOL    HW212264   5.896   3.585   2.110
 3789SOL     OW12265   1.073   4.972   2.762
 3789SOL    HW112266   1.007   4.896   2.762
 3789SOL    HW212267   1.055   5.031   2.684
 3790SOL     OW12268   2.067   3.187   3.911
 3790SOL    HW112269   2.078   3.279   3.874
 3790SOL    HW212270   2.081   3.188   4.010
 3791SOL     OW12271   5.101   0.463   2.068
 3791SOL    HW112272   5.085   0.475   1.970
 3791SOL    HW212273   5.056   0.379   2.099
 3792SOL     OW12274   0.160   6.931   5.836
 3792SOL    HW112275   0.187   6.835   5.824
 3792SOL    HW212276   0.105   6.940   5.919
 3793SOL     OW12277   2.082   6.807   2.760
 3793SOL    HW112278   2.005   6.871   2.750
 3793SOL    HW212279   2.145   6.843   2.828
 3794SOL     OW12280   4.110   6.173   2.351
 3794SOL    HW112281   4.179   6.102   2.339
 3794SOL    HW212282   4.022   6.131   2.375
 3795SOL     OW12283   4.557   0.129   0.199
 3795SOL    HW112284   4.520   0.215   0.164
 3795SOL    HW212285   4.652   0.119   0.168
 3796SOL     OW12286   1.762   2.497   1.377
 3796SOL    HW112287   1.672   2.540   1.368
 3796SOL    HW212288   1.831   2.559   1.340
 3797SOL     OW12289   0.233   5.428   2.679
 3797SOL    HW112290   0.192   5.485   2.609
 3797SOL    HW212291   0.234   5.476   2.767
 3798SOL     OW12292   1.354   4.413   1.920
 3798SOL    HW112293   1.379   4.317   1.927
 3798SOL    HW212294   1.323   4.433   1.827
 3799SOL     OW12295   1.811   0.392   5.260
 3799SOL    HW112296   1.720   0.428   5.281
 3799SOL    HW212297   1.807   0.293   5.256
 3800SOL     OW12298   4.888   2.502   4.817
 3800SOL    HW112299   4.789   2.507   4.813
 3800SOL    HW212300   4.925   2.499   4.724
 3801SOL     OW12301   0.059   0.429   6.765
 3801SOL    HW112302   0.128   0.458   6.831
 3801SOL    HW212303   6.988   0.463   6.793
 3802SOL     OW12304   1.827   2.398   5.177
 3802SOL    HW112305   1.842   2.497   5.172
 3802SOL    HW212306   1.734   2.380   5.208
 3803SOL     OW12307   3.756   1.375   0.969
 3803SOL    HW112308   3.668   1.419   0.981
 3803SOL    HW212309   3.763   1.296   1.030
 3804SOL     OW12310   4.898   2.593   5.737
 3804SOL    HW112311   4.952   2.562   5.659
 3804SOL    HW212312   4.881   2.691   5.729
 3805SOL     OW12313   1.938   3.598   1.018
 3805SOL    HW112314   1.972   3.662   1.086
 3805SOL    HW212315   1.926   3.646   0.931
 3806SOL     OW12316   3.014   1.551   0.237
 3806SOL    HW112317   2.971   1.540   0.327
 3806SOL    HW212318   2.962   1.500   0.169
 3807SOL     OW12319   1.317   6.822   3.055
 3807SOL    HW112320   1.329   6.910   3.008
 3807SOL    HW212321   1.221   6.794   3.051
 3808SOL     OW12322   3.178   0.830   1.091
 3808SOL    HW112323   3.152   0.741   1.129
 3808SOL    HW212324   3.270   0.824   1.052
 3809SOL     OW12325   4.551   0.678   6.453
 3809SOL    HW112326   4.529   0.587   6.486
 3809SOL    HW212327   4.623   0.718   6.510
 3810SOL     OW12328   2.759   3.113   5.291
 3810SOL    HW112329   2.786   3.208   5.273
 3810SOL    HW212330   2.661   3.102   5.272
 3811SOL     OW12331   0.413   0.120   6.165
 3811SOL    HW112332   0.315   0.122   6.184
 3811SOL    HW212333   0.429   0.144   6.069
 3812SOL     OW12334   5.538   1.404   5.638
 3812SOL    HW112335   5.474   1.422   5.712
 3812SOL    HW212336   5.561   1.306   5.637
 3813SOL     OW12337   3.755   4.972   1.832
 3813SOL    HW112338   3.809   4.979   1.916
 3813SOL    HW212339   3.690   4.896   1.841
 3814SOL     OW12340   1.502   6.671   2.433
 3814SOL    HW112341   1.513   6.769   2.418
 3814SOL    HW212342   1.472   6.654   2.527
 3815SOL     OW12343   5.731   1.991   1.651
 3815SOL    HW112344   5.759   2.059   1.719
 3815SOL    HW212345   5.811   1.961   1.598
 3816SOL     OW12346   0.469   6.632   1.622
 3816SOL    HW112347   0.478   6.575   1.540
 3816SOL    HW212348   0.534   6.707   1.619
 3817SOL     OW12349   5.042   1.890   5.119
 3817SOL    HW112350   5.069   1.830   5.194
 3817SOL    HW212351   5.110   1.885   5.045
 3818SOL     OW12352   5.089   5.071   2.938
 3818SOL    HW112353   5.163   5.086   2.872
 3818SOL    HW212354   5.064   4.974   2.939
 3819SOL     OW12355   5.545   4.231   6.073
 3819SOL    HW112356   5.447   4.210   6.072
 3819SOL    HW212357   5.568   4.287   5.993
 3820SOL     OW12358   5.513   6.330   4.154
 3820SOL    HW112359   5.579   6.398   4.121
 3820SOL    HW212360   5.546   6.290   4.239
 3821SOL     OW12361   0.855   4.037   1.741
 3821SOL    HW112362   0.901   3.981   1.811
 3821SOL    HW212363   0.868   3.995   1.651
 3822SOL     OW12364   2.042   5.153   2.098
 3822SOL    HW112365   1.989   5.109   2.170
 3822SOL    HW212366   2.079   5.239   2.132
 3823SOL     OW12367   3.032   2.817   5.455
 3823SOL    HW112368   3.100   2.753   5.418
 3823SOL    HW212369   3.031   2.900   5.400
 3824SOL     OW12370   6.896   2.410   6.345
 3824SOL    HW112371   6.823   2.420   6.412
 3824SOL    HW212372   6.907   2.314   6.320
 3825SOL     OW12373   6.774   0.231   6.460
 3825SOL    HW112374   6.715   0.275   6.393
 3825SOL    HW212375   6.745   0.136   6.473
 3826SOL     OW12376   6.742   2.118   1.115
 3826SOL    HW112377   6.818   2.182   1.127
 3826SOL    HW212378   6.776   2.024   1.123
 3827SOL     OW12379   4.566   3.615   0.921
 3827SOL    HW112380   4.534   3.544   0.858
 3827SOL    HW212381   4.655   3.590   0.957
 3828SOL     OW12382   3.995   1.014   1.768
 3828SOL    HW112383   4.087   0.990   1.736
 3828SOL    HW212384   3.983   1.113   1.764
 3829SOL     OW12385   1.424   5.185   3.299
 3829SOL    HW112386   1.490   5.112   3.280
 3829SOL    HW212387   1.459   5.242   3.373
 3830SOL     OW12388   2.872   0.127   5.011
 3830SOL    HW112389   2.887   0.148   4.914
 3830SOL    HW212390   2.939   0.060   5.042
 3831SOL     OW12391   4.416   1.487   2.139
 3831SOL    HW112392   4.356   1.418   2.179
 3831SOL    HW212393   4.411   1.571   2.192
 3832SOL     OW12394   5.275   6.660   2.513
 3832SOL    HW112395   5.309   6.668   2.419
 3832SOL    HW212396   5.350   6.636   2.574
 3833SOL     OW12397   1.524   5.336   6.809
 3833SOL    HW112398   1.437   5.324   6.857
 3833SOL    HW212399   1.529   5.428   6.771
 3834SOL     OW12400   2.324   2.316   0.896
 3834SOL    HW112401   2.408   2.341   0.944
 3834SOL    HW212402   2.311   2.379   0.819
 3835SOL     OW12403   3.545   6.046   4.232
 3835SOL    HW112404   3.609   6.077   4.161
 3835SOL    HW212405   3.461   6.013   4.189
 3836SOL     OW12406   1.721   3.129   5.006
 3836SOL    HW112407   1.625   3.099   5.000
 3836SOL    HW212408   1.780   3.049   5.017
 3837SOL     OW12409   3.651   3.362   0.300
 3837SOL    HW112410   3.554   3.337   0.304
 3837SOL    HW212411   3.665   3.447   0.350
 3838SOL     OW12412   5.766   3.699   5.212
 3838SOL    HW112413   5.857   3.658   5.224
 3838SOL    HW212414   5.704   3.630   5.175
 3839SOL     OW12415   6.386   6.563   6.150
 3839SOL    HW112416   6.387   6.470   6.113
 3839SOL    HW212417   6.294   6.586   6.182
 3840SOL     OW12418   2.542   0.183   3.732
 3840SOL    HW112419   2.569   0.193   3.637
 3840SOL    HW212420   2.590   0.250   3.788
 3841SOL     OW12421   0.347   3.830   4.441
 3841SOL    HW112422   0.249   3.833   4.459
 3841SOL    HW212423   0.397   3.828   4.528
 3842SOL     OW12424   1.425   4.923   6.399
 3842SOL    HW112425   1.417   4.997   6.465
 3842SOL    HW212426   1.337   4.911   6.352
 3843SOL     OW12427   6.236   4.173   0.768
 3843SOL    HW112428   6.281   4.230   0.699
 3843SOL    HW212429   6.157   4.222   0.805
 3844SOL     OW12430   2.381   4.348   6.465
 3844SOL    HW112431   2.324   4.351   6.384
 3844SOL    HW212432   2.404   4.253   6.486
 3845SOL     OW12433   3.150   3.578   3.944
 3845SOL    HW112434   3.196   3.659   3.908
 3845SOL    HW212435   3.074   3.553   3.884
 3846SOL     OW12436   6.967   4.265   3.631
 3846SOL    HW112437   6.920   4.327   3.568
 3846SOL    HW212438   0.028   4.312   3.671
 3847SOL     OW12439   0.786   0.355   0.678
 3847SOL    HW112440   0.758   0.281   0.617
 3847SOL    HW212441   0.798   0.439   0.626
 3848SOL     OW12442   3.332   4.988   0.562
 3848SOL    HW112443   3.423   5.013   0.529
 3848SOL    HW212444   3.262   5.041   0.514
 3849SOL     OW12445   2.316   2.121   6.113
 3849SOL    HW112446   2.313   2.069   6.199
 3849SOL    HW212447   2.406   2.163   6.103
 3850SOL     OW12448   2.355   3.591   1.424
 3850SOL    HW112449   2.256   3.583   1.412
 3850SOL    HW212450   2.387   3.678   1.388
 3851SOL     OW12451   2.055   3.030   1.381
 3851SOL    HW112452   2.016   2.996   1.467
 3851SOL    HW212453   2.149   2.997   1.371
 3852SOL     OW12454   4.706   0.825   6.151
 3852SOL    HW112455   4.651   0.902   6.185
 3852SOL    HW212456   4.646   0.748   6.129
 3853SOL     OW12457   1.428   2.881   2.118
 3853SOL    HW112458   1.398   2.841   2.205
 3853SOL    HW212459   1.519   2.846   2.094
 3854SOL     OW12460   1.261   3.001   4.758
 3854SOL    HW112461   1.335   3.030   4.697
 3854SOL    HW212462   1.198   2.942   4.708
 3855SOL     OW12463   0.068   1.831   5.058
 3855SOL    HW112464   0.156   1.829   5.009
 3855SOL    HW212465   0.019   1.746   5.041
 3856SOL     OW12466   0.666   6.657   5.584
 3856SOL    HW112467   0.744   6.594   5.587
 3856SOL    HW212468   0.691   6.738   5.532
 3857SOL     OW12469   1.034   6.868   6.728
 3857SOL    HW112470   0.996   6.897   6.641
 3857SOL    HW212471   1.088   6.943   6.767
 3858SOL     OW12472   2.298   5.220   6.694
 3858SOL    HW112473   2.397   5.228   6.704
 3858SOL    HW212474   2.253   5.295   6.742
 3859SOL     OW12475   6.788   2.625   1.691
 3859SOL    HW112476   6.838   2.539   1.696
 3859SOL    HW212477   6.848   2.701   1.715
 3860SOL     OW12478   1.935   6.429   5.117
 3860SOL    HW112479   1.933   6.368   5.196
 3860SOL    HW212480   1.970   6.380   5.038
 3861SOL     OW12481   4.056   4.495   0.512
 3861SOL    HW112482   4.030   4.591   0.496
 3861SOL    HW212483   4.153   4.491   0.537
 3862SOL     OW12484   1.036   5.249   5.957
 3862SOL    HW112485   1.043   5.333   5.902
 3862SOL    HW212486   0.947   5.247   6.003
 3863SOL     OW12487   3.271   3.218   0.549
 3863SOL    HW112488   3.222   3.303   0.568
 3863SOL    HW212489   3.339   3.202   0.620
 3864SOL     OW12490   2.820   1.827   7.004
 3864SOL    HW112491   2.861   1.840   6.913
 3864SOL    HW212492   2.829   1.731   0.012
 3865SOL     OW12493   4.586   0.425   2.457
 3865SOL    HW112494   4.516   0.484   2.499
 3865SOL    HW212495   4.541   0.358   2.399
 3866SOL     OW12496   3.686   6.381   6.017
 3866SOL    HW112497   3.686   6.450   6.088
 3866SOL    HW212498   3.713   6.422   5.930
 3867SOL     OW12499   2.010   4.280   3.641
 3867SOL    HW112500   1.993   4.196   3.691
 3867SOL    HW212501   2.014   4.357   3.705
 3868SOL     OW12502   1.545   5.495   2.425
 3868SOL    HW112503   1.605   5.428   2.382
 3868SOL    HW212504   1.454   5.490   2.384
 3869SOL     OW12505   1.691   1.739   3.626
 3869SOL    HW112506   1.728   1.716   3.717
 3869SOL    HW212507   1.606   1.789   3.636
 3870SOL     OW12508   4.124   4.068   0.380
 3870SOL    HW112509   4.168   3.979   0.393
 3870SOL    HW212510   4.174   4.119   0.309
 3871SOL     OW12511   2.909   1.636   4.630
 3871SOL    HW112512   2.818   1.624   4.670
 3871SOL    HW212513   2.979   1.618   4.699
 3872SOL     OW12514   4.195   3.766   0.377
 3872SOL    HW112515   4.102   3.731   0.365
 3872SOL    HW212516   4.242   3.714   0.449
 3873SOL     OW12517   5.216   4.727   1.749
 3873SOL    HW112518   5.250   4.741   1.656
 3873SOL    HW212519   5.195   4.815   1.790
 3874SOL     OW12520   4.901   5.898   6.387
 3874SOL    HW112521   4.999   5.879   6.382
 3874SOL    HW212522   4.851   5.822   6.347
 3875SOL     OW12523   2.224   4.229   0.193
 3875SOL    HW112524   2.249   4.212   0.288
 3875SOL    HW212525   2.285   4.298   0.155
 3876SOL     OW12526   5.562   4.064   2.174
 3876SOL    HW112527   5.572   4.051   2.272
 3876SOL    HW212528   5.560   4.162   2.153
 3877SOL     OW12529   5.590   1.362   1.914
 3877SOL    HW112530   5.682   1.356   1.876
 3877SOL    HW212531   5.567   1.458   1.931
 3878SOL     OW12532   4.283   6.047   4.416
 3878SOL    HW112533   4.243   6.061   4.507
 3878SOL    HW212534   4.265   5.954   4.385
 3879SOL     OW12535   2.980   5.697   1.609
 3879SOL    HW112536   2.916   5.651   1.670
 3879SOL    HW212537   3.071   5.659   1.622
 3880SOL     OW12538   5.611   2.423   3.995
 3880SOL    HW112539   5.675   2.498   3.977
 3880SOL    HW212540   5.521   2.460   4.016
 3881SOL     OW12541   1.110   5.180   0.882
 3881SOL    HW112542   1.086   5.259   0.826
 3881SOL    HW212543   1.139   5.105   0.823
 3882SOL     OW12544   1.025   5.827   6.423
 3882SOL    HW112545   1.100   5.893   6.431
 3882SOL    HW212546   0.939   5.871   6.448
 3883SOL     OW12547   3.088   1.882   6.487
 3883SOL    HW112548   3.182   1.848   6.488
 3883SOL    HW212549   3.086   1.974   6.525
 3884SOL     OW12550   1.923   4.953   5.272
 3884SOL    HW112551   1.879   4.915   5.353
 3884SOL    HW212552   1.966   5.040   5.295
 3885SOL     OW12553   0.329   1.726   5.245
 3885SOL    HW112554   0.256   1.693   5.185
 3885SOL    HW212555   0.347   1.659   5.316
 3886SOL     OW12556   0.384   6.363   5.365
 3886SOL    HW112557   0.325   6.443   5.349
 3886SOL    HW212558   0.433   6.340   5.280
 3887SOL     OW12559   5.308   3.056   4.735
 3887SOL    HW112560   5.280   2.986   4.669
 3887SOL    HW212561   5.405   3.044   4.758
 3888SOL     OW12562   5.674   2.165   2.072
 3888SOL    HW112563   5.753   2.111   2.102
 3888SOL    HW212564   5.686   2.191   1.976
 3889SOL     OW12565   6.884   5.754   6.988
 3889SOL    HW112566   6.967   5.792   6.947
 3889SOL    HW212567   6.891   5.655   6.993
 3890SOL     OW12568   6.775   3.102   2.548
 3890SOL    HW112569   6.827   3.149   2.477
 3890SOL    HW212570   6.703   3.047   2.506
 3891SOL     OW12571   5.690   5.542   6.065
 3891SOL    HW112572   5.635   5.625   6.075
 3891SOL    HW212573   5.637   5.463   6.096
 3892SOL     OW12574   5.410   5.418   4.534
 3892SOL    HW112575   5.455   5.422   4.444
 3892SOL    HW212576   5.337   5.349   4.531
 3893SOL     OW12577   3.285   5.903   4.191
 3893SOL    HW112578   3.218   5.873   4.259
 3893SOL    HW212579   3.278   6.002   4.178
 3894SOL     OW12580   4.993   5.731   6.960
 3894SOL    HW112581   5.021   5.714   6.866
 3894SOL    HW212582   5.011   5.826   6.984
 3895SOL     OW12583   2.048   2.217   5.624
 3895SOL    HW112584   2.102   2.193   5.705
 3895SOL    HW212585   1.959   2.171   5.628
 3896SOL     OW12586   6.410   2.716   6.352
 3896SOL    HW112587   6.414   2.661   6.269
 3896SOL    HW212588   6.498   2.762   6.367
 3897SOL     OW12589   3.274   6.741   3.182
 3897SOL    HW112590   3.286   6.692   3.096
 3897SOL    HW212591   3.326   6.697   3.254
 3898SOL     OW12592   2.904   3.703   4.519
 3898SOL    HW112593   2.905   3.743   4.611
 3898SOL    HW212594   2.862   3.612   4.523
 3899SOL     OW12595   4.454   1.712   5.201
 3899SOL    HW112596   4.449   1.808   5.173
 3899SOL    HW212597   4.516   1.662   5.140
 3900SOL     OW12598   6.848   2.714   4.101
 3900SOL    HW112599   6.939   2.706   4.059
 3900SOL    HW212600   6.855   2.764   4.187
 3901SOL     OW12601   2.807   5.564   4.957
 3901SOL    HW112602   2.886   5.619   4.983
 3901SOL    HW212603   2.835   5.492   4.894
 3902SOL     OW12604   4.412   4.569   2.732
 3902SOL    HW112605   4.342   4.559   2.662
 3902SOL    HW212606   4.460   4.482   2.744
 3903SOL     OW12607   4.458   3.250   5.733
 3903SOL    HW112608   4.477   3.195   5.652
 3903SOL    HW212609   4.401   3.197   5.797
 3904SOL     OW12610   2.418   6.491   0.453
 3904SOL    HW112611   2.516   6.508   0.442
 3904SOL    HW212612   2.404   6.400   0.491
 3905SOL     OW12613   6.010   0.432   6.121
 3905SOL    HW112614   5.965   0.449   6.033
 3905SOL    HW212615   5.979   0.344   6.158
 3906SOL     OW12616   0.317   6.230   4.782
 3906SOL    HW112617   0.351   6.322   4.765
 3906SOL    HW212618   0.380   6.163   4.742
 3907SOL     OW12619   0.773   1.709   4.894
 3907SOL    HW112620   0.690   1.735   4.943
 3907SOL    HW212621   0.835   1.787   4.891
 3908SOL     OW12622   2.368   1.175   4.573
 3908SOL    HW112623   2.439   1.119   4.616
 3908SOL    HW212624   2.289   1.182   4.634
 3909SOL     OW12625   5.034   3.300   1.530
 3909SOL    HW112626   5.110   3.294   1.465
 3909SOL    HW212627   5.028   3.215   1.583
 3910SOL     OW12628   2.701   2.473   0.816
 3910SOL    HW112629   2.795   2.466   0.782
 3910SOL    HW212630   2.701   2.464   0.916
 3911SOL     OW12631   0.050   0.827   1.697
 3911SOL    HW112632   0.119   0.759   1.722
 3911SOL    HW212633   0.040   0.828   1.597
 3912SOL     OW12634   4.183   4.390   6.943
 3912SOL    HW112635   4.278   4.422   6.950
 3912SOL    HW212636   4.124   4.468   6.922
 3913SOL     OW12637   4.166   5.659   1.370
 3913SOL    HW112638   4.160   5.606   1.285
 3913SOL    HW212639   4.220   5.741   1.354
 3914SOL     OW12640   6.590   2.481   6.924
 3914SOL    HW112641   6.563   2.528   6.840
 3914SOL    HW212642   6.614   2.386   6.904
 3915SOL     OW12643   5.042   0.395   5.499
 3915SOL    HW112644   5.108   0.428   5.431
 3915SOL    HW212645   5.037   0.460   5.574
 3916SOL     OW12646   1.926   2.816   2.093
 3916SOL    HW112647   1.956   2.873   2.170
 3916SOL    HW212648   1.982   2.733   2.090
 3917SOL     OW12649   3.987   4.798   2.251
 3917SOL    HW112650   3.918   4.847   2.197
 3917SOL    HW212651   3.993   4.704   2.218
 3918SOL     OW12652   5.169   0.072   0.378
 3918SOL    HW112653   5.206   0.015   0.451
 3918SOL    HW212654   5.106   0.140   0.417
 3919SOL     OW12655   5.030   5.696   3.739
 3919SOL    HW112656   4.931   5.688   3.750
 3919SOL    HW212657   5.051   5.778   3.685
 3920SOL     OW12658   3.086   1.764   5.493
 3920SOL    HW112659   3.005   1.758   5.436
 3920SOL    HW212660   3.087   1.852   5.541
 3921SOL     OW12661   1.561   3.471   6.104
 3921SOL    HW112662   1.620   3.549   6.081
 3921SOL    HW212663   1.561   3.458   6.203
 3922SOL     OW12664   4.917   3.320   3.429
 3922SOL    HW112665   4.996   3.369   3.466
 3922SOL    HW212666   4.941   3.282   3.339
 3923SOL     OW12667   6.162   1.789   1.719
 3923SOL    HW112668   6.083   1.740   1.683
 3923SOL    HW212669   6.136   1.838   1.802
 3924SOL     OW12670   4.749   4.660   4.558
 3924SOL    HW112671   4.817   4.617   4.618
 3924SOL    HW212672   4.665   4.606   4.559
 3925SOL     OW12673   4.375   5.916   1.688
 3925SOL    HW112674   4.447   5.972   1.730
 3925SOL    HW212675   4.310   5.975   1.640
 3926SOL     OW12676   0.834   5.806   5.093
 3926SOL    HW112677   0.839   5.707   5.078
 3926SOL    HW212678   0.746   5.840   5.058
 3927SOL     OW12679   5.902   1.549   5.022
 3927SOL    HW112680   5.812   1.511   5.044
 3927SOL    HW212681   5.973   1.490   5.060
 3928SOL     OW12682   3.736   5.556   2.238
 3928SOL    HW112683   3.769   5.549   2.332
 3928SOL    HW212684   3.772   5.479   2.184
 3929SOL     OW12685   0.950   1.591   5.709
 3929SOL    HW112686   0.960   1.525   5.633
 3929SOL    HW212687   0.885   1.662   5.683
 3930SOL     OW12688   1.449   5.279   3.559
 3930SOL    HW112689   1.454   5.281   3.659
 3930SOL    HW212690   1.408   5.364   3.526
 3931SOL     OW12691   1.085   2.515   7.008
 3931SOL    HW112692   1.132   2.433   6.975
 3931SOL    HW212693   0.986   2.505   6.994
 3932SOL     OW12694   2.417   4.518   2.735
 3932SOL    HW112695   2.494   4.555   2.682
 3932SOL    HW212696   2.396   4.426   2.703
 3933SOL     OW12697   2.102   5.761   1.283
 3933SOL    HW112698   2.040   5.839   1.283
 3933SOL    HW212699   2.156   5.760   1.367
 3934SOL     OW12700   2.129   6.669   1.432
 3934SOL    HW112701   2.033   6.640   1.438
 3934SOL    HW212702   2.181   6.626   1.505
 3935SOL     OW12703   6.975   2.933   5.121
 3935SOL    HW112704   6.960   2.926   5.219
 3935SOL    HW212705   6.888   2.954   5.075
 3936SOL     OW12706   0.309   4.459   4.815
 3936SOL    HW112707   0.244   4.463   4.738
 3936SOL    HW212708   0.401   4.445   4.779
 3937SOL     OW12709   0.919   6.362   0.312
 3937SOL    HW112710   0.960   6.401   0.394
 3937SOL    HW212711   0.960   6.404   0.231
 3938SOL     OW12712   0.480   3.239   0.752
 3938SOL    HW112713   0.384   3.261   0.734
 3938SOL    HW212714   0.513   3.296   0.827
 3939SOL     OW12715   1.605   6.132   3.413
 3939SOL    HW112716   1.602   6.055   3.350
 3939SOL    HW212717   1.513   6.168   3.427
 3940SOL     OW12718   2.648   5.640   6.721
 3940SOL    HW112719   2.688   5.617   6.632
 3940SOL    HW212720   2.561   5.688   6.707
 3941SOL     OW12721   4.989   5.722   2.425
 3941SOL    HW112722   5.020   5.639   2.472
 3941SOL    HW212723   4.980   5.704   2.327
 3942SOL     OW12724   6.629   6.433   6.387
 3942SOL    HW112725   6.639   6.449   6.289
 3942SOL    HW212726   6.628   6.521   6.436
 3943SOL     OW12727   2.083   3.356   6.554
 3943SOL    HW112728   2.039   3.432   6.603
 3943SOL    HW212729   2.028   3.332   6.474
 3944SOL     OW12730   4.362   3.140   6.761
 3944SOL    HW112731   4.370   3.167   6.665
 3944SOL    HW212732   4.448   3.163   6.808
 3945SOL     OW12733   5.614   0.571   3.225
 3945SOL    HW112734   5.626   0.472   3.218
 3945SOL    HW212735   5.632   0.600   3.319
 3946SOL     OW12736   0.629   3.268   0.154
 3946SOL    HW112737   0.530   3.276   0.150
 3946SOL    HW212738   0.671   3.358   0.142
 3947SOL     OW12739   5.162   6.627   2.138
 3947SOL    HW112740   5.242   6.638   2.197
 3947SOL    HW212741   5.079   6.633   2.193
 3948SOL     OW12742   1.961   1.787   5.023
 3948SOL    HW112743   1.944   1.875   5.068
 3948SOL    HW212744   2.060   1.776   5.009
 3949SOL     OW12745   6.723   6.866   2.473
 3949SOL    HW112746   6.670   6.796   2.520
 3949SOL    HW212747   6.693   6.872   2.378
 3950SOL     OW12748   3.106   4.611   1.642
 3950SOL    HW112749   3.186   4.552   1.657
 3950SOL    HW212750   3.041   4.598   1.717
 3951SOL     OW12751   0.764   2.375   3.991
 3951SOL    HW112752   0.700   2.300   3.972
 3951SOL    HW212753   0.855   2.338   4.007
 3952SOL     OW12754   5.699   4.049   6.920
 3952SOL    HW112755   5.670   3.997   7.001
 3952SOL    HW212756   5.791   4.085   6.935
 3953SOL     OW12757   3.083   3.887   5.768
 3953SOL    HW112758   3.032   3.834   5.700
 3953SOL    HW212759   3.124   3.825   5.834
 3954SOL     OW12760   0.406   3.291   4.988
 3954SOL    HW112761   0.328   3.342   4.952
 3954SOL    HW212762   0.448   3.343   5.063
 3955SOL     OW12763   6.097   3.812   0.209
 3955SOL    HW112764   6.175   3.861   0.171
 3955SOL    HW212765   6.014   3.865   0.193
 3956SOL     OW12766   6.650   2.421   5.474
 3956SOL    HW112767   6.590   2.442   5.397
 3956SOL    HW212768   6.712   2.498   5.491
 3957SOL     OW12769   0.477   1.802   1.729
 3957SOL    HW112770   0.476   1.848   1.818
 3957SOL    HW212771   0.475   1.703   1.744
 3958SOL     OW12772   5.247   6.253   0.628
 3958SOL    HW112773   5.261   6.239   0.530
 3958SOL    HW212774   5.321   6.210   0.679
 3959SOL     OW12775   2.010   5.448   1.826
 3959SOL    HW112776   2.015   5.542   1.793
 3959SOL    HW212777   2.095   5.400   1.804
 3960SOL     OW12778   4.823   3.328   0.847
 3960SOL    HW112779   4.855   3.387   0.921
 3960SOL    HW212780   4.832   3.377   0.759
 3961SOL     OW12781   6.611   0.498   1.766
 3961SOL    HW112782   6.710   0.495   1.775
 3961SOL    HW212783   6.587   0.523   1.672
 3962SOL     OW12784   0.137   0.169   6.162
 3962SOL    HW112785   0.153   0.258   6.203
 3962SOL    HW212786   0.085   0.180   6.077
 3963SOL     OW12787   4.953   4.376   4.019
 3963SOL    HW112788   4.867   4.410   4.056
 3963SOL    HW212789   4.935   4.318   3.939
 3964SOL     OW12790   5.725   5.785   0.383
 3964SOL    HW112791   5.736   5.851   0.456
 3964SOL    HW212792   5.771   5.819   0.300
 3965SOL     OW12793   3.629   3.392   1.032
 3965SOL    HW112794   3.640   3.425   1.126
 3965SOL    HW212795   3.653   3.464   0.968
 3966SOL     OW12796   6.748   4.329   5.980
 3966SOL    HW112797   6.816   4.268   6.023
 3966SOL    HW212798   6.740   4.413   6.035
 3967SOL     OW12799   2.007   6.461   0.401
 3967SOL    HW112800   2.034   6.373   0.442
 3967SOL    HW212801   1.942   6.507   0.462
 3968SOL     OW12802   4.918   2.133   0.994
 3968SOL    HW112803   4.822   2.158   0.985
 3968SOL    HW212804   4.925   2.052   1.053
 3969SOL     OW12805   0.082   6.455   0.983
 3969SOL    HW112806   0.040   6.382   0.929
 3969SOL    HW212807   0.123   6.416   1.065
 3970SOL     OW12808   5.144   4.344   4.263
 3970SOL    HW112809   5.097   4.385   4.341
 3970SOL    HW212810   5.078   4.296   4.206
 3971SOL     OW12811   6.894   6.499   4.037
 3971SOL    HW112812   6.936   6.589   4.025
 3971SOL    HW212813   6.795   6.509   4.038
 3972SOL     OW12814   0.973   0.112   6.395
 3972SOL    HW112815   0.953   0.099   6.298
 3972SOL    HW212816   0.907   0.176   6.434
 3973SOL     OW12817   3.348   2.892   3.144
 3973SOL    HW112818   3.271   2.921   3.202
 3973SOL    HW212819   3.320   2.898   3.048
 3974SOL     OW12820   5.606   1.216   6.661
 3974SOL    HW112821   5.571   1.300   6.619
 3974SOL    HW212822   5.555   1.138   6.627
 3975SOL     OW12823   0.241   6.750   5.524
 3975SOL    HW112824   0.244   6.665   5.471
 3975SOL    HW212825   0.149   6.762   5.561
 3976SOL     OW12826   0.485   2.735   6.421
 3976SOL    HW112827   0.404   2.759   6.474
 3976SOL    HW212828   0.505   2.809   6.356
 3977SOL     OW12829   3.123   5.657   4.776
 3977SOL    HW112830   3.085   5.647   4.868
 3977SOL    HW212831   3.146   5.753   4.760
 3978SOL     OW12832   6.427   3.787   6.890
 3978SOL    HW112833   6.474   3.847   6.955
 3978SOL    HW212834   6.329   3.805   6.893
 3979SOL     OW12835   1.393   6.736   3.313
 3979SOL    HW112836   1.370   6.788   3.231
 3979SOL    HW212837   1.491   6.716   3.313
 3980SOL     OW12838   4.757   4.104   4.075
 3980SOL    HW112839   4.759   4.040   3.998
 3980SOL    HW212840   4.711   4.188   4.047
 3981SOL     OW12841   6.626   1.399   6.118
 3981SOL    HW112842   6.555   1.349   6.068
 3981SOL    HW212843   6.659   1.475   6.062
 3982SOL     OW12844   1.938   2.806   4.040
 3982SOL    HW112845   1.847   2.822   4.079
 3982SOL    HW212846   1.994   2.756   4.107
 3983SOL     OW12847   2.964   6.486   4.098
 3983SOL    HW112848   2.988   6.425   4.022
 3983SOL    HW212849   2.865   6.489   4.109
 3984SOL     OW12850   1.874   6.029   2.190
 3984SOL    HW112851   1.942   5.979   2.136
 3984SOL    HW212852   1.867   6.123   2.156
 3985SOL     OW12853   1.594   2.822   1.702
 3985SOL    HW112854   1.666   2.883   1.733
 3985SOL    HW212855   1.584   2.828   1.603
 3986SOL     OW12856   0.839   2.260   2.282
 3986SOL    HW112857   0.786   2.324   2.339
 3986SOL    HW212858   0.874   2.308   2.202
 3987SOL     OW12859   1.780   3.962   5.227
 3987SOL    HW112860   1.838   3.980   5.307
 3987SOL    HW212861   1.830   3.903   5.163
 3988SOL     OW12862   5.168   6.954   1.142
 3988SOL    HW112863   5.208   6.884   1.083
 3988SOL    HW212864   5.115   6.910   1.215
 3989SOL     OW12865   4.224   0.510   5.620
 3989SOL    HW112866   4.215   0.601   5.660
 3989SOL    HW212867   4.133   0.473   5.602
 3990SOL     OW12868   0.354   2.136   3.573
 3990SOL    HW112869   0.339   2.064   3.506
 3990SOL    HW212870   0.398   2.098   3.654
 3991SOL     OW12871   1.048   2.012   3.519
 3991SOL    HW112872   1.018   2.083   3.455
 3991SOL    HW212873   1.081   1.934   3.467
 3992SOL     OW12874   5.972   3.590   6.470
 3992SOL    HW112875   5.935   3.497   6.467
 3992SOL    HW212876   6.043   3.600   6.400
 3993SOL     OW12877   2.028   0.439   4.212
 3993SOL    HW112878   1.946   0.386   4.237
 3993SOL    HW212879   2.055   0.416   4.118
 3994SOL     OW12880   3.038   1.862   3.366
 3994SOL    HW112881   3.011   1.785   3.423
 3994SOL    HW212882   2.961   1.925   3.357
 3995SOL     OW12883   1.673   3.085   2.370
 3995SOL    HW112884   1.675   3.089   2.270
 3995SOL    HW212885   1.762   3.055   2.404
 3996SOL     OW12886   6.008   6.258   5.230
 3996SOL    HW112887   5.925   6.203   5.228
 3996SOL    HW212888   6.015   6.311   5.145
 3997SOL     OW12889   5.137   3.388   2.906
 3997SOL    HW112890   5.046   3.430   2.912
 3997SOL    HW212891   5.127   3.290   2.889
 3998SOL     OW12892   4.602   1.940   3.208
 3998SOL    HW112893   4.593   2.008   3.281
 3998SOL    HW212894   4.556   1.973   3.126
 3999SOL     OW12895   4.040   3.315   1.112
 3999SOL    HW112896   4.073   3.279   1.199
 3999SOL    HW212897   4.097   3.281   1.038
 4000SOL     OW12898   2.221   5.141   2.496
 4000SOL    HW112899   2.190   5.046   2.483
 4000SOL    HW212900   2.321   5.144   2.494
 4001SOL     OW12901   6.721   5.972   4.857
 4001SOL    HW112902   6.754   6.060   4.890
 4001SOL    HW212903   6.675   5.984   4.769
 4002SOL     OW12904   3.856   3.536   4.367
 4002SOL    HW112905   3.803   3.459   4.403
 4002SOL    HW212906   3.807   3.578   4.291
 4003SOL     OW12907   2.094   0.938   4.659
 4003SOL    HW112908   2.120   1.020   4.710
 4003SOL    HW212909   2.099   0.956   4.561
 4004SOL     OW12910   1.646   4.158   4.255
 4004SOL    HW112911   1.558   4.134   4.297
 4004SOL    HW212912   1.717   4.155   4.324
 4005SOL     OW12913   4.692   3.245   6.638
 4005SOL    HW112914   4.715   3.299   6.719
 4005SOL    HW212915   4.775   3.210   6.595
 4006SOL     OW12916   6.659   5.782   2.224
 4006SOL    HW112917   6.663   5.872   2.180
 4006SOL    HW212918   6.745   5.765   2.272
 4007SOL     OW12919   0.223   0.460   2.081
 4007SOL    HW112920   0.195   0.485   2.174
 4007SOL    HW212921   0.202   0.364   2.064
 4008SOL     OW12922   3.034   1.012   1.333
 4008SOL    HW112923   2.994   1.024   1.242
 4008SOL    HW212924   3.134   1.018   1.326
 4009SOL     OW12925   4.579   2.355   0.509
 4009SOL    HW112926   4.529   2.297   0.574
 4009SOL    HW212927   4.521   2.374   0.430
 4010SOL     OW12928   1.844   4.475   1.292
 4010SOL    HW112929   1.883   4.398   1.242
 4010SOL    HW212930   1.870   4.560   1.248
 4011SOL     OW12931   6.598   5.874   5.923
 4011SOL    HW112932   6.615   5.853   5.826
 4011SOL    HW212933   6.649   5.956   5.949
 4012SOL     OW12934   5.490   6.242   2.726
 4012SOL    HW112935   5.522   6.256   2.820
 4012SOL    HW212936   5.392   6.225   2.726
 4013SOL     OW12937   7.014   1.829   6.511
 4013SOL    HW112938   0.058   1.765   6.466
 4013SOL    HW212939   6.928   1.833   6.461
 4014SOL     OW12940   3.100   5.179   2.022
 4014SOL    HW112941   3.069   5.091   1.985
 4014SOL    HW212942   3.154   5.227   1.954
 4015SOL     OW12943   4.167   5.082   6.042
 4015SOL    HW112944   4.180   5.058   5.946
 4015SOL    HW212945   4.153   5.180   6.050
 4016SOL     OW12946   5.049   4.880   5.004
 4016SOL    HW112947   5.049   4.820   4.924
 4016SOL    HW212948   5.012   4.831   5.082
 4017SOL     OW12949   1.287   5.099   5.799
 4017SOL    HW112950   1.271   5.161   5.876
 4017SOL    HW212951   1.373   5.050   5.813
 4018SOL     OW12952   3.773   6.038   0.616
 4018SOL    HW112953   3.805   5.947   0.588
 4018SOL    HW212954   3.834   6.074   0.687
 4019SOL     OW12955   6.090   3.809   2.402
 4019SOL    HW112956   6.117   3.716   2.426
 4019SOL    HW212957   6.126   3.833   2.312
 4020SOL     OW12958   6.630   5.151   5.017
 4020SOL    HW112959   6.535   5.167   4.990
 4020SOL    HW212960   6.688   5.225   4.983
 4021SOL     OW12961   4.780   4.624   6.311
 4021SOL    HW112962   4.753   4.549   6.252
 4021SOL    HW212963   4.743   4.610   6.403
 4022SOL     OW12964   2.754   6.296   1.356
 4022SOL    HW112965   2.665   6.317   1.315
 4022SOL    HW212966   2.827   6.319   1.292
 4023SOL     OW12967   0.797   1.370   4.202
 4023SOL    HW112968   0.762   1.339   4.114
 4023SOL    HW212969   0.847   1.455   4.190
 4024SOL     OW12970   0.406   6.632   4.869
 4024SOL    HW112971   0.405   6.562   4.941
 4024SOL    HW212972   0.487   6.690   4.879
 4025SOL     OW12973   6.522   5.716   3.874
 4025SOL    HW112974   6.476   5.652   3.812
 4025SOL    HW212975   6.507   5.688   3.969
 4026SOL     OW12976   0.526   6.788   4.603
 4026SOL    HW112977   0.504   6.707   4.548
 4026SOL    HW212978   0.442   6.831   4.634
 4027SOL     OW12979   3.248   5.024   5.001
 4027SOL    HW112980   3.307   5.069   5.068
 4027SOL    HW212981   3.199   4.949   5.045
 4028SOL     OW12982   4.706   0.644   3.528
 4028SOL    HW112983   4.678   0.559   3.573
 4028SOL    HW212984   4.805   0.646   3.520
 4029SOL     OW12985   1.800   6.081   0.448
 4029SOL    HW112986   1.773   6.010   0.512
 4029SOL    HW212987   1.889   6.119   0.475
 4030SOL     OW12988   0.653   1.656   2.223
 4030SOL    HW112989   0.695   1.670   2.134
 4030SOL    HW212990   0.556   1.678   2.218
 4031SOL     OW12991   5.994   6.164   0.576
 4031SOL    HW112992   6.076   6.130   0.623
 4031SOL    HW212993   6.019   6.237   0.514
 4032SOL     OW12994   5.168   0.543   2.396
 4032SOL    HW112995   5.156   0.529   2.298
 4032SOL    HW212996   5.169   0.455   2.443
 4033SOL     OW12997   1.870   2.437   2.258
 4033SOL    HW112998   1.951   2.446   2.200
 4033SOL    HW212999   1.847   2.525   2.298
 4034SOL     OW13000   1.124   2.790   5.382
 4034SOL    HW113001   1.055   2.766   5.314
 4034SOL    HW213002   1.093   2.869   5.435
 4035SOL     OW13003   4.380   2.020   1.736
 4035SOL    HW113004   4.430   1.959   1.675
 4035SOL    HW213005   4.354   1.971   1.819
 4036SOL     OW13006   2.814   5.478   3.361
 4036SOL    HW113007   2.748   5.403   3.360
 4036SOL    HW213008   2.785   5.548   3.295
 4037SOL     OW13009   2.613   1.735   5.656
 4037SOL    HW113010   2.685   1.741   5.725
 4037SOL    HW213011   2.529   1.701   5.699
 4038SOL     OW13012   3.250   4.874   5.541
 4038SOL    HW113013   3.284   4.824   5.461
 4038SOL    HW213014   3.209   4.810   5.606
 4039SOL     OW13015   5.176   5.189   1.222
 4039SOL    HW113016   5.088   5.144   1.206
 4039SOL    HW213017   5.218   5.150   1.304
 4040SOL     OW13018   3.169   6.498   4.966
 4040SOL    HW113019   3.156   6.544   4.878
 4040SOL    HW213020   3.188   6.566   5.036
 4041SOL     OW13021   1.738   6.438   1.573
 4041SOL    HW113022   1.642   6.439   1.599
 4041SOL    HW213023   1.774   6.531   1.575
 4042SOL     OW13024   0.124   1.218   2.419
 4042SOL    HW113025   0.153   1.258   2.332
 4042SOL    HW213026   0.203   1.185   2.469
 4043SOL     OW13027   5.299   3.038   6.331
 4043SOL    HW113028   5.215   2.984   6.328
 4043SOL    HW213029   5.359   3.001   6.402
 4044SOL     OW13030   4.824   3.953   2.896
 4044SOL    HW113031   4.777   3.866   2.908
 4044SOL    HW213032   4.790   4.019   2.962
 4045SOL     OW13033   4.995   0.859   5.401
 4045SOL    HW113034   4.995   0.791   5.475
 4045SOL    HW213035   5.037   0.943   5.434
 4046SOL     OW13036   5.367   1.667   3.280
 4046SOL    HW113037   5.407   1.725   3.209
 4046SOL    HW213038   5.272   1.646   3.256
 4047SOL     OW13039   2.995   2.843   6.413
 4047SOL    HW113040   3.074   2.891   6.451
 4047SOL    HW213041   3.026   2.771   6.352
 4048SOL     OW13042   5.083   1.742   2.662
 4048SOL    HW113043   5.049   1.649   2.646
 4048SOL    HW213044   5.008   1.801   2.691
 4049SOL     OW13045   4.344   4.127   0.573
 4049SOL    HW113046   4.254   4.122   0.530
 4049SOL    HW213047   4.373   4.223   0.580
 4050SOL     OW13048   0.851   5.637   1.988
 4050SOL    HW113049   0.812   5.715   2.037
 4050SOL    HW213050   0.915   5.589   2.047
 4051SOL     OW13051   5.766   1.252   5.012
 4051SOL    HW113052   5.865   1.239   5.024
 4051SOL    HW213053   5.727   1.289   5.096
 4052SOL     OW13054   5.636   1.892   3.505
 4052SOL    HW113055   5.673   1.850   3.423
 4052SOL    HW213056   5.708   1.899   3.575
 4053SOL     OW13057   1.047   5.407   4.208
 4053SOL    HW113058   1.127   5.348   4.201
 4053SOL    HW213059   1.009   5.424   4.117
 4054SOL     OW13060   3.981   3.598   1.133
 4054SOL    HW113061   4.003   3.666   1.062
 4054SOL    HW213062   4.011   3.508   1.102
 4055SOL     OW13063   0.342   3.858   0.072
 4055SOL    HW113064   0.319   3.940   0.124
 4055SOL    HW213065   0.442   3.847   0.068
 4056SOL     OW13066   4.757   3.781   0.074
 4056SOL    HW113067   4.668   3.820   0.051
 4056SOL    HW213068   4.826   3.816   0.010
 4057SOL     OW13069   0.227   3.580   0.293
 4057SOL    HW113070   0.155   3.624   0.239
 4057SOL    HW213071   0.283   3.650   0.338
 4058SOL     OW13072   2.577   0.433   5.208
 4058SOL    HW113073   2.514   0.488   5.154
 4058SOL    HW213074   2.671   0.463   5.190
 4059SOL     OW13075   0.585   1.313   3.711
 4059SOL    HW113076   0.529   1.396   3.714
 4059SOL    HW213077   0.587   1.270   3.801
 4060SOL     OW13078   6.746   6.484   5.146
 4060SOL    HW113079   6.667   6.485   5.084
 4060SOL    HW213080   6.730   6.548   5.221
 4061SOL     OW13081   0.728   5.194   0.939
 4061SOL    HW113082   0.807   5.185   0.999
 4061SOL    HW213083   0.688   5.285   0.951
 4062SOL     OW13084   2.025   3.320   1.362
 4062SOL    HW113085   2.044   3.377   1.442
 4062SOL    HW213086   2.025   3.224   1.389
 4063SOL     OW13087   4.475   0.620   0.140
 4063SOL    HW113088   4.464   0.557   0.217
 4063SOL    HW213089   4.467   0.714   0.174
 4064SOL     OW13090   1.785   1.276   5.913
 4064SOL    HW113091   1.830   1.207   5.858
 4064SOL    HW213092   1.799   1.256   6.010
 4065SOL     OW13093   2.711   6.375   0.791
 4065SOL    HW113094   2.802   6.344   0.763
 4065SOL    HW213095   2.657   6.297   0.822
 4066SOL     OW13096   0.970   3.700   3.589
 4066SOL    HW113097   1.035   3.625   3.588
 4066SOL    HW213098   0.926   3.705   3.679
 4067SOL     OW13099   5.475   5.049   0.320
 4067SOL    HW113100   5.456   4.976   0.386
 4067SOL    HW213101   5.403   5.118   0.325
 4068SOL     OW13102   2.154   2.972   4.848
 4068SOL    HW113103   2.167   2.875   4.830
 4068SOL    HW213104   2.214   3.000   4.923
 4069SOL     OW13105   4.174   6.746   6.378
 4069SOL    HW113106   4.223   6.720   6.295
 4069SOL    HW213107   4.115   6.670   6.407
 4070SOL     OW13108   1.350   3.360   3.446
 4070SOL    HW113109   1.393   3.270   3.431
 4070SOL    HW213110   1.406   3.431   3.403
 4071SOL     OW13111   1.625   0.633   4.174
 4071SOL    HW113112   1.534   0.593   4.187
 4071SOL    HW213113   1.686   0.565   4.133
 4072SOL     OW13114   2.573   5.397   3.009
 4072SOL    HW113115   2.673   5.390   3.006
 4072SOL    HW213116   2.546   5.493   3.001
 4073SOL     OW13117   4.023   4.612   6.955
 4073SOL    HW113118   3.950   4.675   6.929
 4073SOL    HW213119   4.111   4.659   6.949
 4074SOL     OW13120   1.435   5.812   2.793
 4074SOL    HW113121   1.356   5.829   2.851
 4074SOL    HW213122   1.440   5.715   2.769
 4075SOL     OW13123   6.973   1.288   0.932
 4075SOL    HW113124   6.885   1.335   0.926
 4075SOL    HW213125   6.977   1.216   0.863
 4076SOL     OW13126   2.249   4.284   5.021
 4076SOL    HW113127   2.152   4.299   5.003
 4076SOL    HW213128   2.273   4.190   4.997
 4077SOL     OW13129   3.376   0.592   1.261
 4077SOL    HW113130   3.311   0.533   1.212
 4077SOL    HW213131   3.469   0.567   1.233
 4078SOL     OW13132   3.101   4.976   2.350
 4078SOL    HW113133   3.045   4.901   2.315
 4078SOL    HW213134   3.099   4.975   2.450
 4079SOL     OW13135   0.866   1.653   4.122
 4079SOL    HW113136   0.881   1.722   4.052
 4079SOL    HW213137   0.769   1.653   4.148
 4080SOL     OW13138   6.429   1.603   5.061
 4080SOL    HW113139   6.456   1.605   4.965
 4080SOL    HW213140   6.510   1.610   5.119
 4081SOL     OW13141   1.852   3.327   3.690
 4081SOL    HW113142   1.870   3.260   3.618
 4081SOL    HW213143   1.795   3.285   3.761
 4082SOL     OW13144   0.896   3.328   1.201
 4082SOL    HW113145   0.964   3.288   1.139
 4082SOL    HW213146   0.819   3.266   1.209
 4083SOL     OW13147   5.569   2.882   4.417
 4083SOL    HW113148   5.629   2.826   4.474
 4083SOL    HW213149   5.474   2.869   4.446
 4084SOL     OW13150   0.553   1.557   3.884
 4084SOL    HW113151   0.628   1.594   3.828
 4084SOL    HW213152   0.580   1.469   3.922
 4085SOL     OW13153   2.631   6.073   0.583
 4085SOL    HW113154   2.710   6.116   0.539
 4085SOL    HW213155   2.582   6.018   0.516
 4086SOL     OW13156   1.076   5.021   0.478
 4086SOL    HW113157   1.129   5.048   0.559
 4086SOL    HW213158   1.020   4.941   0.501
 4087SOL     OW13159   1.644   1.723   2.677
 4087SOL    HW113160   1.544   1.721   2.675
 4087SOL    HW213161   1.676   1.813   2.649
 4088SOL     OW13162   6.797   1.942   0.804
 4088SOL    HW113163   6.894   1.964   0.806
 4088SOL    HW213164   6.748   2.010   0.749
 4089SOL     OW13165   1.028   1.414   5.522
 4089SOL    HW113166   1.103   1.371   5.572
 4089SOL    HW213167   1.056   1.429   5.427
 4090SOL     OW13168   1.778   4.781   5.438
 4090SOL    HW113169   1.797   4.854   5.504
 4090SOL    HW213170   1.815   4.695   5.473
 4091SOL     OW13171   4.672   5.874   0.382
 4091SOL    HW113172   4.756   5.838   0.340
 4091SOL    HW213173   4.696   5.929   0.462
 4092SOL     OW13174   0.563   2.501   4.420
 4092SOL    HW113175   0.508   2.492   4.503
 4092SOL    HW213176   0.535   2.431   4.355
 4093SOL     OW13177   5.769   0.878   4.763
 4093SOL    HW113178   5.742   0.811   4.832
 4093SOL    HW213179   5.865   0.901   4.774
 4094SOL     OW13180   2.761   4.611   5.411
 4094SOL    HW113181   2.799   4.598   5.319
 4094SOL    HW213182   2.802   4.544   5.474
 4095SOL     OW13183   1.653   3.954   6.149
 4095SOL    HW113184   1.567   3.927   6.193
 4095SOL    HW213185   1.639   3.960   6.050
 4096SOL     OW13186   4.280   4.805   2.054
 4096SOL    HW113187   4.259   4.794   2.152
 4096SOL    HW213188   4.313   4.719   2.017
 4097SOL     OW13189   3.310   3.549   4.856
 4097SOL    HW113190   3.260   3.552   4.769
 4097SOL    HW213191   3.408   3.543   4.838
 4098SOL     OW13192   0.213   1.989   2.552
 4098SOL    HW113193   0.262   2.065   2.593
 4098SOL    HW213194   0.196   1.918   2.621
 4099SOL     OW13195   3.743   6.392   1.809
 4099SOL    HW113196   3.815   6.380   1.877
 4099SOL    HW213197   3.784   6.411   1.720
 4100SOL     OW13198   3.858   5.841   3.202
 4100SOL    HW113199   3.871   5.907   3.128
 4100SOL    HW213200   3.935   5.778   3.205
 4101SOL     OW13201   5.045   0.963   6.219
 4101SOL    HW113202   5.143   0.970   6.242
 4101SOL    HW213203   5.017   0.867   6.222
 4102SOL     OW13204   5.817   1.456   0.452
 4102SOL    HW113205   5.879   1.515   0.502
 4102SOL    HW213206   5.798   1.497   0.362
 4103SOL     OW13207   0.555   0.369   2.360
 4103SOL    HW113208   0.624   0.317   2.310
 4103SOL    HW213209   0.554   0.463   2.326
 4104SOL     OW13210   1.653   4.808   2.979
 4104SOL    HW113211   1.683   4.878   2.914
 4104SOL    HW213212   1.656   4.718   2.935
 4105SOL     OW13213   4.965   4.929   0.083
 4105SOL    HW113214   4.932   5.024   0.086
 4105SOL    HW213215   4.937   4.888   7.014
 4106SOL     OW13216   6.870   3.912   5.006
 4106SOL    HW113217   6.801   3.933   5.075
 4106SOL    HW213218   6.959   3.901   5.049
 4107SOL     OW13219   6.890   0.682   1.154
 4107SOL    HW113220   6.802   0.641   1.133
 4107SOL    HW213221   6.937   0.627   1.223
 4108SOL     OW13222   6.410   3.432   5.508
 4108SOL    HW113223   6.501   3.459   5.539
 4108SOL    HW213224   6.417   3.392   5.416
 4109SOL     OW13225   3.398   6.306   3.549
 4109SOL    HW113226   3.431   6.371   3.617
 4109SOL    HW213227   3.327   6.349   3.494
 4110SOL     OW13228   4.781   3.199   5.692
 4110SOL    HW113229   4.696   3.168   5.650
 4110SOL    HW213230   4.792   3.297   5.675
 4111SOL     OW13231   4.498   3.134   0.009
 4111SOL    HW113232   4.488   3.059   0.075
 4111SOL    HW213233   4.429   3.204   0.028
 4112SOL     OW13234   3.856   0.875   4.352
 4112SOL    HW113235   3.760   0.853   4.367
 4112SOL    HW213236   3.874   0.968   4.385
 4113SOL     OW13237   3.735   5.263   4.376
 4113SOL    HW113238   3.829   5.276   4.345
 4113SOL    HW213239   3.681   5.221   4.303
 4114SOL     OW13240   2.849   1.908   2.667
 4114SOL    HW113241   2.869   2.003   2.645
 4114SOL    HW213242   2.763   1.881   2.622
 4115SOL     OW13243   5.174   4.971   1.906
 4115SOL    HW113244   5.123   4.927   1.981
 4115SOL    HW213245   5.169   5.070   1.916
 4116SOL     OW13246   3.016   1.014   1.885
 4116SOL    HW113247   2.990   1.030   1.790
 4116SOL    HW213248   3.114   0.994   1.889
 4117SOL     OW13249   1.184   5.990   2.082
 4117SOL    HW113250   1.199   5.904   2.034
 4117SOL    HW213251   1.086   6.000   2.102
 4118SOL     OW13252   2.353   6.696   7.011
 4118SOL    HW113253   2.390   6.701   6.919
 4118SOL    HW213254   2.420   6.652   0.054
 4119SOL     OW13255   4.143   0.989   3.221
 4119SOL    HW113256   4.224   1.042   3.197
 4119SOL    HW213257   4.131   0.915   3.154
 4120SOL     OW13258   3.968   0.762   1.510
 4120SOL    HW113259   4.041   0.699   1.536
 4120SOL    HW213260   3.879   0.717   1.526
 4121SOL     OW13261   6.286   2.790   4.928
 4121SOL    HW113262   6.269   2.888   4.917
 4121SOL    HW213263   6.313   2.751   4.840
 4122SOL     OW13264   1.503   5.667   6.210
 4122SOL    HW113265   1.445   5.705   6.138
 4122SOL    HW213266   1.444   5.627   6.281
 4123SOL     OW13267   5.490   3.603   6.372
 4123SOL    HW113268   5.417   3.671   6.363
 4123SOL    HW213269   5.571   3.646   6.411
 4124SOL     OW13270   5.035   6.801   3.745
 4124SOL    HW113271   5.045   6.893   3.782
 4124SOL    HW213272   5.022   6.805   3.646
 4125SOL     OW13273   5.283   1.361   1.392
 4125SOL    HW113274   5.225   1.280   1.388
 4125SOL    HW213275   5.286   1.404   1.302
 4126SOL     OW13276   2.094   4.727   4.133
 4126SOL    HW113277   2.122   4.655   4.196
 4126SOL    HW213278   2.022   4.692   4.073
 4127SOL     OW13279   6.642   3.460   5.677
 4127SOL    HW113280   6.584   3.513   5.739
 4127SOL    HW213281   6.734   3.452   5.715
 4128SOL     OW13282   0.905   2.078   2.785
 4128SOL    HW113283   0.820   2.033   2.759
 4128SOL    HW213284   0.895   2.119   2.876
 4129SOL     OW13285   5.877   2.078   6.226
 4129SOL    HW113286   5.810   2.057   6.155
 4129SOL    HW213287   5.967   2.048   6.197
 4130SOL     OW13288   5.779   3.791   0.801
 4130SOL    HW113289   5.758   3.783   0.898
 4130SOL    HW213290   5.697   3.815   0.750
 4131SOL     OW13291   6.351   4.354   3.705
 4131SOL    HW113292   6.310   4.273   3.663
 4131SOL    HW213293   6.295   4.434   3.685
 4132SOL     OW13294   4.774   2.058   3.796
 4132SOL    HW113295   4.721   2.012   3.867
 4132SOL    HW213296   4.771   2.004   3.712
 4133SOL     OW13297   2.913   1.770   1.189
 4133SOL    HW113298   2.984   1.754   1.257
 4133SOL    HW213299   2.827   1.729   1.221
 4134SOL     OW13300   0.704   1.555   6.949
 4134SOL    HW113301   0.668   1.600   6.867
 4134SOL    HW213302   0.732   1.624   7.016
 4135SOL     OW13303   1.310   0.761   1.328
 4135SOL    HW113304   1.229   0.778   1.272
 4135SOL    HW213305   1.357   0.847   1.346
 4136SOL     OW13306   1.189   2.108   3.189
 4136SOL    HW113307   1.261   2.143   3.248
 4136SOL    HW213308   1.175   2.011   3.206
 4137SOL     OW13309   3.183   4.166   6.154
 4137SOL    HW113310   3.228   4.216   6.080
 4137SOL    HW213311   3.084   4.181   6.150
 4138SOL     OW13312   4.182   4.684   3.313
 4138SOL    HW113313   4.122   4.624   3.260
 4138SOL    HW213314   4.204   4.765   3.259
 4139SOL     OW13315   2.063   1.214   6.921
 4139SOL    HW113316   2.043   1.163   6.837
 4139SOL    HW213317   2.117   1.157   6.982
 4140SOL     OW13318   4.654   1.449   4.807
 4140SOL    HW113319   4.637   1.507   4.887
 4140SOL    HW213320   4.749   1.460   4.778
 4141SOL     OW13321   5.321   5.538   0.490
 4141SOL    HW113322   5.368   5.609   0.437
 4141SOL    HW213323   5.376   5.515   0.571
 4142SOL     OW13324   6.030   3.757   1.398
 4142SOL    HW113325   5.984   3.677   1.358
 4142SOL    HW213326   5.988   3.778   1.486
 4143SOL     OW13327   0.375   2.733   1.240
 4143SOL    HW113328   0.441   2.672   1.283
 4143SOL    HW213329   0.311   2.679   1.184
 4144SOL     OW13330   4.288   0.145   2.516
 4144SOL    HW113331   4.241   0.228   2.547
 4144SOL    HW213332   4.372   0.132   2.569
 4145SOL     OW13333   2.740   0.291   2.833
 4145SOL    HW113334   2.814   0.314   2.770
 4145SOL    HW213335   2.772   0.302   2.927
 4146SOL     OW13336   4.970   5.877   0.377
 4146SOL    HW113337   5.068   5.892   0.364
 4146SOL    HW213338   4.950   5.872   0.475
 4147SOL     OW13339   3.286   2.473   5.517
 4147SOL    HW113340   3.310   2.427   5.602
 4147SOL    HW213341   3.308   2.413   5.440
 4148SOL     OW13342   6.019   0.370   3.346
 4148SOL    HW113343   5.977   0.456   3.316
 4148SOL    HW213344   6.116   0.370   3.322
 4149SOL     OW13345   5.470   3.811   1.880
 4149SOL    HW113346   5.541   3.753   1.840
 4149SOL    HW213347   5.495   3.836   1.973
 4150SOL     OW13348   5.008   0.368   6.191
 4150SOL    HW113349   4.976   0.273   6.196
 4150SOL    HW213350   5.007   0.399   6.096
 4151SOL     OW13351   0.267   5.651   0.938
 4151SOL    HW113352   0.319   5.614   0.861
 4151SOL    HW213353   0.240   5.745   0.919
 4152SOL     OW13354   3.576   4.129   1.336
 4152SOL    HW113355   3.602   4.176   1.420
 4152SOL    HW213356   3.514   4.188   1.283
 4153SOL     OW13357   6.525   5.323   6.070
 4153SOL    HW113358   6.454   5.372   6.020
 4153SOL    HW213359   6.484   5.245   6.118
 4154SOL     OW13360   5.045   3.099   5.788
 4154SOL    HW113361   4.953   3.132   5.767
 4154SOL    HW213362   5.068   3.123   5.882
 4155SOL     OW13363   0.942   3.021   1.961
 4155SOL    HW113364   1.006   3.093   1.934
 4155SOL    HW213365   0.854   3.035   1.915
 4156SOL     OW13366   6.021   0.113   5.711
 4156SOL    HW113367   5.982   0.074   5.627
 4156SOL    HW213368   5.971   0.078   5.790
 4157SOL     OW13369   3.500   0.685   5.062
 4157SOL    HW113370   3.590   0.722   5.088
 4157SOL    HW213371   3.444   0.759   5.025
 4158SOL     OW13372   1.107   6.686   4.176
 4158SOL    HW113373   1.131   6.613   4.241
 4158SOL    HW213374   1.026   6.659   4.125
 4159SOL     OW13375   0.906   2.909   4.959
 4159SOL    HW113376   0.986   2.955   4.998
 4159SOL    HW213377   0.870   2.842   5.025
 4160SOL     OW13378   1.335   1.484   0.647
 4160SOL    HW113379   1.310   1.433   0.729
 4160SOL    HW213380   1.356   1.421   0.573
 4161SOL     OW13381   6.642   1.961   0.437
 4161SOL    HW113382   6.644   1.862   0.442
 4161SOL    HW213383   6.557   1.991   0.392
 4162SOL     OW13384   6.406   0.397   5.346
 4162SOL    HW113385   6.350   0.318   5.372
 4162SOL    HW213386   6.352   0.459   5.289
 4163SOL     OW13387   5.747   1.380   4.138
 4163SOL    HW113388   5.740   1.290   4.182
 4163SOL    HW213389   5.701   1.377   4.049
 4164SOL     OW13390   2.283   0.251   5.876
 4164SOL    HW113391   2.265   0.350   5.880
 4164SOL    HW213392   2.304   0.218   5.968
 4165SOL     OW13393   3.602   6.206   2.219
 4165SOL    HW113394   3.543   6.257   2.282
 4165SOL    HW213395   3.550   6.179   2.139
 4166SOL     OW13396   5.700   2.967   0.826
 4166SOL    HW113397   5.787   2.977   0.875
 4166SOL    HW213398   5.718   2.937   0.733
 4167SOL     OW13399   1.870   2.905   1.176
 4167SOL    HW113400   1.934   2.959   1.231
 4167SOL    HW213401   1.778   2.914   1.213
 4168SOL     OW13402   1.517   4.687   0.954
 4168SOL    HW113403   1.472   4.599   0.972
 4168SOL    HW213404   1.548   4.689   0.859
 4169SOL     OW13405   6.057   3.523   4.801
 4169SOL    HW113406   6.098   3.467   4.729
 4169SOL    HW213407   5.990   3.585   4.761
 4170SOL     OW13408   4.648   2.432   5.529
 4170SOL    HW113409   4.606   2.521   5.545
 4170SOL    HW213410   4.660   2.418   5.430
 4171SOL     OW13411   5.725   3.627   1.556
 4171SOL    HW113412   5.677   3.568   1.621
 4171SOL    HW213413   5.781   3.693   1.607
 4172SOL     OW13414   1.758   1.629   0.545
 4172SOL    HW113415   1.799   1.668   0.463
 4172SOL    HW213416   1.829   1.603   0.609
 4173SOL     OW13417   5.373   3.713   5.716
 4173SOL    HW113418   5.426   3.789   5.679
 4173SOL    HW213419   5.326   3.665   5.642
 4174SOL     OW13420   5.048   0.881   4.666
 4174SOL    HW113421   4.977   0.855   4.600
 4174SOL    HW213422   5.023   0.846   4.756
 4175SOL     OW13423   3.531   1.179   3.380
 4175SOL    HW113424   3.604   1.247   3.385
 4175SOL    HW213425   3.569   1.090   3.356
 4176SOL     OW13426   5.824   6.114   3.045
 4176SOL    HW113427   5.885   6.129   2.967
 4176SOL    HW213428   5.743   6.173   3.036
 4177SOL     OW13429   6.992   5.555   2.620
 4177SOL    HW113430   6.987   5.614   2.701
 4177SOL    HW213431   6.970   5.461   2.646
 4178SOL     OW13432   4.143   2.326   5.539
 4178SOL    HW113433   4.095   2.348   5.624
 4178SOL    HW213434   4.163   2.228   5.537
 4179SOL     OW13435   5.584   3.108   5.969
 4179SOL    HW113436   5.651   3.036   5.949
 4179SOL    HW213437   5.608   3.191   5.920
 4180SOL     OW13438   4.320   3.837   1.746
 4180SOL    HW113439   4.319   3.934   1.719
 4180SOL    HW213440   4.415   3.804   1.744
 4181SOL     OW13441   0.368   1.338   0.032
 4181SOL    HW113442   0.276   1.363   0.060
 4181SOL    HW213443   0.432   1.358   0.106
 4182SOL     OW13444   5.554   1.049   3.603
 4182SOL    HW113445   5.631   1.021   3.545
 4182SOL    HW213446   5.574   1.025   3.698
 4183SOL     OW13447   1.353   1.749   1.176
 4183SOL    HW113448   1.268   1.732   1.125
 4183SOL    HW213449   1.431   1.746   1.114
 4184SOL     OW13450   4.764   5.574   0.404
 4184SOL    HW113451   4.790   5.504   0.470
 4184SOL    HW213452   4.665   5.571   0.390
 4185SOL     OW13453   0.432   6.910   4.119
 4185SOL    HW113454   0.433   6.913   4.019
 4185SOL    HW213455   0.384   6.991   4.154
 4186SOL     OW13456   3.195   4.407   1.318
 4186SOL    HW113457   3.238   4.447   1.398
 4186SOL    HW213458   3.117   4.350   1.346
 4187SOL     OW13459   4.405   4.277   6.639
 4187SOL    HW113460   4.491   4.282   6.587
 4187SOL    HW213461   4.338   4.338   6.597
 4188SOL     OW13462   5.184   6.647   4.617
 4188SOL    HW113463   5.167   6.587   4.695
 4188SOL    HW213464   5.122   6.623   4.542
 4189SOL     OW13465   2.483   2.640   3.561
 4189SOL    HW113466   2.413   2.568   3.566
 4189SOL    HW213467   2.445   2.724   3.599
 4190SOL     OW13468   2.859   0.299   1.621
 4190SOL    HW113469   2.835   0.346   1.536
 4190SOL    HW213470   2.901   0.211   1.599
 4191SOL     OW13471   6.597   2.170   2.385
 4191SOL    HW113472   6.638   2.079   2.374
 4191SOL    HW213473   6.510   2.173   2.335
 4192SOL     OW13474   6.056   1.288   3.421
 4192SOL    HW113475   6.069   1.359   3.352
 4192SOL    HW213476   6.145   1.256   3.453
 4193SOL     OW13477   2.252   0.045   2.206
 4193SOL    HW113478   2.313   7.012   2.144
 4193SOL    HW213479   2.285   0.139   2.214
 4194SOL     OW13480   0.527   0.813   4.218
 4194SOL    HW113481   0.467   0.887   4.188
 4194SOL    HW213482   0.472   0.742   4.263
 4195SOL     OW13483   5.093   1.190   2.357
 4195SOL    HW113484   5.174   1.244   2.331
 4195SOL    HW213485   5.074   1.205   2.454
 4196SOL     OW13486   4.518   2.440   3.477
 4196SOL    HW113487   4.460   2.424   3.397
 4196SOL    HW213488   4.478   2.396   3.557
 4197SOL     OW13489   4.457   4.605   4.038
 4197SOL    HW113490   4.455   4.666   4.117
 4197SOL    HW213491   4.373   4.615   3.984
 4198SOL     OW13492   5.821   3.975   5.801
 4198SOL    HW113493   5.787   3.881   5.799
 4198SOL    HW213494   5.866   3.992   5.889
 4199SOL     OW13495   3.094   4.197   5.190
 4199SOL    HW113496   3.104   4.137   5.269
 4199SOL    HW213497   3.009   4.175   5.142
 4200SOL     OW13498   2.355   0.190   6.121
 4200SOL    HW113499   2.294   0.212   6.197
 4200SOL    HW213500   2.428   0.129   6.154
 4201SOL     OW13501   6.370   6.564   4.303
 4201SOL    HW113502   6.387   6.647   4.251
 4201SOL    HW213503   6.340   6.588   4.395
 4202SOL     OW13504   5.411   4.175   4.793
 4202SOL    HW113505   5.423   4.258   4.846
 4202SOL    HW213506   5.394   4.199   4.697
 4203SOL     OW13507   5.231   5.141   3.930
 4203SOL    HW113508   5.246   5.043   3.937
 4203SOL    HW213509   5.292   5.179   3.861
 4204SOL     OW13510   2.999   4.041   0.901
 4204SOL    HW113511   2.934   4.048   0.977
 4204SOL    HW213512   2.948   4.026   0.815
 4205SOL     OW13513   2.792   5.118   2.701
 4205SOL    HW113514   2.889   5.122   2.725
 4205SOL    HW213515   2.770   5.191   2.636
 4206SOL     OW13516   5.748   0.152   4.560
 4206SOL    HW113517   5.816   0.167   4.488
 4206SOL    HW213518   5.786   0.182   4.648
 4207SOL     OW13519   1.031   0.814   1.232
 4207SOL    HW113520   0.987   0.843   1.147
 4207SOL    HW213521   1.032   0.890   1.297
 4208SOL     OW13522   0.931   2.968   1.369
 4208SOL    HW113523   0.850   3.017   1.336
 4208SOL    HW213524   0.981   2.930   1.291
 4209SOL     OW13525   3.009   6.886   4.704
 4209SOL    HW113526   2.975   6.855   4.615
 4209SOL    HW213527   2.999   6.985   4.711
 4210SOL     OW13528   5.350   2.502   0.689
 4210SOL    HW113529   5.372   2.589   0.647
 4210SOL    HW213530   5.278   2.457   0.636
 4211SOL     OW13531   4.859   3.960   3.561
 4211SOL    HW113532   4.929   4.030   3.548
 4211SOL    HW213533   4.871   3.887   3.494
 4212SOL     OW13534   6.199   6.958   2.823
 4212SOL    HW113535   6.289   6.961   2.865
 4212SOL    HW213536   6.132   7.000   2.883
 4213SOL     OW13537   0.722   0.745   2.356
 4213SOL    HW113538   0.624   0.749   2.334
 4213SOL    HW213539   0.734   0.716   2.451
 4214SOL     OW13540   2.293   4.229   4.508
 4214SOL    HW113541   2.346   4.312   4.524
 4214SOL    HW213542   2.278   4.182   4.594
 4215SOL     OW13543   0.527   5.230   4.935
 4215SOL    HW113544   0.563   5.137   4.941
 4215SOL    HW213545   0.484   5.255   5.022
 4216SOL     OW13546   2.420   3.438   5.315
 4216SOL    HW113547   2.436   3.376   5.392
 4216SOL    HW213548   2.480   3.517   5.323
 4217SOL     OW13549   6.806   0.855   3.320
 4217SOL    HW113550   6.766   0.935   3.364
 4217SOL    HW213551   6.755   0.773   3.347
 4218SOL     OW13552   2.839   6.756   2.903
 4218SOL    HW113553   2.820   6.821   2.829
 4218SOL    HW213554   2.932   6.722   2.895
 4219SOL     OW13555   4.927   6.466   3.401
 4219SOL    HW113556   4.866   6.489   3.477
 4219SOL    HW213557   4.956   6.370   3.410
 4220SOL     OW13558   0.417   3.775   3.553
 4220SOL    HW113559   0.438   3.703   3.619
 4220SOL    HW213560   0.365   3.737   3.476
 4221SOL     OW13561   5.544   5.837   5.951
 4221SOL    HW113562   5.495   5.916   5.989
 4221SOL    HW213563   5.563   5.854   5.854
 4222SOL     OW13564   4.288   2.423   0.008
 4222SOL    HW113565   4.211   2.361   0.014
 4222SOL    HW213566   4.317   2.449   0.100
 4223SOL     OW13567   3.386   4.127   2.974
 4223SOL    HW113568   3.390   4.226   2.962
 4223SOL    HW213569   3.314   4.088   2.917
 4224SOL     OW13570   4.191   2.076   5.269
 4224SOL    HW113571   4.235   1.986   5.267
 4224SOL    HW213572   4.260   2.147   5.285
 4225SOL     OW13573   5.449   0.759   4.818
 4225SOL    HW113574   5.493   0.788   4.903
 4225SOL    HW213575   5.472   0.664   4.799
 4226SOL     OW13576   1.655   0.603   3.226
 4226SOL    HW113577   1.598   0.681   3.253
 4226SOL    HW213578   1.613   0.518   3.259
 4227SOL     OW13579   6.101   4.028   0.450
 4227SOL    HW113580   6.121   3.934   0.423
 4227SOL    HW213581   6.152   4.091   0.392
 4228SOL     OW13582   6.247   5.348   2.471
 4228SOL    HW113583   6.191   5.423   2.506
 4228SOL    HW213584   6.244   5.271   2.535
 4229SOL     OW13585   4.972   4.763   5.858
 4229SOL    HW113586   4.977   4.814   5.944
 4229SOL    HW213587   5.057   4.775   5.807
 4230SOL     OW13588   3.341   0.489   4.539
 4230SOL    HW113589   3.402   0.549   4.590
 4230SOL    HW213590   3.357   0.394   4.566
 4231SOL     OW13591   4.039   6.202   5.169
 4231SOL    HW113592   3.981   6.159   5.100
 4231SOL    HW213593   4.089   6.132   5.219
 4232SOL     OW13594   2.275   3.962   1.852
 4232SOL    HW113595   2.349   3.924   1.797
 4232SOL    HW213596   2.218   4.021   1.795
 4233SOL     OW13597   5.455   6.736   1.241
 4233SOL    HW113598   5.505   6.758   1.157
 4233SOL    HW213599   5.369   6.690   1.217
 4234SOL     OW13600   3.437   4.259   5.509
 4234SOL    HW113601   3.485   4.183   5.466
 4234SOL    HW213602   3.353   4.227   5.551
 4235SOL     OW13603   0.061   3.492   5.476
 4235SOL    HW113604   0.146   3.521   5.433
 4235SOL    HW213605   7.002   3.516   5.418
 4236SOL     OW13606   1.144   4.289   4.844
 4236SOL    HW113607   1.169   4.358   4.912
 4236SOL    HW213608   1.066   4.236   4.878
 4237SOL     OW13609   5.328   4.252   4.548
 4237SOL    HW113610   5.367   4.338   4.515
 4237SOL    HW213611   5.229   4.261   4.558
 4238SOL     OW13612   4.134   5.022   3.825
 4238SOL    HW113613   4.230   4.995   3.815
 4238SOL    HW213614   4.125   5.120   3.807
 4239SOL     OW13615   5.227   5.352   5.692
 4239SOL    HW113616   5.178   5.390   5.771
 4239SOL    HW213617   5.324   5.377   5.699
 4240SOL     OW13618   2.604   4.806   6.098
 4240SOL    HW113619   2.517   4.768   6.128
 4240SOL    HW213620   2.677   4.773   6.158
 4241SOL     OW13621   3.849   1.232   0.172
 4241SOL    HW113622   3.861   1.228   0.271
 4241SOL    HW213623   3.755   1.260   0.151
 4242SOL     OW13624   1.594   0.241   2.447
 4242SOL    HW113625   1.631   0.192   2.526
 4242SOL    HW213626   1.668   0.291   2.402
 4243SOL     OW13627   1.779   3.026   3.152
 4243SOL    HW113628   1.812   2.948   3.205
 4243SOL    HW213629   1.687   3.007   3.119
 4244SOL     OW13630   3.216   6.398   1.171
 4244SOL    HW113631   3.249   6.315   1.217
 4244SOL    HW213632   3.235   6.478   1.229
 4245SOL     OW13633   6.238   3.061   1.708
 4245SOL    HW113634   6.235   3.127   1.633
 4245SOL    HW213635   6.284   3.102   1.787
 4246SOL     OW13636   4.140   1.953   4.120
 4246SOL    HW113637   4.088   1.894   4.181
 4246SOL    HW213638   4.203   2.010   4.173
 4247SOL     OW13639   2.088   4.005   6.415
 4247SOL    HW113640   2.115   4.092   6.373
 4247SOL    HW213641   2.153   3.933   6.386
 4248SOL     OW13642   1.715   0.236   3.076
 4248SOL    HW113643   1.629   0.203   3.037
 4248SOL    HW213644   1.790   0.216   3.013
 4249SOL     OW13645   6.591   0.344   5.567
 4249SOL    HW113646   6.675   0.295   5.541
 4249SOL    HW213647   6.529   0.346   5.488
 4250SOL     OW13648   6.508   5.685   4.444
 4250SOL    HW113649   6.567   5.644   4.513
 4250SOL    HW213650   6.441   5.617   4.413
 4251SOL     OW13651   5.784   2.404   5.300
 4251SOL    HW113652   5.844   2.347   5.244
 4251SOL    HW213653   5.744   2.476   5.243
 4252SOL     OW13654   6.796   6.796   0.193
 4252SOL    HW113655   6.813   6.858   0.269
 4252SOL    HW213656   6.698   6.784   0.181
 4253SOL     OW13657   4.604   5.514   2.932
 4253SOL    HW113658   4.620   5.426   2.886
 4253SOL    HW213659   4.634   5.507   3.027
 4254SOL     OW13660   2.244   2.467   5.891
 4254SOL    HW113661   2.190   2.383   5.899
 4254SOL    HW213662   2.205   2.537   5.950
 4255SOL     OW13663   1.285   3.094   3.169
 4255SOL    HW113664   1.261   3.025   3.100
 4255SOL    HW213665   1.378   3.127   3.151
 4256SOL     OW13666   0.269   5.994   1.092
 4256SOL    HW113667   0.271   5.946   1.004
 4256SOL    HW213668   0.267   6.092   1.077
 4257SOL     OW13669   6.938   0.742   3.891
 4257SOL    HW113670   6.902   0.702   3.976
 4257SOL    HW213671   6.896   0.832   3.877
 4258SOL     OW13672   3.064   5.313   0.685
 4258SOL    HW113673   3.157   5.284   0.707
 4258SOL    HW213674   3.033   5.379   0.753
 4259SOL     OW13675   1.101   0.407   0.567
 4259SOL    HW113676   1.099   0.451   0.478
 4259SOL    HW213677   1.084   0.309   0.557
 4260SOL     OW13678   5.644   1.111   4.792
 4260SOL    HW113679   5.685   1.168   4.862
 4260SOL    HW213680   5.706   1.036   4.769
 4261SOL     OW13681   2.791   6.114   4.143
 4261SOL    HW113682   2.752   6.201   4.112
 4261SOL    HW213683   2.878   6.099   4.096
 4262SOL     OW13684   2.691   4.762   5.845
 4262SOL    HW113685   2.643   4.770   5.932
 4262SOL    HW213686   2.779   4.810   5.852
 4263SOL     OW13687   1.951   1.970   3.252
 4263SOL    HW113688   2.042   1.929   3.258
 4263SOL    HW213689   1.920   1.994   3.344
 4264SOL     OW13690   4.874   2.214   5.728
 4264SOL    HW113691   4.817   2.133   5.743
 4264SOL    HW213692   4.829   2.294   5.768
 4265SOL     OW13693   2.379   6.941   5.966
 4265SOL    HW113694   2.431   6.974   6.045
 4265SOL    HW213695   2.320   6.865   5.994
 4266SOL     OW13696   1.414   4.879   1.586
 4266SOL    HW113697   1.496   4.903   1.638
 4266SOL    HW213698   1.346   4.952   1.595
 4267SOL     OW13699   1.272   4.537   4.417
 4267SOL    HW113700   1.238   4.628   4.440
 4267SOL    HW213701   1.360   4.522   4.461
 4268SOL     OW13702   0.963   4.355   6.282
 4268SOL    HW113703   0.931   4.283   6.344
 4268SOL    HW213704   0.916   4.345   6.194
 4269SOL     OW13705   2.700   1.316   4.741
 4269SOL    HW113706   2.612   1.313   4.788
 4269SOL    HW213707   2.709   1.403   4.693
 4270SOL     OW13708   3.797   3.139   0.187
 4270SOL    HW113709   3.745   3.222   0.209
 4270SOL    HW213710   3.766   3.101   0.100
 4271SOL     OW13711   6.637   0.636   1.046
 4271SOL    HW113712   6.575   0.567   1.082
 4271SOL    HW213713   6.633   0.635   0.946
 4272SOL     OW13714   6.595   0.806   5.898
 4272SOL    HW113715   6.557   0.722   5.936
 4272SOL    HW213716   6.692   0.813   5.922
 4273SOL     OW13717   3.151   5.771   4.397
 4273SOL    HW113718   3.058   5.770   4.436
 4273SOL    HW213719   3.178   5.677   4.375
 4274SOL     OW13720   0.010   1.523   2.403
 4274SOL    HW113721   0.008   1.491   2.497
 4274SOL    HW213722   0.066   1.461   2.347
 4275SOL     OW13723   0.695   2.427   3.502
 4275SOL    HW113724   0.644   2.479   3.571
 4275SOL    HW213725   0.793   2.433   3.521
 4276SOL     OW13726   2.199   5.808   3.073
 4276SOL    HW113727   2.129   5.777   3.138
 4276SOL    HW213728   2.155   5.844   2.991
 4277SOL     OW13729   6.927   5.264   2.952
 4277SOL    HW113730   7.010   5.215   2.979
 4277SOL    HW213731   6.923   5.269   2.852
 4278SOL     OW13732   1.200   6.728   1.402
 4278SOL    HW113733   1.122   6.756   1.347
 4278SOL    HW213734   1.285   6.746   1.352
 4279SOL     OW13735   1.165   2.434   3.440
 4279SOL    HW113736   1.229   2.396   3.373
 4279SOL    HW213737   1.174   2.534   3.442
 4280SOL     OW13738   2.244   6.514   6.154
 4280SOL    HW113739   2.208   6.420   6.158
 4280SOL    HW213740   2.270   6.543   6.246
 4281SOL     OW13741   5.358   6.094   3.064
 4281SOL    HW113742   5.347   6.111   2.966
 4281SOL    HW213743   5.335   6.178   3.114
 4282SOL     OW13744   4.777   5.257   2.266
 4282SOL    HW113745   4.766   5.170   2.315
 4282SOL    HW213746   4.759   5.242   2.168
 4283SOL     OW13747   5.203   1.354   4.561
 4283SOL    HW113748   5.187   1.277   4.623
 4283SOL    HW213749   5.227   1.435   4.614
 4284SOL     OW13750   4.512   5.266   6.400
 4284SOL    HW113751   4.571   5.203   6.350
 4284SOL    HW213752   4.418   5.259   6.366
 4285SOL     OW13753   3.320   1.299   6.273
 4285SOL    HW113754   3.245   1.270   6.214
 4285SOL    HW213755   3.396   1.234   6.266
 4286SOL     OW13756   5.765   0.528   6.543
 4286SOL    HW113757   5.848   0.530   6.599
 4286SOL    HW213758   5.685   0.539   6.603
 4287SOL     OW13759   3.524   1.151   1.043
 4287SOL    HW113760   3.530   1.249   1.059
 4287SOL    HW213761   3.599   1.105   1.090
 4288SOL     OW13762   6.776   6.209   1.816
 4288SOL    HW113763   6.799   6.209   1.719
 4288SOL    HW213764   6.802   6.297   1.857
 4289SOL     OW13765   0.341   4.756   4.566
 4289SOL    HW113766   0.333   4.789   4.472
 4289SOL    HW213767   0.290   4.670   4.576
 4290SOL     OW13768   0.291   1.454   3.020
 4290SOL    HW113769   0.387   1.472   3.040
 4290SOL    HW213770   0.252   1.394   3.090
 4291SOL     OW13771   3.680   4.442   6.641
 4291SOL    HW113772   3.627   4.362   6.671
 4291SOL    HW213773   3.752   4.461   6.708
 4292SOL     OW13774   6.599   1.418   1.688
 4292SOL    HW113775   6.683   1.439   1.738
 4292SOL    HW213776   6.592   1.319   1.676
 4293SOL     OW13777   4.089   2.840   0.022
 4293SOL    HW113778   3.997   2.806   0.003
 4293SOL    HW213779   4.147   2.825   6.961
 4294SOL     OW13780   2.663   1.864   6.584
 4294SOL    HW113781   2.751   1.823   6.609
 4294SOL    HW213782   2.591   1.824   6.640
 4295SOL     OW13783   4.591   5.987   3.161
 4295SOL    HW113784   4.576   5.958   3.067
 4295SOL    HW213785   4.571   6.085   3.170
 4296SOL     OW13786   2.610   6.657   2.234
 4296SOL    HW113787   2.531   6.607   2.271
 4296SOL    HW213788   2.640   6.614   2.149
 4297SOL     OW13789   5.195   5.130   0.239
 4297SOL    HW113790   5.218   5.112   0.143
 4297SOL    HW213791   5.168   5.225   0.249
 4298SOL     OW13792   1.861   0.464   0.605
 4298SOL    HW113793   1.781   0.484   0.549
 4298SOL    HW213794   1.944   0.493   0.557
 4299SOL     OW13795   1.006   3.203   6.684
 4299SOL    HW113796   1.086   3.154   6.719
 4299SOL    HW213797   1.013   3.212   6.584
 4300SOL     OW13798   3.472   0.654   1.709
 4300SOL    HW113799   3.498   0.557   1.703
 4300SOL    HW213800   3.437   0.684   1.620
 4301SOL     OW13801   2.432   5.781   6.675
 4301SOL    HW113802   2.354   5.768   6.737
 4301SOL    HW213803   2.398   5.814   6.587
 4302SOL     OW13804   3.372   4.802   5.900
 4302SOL    HW113805   3.448   4.801   5.964
 4302SOL    HW213806   3.394   4.863   5.823
 4303SOL     OW13807   4.731   5.093   3.422
 4303SOL    HW113808   4.818   5.121   3.383
 4303SOL    HW213809   4.745   5.016   3.484
 4304SOL     OW13810   3.216   4.177   1.612
 4304SOL    HW113811   3.272   4.136   1.684
 4304SOL    HW213812   3.240   4.274   1.602
 4305SOL     OW13813   0.922   6.122   6.171
 4305SOL    HW113814   0.992   6.060   6.135
 4305SOL    HW213815   0.964   6.184   6.239
 4306SOL     OW13816   5.955   4.200   5.284
 4306SOL    HW113817   6.040   4.185   5.334
 4306SOL    HW213818   5.930   4.117   5.233
 4307SOL     OW13819   0.589   0.607   6.099
 4307SOL    HW113820   0.499   0.617   6.141
 4307SOL    HW213821   0.612   0.692   6.050
 4308SOL     OW13822   4.770   5.706   6.261
 4308SOL    HW113823   4.829   5.694   6.181
 4308SOL    HW213824   4.744   5.617   6.297
 4309SOL     OW13825   1.286   1.402   6.794
 4309SOL    HW113826   1.220   1.443   6.732
 4309SOL    HW213827   1.301   1.463   6.872
 4310SOL     OW13828   6.522   1.744   3.007
 4310SOL    HW113829   6.560   1.799   2.932
 4310SOL    HW213830   6.584   1.745   3.085
 4311SOL     OW13831   0.766   0.512   1.706
 4311SOL    HW113832   0.747   0.537   1.611
 4311SOL    HW213833   0.780   0.413   1.713
 4312SOL     OW13834   6.615   4.394   2.478
 4312SOL    HW113835   6.674   4.474   2.482
 4312SOL    HW213836   6.520   4.423   2.462
 4313SOL     OW13837   0.495   3.002   6.317
 4313SOL    HW113838   0.476   3.078   6.379
 4313SOL    HW213839   0.580   3.020   6.268
 4314SOL     OW13840   0.851   1.248   6.304
 4314SOL    HW113841   0.834   1.168   6.362
 4314SOL    HW213842   0.804   1.237   6.217
 4315SOL     OW13843   2.885   1.305   5.217
 4315SOL    HW113844   2.902   1.403   5.222
 4315SOL    HW213845   2.825   1.285   5.139
 4316SOL     OW13846   4.357   5.717   1.882
 4316SOL    HW113847   4.349   5.774   1.800
 4316SOL    HW213848   4.407   5.767   1.953
 4317SOL     OW13849   5.123   0.717   5.218
 4317SOL    HW113850   5.090   0.706   5.124
 4317SOL    HW213851   5.097   0.807   5.252
 4318SOL     OW13852   1.141   6.245   4.511
 4318SOL    HW113853   1.226   6.235   4.564
 4318SOL    HW213854   1.144   6.184   4.432
 4319SOL     OW13855   0.957   4.114   2.458
 4319SOL    HW113856   0.967   4.185   2.527
 4319SOL    HW213857   0.936   4.027   2.501
 4320SOL     OW13858   3.250   0.180   0.818
 4320SOL    HW113859   3.244   0.233   0.733
 4320SOL    HW213860   3.268   0.084   0.796
 4321SOL     OW13861   0.020   6.335   3.224
 4321SOL    HW113862   0.053   6.400   3.155
 4321SOL    HW213863   0.039   6.372   3.315
 4322SOL     OW13864   2.009   1.965   4.634
 4322SOL    HW113865   2.050   1.954   4.544
 4322SOL    HW213866   1.953   1.885   4.655
 4323SOL     OW13867   4.651   5.088   6.997
 4323SOL    HW113868   4.733   5.145   7.005
 4323SOL    HW213869   4.571   5.142   0.005
 4324SOL     OW13870   1.107   4.971   5.629
 4324SOL    HW113871   1.150   5.029   5.698
 4324SOL    HW213872   1.085   4.882   5.669
 4325SOL     OW13873   2.326   6.526   2.087
 4325SOL    HW113874   2.257   6.592   2.118
 4325SOL    HW213875   2.380   6.495   2.165
 4326SOL     OW13876   5.324   2.322   2.211
 4326SOL    HW113877   5.402   2.361   2.260
 4326SOL    HW213878   5.346   2.231   2.179
 4327SOL     OW13879   2.548   5.480   3.534
 4327SOL    HW113880   2.569   5.388   3.501
 4327SOL    HW213881   2.500   5.474   3.622
 4328SOL     OW13882   6.833   0.677   3.643
 4328SOL    HW113883   6.737   0.666   3.666
 4328SOL    HW213884   6.877   0.736   3.711
 4329SOL     OW13885   0.008   2.698   6.584
 4329SOL    HW113886   7.014   2.601   6.564
 4329SOL    HW213887   6.958   2.728   6.650
 4330SOL     OW13888   2.635   5.256   4.243
 4330SOL    HW113889   2.626   5.351   4.213
 4330SOL    HW213890   2.728   5.224   4.222
 4331SOL     OW13891   6.122   2.051   2.480
 4331SOL    HW113892   6.105   2.147   2.506
 4331SOL    HW213893   6.160   2.002   2.559
 4332SOL     OW13894   0.743   5.730   1.643
 4332SOL    HW113895   0.791   5.787   1.578
 4332SOL    HW213896   0.647   5.757   1.647
 4333SOL     OW13897   3.863   2.395   6.051
 4333SOL    HW113898   3.795   2.324   6.028
 4333SOL    HW213899   3.953   2.365   6.022
 4334SOL     OW13900   0.515   2.673   4.000
 4334SOL    HW113901   0.561   2.756   3.969
 4334SOL    HW213902   0.494   2.681   4.098
 4335SOL     OW13903   2.501   4.024   1.538
 4335SOL    HW113904   2.542   4.001   1.449
 4335SOL    HW213905   2.564   4.083   1.589
 4336SOL     OW13906   2.571   5.913   5.126
 4336SOL    HW113907   2.593   5.955   5.214
 4336SOL    HW213908   2.477   5.935   5.101
 4337SOL     OW13909   0.611   4.779   3.757
 4337SOL    HW113910   0.575   4.871   3.769
 4337SOL    HW213911   0.687   4.781   3.692
 4338SOL     OW13912   2.933   2.433   5.930
 4338SOL    HW113913   2.877   2.431   6.012
 4338SOL    HW213914   2.878   2.463   5.852
 4339SOL     OW13915   4.178   5.087   5.563
 4339SOL    HW113916   4.202   5.182   5.546
 4339SOL    HW213917   4.260   5.030   5.554
 4340SOL     OW13918   6.602   4.175   1.462
 4340SOL    HW113919   6.701   4.169   1.476
 4340SOL    HW213920   6.566   4.083   1.444
 4341SOL     OW13921   5.713   6.191   1.624
 4341SOL    HW113922   5.621   6.155   1.607
 4341SOL    HW213923   5.746   6.235   1.540
 4342SOL     OW13924   5.515   2.899   2.413
 4342SOL    HW113925   5.531   2.868   2.507
 4342SOL    HW213926   5.423   2.873   2.385
 4343SOL     OW13927   3.536   0.090   6.385
 4343SOL    HW113928   3.444   0.082   6.348
 4343SOL    HW213929   3.584   0.165   6.340
 4344SOL     OW13930   0.339   3.938   3.221
 4344SOL    HW113931   0.328   3.925   3.123
 4344SOL    HW213932   0.274   4.006   3.254
 4345SOL     OW13933   3.609   3.096   2.480
 4345SOL    HW113934   3.577   3.009   2.517
 4345SOL    HW213935   3.534   3.142   2.433
 4346SOL     OW13936   0.580   3.104   2.722
 4346SOL    HW113937   0.527   3.166   2.780
 4346SOL    HW213938   0.674   3.101   2.754
 4347SOL     OW13939   6.608   5.778   0.661
 4347SOL    HW113940   6.653   5.799   0.748
 4347SOL    HW213941   6.574   5.684   0.663
 4348SOL     OW13942   5.835   5.108   5.468
 4348SOL    HW113943   5.840   5.165   5.550
 4348SOL    HW213944   5.784   5.156   5.397
 4349SOL     OW13945   0.072   3.209   4.115
 4349SOL    HW113946   0.107   3.149   4.043
 4349SOL    HW213947   0.139   3.213   4.190
 4350SOL     OW13948   3.734   0.817   3.967
 4350SOL    HW113949   3.654   0.858   3.922
 4350SOL    HW213950   3.769   0.880   4.036
 4351SOL     OW13951   0.813   5.512   0.432
 4351SOL    HW113952   0.898   5.565   0.436
 4351SOL    HW213953   0.735   5.571   0.450
 4352SOL     OW13954   3.673   5.147   1.622
 4352SOL    HW113955   3.704   5.089   1.697
 4352SOL    HW213956   3.723   5.234   1.623
 4353SOL     OW13957   2.883   2.684   1.384
 4353SOL    HW113958   2.981   2.678   1.403
 4353SOL    HW213959   2.863   2.639   1.296
 4354SOL     OW13960   5.933   6.628   2.938
 4354SOL    HW113961   5.912   6.681   3.020
 4354SOL    HW213962   6.022   6.655   2.902
 4355SOL     OW13963   1.866   5.166   2.388
 4355SOL    HW113964   1.841   5.239   2.324
 4355SOL    HW213965   1.808   5.171   2.469
 4356SOL     OW13966   5.897   2.820   5.295
 4356SOL    HW113967   5.982   2.768   5.292
 4356SOL    HW213968   5.917   2.918   5.292
 4357SOL     OW13969   5.923   0.219   1.953
 4357SOL    HW113970   5.909   0.293   2.019
 4357SOL    HW213971   6.011   0.231   1.907
 4358SOL     OW13972   2.681   6.987   0.399
 4358SOL    HW113973   2.686   0.015   0.310
 4358SOL    HW213974   2.762   6.931   0.412
 4359SOL     OW13975   2.721   1.992   1.179
 4359SOL    HW113976   2.762   2.081   1.161
 4359SOL    HW213977   2.780   1.920   1.140
 4360SOL     OW13978   2.314   4.895   4.111
 4360SOL    HW113979   2.224   4.864   4.141
 4360SOL    HW213980   2.307   4.988   4.077
 4361SOL     OW13981   0.130   2.101   6.868
 4361SOL    HW113982   0.071   2.181   6.859
 4361SOL    HW213983   0.080   2.028   6.915
 4362SOL     OW13984   1.105   5.229   3.012
 4362SOL    HW113985   1.049   5.179   2.946
 4362SOL    HW213986   1.116   5.174   3.095
 4363SOL     OW13987   4.036   1.197   2.211
 4363SOL    HW113988   4.086   1.266   2.159
 4363SOL    HW213989   3.939   1.222   2.213
 4364SOL     OW13990   4.090   3.247   2.832
 4364SOL    HW113991   4.068   3.322   2.894
 4364SOL    HW213992   4.077   3.160   2.880
 4365SOL     OW13993   2.060   1.108   1.380
 4365SOL    HW113994   2.069   1.197   1.334
 4365SOL    HW213995   2.019   1.122   1.470
 4366SOL     OW13996   5.068   0.003   4.691
 4366SOL    HW113997   5.059   6.982   4.599
 4366SOL    HW213998   5.165   0.014   4.713
 4367SOL     OW13999   2.523   6.311   2.599
 4367SOL    HW114000   2.543   6.217   2.571
 4367SOL    HW214001   2.605   6.367   2.587
 4368SOL     OW14002   4.855   3.995   3.838
 4368SOL    HW114003   4.885   3.912   3.885
 4368SOL    HW214004   4.858   3.981   3.739
 4369SOL     OW14005   5.436   4.051   3.797
 4369SOL    HW114006   5.395   4.105   3.724
 4369SOL    HW214007   5.451   3.957   3.765
 4370SOL     OW14008   3.903   4.564   1.631
 4370SOL    HW114009   3.915   4.473   1.592
 4370SOL    HW214010   3.882   4.557   1.728
 4371SOL     OW14011   2.427   1.212   1.877
 4371SOL    HW114012   2.338   1.223   1.921
 4371SOL    HW214013   2.486   1.290   1.899
 4372SOL     OW14014   1.824   3.539   4.103
 4372SOL    HW114015   1.900   3.492   4.058
 4372SOL    HW214016   1.852   3.631   4.130
 4373SOL     OW14017   3.692   0.906   6.487
 4373SOL    HW114018   3.611   0.946   6.529
 4373SOL    HW214019   3.688   0.806   6.496
 4374SOL     OW14020   2.684   6.603   0.488
 4374SOL    HW114021   2.778   6.593   0.456
 4374SOL    HW214022   2.685   6.634   0.584
 4375SOL     OW14023   4.882   1.594   5.442
 4375SOL    HW114024   4.886   1.589   5.542
 4375SOL    HW214025   4.795   1.635   5.415
 4376SOL     OW14026   2.125   5.805   6.595
 4376SOL    HW114027   2.093   5.882   6.651
 4376SOL    HW214028   2.126   5.833   6.499
 4377SOL     OW14029   5.118   6.767   6.668
 4377SOL    HW114030   5.093   6.671   6.680
 4377SOL    HW214031   5.179   6.795   6.742
 4378SOL     OW14032   2.518   5.155   2.401
 4378SOL    HW114033   2.508   5.180   2.304
 4378SOL    HW214034   2.555   5.062   2.408
 4379SOL     OW14035   0.948   0.200   1.743
 4379SOL    HW114036   0.947   0.124   1.678
 4379SOL    HW214037   1.030   0.255   1.730
 4380SOL     OW14038   1.992   5.029   4.101
 4380SOL    HW114039   2.026   5.041   4.007
 4380SOL    HW214040   1.975   4.933   4.118
 4381SOL     OW14041   4.855   5.926   5.288
 4381SOL    HW114042   4.888   5.968   5.203
 4381SOL    HW214043   4.888   5.979   5.366
 4382SOL     OW14044   4.961   3.214   3.173
 4382SOL    HW114045   4.963   3.205   3.074
 4382SOL    HW214046   4.909   3.138   3.213
 4383SOL     OW14047   0.992   2.188   0.150
 4383SOL    HW114048   0.934   2.254   0.198
 4383SOL    HW214049   0.973   2.191   0.052
 4384SOL     OW14050   3.982   6.438   0.884
 4384SOL    HW114051   3.902   6.423   0.827
 4384SOL    HW214052   4.047   6.497   0.835
 4385SOL     OW14053   6.409   1.918   2.290
 4385SOL    HW114054   6.352   1.999   2.307
 4385SOL    HW214055   6.430   1.912   2.192
 4386SOL     OW14056   1.168   3.792   6.649
 4386SOL    HW114057   1.138   3.882   6.615
 4386SOL    HW214058   1.191   3.733   6.571
 4387SOL     OW14059   6.779   2.895   1.834
 4387SOL    HW114060   6.850   2.938   1.889
 4387SOL    HW214061   6.753   2.807   1.874
 4388SOL     OW14062   3.012   1.378   5.466
 4388SOL    HW114063   2.916   1.380   5.494
 4388SOL    HW214064   3.071   1.393   5.546
 4389SOL     OW14065   6.016   2.178   2.232
 4389SOL    HW114066   5.984   2.263   2.274
 4389SOL    HW214067   6.038   2.112   2.304
 4390SOL     OW14068   4.388   2.474   1.756
 4390SOL    HW114069   4.469   2.506   1.705
 4390SOL    HW214070   4.305   2.502   1.707
 4391SOL     OW14071   0.641   6.187   0.912
 4391SOL    HW114072   0.674   6.211   0.821
 4391SOL    HW214073   0.707   6.127   0.957
 4392SOL     OW14074   5.233   3.390   4.704
 4392SOL    HW114075   5.257   3.481   4.739
 4392SOL    HW214076   5.165   3.348   4.764
 4393SOL     OW14077   5.283   5.968   3.896
 4393SOL    HW114078   5.272   5.893   3.961
 4393SOL    HW214079   5.377   5.970   3.862
 4394SOL     OW14080   4.507   0.508   2.739
 4394SOL    HW114081   4.438   0.436   2.748
 4394SOL    HW214082   4.478   0.588   2.793
 4395SOL     OW14083   4.737   2.204   1.533
 4395SOL    HW114084   4.786   2.291   1.536
 4395SOL    HW214085   4.639   2.219   1.538
 4396SOL     OW14086   1.671   0.914   4.149
 4396SOL    HW114087   1.605   0.962   4.091
 4396SOL    HW214088   1.652   0.816   4.148
 4397SOL     OW14089   5.982   0.304   6.474
 4397SOL    HW114090   5.884   0.286   6.466
 4397SOL    HW214091   5.999   0.350   6.562
 4398SOL     OW14092   6.772   5.079   3.708
 4398SOL    HW114093   6.724   5.081   3.620
 4398SOL    HW214094   6.713   5.116   3.780
 4399SOL     OW14095   2.770   1.603   1.769
 4399SOL    HW114096   2.704   1.632   1.699
 4399SOL    HW214097   2.737   1.631   1.859
 4400SOL     OW14098   3.437   5.561   3.580
 4400SOL    HW114099   3.434   5.661   3.580
 4400SOL    HW214100   3.371   5.526   3.645
 4401SOL     OW14101   5.942   6.293   4.768
 4401SOL    HW114102   6.010   6.240   4.717
 4401SOL    HW214103   5.937   6.385   4.731
 4402SOL     OW14104   6.311   0.394   3.384
 4402SOL    HW114105   6.377   0.350   3.323
 4402SOL    HW214106   6.326   0.364   3.478
 4403SOL     OW14107   0.798   0.015   2.875
 4403SOL    HW114108   0.818   0.086   2.942
 4403SOL    HW214109   0.849   0.033   2.790
 4404SOL     OW14110   1.780   4.267   3.493
 4404SOL    HW114111   1.873   4.275   3.531
 4404SOL    HW214112   1.753   4.353   3.452
 4405SOL     OW14113   3.179   3.824   6.459
 4405SOL    HW114114   3.202   3.921   6.473
 4405SOL    HW214115   3.262   3.769   6.464
 4406SOL     OW14116   5.287   3.520   2.162
 4406SOL    HW114117   5.212   3.521   2.095
 4406SOL    HW214118   5.256   3.564   2.246
 4407SOL     OW14119   7.014   0.068   0.336
 4407SOL    HW114120   6.989   0.089   0.242
 4407SOL    HW214121   0.081   0.115   0.359
 4408SOL     OW14122   4.616   6.258   0.802
 4408SOL    HW114123   4.518   6.237   0.799
 4408SOL    HW214124   4.636   6.329   0.735
 4409SOL     OW14125   1.923   1.220   2.705
 4409SOL    HW114126   1.979   1.301   2.685
 4409SOL    HW214127   1.887   1.184   2.619
 4410SOL     OW14128   2.190   5.885   1.543
 4410SOL    HW114129   2.238   5.967   1.510
 4410SOL    HW214130   2.233   5.854   1.628
 4411SOL     OW14131   3.515   3.241   2.728
 4411SOL    HW114132   3.578   3.200   2.663
 4411SOL    HW214133   3.431   3.269   2.681
 4412SOL     OW14134   3.553   1.839   5.806
 4412SOL    HW114135   3.587   1.745   5.811
 4412SOL    HW214136   3.490   1.856   5.882
 4413SOL     OW14137   4.435   5.343   4.577
 4413SOL    HW114138   4.375   5.269   4.608
 4413SOL    HW214139   4.512   5.304   4.527
 4414SOL     OW14140   3.269   5.418   1.504
 4414SOL    HW114141   3.238   5.332   1.546
 4414SOL    HW214142   3.228   5.427   1.413
 4415SOL     OW14143   4.177   1.472   0.951
 4415SOL    HW114144   4.173   1.563   0.992
 4415SOL    HW214145   4.272   1.444   0.943
 4416SOL     OW14146   3.162   1.741   4.121
 4416SOL    HW114147   3.232   1.812   4.133
 4416SOL    HW214148   3.124   1.716   4.210
 4417SOL     OW14149   6.943   0.536   0.805
 4417SOL    HW114150   6.965   0.536   0.903
 4417SOL    HW214151   6.989   0.459   0.761
 4418SOL     OW14152   4.882   0.771   4.077
 4418SOL    HW114153   4.873   0.826   4.160
 4418SOL    HW214154   4.872   0.829   3.997
 4419SOL     OW14155   6.651   5.729   0.382
 4419SOL    HW114156   6.602   5.789   0.445
 4419SOL    HW214157   6.598   5.717   0.299
 4420SOL     OW14158   4.415   1.033   6.921
 4420SOL    HW114159   4.462   0.974   6.856
 4420SOL    HW214160   4.318   1.007   6.925
 4421SOL     OW14161   1.881   1.657   3.355
 4421SOL    HW114162   1.809   1.667   3.424
 4421SOL    HW214163   1.957   1.718   3.376
 4422SOL     OW14164   2.076   3.967   5.710
 4422SOL    HW114165   2.134   4.023   5.770
 4422SOL    HW214166   2.133   3.899   5.664
 4423SOL     OW14167   6.584   1.666   6.438
 4423SOL    HW114168   6.653   1.738   6.438
 4423SOL    HW214169   6.618   1.587   6.489
 4424SOL     OW14170   0.367   6.642   4.128
 4424SOL    HW114171   0.388   6.730   4.170
 4424SOL    HW214172   0.308   6.655   4.048
 4425SOL     OW14173   4.974   4.260   0.205
 4425SOL    HW114174   4.879   4.248   0.176
 4425SOL    HW214175   4.994   4.197   0.281
 4426SOL     OW14176   0.921   0.251   5.693
 4426SOL    HW114177   0.974   0.310   5.754
 4426SOL    HW214178   0.826   0.283   5.690
 4427SOL     OW14179   0.974   6.210   3.358
 4427SOL    HW114180   0.886   6.232   3.316
 4427SOL    HW214181   0.968   6.220   3.457
 4428SOL     OW14182   2.207   6.484   2.956
 4428SOL    HW114183   2.250   6.406   2.910
 4428SOL    HW214184   2.263   6.513   3.034
 4429SOL     OW14185   3.463   0.546   3.222
 4429SOL    HW114186   3.458   0.550   3.321
 4429SOL    HW214187   3.418   0.463   3.189
 4430SOL     OW14188   1.295   0.478   1.362
 4430SOL    HW114189   1.316   0.457   1.458
 4430SOL    HW214190   1.289   0.577   1.350
 4431SOL     OW14191   2.130   1.802   3.361
 4431SOL    HW114192   2.174   1.714   3.377
 4431SOL    HW214193   2.181   1.873   3.410
 4432SOL     OW14194   2.888   3.664   3.613
 4432SOL    HW114195   2.912   3.657   3.710
 4432SOL    HW214196   2.887   3.573   3.573
 4433SOL     OW14197   6.518   0.660   3.384
 4433SOL    HW114198   6.536   0.572   3.429
 4433SOL    HW214199   6.492   0.644   3.289
 4434SOL     OW14200   4.832   2.355   4.473
 4434SOL    HW114201   4.909   2.320   4.527
 4434SOL    HW214202   4.757   2.290   4.475
 4435SOL     OW14203   3.853   3.207   2.369
 4435SOL    HW114204   3.767   3.171   2.406
 4435SOL    HW214205   3.896   3.137   2.312
 4436SOL     OW14206   5.096   0.338   0.739
 4436SOL    HW114207   5.062   0.296   0.823
 4436SOL    HW214208   5.195   0.349   0.745
 4437SOL     OW14209   3.744   0.173   4.929
 4437SOL    HW114210   3.716   0.102   4.864
 4437SOL    HW214211   3.843   0.183   4.927
 4438SOL     OW14212   3.956   3.959   6.429
 4438SOL    HW114213   3.879   4.023   6.426
 4438SOL    HW214214   4.042   4.011   6.435
 4439SOL     OW14215   2.308   5.015   2.126
 4439SOL    HW114216   2.327   4.935   2.183
 4439SOL    HW214217   2.210   5.036   2.130
 4440SOL     OW14218   6.629   0.789   6.879
 4440SOL    HW114219   6.596   0.759   6.969
 4440SOL    HW214220   6.616   0.716   6.812
 4441SOL     OW14221   5.888   2.142   3.682
 4441SOL    HW114222   5.792   2.172   3.682
 4441SOL    HW214223   5.891   2.044   3.660
 4442SOL     OW14224   2.178   6.717   2.224
 4442SOL    HW114225   2.237   6.797   2.215
 4442SOL    HW214226   2.170   6.693   2.321
 4443SOL     OW14227   2.649   1.368   6.041
 4443SOL    HW114228   2.651   1.412   6.131
 4443SOL    HW214229   2.612   1.275   6.050
 4444SOL     OW14230   5.108   0.634   2.674
 4444SOL    HW114231   5.184   0.682   2.630
 4444SOL    HW214232   5.024   0.648   2.620
 4445SOL     OW14233   1.303   0.863   6.286
 4445SOL    HW114234   1.214   0.818   6.279
 4445SOL    HW214235   1.296   0.943   6.346
 4446SOL     OW14236   5.462   5.243   3.766
 4446SOL    HW114237   5.504   5.272   3.681
 4446SOL    HW214238   5.533   5.211   3.829
 4447SOL     OW14239   4.927   3.519   4.797
 4447SOL    HW114240   4.867   3.529   4.877
 4447SOL    HW214241   5.021   3.543   4.824
 4448SOL     OW14242   2.312   2.683   6.509
 4448SOL    HW114243   2.328   2.780   6.526
 4448SOL    HW214244   2.395   2.631   6.530
 4449SOL     OW14245   0.895   1.701   5.173
 4449SOL    HW114246   0.883   1.659   5.083
 4449SOL    HW214247   0.805   1.719   5.213
 4450SOL     OW14248   3.974   3.831   3.206
 4450SOL    HW114249   3.877   3.823   3.182
 4450SOL    HW214250   3.987   3.908   3.268
 4451SOL     OW14251   0.065   4.238   1.650
 4451SOL    HW114252   0.142   4.302   1.647
 4451SOL    HW214253   7.014   4.272   1.713
 4452SOL     OW14254   6.392   4.065   6.592
 4452SOL    HW114255   6.424   4.110   6.675
 4452SOL    HW214256   6.429   4.112   6.512
 4453SOL     OW14257   5.175   1.826   1.528
 4453SOL    HW114258   5.178   1.915   1.482
 4453SOL    HW214259   5.099   1.824   1.592
 4454SOL     OW14260   5.430   3.133   1.626
 4454SOL    HW114261   5.516   3.091   1.597
 4454SOL    HW214262   5.356   3.104   1.565
 4455SOL     OW14263   4.774   1.968   1.844
 4455SOL    HW114264   4.706   1.963   1.771
 4455SOL    HW214265   4.740   2.026   1.918
 4456SOL     OW14266   0.976   5.957   2.660
 4456SOL    HW114267   1.007   6.044   2.622
 4456SOL    HW214268   1.000   5.882   2.597
 4457SOL     OW14269   5.239   2.017   6.301
 4457SOL    HW114270   5.277   1.966   6.378
 4457SOL    HW214271   5.195   1.954   6.238
 4458SOL     OW14272   3.859   1.677   0.010
 4458SOL    HW114273   3.902   1.738   6.962
 4458SOL    HW214274   3.927   1.612   0.044
 4459SOL     OW14275   5.147   6.290   5.347
 4459SOL    HW114276   5.149   6.375   5.401
 4459SOL    HW214277   5.240   6.260   5.328
 4460SOL     OW14278   1.033   1.561   6.333
 4460SOL    HW114279   1.089   1.523   6.260
 4460SOL    HW214280   1.092   1.600   6.404
 4461SOL     OW14281   1.904   0.131   1.981
 4461SOL    HW114282   1.971   0.079   1.928
 4461SOL    HW214283   1.812   0.114   1.946
 4462SOL     OW14284   6.993   5.565   0.888
 4462SOL    HW114285   6.903   5.524   0.901
 4462SOL    HW214286   6.999   5.649   0.942
 4463SOL     OW14287   1.630   3.602   5.576
 4463SOL    HW114288   1.592   3.532   5.515
 4463SOL    HW214289   1.724   3.577   5.599
 4464SOL     OW14290   6.124   3.300   6.879
 4464SOL    HW114291   6.024   3.302   6.891
 4464SOL    HW214292   6.158   3.208   6.899
 4465SOL     OW14293   0.765   6.216   1.944
 4465SOL    HW114294   0.752   6.233   1.846
 4465SOL    HW214295   0.677   6.190   1.984
 4466SOL     OW14296   0.948   2.765   3.315
 4466SOL    HW114297   0.888   2.695   3.277
 4466SOL    HW214298   0.901   2.812   3.390
 4467SOL     OW14299   1.592   0.103   3.279
 4467SOL    HW114300   1.649   0.158   3.219
 4467SOL    HW214301   1.572   0.153   3.363
 4468SOL     OW14302   1.684   2.396   0.562
 4468SOL    HW114303   1.658   2.337   0.639
 4468SOL    HW214304   1.603   2.440   0.525
 4469SOL     OW14305   4.557   6.992   0.516
 4469SOL    HW114306   4.483   0.034   0.548
 4469SOL    HW214307   4.640   0.028   0.505
 4470SOL     OW14308   4.927   5.540   1.227
 4470SOL    HW114309   5.021   5.543   1.193
 4470SOL    HW214310   4.864   5.534   1.149
 4471SOL     OW14311   6.700   3.038   0.697
 4471SOL    HW114312   6.761   2.959   0.691
 4471SOL    HW214313   6.752   3.122   0.680
 4472SOL     OW14314   2.030   4.703   1.477
 4472SOL    HW114315   1.934   4.729   1.482
 4472SOL    HW214316   2.085   4.769   1.529
 4473SOL     OW14317   1.031   0.434   6.274
 4473SOL    HW114318   0.935   0.420   6.252
 4473SOL    HW214319   1.065   0.515   6.225
 4474SOL     OW14320   6.371   0.408   4.221
 4474SOL    HW114321   6.411   0.469   4.290
 4474SOL    HW214322   6.352   0.319   4.262
 4475SOL     OW14323   1.618   3.535   0.108
 4475SOL    HW114324   1.666   3.557   0.023
 4475SOL    HW214325   1.588   3.440   0.106
 4476SOL     OW14326   5.094   6.356   2.039
 4476SOL    HW114327   5.168   6.289   2.048
 4476SOL    HW214328   5.116   6.438   2.092
 4477SOL     OW14329   1.333   1.353   0.228
 4477SOL    HW114330   1.343   1.263   0.186
 4477SOL    HW214331   1.399   1.417   0.189
 4478SOL     OW14332   1.540   5.395   1.889
 4478SOL    HW114333   1.528   5.442   1.976
 4478SOL    HW214334   1.464   5.418   1.828
 4479SOL     OW14335   0.672   0.348   5.678
 4479SOL    HW114336   0.614   0.417   5.634
 4479SOL    HW214337   0.653   0.347   5.776
 4480SOL     OW14338   1.014   4.672   3.959
 4480SOL    HW114339   1.069   4.621   4.025
 4480SOL    HW214340   1.073   4.726   3.900
 4481SOL     OW14341   1.092   6.961   3.741
 4481SOL    HW114342   1.000   6.967   3.702
 4481SOL    HW214343   1.111   0.025   3.795
 4482SOL     OW14344   0.635   4.490   3.580
 4482SOL    HW114345   0.583   4.448   3.505
 4482SOL    HW214346   0.581   4.563   3.621
 4483SOL     OW14347   5.121   3.039   1.585
 4483SOL    HW114348   5.148   3.009   1.676
 4483SOL    HW214349   5.105   2.959   1.527
 4484SOL     OW14350   4.059   3.378   6.089
 4484SOL    HW114351   3.987   3.351   6.026
 4484SOL    HW214352   4.023   3.445   6.154
 4485SOL     OW14353   4.764   0.928   6.960
 4485SOL    HW114354   4.718   0.906   6.874
 4485SOL    HW214355   4.773   0.844   7.014
 4486SOL     OW14356   6.599   2.603   3.639
 4486SOL    HW114357   6.632   2.657   3.717
 4486SOL    HW214358   6.660   2.525   3.625
 4487SOL     OW14359   2.917   3.528   5.872
 4487SOL    HW114360   2.839   3.482   5.913
 4487SOL    HW214361   2.945   3.479   5.789
 4488SOL     OW14362   0.024   1.681   6.111
 4488SOL    HW114363   0.013   1.589   6.074
 4488SOL    HW214364   0.042   1.675   6.209
 4489SOL     OW14365   6.443   0.635   3.125
 4489SOL    HW114366   6.494   0.707   3.078
 4489SOL    HW214367   6.345   0.646   3.107
 4490SOL     OW14368   6.674   2.351   3.456
 4490SOL    HW114369   6.712   2.365   3.548
 4490SOL    HW214370   6.727   2.404   3.390
 4491SOL     OW14371   1.809   3.392   3.107
 4491SOL    HW114372   1.848   3.411   3.197
 4491SOL    HW214373   1.869   3.328   3.057
 4492SOL     OW14374   4.475   4.063   6.425
 4492SOL    HW114375   4.527   3.989   6.382
 4492SOL    HW214376   4.405   4.096   6.362
 4493SOL     OW14377   5.738   5.079   3.272
 4493SOL    HW114378   5.787   5.137   3.208
 4493SOL    HW214379   5.640   5.097   3.265
 4494SOL     OW14380   6.333   3.057   3.646
 4494SOL    HW114381   6.234   3.048   3.639
 4494SOL    HW214382   6.374   2.965   3.645
 4495SOL     OW14383   4.149   6.705   2.162
 4495SOL    HW114384   4.109   6.637   2.224
 4495SOL    HW214385   4.081   6.773   2.138
 4496SOL     OW14386   5.274   4.161   6.052
 4496SOL    HW114387   5.205   4.122   6.113
 4496SOL    HW214388   5.234   4.173   5.961
 4497SOL     OW14389   6.033   5.668   1.138
 4497SOL    HW114390   6.105   5.698   1.200
 4497SOL    HW214391   5.948   5.657   1.189
 4498SOL     OW14392   0.533   3.760   6.837
 4498SOL    HW114393   0.593   3.794   6.909
 4498SOL    HW214394   0.492   3.674   6.866
 4499SOL     OW14395   5.806   3.039   6.874
 4499SOL    HW114396   5.742   3.036   6.797
 4499SOL    HW214397   5.831   3.134   6.893
 4500SOL     OW14398   3.495   3.864   4.417
 4500SOL    HW114399   3.476   3.781   4.365
 4500SOL    HW214400   3.566   3.916   4.371
 4501SOL     OW14401   1.553   4.584   4.483
 4501SOL    HW114402   1.628   4.519   4.489
 4501SOL    HW214403   1.564   4.640   4.401
 4502SOL     OW14404   6.270   3.248   0.126
 4502SOL    HW114405   6.290   3.157   0.092
 4502SOL    HW214406   6.276   3.314   0.052
 4503SOL     OW14407   1.579   2.142   2.972
 4503SOL    HW114408   1.550   2.178   2.883
 4503SOL    HW214409   1.647   2.069   2.957
 4504SOL     OW14410   4.349   2.353   4.541
 4504SOL    HW114411   4.401   2.271   4.517
 4504SOL    HW214412   4.282   2.331   4.612
 4505SOL     OW14413   1.480   5.122   6.039
 4505SOL    HW114414   1.399   5.157   6.087
 4505SOL    HW214415   1.474   5.023   6.032
 4506SOL     OW14416   4.487   6.894   4.883
 4506SOL    HW114417   4.585   6.909   4.880
 4506SOL    HW214418   4.456   6.893   4.978
 4507SOL     OW14419   6.476   4.292   1.681
 4507SOL    HW114420   6.533   4.264   1.604
 4507SOL    HW214421   6.528   4.281   1.766
 4508SOL     OW14422   1.410   4.139   0.449
 4508SOL    HW114423   1.318   4.176   0.461
 4508SOL    HW214424   1.415   4.093   0.361
 4509SOL     OW14425   0.880   1.868   3.932
 4509SOL    HW114426   0.963   1.873   3.877
 4509SOL    HW214427   0.885   1.934   4.007
 4510SOL     OW14428   3.477   6.415   5.244
 4510SOL    HW114429   3.550   6.376   5.300
 4510SOL    HW214430   3.444   6.499   5.288
 4511SOL     OW14431   6.323   3.235   6.309
 4511SOL    HW114432   6.381   3.293   6.366
 4511SOL    HW214433   6.379   3.188   6.242
 4512SOL     OW14434   2.808   5.180   0.646
 4512SOL    HW114435   2.907   5.192   0.632
 4512SOL    HW214436   2.759   5.249   0.593
 4513SOL     OW14437   5.563   1.062   2.299
 4513SOL    HW114438   5.637   1.004   2.264
 4513SOL    HW214439   5.478   1.008   2.304
 4514SOL     OW14440   3.471   0.941   5.249
 4514SOL    HW114441   3.407   0.869   5.277
 4514SOL    HW214442   3.560   0.901   5.230
 4515SOL     OW14443   6.557   5.417   1.125
 4515SOL    HW114444   6.457   5.417   1.134
 4515SOL    HW214445   6.595   5.351   1.190
 4516SOL     OW14446   1.151   6.859   4.725
 4516SOL    HW114447   1.178   6.844   4.630
 4516SOL    HW214448   1.231   6.848   4.784
 4517SOL     OW14449   3.658   6.587   6.188
 4517SOL    HW114450   3.711   6.587   6.273
 4517SOL    HW214451   3.627   6.680   6.168
 4518SOL     OW14452   1.445   1.313   4.085
 4518SOL    HW114453   1.380   1.254   4.132
 4518SOL    HW214454   1.396   1.372   4.020
 4519SOL     OW14455   6.227   2.536   4.541
 4519SOL    HW114456   6.301   2.499   4.485
 4519SOL    HW214457   6.266   2.596   4.611
 4520SOL     OW14458   0.699   4.542   2.955
 4520SOL    HW114459   0.774   4.476   2.963
 4520SOL    HW214460   0.622   4.512   3.011
 4521SOL     OW14461   5.795   2.046   5.599
 4521SOL    HW114462   5.855   2.099   5.659
 4521SOL    HW214463   5.708   2.095   5.587
 4522SOL     OW14464   5.764   0.638   3.021
 4522SOL    HW114465   5.709   0.606   3.098
 4522SOL    HW214466   5.811   0.723   3.047
 4523SOL     OW14467   4.093   3.181   6.848
 4523SOL    HW114468   4.030   3.140   6.782
 4523SOL    HW214469   4.186   3.153   6.826
 4524SOL     OW14470   6.006   0.486   5.051
 4524SOL    HW114471   6.059   0.529   4.978
 4524SOL    HW214472   6.019   0.386   5.046
 4525SOL     OW14473   6.638   1.729   5.513
 4525SOL    HW114474   6.561   1.793   5.513
 4525SOL    HW214475   6.723   1.777   5.492
 4526SOL     OW14476   3.757   1.251   0.735
 4526SOL    HW114477   3.766   1.312   0.814
 4526SOL    HW214478   3.776   1.157   0.763
 4527SOL     OW14479   3.830   1.088   4.088
 4527SOL    HW114480   3.830   1.112   4.185
 4527SOL    HW214481   3.899   1.141   4.040
 4528SOL     OW14482   5.636   6.846   6.491
 4528SOL    HW114483   5.682   6.935   6.498
 4528SOL    HW214484   5.549   6.858   6.443
 4529SOL     OW14485   3.912   0.284   3.540
 4529SOL    HW114486   3.826   0.271   3.491
 4529SOL    HW214487   3.903   0.361   3.603
 4530SOL     OW14488   0.365   2.742   4.890
 4530SOL    HW114489   0.405   2.806   4.824
 4530SOL    HW214490   0.340   2.792   4.973
 4531SOL     OW14491   0.119   3.578   3.532
 4531SOL    HW114492   0.183   3.604   3.459
 4531SOL    HW214493   0.130   3.481   3.553
 4532SOL     OW14494   6.542   1.705   0.443
 4532SOL    HW114495   6.473   1.722   0.514
 4532SOL    HW214496   6.616   1.650   0.481
 4533SOL     OW14497   3.136   5.884   2.373
 4533SOL    HW114498   3.188   5.799   2.373
 4533SOL    HW214499   3.075   5.886   2.451
 4534SOL     OW14500   0.036   4.381   5.505
 4534SOL    HW114501   0.103   4.445   5.543
 4534SOL    HW214502   0.052   4.370   5.407
 4535SOL     OW14503   5.042   2.091   2.645
 4535SOL    HW114504   5.078   2.175   2.685
 4535SOL    HW214505   5.082   2.078   2.555
 4536SOL     OW14506   6.514   0.715   4.116
 4536SOL    HW114507   6.590   0.659   4.150
 4536SOL    HW214508   6.473   0.765   4.192
 4537SOL     OW14509   3.872   2.912   6.100
 4537SOL    HW114510   3.958   2.870   6.073
 4537SOL    HW214511   3.817   2.846   6.152
 4538SOL     OW14512   3.574   1.496   2.191
 4538SOL    HW114513   3.486   1.544   2.187
 4538SOL    HW214514   3.573   1.418   2.128
 4539SOL     OW14515   1.328   1.632   2.397
 4539SOL    HW114516   1.358   1.684   2.478
 4539SOL    HW214517   1.300   1.696   2.325
 4540SOL     OW14518   3.159   2.994   4.716
 4540SOL    HW114519   3.198   2.973   4.626
 4540SOL    HW214520   3.216   2.954   4.787
 4541SOL     OW14521   6.215   1.339   1.041
 4541SOL    HW114522   6.145   1.397   1.082
 4541SOL    HW214523   6.216   1.250   1.086
 4542SOL     OW14524   4.602   0.412   3.672
 4542SOL    HW114525   4.519   0.357   3.676
 4542SOL    HW214526   4.677   0.359   3.634
 4543SOL     OW14527   5.495   1.991   1.870
 4543SOL    HW114528   5.409   1.968   1.915
 4543SOL    HW214529   5.475   2.037   1.783
 4544SOL     OW14530   3.516   4.747   6.446
 4544SOL    HW114531   3.496   4.775   6.540
 4544SOL    HW214532   3.442   4.776   6.386
 4545SOL     OW14533   4.125   2.885   5.962
 4545SOL    HW114534   4.150   2.796   5.924
 4545SOL    HW214535   4.206   2.945   5.964
 4546SOL     OW14536   0.405   6.913   6.978
 4546SOL    HW114537   0.466   6.981   6.936
 4546SOL    HW214538   0.338   6.959   0.017
 4547SOL     OW14539   4.126   1.740   1.435
 4547SOL    HW114540   4.044   1.798   1.434
 4547SOL    HW214541   4.142   1.707   1.528
 4548SOL     OW14542   1.440   3.237   3.769
 4548SOL    HW114543   1.413   3.218   3.675
 4548SOL    HW214544   1.409   3.162   3.828
 4549SOL     OW14545   4.913   1.614   3.069
 4549SOL    HW114546   4.925   1.705   3.029
 4549SOL    HW214547   4.993   1.558   3.048
 4550SOL     OW14548   1.844   6.106   4.826
 4550SOL    HW114549   1.744   6.099   4.823
 4550SOL    HW214550   1.881   6.022   4.865
 4551SOL     OW14551   0.408   2.279   5.884
 4551SOL    HW114552   0.417   2.307   5.979
 4551SOL    HW214553   0.381   2.357   5.828
 4552SOL     OW14554   0.117   2.789   3.806
 4552SOL    HW114555   0.122   2.729   3.886
 4552SOL    HW214556   0.021   2.797   3.776
 4553SOL     OW14557   4.834   4.609   0.587
 4553SOL    HW114558   4.858   4.690   0.534
 4553SOL    HW214559   4.777   4.636   0.665
 4554SOL     OW14560   5.513   6.847   3.196
 4554SOL    HW114561   5.424   6.837   3.152
 4554SOL    HW214562   5.504   6.906   3.276
 4555SOL     OW14563   5.255   1.845   0.084
 4555SOL    HW114564   5.290   1.793   0.006
 4555SOL    HW214565   5.236   1.781   0.159
 4556SOL     OW14566   5.276   1.161   4.929
 4556SOL    HW114567   5.303   1.252   4.898
 4556SOL    HW214568   5.237   1.110   4.853
 4557SOL     OW14569   5.103   0.153   5.604
 4557SOL    HW114570   5.105   0.225   5.535
 4557SOL    HW214571   5.074   0.192   5.692
 4558SOL     OW14572   6.435   3.597   5.874
 4558SOL    HW114573   6.336   3.610   5.873
 4558SOL    HW214574   6.460   3.537   5.950
 4559SOL     OW14575   0.581   6.321   1.643
 4559SOL    HW114576   0.521   6.265   1.701
 4559SOL    HW214577   0.533   6.404   1.615
 4560SOL     OW14578   5.121   2.710   3.256
 4560SOL    HW114579   5.049   2.679   3.318
 4560SOL    HW214580   5.130   2.646   3.180
 4561SOL     OW14581   3.165   0.768   6.732
 4561SOL    HW114582   3.108   0.691   6.704
 4561SOL    HW214583   3.246   0.734   6.781
 4562SOL     OW14584   3.242   5.327   5.366
 4562SOL    HW114585   3.242   5.417   5.409
 4562SOL    HW214586   3.190   5.262   5.422
 4563SOL     OW14587   5.244   2.274   5.966
 4563SOL    HW114588   5.322   2.253   5.907
 4563SOL    HW214589   5.215   2.368   5.950
 4564SOL     OW14590   1.556   5.617   6.758
 4564SOL    HW114591   1.554   5.669   6.844
 4564SOL    HW214592   1.495   5.660   6.692
 4565SOL     OW14593   2.819   0.719   4.053
 4565SOL    HW114594   2.797   0.774   3.972
 4565SOL    HW214595   2.838   0.778   4.130
 4566SOL     OW14596   0.814   2.036   0.495
 4566SOL    HW114597   0.765   2.099   0.555
 4566SOL    HW214598   0.770   1.946   0.499
 4567SOL     OW14599   0.012   0.783   0.698
 4567SOL    HW114600   0.111   0.775   0.705
 4567SOL    HW214601   6.987   0.698   0.727
 4568SOL     OW14602   3.357   4.906   4.540
 4568SOL    HW114603   3.257   4.914   4.541
 4568SOL    HW214604   3.391   4.895   4.634
 4569SOL     OW14605   0.063   2.168   3.571
 4569SOL    HW114606   0.055   2.262   3.605
 4569SOL    HW214607   0.154   2.133   3.590
 4570SOL     OW14608   6.698   5.097   4.446
 4570SOL    HW114609   6.652   5.106   4.358
 4570SOL    HW214610   6.781   5.154   4.446
 4571SOL     OW14611   3.547   3.185   3.890
 4571SOL    HW114612   3.498   3.196   3.803
 4571SOL    HW214613   3.645   3.203   3.875
 4572SOL     OW14614   2.221   5.973   2.084
 4572SOL    HW114615   2.316   5.948   2.065
 4572SOL    HW214616   2.209   5.989   2.182
 4573SOL     OW14617   5.482   6.766   0.455
 4573SOL    HW114618   5.576   6.800   0.454
 4573SOL    HW214619   5.475   6.684   0.399
 4574SOL     OW14620   0.714   4.569   1.716
 4574SOL    HW114621   0.795   4.591   1.770
 4574SOL    HW214622   0.644   4.529   1.775
 4575SOL     OW14623   6.327   6.742   2.400
 4575SOL    HW114624   6.399   6.718   2.466
 4575SOL    HW214625   6.329   6.677   2.325
 4576SOL     OW14626   3.529   5.770   4.384
 4576SOL    HW114627   3.435   5.756   4.415
 4576SOL    HW214628   3.532   5.849   4.323
 4577SOL     OW14629   1.037   2.371   4.074
 4577SOL    HW114630   1.006   2.458   4.036
 4577SOL    HW214631   1.119   2.386   4.130
 4578SOL     OW14632   0.401   4.227   4.146
 4578SOL    HW114633   0.313   4.179   4.135
 4578SOL    HW214634   0.472   4.177   4.096
 4579SOL     OW14635   5.289   2.200   4.125
 4579SOL    HW114636   5.388   2.203   4.141
 4579SOL    HW214637   5.246   2.281   4.163
 4580SOL     OW14638   6.924   5.860   0.363
 4580SOL    HW114639   6.829   5.836   0.384
 4580SOL    HW214640   6.926   5.948   0.315
 4581SOL     OW14641   3.352   5.838   3.530
 4581SOL    HW114642   3.412   5.908   3.491
 4581SOL    HW214643   3.259   5.850   3.495
 4582SOL     OW14644   4.459   6.803   3.326
 4582SOL    HW114645   4.398   6.880   3.344
 4582SOL    HW214646   4.488   6.804   3.230
 4583SOL     OW14647   4.494   1.534   5.599
 4583SOL    HW114648   4.406   1.501   5.566
 4583SOL    HW214649   4.491   1.544   5.698
 4584SOL     OW14650   0.669   4.764   5.383
 4584SOL    HW114651   0.613   4.783   5.303
 4584SOL    HW214652   0.671   4.844   5.443
 4585SOL     OW14653   3.557   6.604   2.904
 4585SOL    HW114654   3.472   6.585   2.856
 4585SOL    HW214655   3.622   6.530   2.887
 4586SOL     OW14656   3.051   6.373   2.008
 4586SOL    HW114657   3.101   6.291   2.034
 4586SOL    HW214658   3.082   6.405   1.918
 4587SOL     OW14659   1.967   4.615   0.983
 4587SOL    HW114660   1.974   4.516   0.999
 4587SOL    HW214661   1.986   4.664   1.068
 4588SOL     OW14662   4.150   3.867   5.540
 4588SOL    HW114663   4.070   3.927   5.549
 4588SOL    HW214664   4.204   3.896   5.461
 4589SOL     OW14665   1.110   1.631   3.846
 4589SOL    HW114666   1.162   1.674   3.919
 4589SOL    HW214667   1.082   1.699   3.779
 4590SOL     OW14668   4.287   5.780   2.727
 4590SOL    HW114669   4.257   5.748   2.817
 4590SOL    HW214670   4.316   5.703   2.671
 4591SOL     OW14671   6.455   6.675   5.484
 4591SOL    HW114672   6.362   6.648   5.458
 4591SOL    HW214673   6.472   6.646   5.579
 4592SOL     OW14674   3.120   1.846   5.959
 4592SOL    HW114675   3.111   1.938   5.998
 4592SOL    HW214676   3.112   1.851   5.860
 4593SOL     OW14677   4.234   6.829   1.210
 4593SOL    HW114678   4.178   6.854   1.131
 4593SOL    HW214679   4.175   6.812   1.289
 4594SOL     OW14680   3.162   1.718   3.102
 4594SOL    HW114681   3.195   1.746   3.012
 4594SOL    HW214682   3.070   1.756   3.117
 4595SOL     OW14683   4.203   2.652   5.863
 4595SOL    HW114684   4.122   2.603   5.831
 4595SOL    HW214685   4.257   2.593   5.922
 4596SOL     OW14686   6.171   0.227   2.193
 4596SOL    HW114687   6.127   0.183   2.271
 4596SOL    HW214688   6.120   0.205   2.110
 4597SOL     OW14689   0.277   4.678   6.522
 4597SOL    HW114690   0.274   4.628   6.609
 4597SOL    HW214691   0.365   4.725   6.514
 4598SOL     OW14692   3.073   4.580   0.412
 4598SOL    HW114693   3.014   4.653   0.446
 4598SOL    HW214694   3.058   4.497   0.466
 4599SOL     OW14695   1.886   5.212   0.243
 4599SOL    HW114696   1.860   5.305   0.217
 4599SOL    HW214697   1.817   5.174   0.304
 4600SOL     OW14698   3.856   5.334   1.621
 4600SOL    HW114699   3.887   5.366   1.531
 4600SOL    HW214700   3.878   5.404   1.689
 4601SOL     OW14701   1.856   6.113   4.534
 4601SOL    HW114702   1.822   6.146   4.623
 4601SOL    HW214703   1.950   6.082   4.545
 4602SOL     OW14704   1.735   1.251   0.755
 4602SOL    HW114705   1.705   1.212   0.842
 4602SOL    HW214706   1.666   1.235   0.685
 4603SOL     OW14707   3.137   1.199   2.171
 4603SOL    HW114708   3.079   1.252   2.233
 4603SOL    HW214709   3.233   1.217   2.191
 4604SOL     OW14710   2.598   0.566   2.756
 4604SOL    HW114711   2.603   0.472   2.723
 4604SOL    HW214712   2.515   0.610   2.720
 4605SOL     OW14713   5.056   6.872   5.627
 4605SOL    HW114714   5.071   6.970   5.635
 4605SOL    HW214715   5.088   6.826   5.710
 4606SOL     OW14716   6.948   6.334   5.774
 4606SOL    HW114717   6.940   6.239   5.743
 4606SOL    HW214718   6.863   6.362   5.820
 4607SOL     OW14719   2.426   2.005   1.231
 4607SOL    HW114720   2.524   2.005   1.214
 4607SOL    HW214721   2.395   1.911   1.248
 4608SOL     OW14722   1.988   3.405   5.153
 4608SOL    HW114723   2.029   3.358   5.074
 4608SOL    HW214724   1.891   3.384   5.158
 4609SOL     OW14725   3.652   6.827   6.754
 4609SOL    HW114726   3.600   6.747   6.724
 4609SOL    HW214727   3.700   6.806   6.839
 4610SOL     OW14728   0.815   3.395   6.678
 4610SOL    HW114729   0.867   3.310   6.686
 4610SOL    HW214730   0.849   3.462   6.744
 4611SOL     OW14731   0.928   3.562   6.855
 4611SOL    HW114732   0.980   3.644   6.830
 4611SOL    HW214733   0.978   3.512   6.926
 4612SOL     OW14734   2.353   0.659   6.249
 4612SOL    HW114735   2.433   0.642   6.307
 4612SOL    HW214736   2.326   0.755   6.256
 4613SOL     OW14737   2.639   5.548   2.013
 4613SOL    HW114738   2.545   5.568   2.041
 4613SOL    HW214739   2.663   5.454   2.039
 4614SOL     OW14740   2.173   5.245   0.429
 4614SOL    HW114741   2.203   5.301   0.352
 4614SOL    HW214742   2.084   5.276   0.461
 4615SOL     OW14743   0.012   3.179   0.470
 4615SOL    HW114744   6.989   3.207   0.383
 4615SOL    HW214745   0.111   3.195   0.466
 4616SOL     OW14746   6.148   0.696   0.171
 4616SOL    HW114747   6.210   0.769   0.200
 4616SOL    HW214748   6.074   0.735   0.116
 4617SOL     OW14749   0.115   3.629   2.092
 4617SOL    HW114750   0.101   3.642   2.190
 4617SOL    HW214751   0.156   3.539   2.076
 4618SOL     OW14752   1.393   2.117   6.094
 4618SOL    HW114753   1.412   2.191   6.029
 4618SOL    HW214754   1.339   2.153   6.170
 4619SOL     OW14755   3.144   0.445   4.006
 4619SOL    HW114756   3.216   0.395   4.054
 4619SOL    HW214757   3.154   0.433   3.907
 4620SOL     OW14758   2.368   4.717   6.194
 4620SOL    HW114759   2.275   4.709   6.158
 4620SOL    HW214760   2.382   4.649   6.266
 4621SOL     OW14761   0.436   6.630   6.642
 4621SOL    HW114762   0.534   6.613   6.648
 4621SOL    HW214763   0.412   6.657   6.548
 4622SOL     OW14764   1.838   3.388   1.176
 4622SOL    HW114765   1.868   3.461   1.114
 4622SOL    HW214766   1.897   3.387   1.257
 4623SOL     OW14767   5.941   4.655   2.648
 4623SOL    HW114768   6.011   4.718   2.615
 4623SOL    HW214769   5.983   4.568   2.674
 4624SOL     OW14770   4.582   6.761   5.765
 4624SOL    HW114771   4.525   6.823   5.711
 4624SOL    HW214772   4.558   6.666   5.745
 4625SOL     OW14773   1.291   3.426   6.104
 4625SOL    HW114774   1.250   3.442   6.193
 4625SOL    HW214775   1.391   3.435   6.111
 4626SOL     OW14776   5.605   5.570   2.101
 4626SOL    HW114777   5.637   5.588   2.008
 4626SOL    HW214778   5.556   5.650   2.136
 4627SOL     OW14779   2.121   0.502   5.920
 4627SOL    HW114780   2.141   0.570   5.850
 4627SOL    HW214781   2.200   0.494   5.982
 4628SOL     OW14782   0.042   3.758   1.245
 4628SOL    HW114783   0.048   3.662   1.216
 4628SOL    HW214784   0.132   3.801   1.239
 4629SOL     OW14785   3.717   5.088   4.673
 4629SOL    HW114786   3.715   5.169   4.614
 4629SOL    HW214787   3.626   5.074   4.713
 4630SOL     OW14788   2.533   0.311   2.679
 4630SOL    HW114789   2.512   0.228   2.628
 4630SOL    HW214790   2.613   0.294   2.737
 4631SOL     OW14791   2.501   0.918   2.658
 4631SOL    HW114792   2.415   0.958   2.629
 4631SOL    HW214793   2.491   0.819   2.665
 4632SOL     OW14794   5.463   5.424   4.267
 4632SOL    HW114795   5.391   5.356   4.249
 4632SOL    HW214796   5.448   5.504   4.209
 4633SOL     OW14797   5.758   2.415   5.560
 4633SOL    HW114798   5.762   2.508   5.597
 4633SOL    HW214799   5.763   2.418   5.460
 4634SOL     OW14800   3.618   4.757   1.205
 4634SOL    HW114801   3.587   4.686   1.269
 4634SOL    HW214802   3.708   4.732   1.169
 4635SOL     OW14803   5.143   4.299   1.022
 4635SOL    HW114804   5.135   4.314   1.121
 4635SOL    HW214805   5.169   4.204   1.005
 4636SOL     OW14806   1.496   4.962   0.842
 4636SOL    HW114807   1.493   5.036   0.910
 4636SOL    HW214808   1.534   4.880   0.884
 4637SOL     OW14809   1.864   0.606   5.106
 4637SOL    HW114810   1.813   0.600   5.020
 4637SOL    HW214811   1.840   0.528   5.165
 4638SOL     OW14812   4.881   3.600   6.301
 4638SOL    HW114813   4.784   3.577   6.310
 4638SOL    HW214814   4.911   3.585   6.207
 4639SOL     OW14815   6.626   2.866   5.027
 4639SOL    HW114816   6.574   2.871   5.112
 4639SOL    HW214817   6.564   2.852   4.951
 4640SOL     OW14818   6.279   4.177   2.465
 4640SOL    HW114819   6.341   4.132   2.529
 4640SOL    HW214820   6.188   4.135   2.472
 4641SOL     OW14821   2.591   4.709   5.626
 4641SOL    HW114822   2.668   4.689   5.565
 4641SOL    HW214823   2.625   4.726   5.718
 4642SOL     OW14824   5.778   5.719   4.383
 4642SOL    HW114825   5.739   5.805   4.350
 4642SOL    HW214826   5.796   5.727   4.481
 4643SOL     OW14827   4.133   2.564   0.972
 4643SOL    HW114828   4.072   2.632   0.930
 4643SOL    HW214829   4.143   2.585   1.070
 4644SOL     OW14830   2.467   5.119   4.680
 4644SOL    HW114831   2.491   5.147   4.773
 4644SOL    HW214832   2.549   5.114   4.624
 4645SOL     OW14833   1.951   5.975   5.103
 4645SOL    HW114834   2.004   5.910   5.048
 4645SOL    HW214835   2.003   6.059   5.115
 4646SOL     OW14836   3.989   0.318   1.506
 4646SOL    HW114837   4.038   0.234   1.531
 4646SOL    HW214838   3.997   0.384   1.581
 4647SOL     OW14839   0.125   0.688   4.416
 4647SOL    HW114840   0.193   0.719   4.483
 4647SOL    HW214841   0.040   0.739   4.428
 4648SOL     OW14842   1.777   4.815   2.615
 4648SOL    HW114843   1.708   4.764   2.564
 4648SOL    HW214844   1.858   4.758   2.628
 4649SOL     OW14845   5.680   6.101   6.522
 4649SOL    HW114846   5.620   6.160   6.577
 4649SOL    HW214847   5.654   6.107   6.426
 4650SOL     OW14848   6.999   5.004   2.013
 4650SOL    HW114849   0.058   4.971   1.959
 4650SOL    HW214850   6.928   4.934   2.014
 4651SOL     OW14851   0.012   1.957   1.453
 4651SOL    HW114852   0.083   1.887   1.456
 4651SOL    HW214853   0.017   2.014   1.536
 4652SOL     OW14854   0.501   5.992   5.591
 4652SOL    HW114855   0.425   5.927   5.580
 4652SOL    HW214856   0.464   6.084   5.605
 4653SOL     OW14857   1.121   5.598   6.701
 4653SOL    HW114858   1.112   5.532   6.627
 4653SOL    HW214859   1.193   5.664   6.679
 4654SOL     OW14860   0.756   1.504   6.372
 4654SOL    HW114861   0.847   1.543   6.363
 4654SOL    HW214862   0.757   1.408   6.344
 4655SOL     OW14863   0.317   5.466   3.523
 4655SOL    HW114864   0.286   5.420   3.441
 4655SOL    HW214865   0.238   5.501   3.574
 4656SOL     OW14866   2.480   0.123   3.143
 4656SOL    HW114867   2.544   0.056   3.105
 4656SOL    HW214868   2.458   0.190   3.073
 4657SOL     OW14869   5.960   6.869   6.552
 4657SOL    HW114870   5.959   6.799   6.480
 4657SOL    HW214871   5.873   6.919   6.550
 4658SOL     OW14872   4.975   0.719   3.521
 4658SOL    HW114873   5.015   0.807   3.493
 4658SOL    HW214874   5.041   0.668   3.576
 4659SOL     OW14875   2.384   2.534   4.443
 4659SOL    HW114876   2.415   2.537   4.348
 4659SOL    HW214877   2.296   2.489   4.448
 4660SOL     OW14878   6.852   1.243   5.814
 4660SOL    HW114879   6.884   1.177   5.745
 4660SOL    HW214880   6.753   1.236   5.823
 4661SOL     OW14881   3.959   3.374   3.410
 4661SOL    HW114882   3.981   3.338   3.319
 4661SOL    HW214883   3.878   3.433   3.404
 4662SOL     OW14884   5.578   0.350   4.376
 4662SOL    HW114885   5.643   0.280   4.348
 4662SOL    HW214886   5.485   0.315   4.366
 4663SOL     OW14887   0.333   1.524   2.334
 4663SOL    HW114888   0.305   1.560   2.244
 4663SOL    HW214889   0.407   1.458   2.321
 4664SOL     OW14890   3.167   3.497   0.585
 4664SOL    HW114891   3.092   3.556   0.614
 4664SOL    HW214892   3.181   3.507   0.487
 4665SOL     OW14893   5.536   0.866   6.889
 4665SOL    HW114894   5.601   0.804   6.847
 4665SOL    HW214895   5.512   0.833   6.980
 4666SOL     OW14896   3.025   1.427   0.477
 4666SOL    HW114897   2.987   1.336   0.493
 4666SOL    HW214898   3.113   1.435   0.524
 4667SOL     OW14899   0.476   5.665   5.432
 4667SOL    HW114900   0.438   5.574   5.451
 4667SOL    HW214901   0.573   5.657   5.411
 4668SOL     OW14902   5.554   1.725   5.059
 4668SOL    HW114903   5.547   1.712   4.960
 4668SOL    HW214904   5.646   1.759   5.081
 4669SOL     OW14905   2.531   0.447   1.413
 4669SOL    HW114906   2.572   0.486   1.496
 4669SOL    HW214907   2.580   0.363   1.389
 4670SOL     OW14908   1.702   1.323   4.357
 4670SOL    HW114909   1.639   1.274   4.418
 4670SOL    HW214910   1.655   1.401   4.316
 4671SOL     OW14911   5.494   3.240   0.595
 4671SOL    HW114912   5.444   3.184   0.662
 4671SOL    HW214913   5.586   3.203   0.584
 4672SOL     OW14914   2.587   3.447   5.564
 4672SOL    HW114915   2.494   3.412   5.573
 4672SOL    HW214916   2.587   3.528   5.506
 4673SOL     OW14917   3.600   0.222   2.611
 4673SOL    HW114918   3.637   0.161   2.681
 4673SOL    HW214919   3.626   0.316   2.631
 4674SOL     OW14920   4.191   6.384   6.153
 4674SOL    HW114921   4.254   6.321   6.108
 4674SOL    HW214922   4.168   6.459   6.090
 4675SOL     OW14923   1.161   4.093   6.249
 4675SOL    HW114924   1.119   4.025   6.189
 4675SOL    HW214925   1.168   4.180   6.202
 4676SOL     OW14926   0.440   5.493   4.074
 4676SOL    HW114927   0.484   5.444   4.149
 4676SOL    HW214928   0.409   5.428   4.005
 4677SOL     OW14929   0.978   3.500   0.563
 4677SOL    HW114930   1.039   3.422   0.574
 4677SOL    HW214931   0.996   3.567   0.635
 4678SOL     OW14932   2.103   3.965   2.077
 4678SOL    HW114933   2.090   3.874   2.115
 4678SOL    HW214934   2.158   3.959   1.994
 4679SOL     OW14935   4.306   0.442   1.372
 4679SOL    HW114936   4.357   0.420   1.288
 4679SOL    HW214937   4.324   0.372   1.441
 4680SOL     OW14938   1.674   0.804   0.516
 4680SOL    HW114939   1.631   0.723   0.556
 4680SOL    HW214940   1.753   0.831   0.570
 4681SOL     OW14941   4.780   5.501   2.005
 4681SOL    HW114942   4.757   5.490   1.908
 4681SOL    HW214943   4.751   5.419   2.055
 4682SOL     OW14944   3.219   4.028   6.948
 4682SOL    HW114945   3.248   4.086   0.005
 4682SOL    HW214946   3.212   3.933   6.980
 4683SOL     OW14947   6.273   4.243   3.950
 4683SOL    HW114948   6.217   4.185   3.892
 4683SOL    HW214949   6.335   4.297   3.892
 4684SOL     OW14950   5.802   6.265   0.151
 4684SOL    HW114951   5.878   6.324   0.178
 4684SOL    HW214952   5.716   6.315   0.159
 4685SOL     OW14953   3.596   3.936   4.779
 4685SOL    HW114954   3.685   3.981   4.781
 4685SOL    HW214955   3.523   4.004   4.787
 4686SOL     OW14956   2.768   6.040   0.185
 4686SOL    HW114957   2.669   6.047   0.191
 4686SOL    HW214958   2.796   5.944   0.184
 4687SOL     OW14959   3.085   0.568   2.705
 4687SOL    HW114960   2.997   0.605   2.675
 4687SOL    HW214961   3.098   0.586   2.803
 4688SOL     OW14962   6.035   3.156   5.597
 4688SOL    HW114963   5.967   3.087   5.620
 4688SOL    HW214964   6.088   3.126   5.517
 4689SOL     OW14965   6.187   0.534   2.407
 4689SOL    HW114966   6.169   0.630   2.425
 4689SOL    HW214967   6.238   0.495   2.484
 4690SOL     OW14968   2.598   1.821   0.718
 4690SOL    HW114969   2.545   1.756   0.772
 4690SOL    HW214970   2.535   1.883   0.670
 4691SOL     OW14971   6.828   4.356   2.054
 4691SOL    HW114972   6.862   4.353   2.148
 4691SOL    HW214973   6.731   4.329   2.053
 4692SOL     OW14974   5.178   3.077   2.250
 4692SOL    HW114975   5.165   3.045   2.157
 4692SOL    HW214976   5.115   3.153   2.268
 4693SOL     OW14977   1.423   0.440   2.973
 4693SOL    HW114978   1.450   0.344   2.981
 4693SOL    HW214979   1.505   0.496   2.958
 4694SOL     OW14980   1.398   0.553   6.681
 4694SOL    HW114981   1.418   0.502   6.765
 4694SOL    HW214982   1.379   0.488   6.607
 4695SOL     OW14983   1.421   5.848   1.844
 4695SOL    HW114984   1.512   5.806   1.852
 4695SOL    HW214985   1.428   5.946   1.862
 4696SOL     OW14986   2.003   5.232   5.631
 4696SOL    HW114987   1.971   5.188   5.715
 4696SOL    HW214988   2.000   5.331   5.642
 4697SOL     OW14989   4.169   5.477   1.603
 4697SOL    HW114990   4.157   5.510   1.697
 4697SOL    HW214991   4.164   5.554   1.539
 4698SOL     OW14992   5.222   1.078   4.672
 4698SOL    HW114993   5.297   1.018   4.645
 4698SOL    HW214994   5.142   1.022   4.697
 4699SOL     OW14995   1.464   0.127   2.217
 4699SOL    HW114996   1.396   0.179   2.165
 4699SOL    HW214997   1.512   0.189   2.280
 4700SOL     OW14998   6.707   2.257   1.824
 4700SOL    HW114999   6.724   2.164   1.856
 4700SOL    HW215000   6.702   2.258   1.724
 4701SOL     OW15001   3.072   2.268   1.728
 4701SOL    HW115002   3.095   2.171   1.741
 4701SOL    HW215003   3.009   2.297   1.800
 4702SOL     OW15004   5.481   5.075   6.498
 4702SOL    HW115005   5.542   4.996   6.500
 4702SOL    HW215006   5.535   5.159   6.499
 4703SOL     OW15007   0.790   5.288   3.456
 4703SOL    HW115008   0.829   5.219   3.396
 4703SOL    HW215009   0.723   5.343   3.405
 4704SOL     OW15010   1.336   5.279   4.678
 4704SOL    HW115011   1.421   5.249   4.636
 4704SOL    HW215012   1.286   5.339   4.616
 4705SOL     OW15013   3.531   1.891   1.626
 4705SOL    HW115014   3.497   1.930   1.541
 4705SOL    HW215015   3.586   1.960   1.674
 4706SOL     OW15016   2.141   0.457   0.933
 4706SOL    HW115017   2.230   0.411   0.929
 4706SOL    HW215018   2.148   0.536   0.995
 4707SOL     OW15019   1.683   5.766   1.864
 4707SOL    HW115020   1.705   5.714   1.947
 4707SOL    HW215021   1.734   5.729   1.787
 4708SOL     OW15022   1.630   2.793   4.583
 4708SOL    HW115023   1.665   2.798   4.489
 4708SOL    HW215024   1.675   2.718   4.631
 4709SOL     OW15025   4.948   4.031   5.614
 4709SOL    HW115026   4.985   4.075   5.696
 4709SOL    HW215027   4.971   4.086   5.533
 4710SOL     OW15028   5.974   6.009   5.470
 4710SOL    HW115029   5.996   6.009   5.373
 4710SOL    HW215030   6.010   6.092   5.513
 4711SOL     OW15031   5.388   3.874   2.464
 4711SOL    HW115032   5.311   3.938   2.466
 4711SOL    HW215033   5.473   3.926   2.455
 4712SOL     OW15034   4.618   4.414   5.562
 4712SOL    HW115035   4.570   4.328   5.546
 4712SOL    HW215036   4.663   4.410   5.651
 4713SOL     OW15037   6.322   4.197   1.111
 4713SOL    HW115038   6.358   4.139   1.038
 4713SOL    HW215039   6.243   4.247   1.077
 4714SOL     OW15040   4.272   1.388   6.653
 4714SOL    HW115041   4.347   1.433   6.700
 4714SOL    HW215042   4.185   1.421   6.690
 4715SOL     OW15043   6.423   1.618   2.069
 4715SOL    HW115044   6.519   1.590   2.077
 4715SOL    HW215045   6.377   1.562   2.000
 4716SOL     OW15046   3.837   4.799   5.830
 4716SOL    HW115047   3.760   4.836   5.881
 4716SOL    HW215048   3.804   4.760   5.744
 4717SOL     OW15049   2.554   4.919   5.302
 4717SOL    HW115050   2.547   4.889   5.397
 4717SOL    HW215051   2.497   4.859   5.245
 4718SOL     OW15052   4.667   4.861   0.323
 4718SOL    HW115053   4.569   4.839   0.327
 4718SOL    HW215054   4.702   4.877   0.415
 4719SOL     OW15055   0.109   4.576   4.000
 4719SOL    HW115056   0.152   4.535   4.081
 4719SOL    HW215057   0.114   4.512   3.924
 4720SOL     OW15058   2.207   2.961   0.059
 4720SOL    HW115059   2.249   3.023   7.011
 4720SOL    HW215060   2.169   3.014   0.134
 4721SOL     OW15061   6.994   2.983   2.650
 4721SOL    HW115062   6.911   3.025   2.614
 4721SOL    HW215063   6.972   2.933   2.734
 4722SOL     OW15064   1.152   6.232   6.686
 4722SOL    HW115065   1.251   6.247   6.684
 4722SOL    HW215066   1.113   6.276   6.767
 4723SOL     OW15067   3.673   4.321   0.022
 4723SOL    HW115068   3.581   4.319   7.002
 4723SOL    HW215069   3.669   4.337   0.120
 4724SOL     OW15070   0.362   6.883   5.141
 4724SOL    HW115071   0.342   6.980   5.156
 4724SOL    HW215072   0.459   6.867   5.157
 4725SOL     OW15073   4.957   5.888   1.158
 4725SOL    HW115074   4.911   5.977   1.151
 4725SOL    HW215075   4.917   5.836   1.233
 4726SOL     OW15076   1.551   3.358   5.463
 4726SOL    HW115077   1.610   3.283   5.435
 4726SOL    HW215078   1.484   3.377   5.391
 4727SOL     OW15079   6.996   4.820   1.373
 4727SOL    HW115080   0.044   4.756   1.334
 4727SOL    HW215081   6.917   4.828   1.313
 4728SOL     OW15082   6.259   1.083   4.481
 4728SOL    HW115083   6.282   1.095   4.384
 4728SOL    HW215084   6.293   1.161   4.533
 4729SOL     OW15085   6.469   1.901   2.030
 4729SOL    HW115086   6.478   1.801   2.032
 4729SOL    HW215087   6.378   1.925   1.997
 4730SOL     OW15088   2.952   6.504   4.422
 4730SOL    HW115089   3.014   6.444   4.473
 4730SOL    HW215090   2.996   6.593   4.408
 4731SOL     OW15091   3.014   6.362   0.438
 4731SOL    HW115092   2.989   6.432   0.371
 4731SOL    HW215093   3.094   6.311   0.405
 4732SOL     OW15094   6.952   5.213   4.423
 4732SOL    HW115095   6.989   5.133   4.374
 4732SOL    HW215096   7.011   5.235   4.500
 4733SOL     OW15097   2.313   4.265   2.663
 4733SOL    HW115098   2.278   4.173   2.678
 4733SOL    HW215099   2.320   4.282   2.564
 4734SOL     OW15100   5.125   3.632   6.486
 4734SOL    HW115101   5.136   3.572   6.566
 4734SOL    HW215102   5.051   3.597   6.429
 4735SOL     OW15103   0.390   0.880   5.177
 4735SOL    HW115104   0.440   0.941   5.116
 4735SOL    HW215105   0.440   0.794   5.187
 4736SOL     OW15106   6.027   2.157   3.475
 4736SOL    HW115107   5.985   2.169   3.565
 4736SOL    HW215108   5.964   2.108   3.414
 4737SOL     OW15109   2.376   4.924   6.813
 4737SOL    HW115110   2.451   4.871   6.772
 4737SOL    HW215111   2.308   4.945   6.742
 4738SOL     OW15112   1.162   6.574   3.342
 4738SOL    HW115113   1.183   6.522   3.424
 4738SOL    HW215114   1.228   6.648   3.331
 4739SOL     OW15115   6.441   2.955   2.972
 4739SOL    HW115116   6.513   3.006   2.925
 4739SOL    HW215117   6.383   2.908   2.906
 4740SOL     OW15118   0.970   0.996   1.418
 4740SOL    HW115119   1.029   1.076   1.431
 4740SOL    HW215120   0.937   0.965   1.506
 4741SOL     OW15121   4.924   4.575   1.466
 4741SOL    HW115122   4.864   4.497   1.446
 4741SOL    HW215123   4.988   4.549   1.538
 4742SOL     OW15124   2.735   5.967   2.089
 4742SOL    HW115125   2.793   5.886   2.085
 4742SOL    HW215126   2.754   6.025   2.009
 4743SOL     OW15127   2.397   2.924   0.294
 4743SOL    HW115128   2.373   2.964   0.205
 4743SOL    HW215129   2.354   2.834   0.303
 4744SOL     OW15130   2.004   2.515   4.716
 4744SOL    HW115131   2.054   2.429   4.723
 4744SOL    HW215132   2.048   2.572   4.646
 4745SOL     OW15133   3.408   5.627   5.077
 4745SOL    HW115134   3.500   5.666   5.071
 4745SOL    HW215135   3.357   5.673   5.149
 4746SOL     OW15136   5.945   0.858   1.124
 4746SOL    HW115137   5.924   0.774   1.074
 4746SOL    HW215138   5.969   0.931   1.059
 4747SOL     OW15139   6.515   2.882   1.505
 4747SOL    HW115140   6.514   2.881   1.605
 4747SOL    HW215141   6.578   2.812   1.471
 4748SOL     OW15142   1.688   0.555   1.322
 4748SOL    HW115143   1.675   0.649   1.290
 4748SOL    HW215144   1.621   0.496   1.279
 4749SOL     OW15145   2.357   0.486   6.046
 4749SOL    HW115146   2.376   0.568   6.100
 4749SOL    HW215147   2.405   0.408   6.087
 4750SOL     OW15148   0.405   1.702   4.700
 4750SOL    HW115149   0.479   1.634   4.708
 4750SOL    HW215150   0.417   1.753   4.615
 4751SOL     OW15151   0.823   3.403   5.477
 4751SOL    HW115152   0.922   3.413   5.467
 4751SOL    HW215153   0.803   3.334   5.547
 4752SOL     OW15154   2.212   6.098   1.866
 4752SOL    HW115155   2.177   6.056   1.950
 4752SOL    HW215156   2.271   6.033   1.818
 4753SOL     OW15157   0.081   0.023   5.225
 4753SOL    HW115158   0.076   6.955   5.174
 4753SOL    HW215159   0.171   0.064   5.211
 4754SOL     OW15160   0.705   0.193   6.191
 4754SOL    HW115161   0.610   0.164   6.178
 4754SOL    HW215162   0.708   0.265   6.260
 4755SOL     OW15163   2.246   0.784   0.441
 4755SOL    HW115164   2.242   0.735   0.354
 4755SOL    HW215165   2.265   0.880   0.424
 4756SOL     OW15166   4.651   3.125   1.286
 4756SOL    HW115167   4.695   3.045   1.326
 4756SOL    HW215168   4.594   3.170   1.355
 4757SOL     OW15169   1.963   1.699   1.900
 4757SOL    HW115170   2.036   1.676   1.964
 4757SOL    HW215171   2.002   1.743   1.819
 4758SOL     OW15172   5.250   4.332   5.292
 4758SOL    HW115173   5.334   4.288   5.260
 4758SOL    HW215174   5.199   4.368   5.214
 4759SOL     OW15175   5.877   4.453   6.029
 4759SOL    HW115176   5.925   4.539   6.047
 4759SOL    HW215177   5.927   4.377   6.070
 4760SOL     OW15178   1.973   2.234   0.859
 4760SOL    HW115179   2.010   2.220   0.767
 4760SOL    HW215180   1.883   2.279   0.853
 4761SOL     OW15181   1.415   5.751   5.593
 4761SOL    HW115182   1.434   5.731   5.497
 4761SOL    HW215183   1.502   5.758   5.642
 4762SOL     OW15184   3.655   6.977   2.747
 4762SOL    HW115185   3.644   6.954   2.844
 4762SOL    HW215186   3.635   6.896   2.691
 4763SOL     OW15187   6.158   5.586   4.865
 4763SOL    HW115188   6.231   5.612   4.802
 4763SOL    HW215189   6.195   5.524   4.935
 4764SOL     OW15190   4.072   3.708   4.953
 4764SOL    HW115191   4.037   3.725   4.861
 4764SOL    HW215192   4.118   3.619   4.955
 4765SOL     OW15193   6.912   4.762   5.333
 4765SOL    HW115194   6.933   4.681   5.388
 4765SOL    HW215195   6.816   4.759   5.306
 4766SOL     OW15196   3.189   0.410   3.710
 4766SOL    HW115197   3.112   0.456   3.667
 4766SOL    HW215198   3.181   0.311   3.696
 4767SOL     OW15199   4.268   5.889   6.267
 4767SOL    HW115200   4.309   5.800   6.249
 4767SOL    HW215201   4.331   5.962   6.239
 4768SOL     OW15202   0.364   1.244   4.843
 4768SOL    HW115203   0.341   1.193   4.926
 4768SOL    HW215204   0.356   1.342   4.861
 4769SOL     OW15205   3.529   0.422   1.585
 4769SOL    HW115206   3.453   0.364   1.612
 4769SOL    HW215207   3.594   0.370   1.529
 4770SOL     OW15208   2.644   0.374   3.905
 4770SOL    HW115209   2.721   0.438   3.905
 4770SOL    HW215210   2.659   0.304   3.975
 4771SOL     OW15211   3.881   4.049   5.307
 4771SOL    HW115212   3.851   4.103   5.228
 4771SOL    HW215213   3.847   3.955   5.299
 4772SOL     OW15214   2.112   2.770   0.728
 4772SOL    HW115215   2.042   2.819   0.677
 4772SOL    HW215216   2.094   2.778   0.826
 4773SOL     OW15217   6.396   5.454   3.751
 4773SOL    HW115218   6.300   5.444   3.725
 4773SOL    HW215219   6.418   5.391   3.826
 4774SOL     OW15220   1.136   4.166   0.579
 4774SOL    HW115221   1.146   4.215   0.666
 4774SOL    HW215222   1.130   4.068   0.597
 4775SOL     OW15223   2.542   1.347   2.575
 4775SOL    HW115224   2.614   1.413   2.557
 4775SOL    HW215225   2.459   1.374   2.527
 4776SOL     OW15226   4.067   5.129   1.756
 4776SOL    HW115227   3.977   5.159   1.724
 4776SOL    HW215228   4.056   5.076   1.840
 4777SOL     OW15229   2.772   4.471   1.603
 4777SOL    HW115230   2.816   4.471   1.693
 4777SOL    HW215231   2.726   4.558   1.588
 4778SOL     OW15232   5.061   3.456   2.034
 4778SOL    HW115233   5.029   3.547   2.006
 4778SOL    HW215234   5.090   3.405   1.954
 4779SOL     OW15235   4.958   0.543   3.304
 4779SOL    HW115236   4.918   0.569   3.217
 4779SOL    HW215237   4.962   0.624   3.364
 4780SOL     OW15238   1.882   6.896   5.672
 4780SOL    HW115239   1.901   6.910   5.574
 4780SOL    HW215240   1.783   6.897   5.687
 4781SOL     OW15241   1.986   5.591   2.393
 4781SOL    HW115242   1.918   5.664   2.405
 4781SOL    HW215243   1.945   5.504   2.418
 4782SOL     OW15244   5.463   5.650   0.044
 4782SOL    HW115245   5.445   5.724   6.998
 4782SOL    HW215246   5.557   5.617   0.032
 4783SOL     OW15247   6.286   3.839   2.209
 4783SOL    HW115248   6.289   3.902   2.132
 4783SOL    HW215249   6.354   3.867   2.277
 4784SOL     OW15250   6.128   4.489   5.668
 4784SOL    HW115251   6.099   4.546   5.591
 4784SOL    HW215252   6.103   4.394   5.650
 4785SOL     OW15253   6.307   6.929   0.878
 4785SOL    HW115254   6.338   6.977   0.960
 4785SOL    HW215255   6.215   6.894   0.892
 4786SOL     OW15256   1.449   3.070   2.533
 4786SOL    HW115257   1.525   3.053   2.470
 4786SOL    HW215258   1.461   3.014   2.615
 4787SOL     OW15259   3.746   2.113   2.301
 4787SOL    HW115260   3.752   2.015   2.282
 4787SOL    HW215261   3.730   2.163   2.216
 4788SOL     OW15262   1.122   6.083   5.199
 4788SOL    HW115263   1.061   6.140   5.254
 4788SOL    HW215264   1.107   5.987   5.222
 4789SOL     OW15265   6.352   0.329   0.604
 4789SOL    HW115266   6.379   0.373   0.518
 4789SOL    HW215267   6.276   0.380   0.645
 4790SOL     OW15268   5.158   1.449   0.050
 4790SOL    HW115269   5.202   1.525   0.001
 4790SOL    HW215270   5.090   1.407   7.008
 4791SOL     OW15271   4.956   0.249   2.862
 4791SOL    HW115272   4.881   0.244   2.796
 4791SOL    HW215273   4.983   0.345   2.874
 4792SOL     OW15274   2.617   2.364   1.433
 4792SOL    HW115275   2.698   2.335   1.382
 4792SOL    HW215276   2.639   2.443   1.490
 4793SOL     OW15277   0.500   6.764   5.978
 4793SOL    HW115278   0.457   6.852   5.956
 4793SOL    HW215279   0.489   6.702   5.900
 4794SOL     OW15280   3.732   0.873   1.686
 4794SOL    HW115281   3.721   0.856   1.784
 4794SOL    HW215282   3.827   0.897   1.667
 4795SOL     OW15283   5.978   2.872   4.646
 4795SOL    HW115284   5.890   2.838   4.611
 4795SOL    HW215285   5.984   2.854   4.744
 4796SOL     OW15286   6.244   3.824   0.928
 4796SOL    HW115287   6.322   3.886   0.922
 4796SOL    HW215288   6.197   3.837   1.015
 4797SOL     OW15289   0.277   4.776   4.861
 4797SOL    HW115290   0.186   4.737   4.875
 4797SOL    HW215291   0.332   4.713   4.806
 4798SOL     OW15292   6.802   4.330   5.452
 4798SOL    HW115293   6.885   4.351   5.504
 4798SOL    HW215294   6.827   4.309   5.357
 4799SOL     OW15295   4.403   1.319   5.111
 4799SOL    HW115296   4.325   1.381   5.102
 4799SOL    HW215297   4.450   1.335   5.197
 4800SOL     OW15298   1.925   2.077   4.184
 4800SOL    HW115299   1.839   2.027   4.176
 4800SOL    HW215300   2.001   2.012   4.179
 4801SOL     OW15301   1.384   2.437   0.787
 4801SOL    HW115302   1.315   2.509   0.775
 4801SOL    HW215303   1.340   2.352   0.815
 4802SOL     OW15304   1.904   0.903   2.388
 4802SOL    HW115305   1.943   0.893   2.296
 4802SOL    HW215306   1.804   0.901   2.382
 4803SOL     OW15307   1.133   6.919   1.614
 4803SOL    HW115308   1.127   6.857   1.536
 4803SOL    HW215309   1.175   7.005   1.585
 4804SOL     OW15310   4.109   5.586   0.263
 4804SOL    HW115311   4.135   5.640   0.182
 4804SOL    HW215312   4.172   5.508   0.271
 4805SOL     OW15313   1.025   1.661   0.570
 4805SOL    HW115314   1.070   1.602   0.503
 4805SOL    HW215315   1.056   1.755   0.557
 4806SOL     OW15316   0.639   2.938   3.257
 4806SOL    HW115317   0.735   2.936   3.232
 4806SOL    HW215318   0.583   2.945   3.174
 4807SOL     OW15319   0.588   6.901   1.368
 4807SOL    HW115320   0.601   6.865   1.460
 4807SOL    HW215321   0.664   6.962   1.345
 4808SOL     OW15322   5.271   3.357   1.390
 4808SOL    HW115323   5.315   3.280   1.343
 4808SOL    HW215324   5.282   3.440   1.334
 4809SOL     OW15325   4.301   5.916   6.538
 4809SOL    HW115326   4.275   5.888   6.446
 4809SOL    HW215327   4.397   5.892   6.555
 4810SOL     OW15328   0.666   0.359   1.204
 4810SOL    HW115329   0.670   0.370   1.105
 4810SOL    HW215330   0.576   0.326   1.231
 4811SOL     OW15331   5.130   5.883   2.789
 4811SOL    HW115332   5.038   5.867   2.753
 4811SOL    HW215333   5.185   5.801   2.780
 4812SOL     OW15334   6.333   4.873   4.745
 4812SOL    HW115335   6.376   4.950   4.793
 4812SOL    HW215336   6.378   4.858   4.657
 4813SOL     OW15337   5.702   2.326   2.726
 4813SOL    HW115338   5.634   2.383   2.679
 4813SOL    HW215339   5.787   2.379   2.737
 4814SOL     OW15340   6.769   3.668   1.393
 4814SOL    HW115341   6.838   3.596   1.391
 4814SOL    HW215342   6.689   3.636   1.443
 4815SOL     OW15343   3.848   6.334   2.568
 4815SOL    HW115344   3.859   6.373   2.477
 4815SOL    HW215345   3.933   6.290   2.596
 4816SOL     OW15346   5.244   5.260   3.089
 4816SOL    HW115347   5.207   5.184   3.036
 4816SOL    HW215348   5.203   5.262   3.180
 4817SOL     OW15349   6.717   2.122   6.449
 4817SOL    HW115350   6.620   2.143   6.441
 4817SOL    HW215351   6.753   2.160   6.534
 4818SOL     OW15352   0.182   6.068   3.835
 4818SOL    HW115353   0.138   6.152   3.866
 4818SOL    HW215354   0.271   6.059   3.878
 4819SOL     OW15355   1.788   3.088   0.799
 4819SOL    HW115356   1.854   3.159   0.823
 4819SOL    HW215357   1.705   3.100   0.853
 4820SOL     OW15358   0.512   2.996   2.502
 4820SOL    HW115359   0.539   3.046   2.584
 4820SOL    HW215360   0.482   3.060   2.432
 4821SOL     OW15361   6.739   5.924   3.915
 4821SOL    HW115362   6.654   5.893   3.955
 4821SOL    HW215363   6.773   6.004   3.965
 4822SOL     OW15364   2.072   4.218   4.322
 4822SOL    HW115365   1.992   4.169   4.356
 4822SOL    HW215366   2.154   4.184   4.369
 4823SOL     OW15367   1.807   2.937   1.885
 4823SOL    HW115368   1.847   3.028   1.870
 4823SOL    HW215369   1.871   2.881   1.937
 4824SOL     OW15370   6.233   1.815   6.816
 4824SOL    HW115371   6.176   1.886   6.774
 4824SOL    HW215372   6.277   1.761   6.745
 4825SOL     OW15373   1.131   6.666   3.745
 4825SOL    HW115374   1.116   6.765   3.739
 4825SOL    HW215375   1.221   6.648   3.785
 4826SOL     OW15376   3.836   0.578   0.983
 4826SOL    HW115377   3.816   0.518   1.061
 4826SOL    HW215378   3.753   0.593   0.930
 4827SOL     OW15379   0.011   1.837   0.274
 4827SOL    HW115380   0.081   1.885   0.221
 4827SOL    HW215381   7.012   1.886   0.359
 4828SOL     OW15382   5.466   0.969   4.641
 4828SOL    HW115383   5.511   1.041   4.693
 4828SOL    HW215384   5.452   0.889   4.699
 4829SOL     OW15385   4.076   6.431   5.303
 4829SOL    HW115386   4.056   6.518   5.259
 4829SOL    HW215387   4.039   6.356   5.248
 4830SOL     OW15388   1.942   6.486   3.047
 4830SOL    HW115389   1.878   6.412   3.023
 4830SOL    HW215390   2.032   6.465   3.008
 4831SOL     OW15391   3.299   4.674   5.340
 4831SOL    HW115392   3.263   4.584   5.319
 4831SOL    HW215393   3.399   4.673   5.330
 4832SOL     OW15394   3.658   3.650   4.206
 4832SOL    HW115395   3.560   3.637   4.224
 4832SOL    HW215396   3.669   3.697   4.119
 4833SOL     OW15397   6.321   3.795   5.079
 4833SOL    HW115398   6.274   3.707   5.068
 4833SOL    HW215399   6.400   3.783   5.139
 4834SOL     OW15400   1.083   4.533   0.954
 4834SOL    HW115401   1.040   4.444   0.968
 4834SOL    HW215402   1.018   4.605   0.975
 4835SOL     OW15403   6.755   2.724   6.023
 4835SOL    HW115404   6.748   2.626   6.040
 4835SOL    HW215405   6.781   2.740   5.928
 4836SOL     OW15406   4.380   1.814   5.937
 4836SOL    HW115407   4.469   1.784   5.903
 4836SOL    HW215408   4.316   1.821   5.861
 4837SOL     OW15409   6.842   3.565   3.905
 4837SOL    HW115410   6.821   3.661   3.891
 4837SOL    HW215411   6.817   3.513   3.824
 4838SOL     OW15412   1.907   3.417   6.066
 4838SOL    HW115413   1.961   3.421   5.982
 4838SOL    HW215414   1.829   3.356   6.052
 4839SOL     OW15415   2.476   1.006   0.819
 4839SOL    HW115416   2.412   1.011   0.741
 4839SOL    HW215417   2.537   0.928   0.807
 4840SOL     OW15418   6.215   3.549   5.010
 4840SOL    HW115419   6.145   3.559   4.938
 4840SOL    HW215420   6.285   3.485   4.979
 4841SOL     OW15421   2.747   6.614   3.146
 4841SOL    HW115422   2.688   6.676   3.197
 4841SOL    HW215423   2.767   6.652   3.056
 4842SOL     OW15424   3.907   5.529   3.043
 4842SOL    HW115425   3.859   5.452   3.087
 4842SOL    HW215426   3.923   5.601   3.111
 4843SOL     OW15427   6.848   1.423   6.961
 4843SOL    HW115428   6.904   1.487   7.012
 4843SOL    HW215429   6.904   1.375   6.894
 4844SOL     OW15430   1.701   5.537   5.841
 4844SOL    HW115431   1.688   5.619   5.786
 4844SOL    HW215432   1.612   5.499   5.866
 4845SOL     OW15433   5.030   3.548   5.152
 4845SOL    HW115434   5.039   3.626   5.215
 4845SOL    HW215435   4.940   3.551   5.109
 4846SOL     OW15436   6.281   3.313   4.667
 4846SOL    HW115437   6.341   3.323   4.746
 4846SOL    HW215438   6.234   3.226   4.671
 4847SOL     OW15439   2.561   6.464   6.364
 4847SOL    HW115440   2.515   6.497   6.282
 4847SOL    HW215441   2.598   6.542   6.415
 4848SOL     OW15442   4.755   1.232   4.367
 4848SOL    HW115443   4.804   1.319   4.367
 4848SOL    HW215444   4.816   1.159   4.336
 4849SOL     OW15445   2.447   6.058   1.183
 4849SOL    HW115446   2.365   6.086   1.132
 4849SOL    HW215447   2.517   6.129   1.174
 4850SOL     OW15448   3.741   7.016   0.783
 4850SOL    HW115449   3.660   7.009   0.725
 4850SOL    HW215450   3.744   6.938   0.845
 4851SOL     OW15451   3.599   4.507   6.392
 4851SOL    HW115452   3.622   4.476   6.484
 4851SOL    HW215453   3.586   4.606   6.392
 4852SOL     OW15454   5.621   4.789   5.710
 4852SOL    HW115455   5.549   4.844   5.754
 4852SOL    HW215456   5.703   4.790   5.767
 4853SOL     OW15457   4.323   6.971   2.882
 4853SOL    HW115458   4.393   7.006   2.943
 4853SOL    HW215459   4.290   0.027   2.823
 4854SOL     OW15460   4.494   6.424   2.428
 4854SOL    HW115461   4.491   6.330   2.462
 4854SOL    HW215462   4.526   6.424   2.333
 4855SOL     OW15463   5.270   5.118   5.980
 4855SOL    HW115464   5.336   5.118   6.055
 4855SOL    HW215465   5.313   5.084   5.897
 4856SOL     OW15466   0.666   4.285   2.778
 4856SOL    HW115467   0.647   4.325   2.867
 4856SOL    HW215468   0.710   4.195   2.790
 4857SOL     OW15469   2.214   2.413   5.059
 4857SOL    HW115470   2.242   2.402   5.155
 4857SOL    HW215471   2.118   2.387   5.049
 4858SOL     OW15472   1.720   6.373   4.590
 4858SOL    HW115473   1.808   6.392   4.547
 4858SOL    HW215474   1.721   6.408   4.684
 4859SOL     OW15475   6.592   5.797   3.080
 4859SOL    HW115476   6.678   5.758   3.114
 4859SOL    HW215477   6.515   5.753   3.126
 4860SOL     OW15478   4.010   5.188   2.122
 4860SOL    HW115479   3.968   5.180   2.212
 4860SOL    HW215480   3.984   5.276   2.081
 4861SOL     OW15481   6.964   4.160   6.009
 4861SOL    HW115482   0.034   4.117   6.026
 4861SOL    HW215483   6.960   4.193   5.915
 4862SOL     OW15484   1.820   5.964   4.125
 4862SOL    HW115485   1.762   6.006   4.055
 4862SOL    HW215486   1.900   6.023   4.141
 4863SOL     OW15487   5.306   2.080   2.461
 4863SOL    HW115488   5.337   2.115   2.372
 4863SOL    HW215489   5.368   2.112   2.533
 4864SOL     OW15490   2.352   1.205   1.250
 4864SOL    HW115491   2.274   1.262   1.225
 4864SOL    HW215492   2.361   1.203   1.350
 4865SOL     OW15493   4.197   5.741   4.643
 4865SOL    HW115494   4.210   5.681   4.722
 4865SOL    HW215495   4.099   5.751   4.625
 4866SOL     OW15496   0.551   5.221   2.138
 4866SOL    HW115497   0.479   5.171   2.090
 4866SOL    HW215498   0.586   5.165   2.213
 4867SOL     OW15499   4.777   4.622   4.096
 4867SOL    HW115500   4.818   4.660   4.179
 4867SOL    HW215501   4.710   4.552   4.121
 4868SOL     OW15502   1.674   6.274   1.347
 4868SOL    HW115503   1.640   6.185   1.374
 4868SOL    HW215504   1.705   6.324   1.428
 4869SOL     OW15505   5.959   1.808   1.100
 4869SOL    HW115506   6.043   1.809   1.153
 4869SOL    HW215507   5.902   1.886   1.126
 4870SOL     OW15508   6.495   0.404   1.129
 4870SOL    HW115509   6.501   0.338   1.054
 4870SOL    HW215510   6.400   0.408   1.162
 4871SOL     OW15511   1.873   3.758   4.380
 4871SOL    HW115512   1.841   3.772   4.473
 4871SOL    HW215513   1.971   3.776   4.375
 4872SOL     OW15514   0.884   0.423   4.123
 4872SOL    HW115515   0.793   0.438   4.159
 4872SOL    HW215516   0.883   0.433   4.023
 4873SOL     OW15517   1.166   6.540   5.243
 4873SOL    HW115518   1.076   6.550   5.200
 4873SOL    HW215519   1.222   6.477   5.189
 4874SOL     OW15520   5.738   3.143   3.484
 4874SOL    HW115521   5.821   3.088   3.479
 4874SOL    HW215522   5.691   3.125   3.570
 4875SOL     OW15523   6.468   2.571   6.130
 4875SOL    HW115524   6.461   2.544   6.034
 4875SOL    HW215525   6.563   2.561   6.160
 4876SOL     OW15526   6.980   1.578   0.167
 4876SOL    HW115527   0.061   1.579   0.181
 4876SOL    HW215528   6.940   1.660   0.208
 4877SOL     OW15529   6.291   1.197   1.789
 4877SOL    HW115530   6.229   1.217   1.713
 4877SOL    HW215531   6.292   1.099   1.806
 4878SOL     OW15532   0.288   2.896   1.870
 4878SOL    HW115533   0.193   2.927   1.872
 4878SOL    HW215534   0.337   2.945   1.798
 4879SOL     OW15535   4.438   5.730   3.500
 4879SOL    HW115536   4.506   5.793   3.538
 4879SOL    HW215537   4.398   5.676   3.574
 4880SOL     OW15538   5.801   1.791   5.700
 4880SOL    HW115539   5.777   1.880   5.663
 4880SOL    HW215540   5.838   1.733   5.627
 4881SOL     OW15541   2.645   5.390   6.835
 4881SOL    HW115542   2.674   5.476   6.793
 4881SOL    HW215543   2.610   5.329   6.764
 4882SOL     OW15544   4.889   6.996   6.761
 4882SOL    HW115545   4.906   6.964   6.668
 4882SOL    HW215546   4.796   6.972   6.789
 4883SOL     OW15547   6.380   5.520   0.262
 4883SOL    HW115548   6.281   5.529   0.247
 4883SOL    HW215549   6.411   5.433   0.225
 4884SOL     OW15550   4.062   6.663   1.389
 4884SOL    HW115551   4.112   6.581   1.418
 4884SOL    HW215552   3.965   6.641   1.380
 4885SOL     OW15553   2.370   6.948   2.879
 4885SOL    HW115554   2.445   6.978   2.938
 4885SOL    HW215555   2.378   6.850   2.862
 4886SOL     OW15556   5.895   0.917   6.089
 4886SOL    HW115557   5.953   0.877   6.159
 4886SOL    HW215558   5.879   0.850   6.016
 4887SOL     OW15559   0.043   1.897   5.927
 4887SOL    HW115560   0.074   1.990   5.945
 4887SOL    HW215561   0.099   1.832   5.977
 4888SOL     OW15562   3.654   5.799   1.704
 4888SOL    HW115563   3.617   5.818   1.613
 4888SOL    HW215564   3.724   5.868   1.726
 4889SOL     OW15565   1.464   3.022   6.157
 4889SOL    HW115566   1.539   2.984   6.103
 4889SOL    HW215567   1.389   3.047   6.095
 4890SOL     OW15568   0.964   0.201   4.287
 4890SOL    HW115569   0.924   0.275   4.232
 4890SOL    HW215570   1.030   0.239   4.352
 4891SOL     OW15571   1.884   3.734   0.554
 4891SOL    HW115572   1.981   3.755   0.567
 4891SOL    HW215573   1.874   3.666   0.481
 4892SOL     OW15574   1.180   5.760   1.911
 4892SOL    HW115575   1.124   5.795   1.836
 4892SOL    HW215576   1.273   5.746   1.879
 4893SOL     OW15577   0.797   3.594   6.325
 4893SOL    HW115578   0.713   3.576   6.377
 4893SOL    HW215579   0.869   3.531   6.355
 4894SOL     OW15580   1.845   0.893   3.124
 4894SOL    HW115581   1.854   0.845   3.212
 4894SOL    HW215582   1.894   0.843   3.053
 4895SOL     OW15583   6.052   4.277   0.261
 4895SOL    HW115584   6.014   4.320   0.343
 4895SOL    HW215585   6.074   4.347   0.193
 4896SOL     OW15586   4.253   5.858   3.350
 4896SOL    HW115587   4.251   5.949   3.391
 4896SOL    HW215588   4.323   5.803   3.395
 4897SOL     OW15589   2.734   6.008   6.544
 4897SOL    HW115590   2.754   6.094   6.498
 4897SOL    HW215591   2.680   5.950   6.483
 4898SOL     OW15592   6.250   2.197   4.672
 4898SOL    HW115593   6.193   2.178   4.593
 4898SOL    HW215594   6.334   2.243   4.643
 4899SOL     OW15595   5.450   4.401   4.951
 4899SOL    HW115596   5.512   4.422   5.027
 4899SOL    HW215597   5.466   4.465   4.876
 4900SOL     OW15598   0.414   6.643   5.700
 4900SOL    HW115599   0.347   6.697   5.650
 4900SOL    HW215600   0.492   6.623   5.641
 4901SOL     OW15601   0.297   6.707   3.317
 4901SOL    HW115602   0.296   6.750   3.227
 4901SOL    HW215603   0.368   6.636   3.320
 4902SOL     OW15604   3.390   4.811   1.710
 4902SOL    HW115605   3.354   4.783   1.621
 4902SOL    HW215606   3.457   4.744   1.741
 4903SOL     OW15607   5.366   6.110   5.751
 4903SOL    HW115608   5.337   6.103   5.847
 4903SOL    HW215609   5.312   6.046   5.696
 4904SOL     OW15610   3.013   6.466   3.182
 4904SOL    HW115611   2.918   6.497   3.194
 4904SOL    HW215612   3.020   6.412   3.098
 4905SOL     OW15613   6.190   3.560   3.252
 4905SOL    HW115614   6.225   3.513   3.333
 4905SOL    HW215615   6.167   3.493   3.182
 4906SOL     OW15616   5.456   1.116   1.112
 4906SOL    HW115617   5.472   1.102   1.210
 4906SOL    HW215618   5.517   1.188   1.078
 4907SOL     OW15619   2.328   2.023   2.342
 4907SOL    HW115620   2.266   1.949   2.315
 4907SOL    HW215621   2.413   2.017   2.290
 4908SOL     OW15622   3.978   5.319   0.462
 4908SOL    HW115623   3.892   5.313   0.514
 4908SOL    HW215624   3.959   5.362   0.373
 4909SOL     OW15625   5.578   0.418   5.431
 4909SOL    HW115626   5.518   0.491   5.466
 4909SOL    HW215627   5.645   0.457   5.368
 4910SOL     OW15628   5.660   6.562   6.538
 4910SOL    HW115629   5.751   6.547   6.578
 4910SOL    HW215630   5.625   6.651   6.567
 4911SOL     OW15631   1.165   3.067   5.996
 4911SOL    HW115632   1.214   3.145   5.957
 4911SOL    HW215633   1.067   3.087   5.999
 4912SOL     OW15634   2.645   2.374   2.077
 4912SOL    HW115635   2.615   2.421   1.994
 4912SOL    HW215636   2.740   2.344   2.065
 4913SOL     OW15637   2.865   3.420   2.046
 4913SOL    HW115638   2.825   3.328   2.039
 4913SOL    HW215639   2.855   3.467   1.959
 4914SOL     OW15640   1.647   6.253   2.371
 4914SOL    HW115641   1.679   6.347   2.374
 4914SOL    HW215642   1.563   6.244   2.426
 4915SOL     OW15643   2.659   6.113   3.205
 4915SOL    HW115644   2.574   6.091   3.158
 4915SOL    HW215645   2.649   6.199   3.255
 4916SOL     OW15646   2.115   1.853   2.183
 4916SOL    HW115647   2.094   1.883   2.090
 4916SOL    HW215648   2.039   1.876   2.244
 4917SOL     OW15649   2.459   5.171   6.350
 4917SOL    HW115650   2.369   5.155   6.310
 4917SOL    HW215651   2.498   5.084   6.380
 4918SOL     OW15652   2.144   0.424   3.921
 4918SOL    HW115653   2.179   0.364   3.850
 4918SOL    HW215654   2.211   0.431   3.995
 4919SOL     OW15655   2.437   3.055   1.681
 4919SOL    HW115656   2.505   3.094   1.618
 4919SOL    HW215657   2.371   3.126   1.705
 4920SOL     OW15658   4.252   0.666   0.474
 4920SOL    HW115659   4.254   0.726   0.554
 4920SOL    HW215660   4.202   0.711   0.400
 4921SOL     OW15661   0.947   4.690   1.846
 4921SOL    HW115662   0.900   4.773   1.818
 4921SOL    HW215663   0.938   4.677   1.944
 4922SOL     OW15664   0.806   2.883   5.530
 4922SOL    HW115665   0.765   2.839   5.450
 4922SOL    HW215666   0.897   2.916   5.506
 4923SOL     OW15667   2.928   2.607   0.342
 4923SOL    HW115668   2.917   2.508   0.331
 4923SOL    HW215669   2.848   2.654   0.306
 4924SOL     OW15670   6.909   3.656   4.288
 4924SOL    HW115671   6.860   3.727   4.238
 4924SOL    HW215672   6.891   3.567   4.247
 4925SOL     OW15673   4.639   5.520   6.418
 4925SOL    HW115674   4.605   5.431   6.388
 4925SOL    HW215675   4.681   5.511   6.508
 4926SOL     OW15676   4.202   2.793   0.667
 4926SOL    HW115677   4.117   2.789   0.720
 4926SOL    HW215678   4.225   2.889   0.648
 4927SOL     OW15679   3.674   4.118   2.732
 4927SOL    HW115680   3.688   4.216   2.719
 4927SOL    HW215681   3.595   4.088   2.679
 4928SOL     OW15682   0.907   6.408   0.937
 4928SOL    HW115683   0.881   6.407   1.034
 4928SOL    HW215684   0.892   6.499   0.900
 4929SOL     OW15685   0.984   5.128   4.511
 4929SOL    HW115686   0.925   5.047   4.520
 4929SOL    HW215687   1.049   5.129   4.587
 4930SOL     OW15688   0.320   2.800   0.661
 4930SOL    HW115689   0.402   2.848   0.691
 4930SOL    HW215690   0.241   2.862   0.669
 4931SOL     OW15691   6.787   6.784   0.973
 4931SOL    HW115692   6.711   6.759   1.033
 4931SOL    HW215693   6.833   6.865   1.008
 4932SOL     OW15694   3.890   1.838   1.152
 4932SOL    HW115695   3.844   1.916   1.111
 4932SOL    HW215696   3.896   1.852   1.251
 4933SOL     OW15697   2.841   0.426   5.083
 4933SOL    HW115698   2.927   0.472   5.063
 4933SOL    HW215699   2.853   0.327   5.073
 4934SOL     OW15700   1.769   5.769   5.450
 4934SOL    HW115701   1.760   5.793   5.353
 4934SOL    HW215702   1.815   5.681   5.458
 4935SOL     OW15703   1.582   1.208   0.547
 4935SOL    HW115704   1.604   1.115   0.518
 4935SOL    HW215705   1.484   1.224   0.536
 4936SOL     OW15706   4.582   6.059   1.121
 4936SOL    HW115707   4.578   6.137   1.183
 4936SOL    HW215708   4.668   6.060   1.071
 4937SOL     OW15709   0.979   2.638   5.073
 4937SOL    HW115710   0.924   2.581   5.011
 4937SOL    HW215711   1.065   2.663   5.028
 4938SOL     OW15712   3.423   5.082   1.616
 4938SOL    HW115713   3.521   5.104   1.614
 4938SOL    HW215714   3.411   4.988   1.647
 4939SOL     OW15715   1.143   1.595   1.605
 4939SOL    HW115716   1.092   1.555   1.681
 4939SOL    HW215717   1.208   1.528   1.570
 4940SOL     OW15718   0.357   1.836   5.603
 4940SOL    HW115719   0.389   1.930   5.593
 4940SOL    HW215720   0.257   1.834   5.601
 4941SOL     OW15721   4.174   2.709   5.321
 4941SOL    HW115722   4.197   2.677   5.413
 4941SOL    HW215723   4.181   2.633   5.256
 4942SOL     OW15724   0.563   1.515   3.084
 4942SOL    HW115725   0.532   1.589   3.143
 4942SOL    HW215726   0.614   1.448   3.139
 4943SOL     OW15727   5.362   2.569   6.979
 4943SOL    HW115728   5.430   2.577   0.034
 4943SOL    HW215729   5.331   2.474   6.972
 4944SOL     OW15730   0.947   5.259   6.884
 4944SOL    HW115731   1.010   5.252   6.962
 4944SOL    HW215732   0.867   5.313   6.911
 4945SOL     OW15733   2.385   0.259   5.394
 4945SOL    HW115734   2.356   0.345   5.438
 4945SOL    HW215735   2.477   0.271   5.356
 4946SOL     OW15736   2.825   5.202   6.939
 4946SOL    HW115737   2.767   5.281   6.922
 4946SOL    HW215738   2.869   5.210   0.010
 4947SOL     OW15739   1.230   0.413   1.063
 4947SOL    HW115740   1.154   0.397   1.125
 4947SOL    HW215741   1.204   0.384   0.970
 4948SOL     OW15742   1.726   2.133   1.983
 4948SOL    HW115743   1.823   2.157   1.989
 4948SOL    HW215744   1.716   2.034   1.984
 4949SOL     OW15745   7.003   4.162   6.407
 4949SOL    HW115746   7.013   4.220   6.487
 4949SOL    HW215747   7.000   4.066   6.436
 4950SOL     OW15748   3.671   4.714   5.608
 4950SOL    HW115749   3.642   4.741   5.516
 4950SOL    HW215750   3.649   4.617   5.622
 4951SOL     OW15751   4.988   5.912   3.575
 4951SOL    HW115752   5.027   5.935   3.485
 4951SOL    HW215753   4.888   5.908   3.568
 4952SOL     OW15754   0.512   0.586   6.488
 4952SOL    HW115755   0.487   0.505   6.436
 4952SOL    HW215756   0.459   0.590   6.572
 4953SOL     OW15757   1.499   2.391   4.907
 4953SOL    HW115758   1.442   2.353   4.980
 4953SOL    HW215759   1.563   2.458   4.945
 4954SOL     OW15760   2.962   3.858   4.729
 4954SOL    HW115761   2.906   3.931   4.769
 4954SOL    HW215762   3.017   3.815   4.801
 4955SOL     OW15763   4.164   6.004   5.865
 4955SOL    HW115764   4.143   5.907   5.856
 4955SOL    HW215765   4.085   6.058   5.838
 4956SOL     OW15766   3.304   0.006   4.880
 4956SOL    HW115767   3.228   6.969   4.848
 4956SOL    HW215768   3.292   0.100   4.849
 4957SOL     OW15769   5.965   4.518   0.049
 4957SOL    HW115770   5.917   4.562   0.126
 4957SOL    HW215771   5.902   4.456   0.002
 4958SOL     OW15772   3.847   5.766   0.570
 4958SOL    HW115773   3.791   5.703   0.516
 4958SOL    HW215774   3.928   5.718   0.604
 4959SOL     OW15775   0.205   2.192   2.949
 4959SOL    HW115776   0.241   2.205   2.857
 4959SOL    HW215777   0.106   2.208   2.949
 4960SOL     OW15778   4.951   4.619   3.850
 4960SOL    HW115779   4.935   4.556   3.926
 4960SOL    HW215780   4.900   4.704   3.865
 4961SOL     OW15781   3.127   2.021   1.412
 4961SOL    HW115782   3.204   1.979   1.461
 4961SOL    HW215783   3.046   2.022   1.471
 4962SOL     OW15784   1.095   3.178   0.430
 4962SOL    HW115785   1.102   3.131   0.518
 4962SOL    HW215786   0.999   3.182   0.401
 4963SOL     OW15787   0.984   3.511   5.908
 4963SOL    HW115788   0.891   3.544   5.923
 4963SOL    HW215789   1.034   3.576   5.850
 4964SOL     OW15790   2.618   6.298   4.418
 4964SOL    HW115791   2.532   6.272   4.461
 4964SOL    HW215792   2.694   6.258   4.469
 4965SOL     OW15793   1.548   6.389   2.816
 4965SOL    HW115794   1.552   6.489   2.815
 4965SOL    HW215795   1.627   6.353   2.866
 4966SOL     OW15796   3.217   6.184   4.199
 4966SOL    HW115797   3.134   6.163   4.148
 4966SOL    HW215798   3.199   6.176   4.297
 4967SOL     OW15799   4.368   4.710   4.822
 4967SOL    HW115800   4.373   4.620   4.865
 4967SOL    HW215801   4.311   4.771   4.878
 4968SOL     OW15802   0.046   2.455   3.161
 4968SOL    HW115803   0.064   2.547   3.127
 4968SOL    HW215804   0.120   2.428   3.223
 4969SOL     OW15805   6.903   5.692   3.953
 4969SOL    HW115806   6.832   5.751   3.916
 4969SOL    HW215807   6.963   5.745   4.014
 4970SOL     OW15808   1.769   1.720   1.093
 4970SOL    HW115809   1.782   1.621   1.092
 4970SOL    HW215810   1.687   1.743   1.040
 4971SOL     OW15811   0.396   5.953   2.329
 4971SOL    HW115812   0.405   5.857   2.354
 4971SOL    HW215813   0.354   6.003   2.404
 4972SOL     OW15814   0.573   4.461   0.916
 4972SOL    HW115815   0.624   4.537   0.955
 4972SOL    HW215816   0.554   4.393   0.987
 4973SOL     OW15817   6.078   1.403   0.726
 4973SOL    HW115818   6.156   1.414   0.788
 4973SOL    HW215819   6.074   1.481   0.663
 4974SOL     OW15820   3.125   6.382   4.606
 4974SOL    HW115821   3.067   6.335   4.673
 4974SOL    HW215822   3.139   6.477   4.634
 4975SOL     OW15823   5.082   4.922   0.831
 4975SOL    HW115824   5.050   4.846   0.887
 4975SOL    HW215825   5.160   4.966   0.877
 4976SOL     OW15826   1.582   6.703   3.570
 4976SOL    HW115827   1.489   6.735   3.554
 4976SOL    HW215828   1.620   6.668   3.484
 4977SOL     OW15829   1.373   4.060   5.759
 4977SOL    HW115830   1.407   4.085   5.668
 4977SOL    HW215831   1.303   4.126   5.787
 4978SOL     OW15832   5.949   4.626   4.634
 4978SOL    HW115833   6.036   4.577   4.626
 4978SOL    HW215834   5.920   4.628   4.729
 4979SOL     OW15835   2.543   6.921   6.204
 4979SOL    HW115836   2.614   6.850   6.202
 4979SOL    HW215837   2.574   6.998   6.259
 4980SOL     OW15838   5.303   3.210   4.151
 4980SOL    HW115839   5.204   3.216   4.136
 4980SOL    HW215840   5.325   3.242   4.243
 4981SOL     OW15841   3.066   4.891   2.624
 4981SOL    HW115842   3.000   4.857   2.691
 4981SOL    HW215843   3.158   4.890   2.664
 4982SOL     OW15844   3.684   2.547   5.647
 4982SOL    HW115845   3.630   2.486   5.705
 4982SOL    HW215846   3.666   2.527   5.551
 4983SOL     OW15847   6.031   4.915   3.056
 4983SOL    HW115848   6.091   4.873   2.987
 4983SOL    HW215849   6.004   5.006   3.026
 4984SOL     OW15850   5.078   3.681   3.662
 4984SOL    HW115851   5.000   3.731   3.625
 4984SOL    HW215852   5.055   3.647   3.754
 4985SOL     OW15853   5.620   0.550   2.092
 4985SOL    HW115854   5.575   0.584   2.010
 4985SOL    HW215855   5.640   0.626   2.154
 4986SOL     OW15856   0.761   4.695   1.464
 4986SOL    HW115857   0.749   4.654   1.554
 4986SOL    HW215858   0.675   4.688   1.413
 4987SOL     OW15859   0.788   1.274   2.430
 4987SOL    HW115860   0.726   1.322   2.491
 4987SOL    HW215861   0.816   1.188   2.472
 4988SOL     OW15862   6.191   5.836   4.018
 4988SOL    HW115863   6.157   5.745   3.993
 4988SOL    HW215864   6.158   5.903   3.952
 4989SOL     OW15865   5.327   0.278   4.018
 4989SOL    HW115866   5.281   0.210   3.961
 4989SOL    HW215867   5.262   0.351   4.041
 4990SOL     OW15868   4.553   2.166   5.518
 4990SOL    HW115869   4.611   2.247   5.516
 4990SOL    HW215870   4.535   2.141   5.613
 4991SOL     OW15871   1.081   4.962   5.971
 4991SOL    HW115872   1.072   5.061   5.964
 4991SOL    HW215873   1.032   4.931   6.053
 4992SOL     OW15874   1.103   3.534   4.231
 4992SOL    HW115875   1.076   3.473   4.305
 4992SOL    HW215876   1.090   3.629   4.260
 4993SOL     OW15877   2.654   6.104   3.808
 4993SOL    HW115878   2.609   6.107   3.719
 4993SOL    HW215879   2.718   6.181   3.816
 4994SOL     OW15880   3.811   5.193   5.602
 4994SOL    HW115881   3.883   5.242   5.553
 4994SOL    HW215882   3.813   5.097   5.578
 4995SOL     OW15883   0.002   0.716   5.789
 4995SOL    HW115884   0.090   0.689   5.829
 4995SOL    HW215885   0.018   0.772   5.708
 4996SOL     OW15886   0.372   1.307   3.996
 4996SOL    HW115887   0.282   1.296   3.955
 4996SOL    HW215888   0.378   1.251   4.079
 4997SOL     OW15889   3.870   1.601   0.845
 4997SOL    HW115890   3.829   1.528   0.900
 4997SOL    HW215891   3.958   1.627   0.884
 4998SOL     OW15892   0.827   3.621   3.367
 4998SOL    HW115893   0.788   3.531   3.387
 4998SOL    HW215894   0.892   3.646   3.439
 4999SOL     OW15895   0.808   2.646   4.112
 4999SOL    HW115896   0.733   2.594   4.071
 4999SOL    HW215897   0.884   2.651   4.047
 5000SOL     OW15898   2.963   5.951   2.591
 5000SOL    HW115899   2.958   5.869   2.647
 5000SOL    HW215900   2.940   6.031   2.647
 5001SOL     OW15901   0.696   6.474   3.444
 5001SOL    HW115902   0.793   6.491   3.462
 5001SOL    HW215903   0.643   6.556   3.463
 5002SOL     OW15904   1.683   4.420   4.068
 5002SOL    HW115905   1.684   4.320   4.067
 5002SOL    HW215906   1.618   4.453   4.000
 5003SOL     OW15907   4.257   0.679   3.438
 5003SOL    HW115908   4.180   0.617   3.421
 5003SOL    HW215909   4.223   0.772   3.446
 5004SOL     OW15910   3.284   5.050   0.203
 5004SOL    HW115911   3.249   5.053   0.297
 5004SOL    HW215912   3.271   5.139   0.160
 5005SOL     OW15913   2.797   2.886   6.816
 5005SOL    HW115914   2.717   2.891   6.756
 5005SOL    HW215915   2.809   2.791   6.847
 5006SOL     OW15916   5.006   1.823   1.773
 5006SOL    HW115917   4.924   1.877   1.790
 5006SOL    HW215918   5.086   1.873   1.805
 5007SOL     OW15919   5.909   6.246   2.057
 5007SOL    HW115920   5.936   6.202   1.971
 5007SOL    HW215921   5.867   6.177   2.117
 5008SOL     OW15922   5.388   0.551   2.523
 5008SOL    HW115923   5.326   0.555   2.445
 5008SOL    HW215924   5.335   0.533   2.606
 5009SOL     OW15925   6.517   2.269   0.185
 5009SOL    HW115926   6.507   2.360   0.224
 5009SOL    HW215927   6.593   2.222   0.230
 5010SOL     OW15928   3.816   3.855   1.100
 5010SOL    HW115929   3.770   3.811   1.177
 5010SOL    HW215930   3.894   3.908   1.135
 5011SOL     OW15931   2.007   3.110   6.645
 5011SOL    HW115932   1.917   3.089   6.606
 5011SOL    HW215933   2.020   3.209   6.646
 5012SOL     OW15934   6.048   1.635   6.172
 5012SOL    HW115935   6.039   1.551   6.225
 5012SOL    HW215936   6.041   1.714   6.232
 5013SOL     OW15937   5.867   6.885   5.859
 5013SOL    HW115938   5.848   6.977   5.892
 5013SOL    HW215939   5.918   6.834   5.928
 5014SOL     OW15940   6.229   3.223   1.934
 5014SOL    HW115941   6.171   3.276   1.873
 5014SOL    HW215942   6.175   3.186   2.009
 5015SOL     OW15943   5.751   6.696   3.931
 5015SOL    HW115944   5.770   6.792   3.952
 5015SOL    HW215945   5.784   6.639   4.006
 5016SOL     OW15946   2.015   3.392   5.454
 5016SOL    HW115947   2.058   3.312   5.495
 5016SOL    HW215948   2.028   3.390   5.355
 5017SOL     OW15949   0.508   3.539   2.178
 5017SOL    HW115950   0.463   3.485   2.249
 5017SOL    HW215951   0.481   3.635   2.187
 5018SOL     OW15952   1.146   0.503   0.316
 5018SOL    HW115953   1.218   0.446   0.276
 5018SOL    HW215954   1.071   0.514   0.251
 5019SOL     OW15955   1.162   5.057   4.757
 5019SOL    HW115956   1.222   5.035   4.835
 5019SOL    HW215957   1.217   5.095   4.683
 5020SOL     OW15958   2.613   0.316   4.862
 5020SOL    HW115959   2.632   0.268   4.948
 5020SOL    HW215960   2.538   0.270   4.814
 5021SOL     OW15961   1.843   0.978   0.645
 5021SOL    HW115962   1.817   1.074   0.645
 5021SOL    HW215963   1.899   0.959   0.726
 5022SOL     OW15964   6.900   2.973   1.616
 5022SOL    HW115965   6.867   2.935   1.703
 5022SOL    HW215966   6.919   3.071   1.628
 5023SOL     OW15967   6.752   4.161   2.402
 5023SOL    HW115968   6.667   4.213   2.414
 5023SOL    HW215969   6.825   4.222   2.371
 5024SOL     OW15970   4.368   3.892   1.282
 5024SOL    HW115971   4.279   3.858   1.315
 5024SOL    HW215972   4.425   3.915   1.361
 5025SOL     OW15973   4.542   1.412   4.442
 5025SOL    HW115974   4.560   1.325   4.396
 5025SOL    HW215975   4.471   1.462   4.392
 5026SOL     OW15976   4.463   6.748   4.396
 5026SOL    HW115977   4.442   6.846   4.400
 5026SOL    HW215978   4.545   6.729   4.450
 5027SOL     OW15979   5.012   6.436   0.621
 5027SOL    HW115980   5.099   6.389   0.636
 5027SOL    HW215981   5.024   6.509   0.555
 5028SOL     OW15982   6.232   1.617   2.618
 5028SOL    HW115983   6.288   1.548   2.664
 5028SOL    HW215984   6.236   1.602   2.519
 5029SOL     OW15985   6.037   1.931   2.816
 5029SOL    HW115986   5.974   1.980   2.878
 5029SOL    HW215987   6.007   1.836   2.807
 5030SOL     OW15988   0.108   4.150   6.852
 5030SOL    HW115989   0.133   4.201   6.934
 5030SOL    HW215990   0.184   4.090   6.826
 5031SOL     OW15991   6.431   0.177   6.242
 5031SOL    HW115992   6.482   0.170   6.157
 5031SOL    HW215993   6.340   0.137   6.229
 5032SOL     OW15994   2.836   3.389   5.387
 5032SOL    HW115995   2.907   3.401   5.457
 5032SOL    HW215996   2.748   3.419   5.423
 5033SOL     OW15997   1.997   0.373   6.649
 5033SOL    HW115998   1.915   0.356   6.594
 5033SOL    HW215999   2.004   0.470   6.670
 5034SOL     OW16000   4.956   6.626   4.485
 5034SOL    HW116001   4.903   6.652   4.566
 5034SOL    HW216002   4.898   6.573   4.423
 5035SOL     OW16003   2.043   3.450   3.816
 5035SOL    HW116004   1.982   3.398   3.756
 5035SOL    HW216005   2.073   3.533   3.769
 5036SOL     OW16006   0.304   2.165   5.108
 5036SOL    HW116007   0.356   2.124   5.183
 5036SOL    HW216008   0.267   2.253   5.138
 5037SOL     OW16009   4.525   3.971   1.493
 5037SOL    HW116010   4.453   4.018   1.545
 5037SOL    HW216011   4.563   3.897   1.549
 5038SOL     OW16012   4.094   3.653   3.906
 5038SOL    HW116013   4.100   3.591   3.827
 5038SOL    HW216014   4.138   3.609   3.985
 5039SOL     OW16015   1.096   3.568   6.273
 5039SOL    HW116016   1.029   3.635   6.241
 5039SOL    HW216017   1.053   3.506   6.339
 5040SOL     OW16018   0.176   0.790   5.560
 5040SOL    HW116019   0.119   0.855   5.509
 5040SOL    HW216020   0.186   0.706   5.507
 5041SOL     OW16021   0.018   2.981   1.933
 5041SOL    HW116022   0.032   2.962   2.030
 5041SOL    HW216023   0.039   3.076   1.914
 5042SOL     OW16024   0.773   2.430   6.108
 5042SOL    HW116025   0.741   2.342   6.144
 5042SOL    HW216026   0.710   2.502   6.135
 5043SOL     OW16027   4.238   6.458   1.516
 5043SOL    HW116028   4.295   6.540   1.514
 5043SOL    HW216029   4.265   6.396   1.443
 5044SOL     OW16030   6.799   4.631   0.730
 5044SOL    HW116031   6.846   4.651   0.815
 5044SOL    HW216032   6.722   4.569   0.748
 5045SOL     OW16033   6.085   3.235   6.452
 5045SOL    HW116034   6.171   3.241   6.402
 5045SOL    HW216035   6.084   3.302   6.525
 5046SOL     OW16036   3.582   3.457   2.910
 5046SOL    HW116037   3.488   3.484   2.933
 5046SOL    HW216038   3.580   3.396   2.831
 5047SOL     OW16039   1.069   3.972   3.637
 5047SOL    HW116040   1.030   3.880   3.632
 5047SOL    HW216041   1.110   3.986   3.727
 5048SOL     OW16042   1.855   0.975   5.998
 5048SOL    HW116043   1.954   0.960   5.995
 5048SOL    HW216044   1.810   0.906   5.941
 5049SOL     OW16045   4.934   1.711   6.629
 5049SOL    HW116046   4.897   1.661   6.551
 5049SOL    HW216047   4.889   1.680   6.713
 5050SOL     OW16048   1.449   0.257   0.865
 5050SOL    HW116049   1.384   0.328   0.840
 5050SOL    HW216050   1.512   0.241   0.789
 5051SOL     OW16051   4.549   5.275   1.150
 5051SOL    HW116052   4.494   5.306   1.228
 5051SOL    HW216053   4.636   5.239   1.182
 5052SOL     OW16054   2.682   1.254   5.056
 5052SOL    HW116055   2.689   1.308   4.972
 5052SOL    HW216056   2.600   1.282   5.107
 5053SOL     OW16057   0.117   0.268   1.806
 5053SOL    HW116058   0.102   0.216   1.723
 5053SOL    HW216059   0.113   0.366   1.786
 5054SOL     OW16060   3.808   4.897   4.148
 5054SOL    HW116061   3.716   4.874   4.118
 5054SOL    HW216062   3.811   4.902   4.248
 5055SOL     OW16063   0.172   3.354   6.661
 5055SOL    HW116064   0.197   3.329   6.754
 5055SOL    HW216065   0.131   3.276   6.615
 5056SOL     OW16066   5.443   4.490   4.443
 5056SOL    HW116067   5.533   4.489   4.486
 5056SOL    HW216068   5.450   4.455   4.350
 5057SOL     OW16069   0.907   6.023   2.140
 5057SOL    HW116070   0.849   5.946   2.167
 5057SOL    HW216071   0.874   6.061   2.054
 5058SOL     OW16072   2.941   5.538   5.357
 5058SOL    HW116073   2.943   5.453   5.304
 5058SOL    HW216074   3.027   5.547   5.406
 5059SOL     OW16075   0.210   0.228   2.257
 5059SOL    HW116076   0.297   0.184   2.237
 5059SOL    HW216077   0.142   0.200   2.189
 5060SOL     OW16078   6.464   1.949   5.543
 5060SOL    HW116079   6.522   2.017   5.588
 5060SOL    HW216080   6.376   1.990   5.520
 5061SOL     OW16081   5.467   4.314   0.216
 5061SOL    HW116082   5.402   4.376   0.172
 5061SOL    HW216083   5.522   4.365   0.282
 5062SOL     OW16084   0.247   0.468   1.120
 5062SOL    HW116085   0.273   0.563   1.139
 5062SOL    HW216086   0.284   0.409   1.192
 5063SOL     OW16087   1.375   6.111   1.377
 5063SOL    HW116088   1.390   6.015   1.354
 5063SOL    HW216089   1.313   6.118   1.455
 5064SOL     OW16090   5.020   3.317   0.146
 5064SOL    HW116091   4.941   3.263   0.176
 5064SOL    HW216092   5.001   3.357   0.057
 5065SOL     OW16093   2.223   6.016   5.501
 5065SOL    HW116094   2.276   6.074   5.440
 5065SOL    HW216095   2.284   5.950   5.545
 5066SOL     OW16096   4.779   5.141   1.215
 5066SOL    HW116097   4.754   5.049   1.185
 5066SOL    HW216098   4.756   5.152   1.312
 5067SOL     OW16099   4.900   1.265   6.764
 5067SOL    HW116100   4.887   1.319   6.848
 5067SOL    HW216101   4.943   1.178   6.786
 5068SOL     OW16102   2.773   5.283   1.791
 5068SOL    HW116103   2.737   5.325   1.707
 5068SOL    HW216104   2.873   5.281   1.787
 5069SOL     OW16105   0.371   4.990   3.237
 5069SOL    HW116106   0.310   4.932   3.183
 5069SOL    HW216107   0.439   4.933   3.284
 5070SOL     OW16108   4.859   3.202   4.282
 5070SOL    HW116109   4.854   3.102   4.288
 5070SOL    HW216110   4.769   3.239   4.259
 5071SOL     OW16111   4.318   0.916   6.573
 5071SOL    HW116112   4.258   0.996   6.568
 5071SOL    HW216113   4.335   0.881   6.481
 5072SOL     OW16114   1.185   4.310   1.252
 5072SOL    HW116115   1.236   4.247   1.193
 5072SOL    HW216116   1.088   4.285   1.250
 5073SOL     OW16117   4.283   1.782   3.705
 5073SOL    HW116118   4.230   1.867   3.702
 5073SOL    HW216119   4.261   1.732   3.789
 5074SOL     OW16120   3.224   4.116   5.661
 5074SOL    HW116121   3.166   4.040   5.690
 5074SOL    HW216122   3.166   4.188   5.622
 5075SOL     OW16123   0.024   6.049   4.170
 5075SOL    HW116124   0.033   6.148   4.168
 5075SOL    HW216125   0.031   6.017   4.265
 5076SOL     OW16126   3.501   0.090   1.031
 5076SOL    HW116127   3.464   0.183   1.038
 5076SOL    HW216128   3.578   0.090   0.968
 5077SOL     OW16129   0.438   2.163   2.149
 5077SOL    HW116130   0.479   2.190   2.236
 5077SOL    HW216131   0.338   2.163   2.158
 5078SOL     OW16132   1.241   0.996   3.988
 5078SOL    HW116133   1.200   0.905   3.983
 5078SOL    HW216134   1.170   1.064   4.005
 5079SOL     OW16135   4.200   4.865   4.953
 5079SOL    HW116136   4.137   4.925   4.903
 5079SOL    HW216137   4.148   4.795   5.002
 5080SOL     OW16138   6.069   6.550   6.182
 5080SOL    HW116139   6.065   6.518   6.277
 5080SOL    HW216140   6.027   6.483   6.122
 5081SOL     OW16141   3.220   3.803   3.103
 5081SOL    HW116142   3.280   3.846   3.170
 5081SOL    HW216143   3.125   3.814   3.131
 5082SOL     OW16144   6.377   6.435   5.118
 5082SOL    HW116145   6.351   6.404   5.210
 5082SOL    HW216146   6.314   6.507   5.089
 5083SOL     OW16147   1.397   5.784   1.580
 5083SOL    HW116148   1.492   5.807   1.556
 5083SOL    HW216149   1.380   5.809   1.675
 5084SOL     OW16150   2.354   6.076   2.853
 5084SOL    HW116151   2.353   6.103   2.949
 5084SOL    HW216152   2.267   6.032   2.829
 5085SOL     OW16153   6.208   3.303   5.719
 5085SOL    HW116154   6.282   3.318   5.653
 5085SOL    HW216155   6.142   3.237   5.681
 5086SOL     OW16156   6.626   5.192   3.504
 5086SOL    HW116157   6.527   5.201   3.507
 5086SOL    HW216158   6.669   5.280   3.524
 5087SOL     OW16159   0.328   5.855   5.306
 5087SOL    HW116160   0.379   5.776   5.341
 5087SOL    HW216161   0.255   5.823   5.246
 5088SOL     OW16162   5.916   0.284   6.865
 5088SOL    HW116163   5.847   0.236   6.920
 5088SOL    HW216164   5.993   0.222   6.848
 5089SOL     OW16165   5.048   2.706   3.641
 5089SOL    HW116166   4.949   2.709   3.652
 5089SOL    HW216167   5.088   2.792   3.672
 5090SOL     OW16168   1.369   4.455   0.926
 5090SOL    HW116169   1.376   4.453   0.826
 5090SOL    HW216170   1.276   4.479   0.952
 5091SOL     OW16171   1.446   6.026   2.621
 5091SOL    HW116172   1.431   6.112   2.670
 5091SOL    HW216173   1.420   5.949   2.679
 5092SOL     OW16174   3.632   2.656   1.631
 5092SOL    HW116175   3.556   2.676   1.570
 5092SOL    HW216176   3.652   2.737   1.688
 5093SOL     OW16177   0.816   2.089   1.040
 5093SOL    HW116178   0.791   2.037   0.958
 5093SOL    HW216179   0.744   2.156   1.061
 5094SOL     OW16180   6.684   0.616   6.634
 5094SOL    HW116181   6.674   0.528   6.681
 5094SOL    HW216182   6.734   0.602   6.549
 5095SOL     OW16183   3.213   0.195   5.157
 5095SOL    HW116184   3.275   0.272   5.167
 5095SOL    HW216185   3.123   0.228   5.128
 5096SOL     OW16186   4.419   5.120   2.321
 5096SOL    HW116187   4.468   5.078   2.245
 5096SOL    HW216188   4.321   5.104   2.312
 5097SOL     OW16189   0.643   0.775   6.802
 5097SOL    HW116190   0.678   0.728   6.883
 5097SOL    HW216191   0.716   0.780   6.733
 5098SOL     OW16192   6.931   2.763   2.375
 5098SOL    HW116193   6.903   2.672   2.347
 5098SOL    HW216194   7.003   2.756   2.444
 5099SOL     OW16195   0.843   6.643   4.564
 5099SOL    HW116196   0.935   6.608   4.583
 5099SOL    HW216197   0.792   6.576   4.511
 5100SOL     OW16198   5.218   6.181   6.512
 5100SOL    HW116199   5.272   6.106   6.473
 5100SOL    HW216200   5.149   6.143   6.573
 5101SOL     OW16201   4.264   6.075   0.309
 5101SOL    HW116202   4.310   6.017   0.241
 5101SOL    HW216203   4.184   6.027   0.344
 5102SOL     OW16204   3.577   6.055   4.951
 5102SOL    HW116205   3.567   6.056   5.051
 5102SOL    HW216206   3.520   5.983   4.913
 5103SOL     OW16207   1.284   0.524   4.425
 5103SOL    HW116208   1.342   0.518   4.344
 5103SOL    HW216209   1.233   0.610   4.423
 5104SOL     OW16210   1.376   6.532   1.182
 5104SOL    HW116211   1.395   6.629   1.198
 5104SOL    HW216212   1.329   6.494   1.262
 5105SOL     OW16213   2.300   3.155   6.311
 5105SOL    HW116214   2.256   3.141   6.223
 5105SOL    HW216215   2.359   3.236   6.307
 5106SOL     OW16216   3.392   0.555   2.251
 5106SOL    HW116217   3.335   0.543   2.170
 5106SOL    HW216218   3.360   0.634   2.303
 5107SOL     OW16219   1.018   0.009   5.564
 5107SOL    HW116220   1.004   6.947   5.622
 5107SOL    HW216221   0.985   0.091   5.611
 5108SOL     OW16222   2.986   3.855   3.870
 5108SOL    HW116223   2.985   3.871   3.968
 5108SOL    HW216224   2.893   3.862   3.833
 5109SOL     OW16225   0.256   1.277   0.939
 5109SOL    HW116226   0.169   1.326   0.931
 5109SOL    HW216227   0.240   1.178   0.929
 5110SOL     OW16228   1.836   6.075   5.690
 5110SOL    HW116229   1.878   6.057   5.601
 5110SOL    HW216230   1.875   6.158   5.729
 5111SOL     OW16231   1.619   1.040   0.001
 5111SOL    HW116232   1.687   0.967   0.008
 5111SOL    HW216233   1.665   1.128   7.007
 5112SOL     OW16234   0.526   6.965   3.506
 5112SOL    HW116235   0.431   6.991   3.489
 5112SOL    HW216236   0.586   7.015   3.445
 5113SOL     OW16237   0.819   0.056   6.890
 5113SOL    HW116238   0.875   0.109   6.826
 5113SOL    HW216239   0.875   0.030   6.969
 5114SOL     OW16240   3.864   4.848   6.918
 5114SOL    HW116241   3.769   4.821   6.905
 5114SOL    HW216242   3.868   4.941   6.956
 5115SOL     OW16243   2.027   3.973   4.982
 5115SOL    HW116244   1.984   3.886   5.004
 5115SOL    HW216245   2.126   3.961   4.974
 5116SOL     OW16246   7.008   3.390   1.442
 5116SOL    HW116247   6.987   3.375   1.539
 5116SOL    HW216248   0.011   3.303   1.398
 5117SOL     OW16249   2.520   4.467   4.007
 5117SOL    HW116250   2.490   4.399   3.940
 5117SOL    HW216251   2.489   4.439   4.098
 5118SOL     OW16252   4.512   6.916   1.561
 5118SOL    HW116253   4.491   6.974   1.483
 5118SOL    HW216254   4.569   6.967   1.627
 5119SOL     OW16255   6.477   0.172   2.727
 5119SOL    HW116256   6.486   0.171   2.827
 5119SOL    HW216257   6.535   0.101   2.688
 5120SOL     OW16258   4.134   1.097   2.779
 5120SOL    HW116259   4.092   1.007   2.784
 5120SOL    HW216260   4.163   1.115   2.685
 5121SOL     OW16261   1.227   3.371   4.681
 5121SOL    HW116262   1.168   3.359   4.761
 5121SOL    HW216263   1.316   3.405   4.711
 5122SOL     OW16264   2.192   5.766   3.415
 5122SOL    HW116265   2.188   5.780   3.514
 5122SOL    HW216266   2.111   5.807   3.373
 5123SOL     OW16267   6.052   4.325   1.861
 5123SOL    HW116268   6.127   4.314   1.796
 5123SOL    HW216269   5.994   4.244   1.860
 5124SOL     OW16270   2.981   5.851   0.497
 5124SOL    HW116271   2.988   5.826   0.400
 5124SOL    HW216272   2.926   5.782   0.545
 5125SOL     OW16273   6.451   2.506   5.846
 5125SOL    HW116274   6.407   2.516   5.757
 5125SOL    HW216275   6.549   2.496   5.835
 5126SOL     OW16276   4.624   2.697   6.449
 5126SOL    HW116277   4.708   2.679   6.398
 5126SOL    HW216278   4.644   2.697   6.547
 5127SOL     OW16279   5.108   3.195   6.684
 5127SOL    HW116280   5.173   3.265   6.653
 5127SOL    HW216281   5.109   3.192   6.784
 5128SOL     OW16282   0.506   0.027   0.242
 5128SOL    HW116283   0.605   0.023   0.224
 5128SOL    HW216284   0.469   6.952   0.242
 5129SOL     OW16285   4.373   2.353   2.241
 5129SOL    HW116286   4.423   2.278   2.284
 5129SOL    HW216287   4.370   2.431   2.303
 5130SOL     OW16288   0.772   6.495   5.305
 5130SOL    HW116289   0.811   6.440   5.379
 5130SOL    HW216290   0.673   6.503   5.318
 5131SOL     OW16291   3.664   4.920   3.754
 5131SOL    HW116292   3.651   5.019   3.752
 5131SOL    HW216293   3.761   4.899   3.741
 5132SOL     OW16294   3.600   1.486   6.699
 5132SOL    HW116295   3.641   1.487   6.608
 5132SOL    HW216296   3.580   1.391   6.725
 5133SOL     OW16297   4.885   4.827   6.880
 5133SOL    HW116298   4.803   4.802   6.932
 5133SOL    HW216299   4.859   4.843   6.785
 5134SOL     OW16300   5.773   6.040   0.485
 5134SOL    HW116301   5.812   6.038   0.394
 5134SOL    HW216302   5.837   6.083   0.549
 5135SOL     OW16303   0.186   2.736   2.505
 5135SOL    HW116304   0.247   2.680   2.449
 5135SOL    HW216305   0.221   2.739   2.599
 5136SOL     OW16306   1.202   1.385   5.929
 5136SOL    HW116307   1.292   1.408   5.968
 5136SOL    HW216308   1.151   1.469   5.911
 5137SOL     OW16309   5.486   0.433   3.662
 5137SOL    HW116310   5.532   0.482   3.587
 5137SOL    HW216311   5.464   0.340   3.632
 5138SOL     OW16312   3.024   3.156   2.815
 5138SOL    HW116313   3.078   3.101   2.878
 5138SOL    HW216314   3.039   3.124   2.721
 5139SOL     OW16315   2.863   0.598   5.913
 5139SOL    HW116316   2.776   0.560   5.879
 5139SOL    HW216317   2.889   0.677   5.857
 5140SOL     OW16318   3.376   3.077   6.380
 5140SOL    HW116319   3.465   3.031   6.380
 5140SOL    HW216320   3.323   3.046   6.459
 5141SOL     OW16321   0.048   2.894   1.381
 5141SOL    HW116322   0.035   2.796   1.362
 5141SOL    HW216323   7.017   2.918   1.464
 5142SOL     OW16324   0.449   6.983   2.281
 5142SOL    HW116325   0.440   0.023   2.200
 5142SOL    HW216326   0.516   0.004   2.343
 5143SOL     OW16327   6.948   6.189   2.954
 5143SOL    HW116328   6.885   6.112   2.958
 5143SOL    HW216329   0.017   6.163   2.996
 5144SOL     OW16330   2.361   2.798   5.262
 5144SOL    HW116331   2.278   2.791   5.207
 5144SOL    HW216332   2.414   2.878   5.233
 5145SOL     OW16333   2.546   5.675   5.958
 5145SOL    HW116334   2.496   5.607   6.010
 5145SOL    HW216335   2.484   5.721   5.894
 5146SOL     OW16336   5.851   6.259   6.864
 5146SOL    HW116337   5.775   6.317   6.835
 5146SOL    HW216338   5.815   6.177   6.908
 5147SOL     OW16339   4.798   2.235   3.233
 5147SOL    HW116340   4.842   2.286   3.307
 5147SOL    HW216341   4.699   2.239   3.244
 5148SOL     OW16342   0.475   0.586   6.760
 5148SOL    HW116343   0.553   0.641   6.792
 5148SOL    HW216344   0.390   0.626   6.794
 5149SOL     OW16345   3.947   5.670   4.393
 5149SOL    HW116346   3.942   5.715   4.303
 5149SOL    HW216347   3.919   5.574   4.384
 5150SOL     OW16348   6.303   6.900   3.293
 5150SOL    HW116349   6.397   6.913   3.324
 5150SOL    HW216350   6.289   6.805   3.266
 5151SOL     OW16351   6.017   5.862   2.357
 5151SOL    HW116352   6.062   5.898   2.438
 5151SOL    HW216353   5.932   5.816   2.383
 5152SOL     OW16354   2.090   1.725   0.138
 5152SOL    HW116355   2.155   1.651   0.156
 5152SOL    HW216356   2.074   1.731   0.039
 5153SOL     OW16357   1.061   1.916   0.562
 5153SOL    HW116358   0.991   1.940   0.495
 5153SOL    HW216359   1.151   1.943   0.528
 5154SOL     OW16360   0.417   2.868   1.002
 5154SOL    HW116361   0.323   2.897   0.983
 5154SOL    HW216362   0.421   2.827   1.094
 5155SOL     OW16363   1.702   1.381   0.144
 5155SOL    HW116364   1.791   1.352   0.177
 5155SOL    HW216365   1.646   1.411   0.221
 5156SOL     OW16366   6.090   6.256   5.557
 5156SOL    HW116367   6.163   6.256   5.489
 5156SOL    HW216368   6.038   6.341   5.550
 5157SOL     OW16369   3.265   0.129   1.504
 5157SOL    HW116370   3.276   0.170   1.414
 5157SOL    HW216371   3.286   0.197   1.575
 5158SOL     OW16372   1.139   2.003   2.159
 5158SOL    HW116373   1.076   1.987   2.083
 5158SOL    HW216374   1.152   2.101   2.171
 5159SOL     OW16375   5.901   3.402   5.648
 5159SOL    HW116376   5.945   3.313   5.634
 5159SOL    HW216377   5.937   3.468   5.583
 5160SOL     OW16378   6.342   6.541   2.821
 5160SOL    HW116379   6.260   6.591   2.793
 5160SOL    HW216380   6.381   6.492   2.743
 5161SOL     OW16381   1.304   2.993   6.976
 5161SOL    HW116382   1.286   2.915   0.017
 5161SOL    HW216383   1.312   3.076   0.013
 5162SOL     OW16384   0.036   0.182   4.833
 5162SOL    HW116385   0.014   0.275   4.803
 5162SOL    HW216386   0.132   0.178   4.861
 5163SOL     OW16387   3.712   0.204   2.082
 5163SOL    HW116388   3.760   0.288   2.058
 5163SOL    HW216389   3.635   0.190   2.020
 5164SOL     OW16390   2.969   3.866   0.366
 5164SOL    HW116391   3.031   3.943   0.355
 5164SOL    HW216392   2.982   3.826   0.457
 5165SOL     OW16393   1.496   4.100   5.516
 5165SOL    HW116394   1.596   4.110   5.514
 5165SOL    HW216395   1.469   4.022   5.459
 5166SOL     OW16396   0.858   4.315   0.636
 5166SOL    HW116397   0.937   4.302   0.696
 5166SOL    HW216398   0.840   4.230   0.586
 5167SOL     OW16399   5.343   3.201   5.426
 5167SOL    HW116400   5.247   3.208   5.401
 5167SOL    HW216401   5.351   3.167   5.520
 5168SOL     OW16402   4.163   2.293   2.904
 5168SOL    HW116403   4.201   2.381   2.873
 5168SOL    HW216404   4.222   2.254   2.974
 5169SOL     OW16405   5.032   5.798   4.346
 5169SOL    HW116406   5.006   5.894   4.354
 5169SOL    HW216407   4.951   5.743   4.327
 5170SOL     OW16408   1.917   3.911   6.222
 5170SOL    HW116409   1.828   3.934   6.184
 5170SOL    HW216410   1.932   3.965   6.306
 5171SOL     OW16411   1.914   6.433   6.035
 5171SOL    HW116412   1.910   6.462   6.131
 5171SOL    HW216413   2.007   6.403   6.013
 5172SOL     OW16414   5.871   5.772   5.225
 5172SOL    HW116415   5.884   5.674   5.210
 5172SOL    HW216416   5.850   5.788   5.321
 5173SOL     OW16417   4.556   5.522   5.439
 5173SOL    HW116418   4.525   5.565   5.354
 5173SOL    HW216419   4.638   5.469   5.422
 5174SOL     OW16420   2.115   6.770   3.110
 5174SOL    HW116421   2.134   6.713   3.030
 5174SOL    HW216422   2.100   6.712   3.190
 5175SOL     OW16423   2.742   3.139   6.879
 5175SOL    HW116424   2.664   3.178   6.831
 5175SOL    HW216425   2.759   3.046   6.846
 5176SOL     OW16426   6.621   5.991   6.617
 5176SOL    HW116427   6.553   5.934   6.662
 5176SOL    HW216428   6.577   6.072   6.578
 5177SOL     OW16429   6.140   6.855   0.478
 5177SOL    HW116430   6.198   6.774   0.479
 5177SOL    HW216431   6.189   6.932   0.520
 5178SOL     OW16432   0.916   4.297   1.325
 5178SOL    HW116433   0.870   4.212   1.299
 5178SOL    HW216434   0.909   4.310   1.424
 5179SOL     OW16435   4.757   6.005   3.376
 5179SOL    HW116436   4.703   6.004   3.292
 5179SOL    HW216437   4.699   6.032   3.453
 5180SOL     OW16438   1.637   4.460   2.529
 5180SOL    HW116439   1.729   4.426   2.546
 5180SOL    HW216440   1.572   4.412   2.588
 5181SOL     OW16441   6.454   1.108   5.512
 5181SOL    HW116442   6.528   1.043   5.496
 5181SOL    HW216443   6.450   1.130   5.610
 5182SOL     OW16444   2.294   6.325   2.736
 5182SOL    HW116445   2.377   6.318   2.680
 5182SOL    HW216446   2.272   6.234   2.772
 5183SOL     OW16447   4.020   2.149   3.949
 5183SOL    HW116448   4.070   2.235   3.957
 5183SOL    HW216449   4.079   2.073   3.975
 5184SOL     OW16450   1.782   1.289   3.143
 5184SOL    HW116451   1.767   1.202   3.095
 5184SOL    HW216452   1.828   1.272   3.230
 5185SOL     OW16453   0.018   0.333   2.924
 5185SOL    HW116454   6.983   0.258   2.887
 5185SOL    HW216455   0.045   0.395   2.850
 5186SOL     OW16456   6.388   3.796   6.623
 5186SOL    HW116457   6.389   3.788   6.722
 5186SOL    HW216458   6.365   3.890   6.597
 5187SOL     OW16459   1.398   4.729   5.050
 5187SOL    HW116460   1.406   4.815   4.998
 5187SOL    HW216461   1.488   4.687   5.059
 5188SOL     OW16462   5.969   0.338   2.385
 5188SOL    HW116463   5.913   0.307   2.462
 5188SOL    HW216464   6.040   0.401   2.418
 5189SOL     OW16465   4.674   6.316   6.857
 5189SOL    HW116466   4.576   6.297   6.870
 5189SOL    HW216467   4.685   6.395   6.798
 5190SOL     OW16468   1.584   4.572   6.953
 5190SOL    HW116469   1.676   4.576   6.992
 5190SOL    HW216470   1.571   4.646   6.888
 5191SOL     OW16471   2.554   4.611   1.940
 5191SOL    HW116472   2.651   4.607   1.965
 5191SOL    HW216473   2.522   4.706   1.946
 5192SOL     OW16474   1.076   4.863   2.279
 5192SOL    HW116475   1.027   4.812   2.350
 5192SOL    HW216476   1.107   4.951   2.316
 5193SOL     OW16477   5.459   0.851   5.754
 5193SOL    HW116478   5.490   0.928   5.699
 5193SOL    HW216479   5.505   0.852   5.843
 5194SOL     OW16480   4.843   1.240   5.567
 5194SOL    HW116481   4.750   1.202   5.568
 5194SOL    HW216482   4.841   1.333   5.602
 5195SOL     OW16483   0.490   0.517   5.520
 5195SOL    HW116484   0.572   0.558   5.481
 5195SOL    HW216485   0.413   0.529   5.458
 5196SOL     OW16486   5.595   6.733   3.554
 5196SOL    HW116487   5.689   6.761   3.534
 5196SOL    HW216488   5.594   6.638   3.584
 5197SOL     OW16489   0.824   2.762   4.703
 5197SOL    HW116490   0.812   2.787   4.799
 5197SOL    HW216491   0.739   2.778   4.654
 5198SOL     OW16492   5.884   5.232   3.081
 5198SOL    HW116493   5.812   5.253   3.014
 5198SOL    HW216494   5.973   5.261   3.045
 5199SOL     OW16495   0.300   4.960   1.174
 5199SOL    HW116496   0.347   4.942   1.088
 5199SOL    HW216497   0.298   5.059   1.191
 5200SOL     OW16498   6.927   3.574   4.957
 5200SOL    HW116499   6.913   3.489   4.906
 5200SOL    HW216500   6.912   3.652   4.896
 5201SOL     OW16501   0.128   5.600   4.399
 5201SOL    HW116502   0.097   5.549   4.318
 5201SOL    HW216503   0.200   5.664   4.373
 5202SOL     OW16504   1.019   4.668   1.388
 5202SOL    HW116505   1.024   4.596   1.458
 5202SOL    HW216506   0.943   4.730   1.409
 5203SOL     OW16507   0.255   2.726   0.016
 5203SOL    HW116508   0.247   2.627   0.032
 5203SOL    HW216509   0.183   2.773   0.067
 5204SOL     OW16510   4.512   4.631   6.766
 5204SOL    HW116511   4.526   4.730   6.775
 5204SOL    HW216512   4.428   4.614   6.713
 5205SOL     OW16513   1.093   0.140   0.617
 5205SOL    HW116514   1.152   0.088   0.555
 5205SOL    HW216515   1.011   0.087   0.636
 5206SOL     OW16516   0.346   4.263   4.995
 5206SOL    HW116517   0.313   4.339   4.940
 5206SOL    HW216518   0.270   4.201   5.015
 5207SOL     OW16519   1.632   4.599   3.624
 5207SOL    HW116520   1.675   4.564   3.540
 5207SOL    HW216521   1.690   4.669   3.665
 5208SOL     OW16522   4.754   1.157   0.134
 5208SOL    HW116523   4.832   1.126   0.188
 5208SOL    HW216524   4.728   1.086   0.069
 5209SOL     OW16525   5.649   5.610   3.026
 5209SOL    HW116526   5.687   5.683   3.082
 5209SOL    HW216527   5.618   5.648   2.939
 5210SOL     OW16528   4.753   4.187   3.055
 5210SOL    HW116529   4.747   4.181   3.155
 5210SOL    HW216530   4.727   4.279   3.026
 5211SOL     OW16531   3.581   3.794   2.386
 5211SOL    HW116532   3.551   3.700   2.406
 5211SOL    HW216533   3.649   3.822   2.454
 5212SOL     OW16534   0.936   1.112   0.091
 5212SOL    HW116535   0.920   1.202   0.050
 5212SOL    HW216536   0.992   1.057   0.029
 5213SOL     OW16537   4.510   2.432   6.622
 5213SOL    HW116538   4.605   2.403   6.625
 5213SOL    HW216539   4.502   2.517   6.571
 5214SOL     OW16540   5.730   1.604   6.889
 5214SOL    HW116541   5.802   1.673   6.894
 5214SOL    HW216542   5.760   1.521   6.934
 5215SOL     OW16543   5.827   5.162   2.648
 5215SOL    HW116544   5.917   5.141   2.609
 5215SOL    HW216545   5.776   5.221   2.585
 5216SOL     OW16546   4.493   5.745   1.474
 5216SOL    HW116547   4.447   5.828   1.503
 5216SOL    HW216548   4.547   5.763   1.391
 5217SOL     OW16549   2.921   4.850   3.482
 5217SOL    HW116550   2.834   4.825   3.440
 5217SOL    HW216551   2.910   4.857   3.581
 5218SOL     OW16552   1.923   6.616   4.677
 5218SOL    HW116553   1.871   6.620   4.592
 5218SOL    HW216554   1.878   6.555   4.741
 5219SOL     OW16555   2.733   5.750   0.869
 5219SOL    HW116556   2.687   5.682   0.926
 5219SOL    HW216557   2.677   5.834   0.866
 5220SOL     OW16558   0.991   0.034   2.267
 5220SOL    HW116559   1.055   0.061   2.339
 5220SOL    HW216560   1.037   0.034   2.179
 5221SOL     OW16561   4.765   1.812   5.174
 5221SOL    HW116562   4.713   1.871   5.235
 5221SOL    HW216563   4.859   1.844   5.166
 5222SOL     OW16564   1.109   6.759   2.592
 5222SOL    HW116565   1.027   6.726   2.640
 5222SOL    HW216566   1.162   6.680   2.560
 5223SOL     OW16567   5.270   0.037   0.651
 5223SOL    HW116568   5.203   0.102   0.688
 5223SOL    HW216569   5.322   7.014   0.726
 5224SOL     OW16570   5.069   1.230   3.093
 5224SOL    HW116571   4.987   1.217   3.037
 5224SOL    HW216572   5.043   1.234   3.189
 5225SOL     OW16573   6.174   6.557   5.437
 5225SOL    HW116574   6.077   6.547   5.458
 5225SOL    HW216575   6.208   6.474   5.393
 5226SOL     OW16576   1.918   6.336   3.735
 5226SOL    HW116577   2.015   6.315   3.745
 5226SOL    HW216578   1.866   6.250   3.729
 5227SOL     OW16579   5.468   3.842   3.594
 5227SOL    HW116580   5.512   3.914   3.540
 5227SOL    HW216581   5.483   3.753   3.551
 5228SOL     OW16582   5.231   0.553   1.359
 5228SOL    HW116583   5.189   0.483   1.302
 5228SOL    HW216584   5.331   0.543   1.356
 5229SOL     OW16585   1.058   4.261   3.970
 5229SOL    HW116586   1.094   4.327   4.035
 5229SOL    HW216587   0.993   4.200   4.016
 5230SOL     OW16588   1.371   6.488   6.346
 5230SOL    HW116589   1.360   6.515   6.251
 5230SOL    HW216590   1.306   6.539   6.403
 5231SOL     OW16591   3.773   2.965   3.719
 5231SOL    HW116592   3.830   3.018   3.657
 5231SOL    HW216593   3.811   2.970   3.812
 5232SOL     OW16594   5.207   2.926   5.257
 5232SOL    HW116595   5.194   3.010   5.310
 5232SOL    HW216596   5.175   2.940   5.164
 5233SOL     OW16597   0.428   0.732   2.799
 5233SOL    HW116598   0.333   0.718   2.769
 5233SOL    HW216599   0.470   0.644   2.820
 5234SOL     OW16600   4.203   5.944   1.341
 5234SOL    HW116601   4.173   6.017   1.404
 5234SOL    HW216602   4.139   5.939   1.265
 5235SOL     OW16603   0.958   3.823   1.101
 5235SOL    HW116604   1.025   3.776   1.159
 5235SOL    HW216605   0.883   3.761   1.079
 5236SOL     OW16606   5.298   2.868   1.302
 5236SOL    HW116607   5.253   2.833   1.384
 5236SOL    HW216608   5.335   2.792   1.248
 5237SOL     OW16609   2.128   1.917   4.399
 5237SOL    HW116610   2.226   1.916   4.419
 5237SOL    HW216611   2.100   1.828   4.364
 5238SOL     OW16612   1.660   4.008   1.098
 5238SOL    HW116613   1.748   3.975   1.133
 5238SOL    HW216614   1.627   4.083   1.154
 5239SOL     OW16615   3.183   3.077   5.044
 5239SOL    HW116616   3.263   3.097   5.100
 5239SOL    HW216617   3.210   3.016   4.969
 5240SOL     OW16618   2.682   1.605   4.781
 5240SOL    HW116619   2.666   1.622   4.879
 5240SOL    HW216620   2.611   1.649   4.727
 5241SOL     OW16621   3.003   5.630   5.738
 5241SOL    HW116622   3.022   5.726   5.719
 5241SOL    HW216623   2.944   5.623   5.819
 5242SOL     OW16624   4.518   1.065   6.146
 5242SOL    HW116625   4.449   1.032   6.081
 5242SOL    HW216626   4.496   1.158   6.174
 5243SOL     OW16627   0.623   3.899   0.135
 5243SOL    HW116628   0.670   3.848   0.208
 5243SOL    HW216629   0.687   3.963   0.094
 5244SOL     OW16630   5.977   3.913   6.712
 5244SOL    HW116631   5.879   3.894   6.711
 5244SOL    HW216632   6.014   3.904   6.620
 5245SOL     OW16633   4.725   4.165   6.662
 5245SOL    HW116634   4.786   4.178   6.740
 5245SOL    HW216635   4.665   4.088   6.678
 5246SOL     OW16636   0.844   3.632   2.945
 5246SOL    HW116637   0.805   3.591   2.862
 5246SOL    HW216638   0.892   3.561   2.997
 5247SOL     OW16639   0.608   5.189   1.356
 5247SOL    HW116640   0.653   5.136   1.285
 5247SOL    HW216641   0.563   5.269   1.314
 5248SOL     OW16642   4.315   0.392   6.747
 5248SOL    HW116643   4.253   0.319   6.718
 5248SOL    HW216644   4.307   0.406   6.845
 5249SOL     OW16645   1.628   5.397   5.332
 5249SOL    HW116646   1.635   5.308   5.378
 5249SOL    HW216647   1.545   5.443   5.361
 5250SOL     OW16648   0.459   1.397   5.849
 5250SOL    HW116649   0.441   1.447   5.764
 5250SOL    HW216650   0.378   1.344   5.874
 5251SOL     OW16651   0.319   2.931   1.432
 5251SOL    HW116652   0.362   2.854   1.385
 5251SOL    HW216653   0.220   2.921   1.429
 5252SOL     OW16654   4.039   6.257   0.532
 5252SOL    HW116655   3.977   6.255   0.453
 5252SOL    HW216656   4.129   6.287   0.502
 5253SOL     OW16657   5.820   2.748   3.669
 5253SOL    HW116658   5.755   2.824   3.675
 5253SOL    HW216659   5.913   2.782   3.682
 5254SOL     OW16660   4.400   1.240   4.131
 5254SOL    HW116661   4.342   1.184   4.189
 5254SOL    HW216662   4.472   1.183   4.091
 5255SOL     OW16663   3.430   6.467   4.421
 5255SOL    HW116664   3.342   6.442   4.383
 5255SOL    HW216665   3.437   6.434   4.515
 5256SOL     OW16666   5.741   6.670   2.653
 5256SOL    HW116667   5.745   6.768   2.635
 5256SOL    HW216668   5.800   6.647   2.731
 5257SOL     OW16669   3.253   1.436   2.387
 5257SOL    HW116670   3.287   1.406   2.477
 5257SOL    HW216671   3.154   1.442   2.390
 5258SOL     OW16672   6.163   2.256   2.008
 5258SOL    HW116673   6.102   2.214   2.075
 5258SOL    HW216674   6.115   2.265   1.920
 5259SOL     OW16675   5.077   4.421   2.064
 5259SOL    HW116676   5.153   4.461   2.012
 5259SOL    HW216677   5.016   4.373   2.001
 5260SOL     OW16678   5.237   3.270   1.808
 5260SOL    HW116679   5.189   3.337   1.751
 5260SOL    HW216680   5.322   3.242   1.763
 5261SOL     OW16681   2.137   2.427   4.469
 5261SOL    HW116682   2.162   2.417   4.565
 5261SOL    HW216683   2.062   2.364   4.447
 5262SOL     OW16684   2.410   0.570   2.098
 5262SOL    HW116685   2.434   0.573   2.001
 5262SOL    HW216686   2.330   0.628   2.114
 5263SOL     OW16687   0.686   6.694   0.732
 5263SOL    HW116688   0.643   6.608   0.759
 5263SOL    HW216689   0.616   6.759   0.704
 5264SOL     OW16690   0.942   2.317   0.763
 5264SOL    HW116691   1.003   2.346   0.689
 5264SOL    HW216692   0.982   2.344   0.851
 5265SOL     OW16693   5.809   4.718   2.402
 5265SOL    HW116694   5.754   4.788   2.447
 5265SOL    HW216695   5.871   4.676   2.469
 5266SOL     OW16696   1.448   6.826   1.281
 5266SOL    HW116697   1.372   6.885   1.253
 5266SOL    HW216698   1.513   6.816   1.206
 5267SOL     OW16699   4.952   4.132   5.040
 5267SOL    HW116700   4.898   4.153   4.959
 5267SOL    HW216701   4.917   4.049   5.083
 5268SOL     OW16702   5.548   5.166   5.576
 5268SOL    HW116703   5.578   5.147   5.670
 5268SOL    HW216704   5.473   5.104   5.552
 5269SOL     OW16705   0.900   4.951   4.801
 5269SOL    HW116706   0.892   4.870   4.743
 5269SOL    HW216707   0.996   4.973   4.815
 5270SOL     OW16708   6.779   3.134   3.023
 5270SOL    HW116709   6.721   3.147   3.104
 5270SOL    HW216710   6.723   3.134   2.941
 5271SOL     OW16711   5.093   4.351   5.068
 5271SOL    HW116712   5.023   4.280   5.065
 5271SOL    HW216713   5.153   4.342   4.989
 5272SOL     OW16714   1.608   1.158   3.721
 5272SOL    HW116715   1.649   1.248   3.704
 5272SOL    HW216716   1.621   1.134   3.817
 5273SOL     OW16717   0.804   0.880   4.897
 5273SOL    HW116718   0.853   0.818   4.958
 5273SOL    HW216719   0.864   0.954   4.869
 5274SOL     OW16720   6.577   5.256   4.626
 5274SOL    HW116721   6.483   5.253   4.592
 5274SOL    HW216722   6.633   5.189   4.576
 5275SOL     OW16723   2.837   6.573   6.623
 5275SOL    HW116724   2.817   6.477   6.643
 5275SOL    HW216725   2.821   6.591   6.526
 5276SOL     OW16726   6.974   0.504   1.328
 5276SOL    HW116727   6.893   0.446   1.325
 5276SOL    HW216728   0.007   0.487   1.412
 5277SOL     OW16729   1.365   1.744   2.655
 5277SOL    HW116730   1.311   1.811   2.603
 5277SOL    HW216731   1.312   1.711   2.733
 5278SOL     OW16732   0.522   4.111   6.371
 5278SOL    HW116733   0.600   4.153   6.417
 5278SOL    HW216734   0.439   4.163   6.393
 5279SOL     OW16735   2.392   5.969   6.474
 5279SOL    HW116736   2.426   5.925   6.391
 5279SOL    HW216737   2.343   6.053   6.449
 5280SOL     OW16738   4.677   6.632   5.201
 5280SOL    HW116739   4.623   6.577   5.137
 5280SOL    HW216740   4.694   6.722   5.161
 5281SOL     OW16741   2.607   6.894   5.256
 5281SOL    HW116742   2.641   6.934   5.341
 5281SOL    HW216743   2.666   6.818   5.229
 5282SOL     OW16744   1.284   6.634   1.651
 5282SOL    HW116745   1.240   6.635   1.561
 5282SOL    HW216746   1.217   6.612   1.721
 5283SOL     OW16747   1.030   0.633   4.197
 5283SOL    HW116748   0.992   0.552   4.152
 5283SOL    HW216749   0.961   0.705   4.200
 5284SOL     OW16750   4.429   2.826   1.554
 5284SOL    HW116751   4.388   2.912   1.582
 5284SOL    HW216752   4.479   2.785   1.631
 5285SOL     OW16753   1.554   2.184   4.552
 5285SOL    HW116754   1.527   2.093   4.583
 5285SOL    HW216755   1.648   2.203   4.582
 5286SOL     OW16756   5.989   3.051   1.485
 5286SOL    HW116757   6.058   3.123   1.490
 5286SOL    HW216758   6.025   2.974   1.433
 5287SOL     OW16759   2.006   5.066   1.394
 5287SOL    HW116760   2.035   4.999   1.463
 5287SOL    HW216761   2.071   5.064   1.317
 5288SOL     OW16762   4.184   0.645   1.215
 5288SOL    HW116763   4.238   0.591   1.280
 5288SOL    HW216764   4.187   0.742   1.242
 5289SOL     OW16765   2.604   5.079   6.135
 5289SOL    HW116766   2.647   4.989   6.133
 5289SOL    HW216767   2.515   5.073   6.179
 5290SOL     OW16768   1.726   3.170   4.504
 5290SOL    HW116769   1.660   3.233   4.463
 5290SOL    HW216770   1.760   3.107   4.434
 5291SOL     OW16771   2.650   4.606   4.528
 5291SOL    HW116772   2.717   4.630   4.458
 5291SOL    HW216773   2.671   4.655   4.613
 5292SOL     OW16774   0.240   3.776   5.712
 5292SOL    HW116775   0.337   3.795   5.705
 5292SOL    HW216776   0.189   3.839   5.654
 5293SOL     OW16777   2.185   6.547   4.226
 5293SOL    HW116778   2.241   6.506   4.154
 5293SOL    HW216779   2.237   6.620   4.271
 5294SOL     OW16780   4.275   0.095   5.081
 5294SOL    HW116781   4.288   0.130   5.173
 5294SOL    HW216782   4.284   7.014   5.081
 5295SOL     OW16783   3.024   1.601   2.570
 5295SOL    HW116784   2.974   1.594   2.483
 5295SOL    HW216785   3.089   1.677   2.566
 5296SOL     OW16786   4.626   4.941   1.643
 5296SOL    HW116787   4.698   4.917   1.708
 5296SOL    HW216788   4.651   5.025   1.595
 5297SOL     OW16789   2.940   5.000   0.330
 5297SOL    HW116790   2.962   4.990   0.233
 5297SOL    HW216791   2.843   5.023   0.340
 5298SOL     OW16792   1.938   0.375   0.123
 5298SOL    HW116793   1.948   0.321   0.207
 5298SOL    HW216794   1.938   0.473   0.147
 5299SOL     OW16795   2.677   1.159   1.448
 5299SOL    HW116796   2.663   1.060   1.446
 5299SOL    HW216797   2.679   1.191   1.543
 5300SOL     OW16798   2.580   4.807   6.664
 5300SOL    HW116799   2.592   4.720   6.712
 5300SOL    HW216800   2.645   4.811   6.588
 5301SOL     OW16801   5.117   7.011   6.202
 5301SOL    HW116802   5.122   6.911   6.192
 5301SOL    HW216803   5.175   0.036   6.133
 5302SOL     OW16804   5.583   6.212   3.506
 5302SOL    HW116805   5.492   6.179   3.483
 5302SOL    HW216806   5.651   6.163   3.451
 5303SOL     OW16807   0.779   5.453   5.911
 5303SOL    HW116808   0.782   5.463   5.811
 5303SOL    HW216809   0.714   5.518   5.949
 5304SOL     OW16810   6.894   0.561   2.583
 5304SOL    HW116811   6.956   0.532   2.656
 5304SOL    HW216812   6.883   0.486   2.517
 5305SOL     OW16813   0.891   5.101   3.281
 5305SOL    HW116814   0.848   5.103   3.191
 5305SOL    HW216815   0.990   5.110   3.271
 5306SOL     OW16816   0.261   3.241   5.956
 5306SOL    HW116817   0.267   3.311   6.027
 5306SOL    HW216818   0.189   3.266   5.891
 5307SOL     OW16819   6.497   1.576   1.467
 5307SOL    HW116820   6.540   1.523   1.394
 5307SOL    HW216821   6.516   1.532   1.555
 5308SOL     OW16822   1.596   3.809   2.979
 5308SOL    HW116823   1.496   3.809   2.980
 5308SOL    HW216824   1.629   3.903   2.968
 5309SOL     OW16825   6.202   6.325   2.648
 5309SOL    HW116826   6.131   6.370   2.703
 5309SOL    HW216827   6.179   6.332   2.551
 5310SOL     OW16828   5.351   2.647   2.773
 5310SOL    HW116829   5.338   2.625   2.676
 5310SOL    HW216830   5.403   2.575   2.817
 5311SOL     OW16831   5.796   0.228   0.551
 5311SOL    HW116832   5.713   0.172   0.557
 5311SOL    HW216833   5.786   0.307   0.611
 5312SOL     OW16834   0.027   6.721   0.601
 5312SOL    HW116835   7.010   6.810   0.570
 5312SOL    HW216836   0.043   6.663   0.521
 5313SOL     OW16837   1.179   5.879   5.423
 5313SOL    HW116838   1.238   5.818   5.370
 5313SOL    HW216839   1.085   5.873   5.390
 5314SOL     OW16840   6.029   0.835   2.161
 5314SOL    HW116841   6.069   0.744   2.173
 5314SOL    HW216842   6.076   0.883   2.087
 5315SOL     OW16843   4.532   1.125   4.519
 5315SOL    HW116844   4.480   1.194   4.571
 5315SOL    HW216845   4.621   1.163   4.495
 5316SOL     OW16846   0.870   2.029   4.298
 5316SOL    HW116847   0.848   2.116   4.343
 5316SOL    HW216848   0.913   1.968   4.365
 5317SOL     OW16849   6.105   2.198   6.530
 5317SOL    HW116850   6.039   2.160   6.595
 5317SOL    HW216851   6.192   2.215   6.577
 5318SOL     OW16852   6.782   3.694   6.469
 5318SOL    HW116853   6.685   3.711   6.449
 5318SOL    HW216854   6.800   3.595   6.465
 5319SOL     OW16855   4.481   6.925   1.223
 5319SOL    HW116856   4.385   6.898   1.218
 5319SOL    HW216857   4.490   7.003   1.285
 5320SOL     OW16858   3.005   5.739   0.945
 5320SOL    HW116859   2.907   5.758   0.954
 5320SOL    HW216860   3.044   5.800   0.877
 5321SOL     OW16861   1.724   4.365   4.639
 5321SOL    HW116862   1.671   4.305   4.699
 5321SOL    HW216863   1.817   4.329   4.629
 5322SOL     OW16864   5.411   6.682   2.273
 5322SOL    HW116865   5.433   6.759   2.213
 5322SOL    HW216866   5.495   6.650   2.318
 5323SOL     OW16867   4.245   1.173   5.713
 5323SOL    HW116868   4.169   1.145   5.772
 5323SOL    HW216869   4.332   1.143   5.754
 5324SOL     OW16870   2.162   1.503   0.716
 5324SOL    HW116871   2.073   1.460   0.700
 5324SOL    HW216872   2.150   1.602   0.722
 5325SOL     OW16873   2.148   1.688   4.727
 5325SOL    HW116874   2.192   1.744   4.798
 5325SOL    HW216875   2.206   1.686   4.646
 5326SOL     OW16876   6.481   6.391   2.608
 5326SOL    HW116877   6.559   6.328   2.615
 5326SOL    HW216878   6.399   6.340   2.583
 5327SOL     OW16879   6.001   2.279   4.745
 5327SOL    HW116880   5.989   2.364   4.796
 5327SOL    HW216881   6.098   2.266   4.723
 5328SOL     OW16882   4.232   4.763   6.848
 5328SOL    HW116883   4.281   4.756   6.935
 5328SOL    HW216884   4.189   4.853   6.840
 5329SOL     OW16885   1.219   6.713   6.494
 5329SOL    HW116886   1.263   6.787   6.444
 5329SOL    HW216887   1.130   6.743   6.527
 5330SOL     OW16888   2.462   3.651   0.712
 5330SOL    HW116889   2.401   3.666   0.790
 5330SOL    HW216890   2.453   3.557   0.681
 5331SOL     OW16891   6.271   0.711   6.663
 5331SOL    HW116892   6.197   0.778   6.661
 5331SOL    HW216893   6.293   0.690   6.758
 5332SOL     OW16894   1.178   5.114   2.337
 5332SOL    HW116895   1.255   5.149   2.283
 5332SOL    HW216896   1.169   5.167   2.421
 5333SOL     OW16897   0.774   6.061   4.102
 5333SOL    HW116898   0.776   6.048   4.003
 5333SOL    HW216899   0.840   5.999   4.146
 5334SOL     OW16900   2.851   0.073   4.425
 5334SOL    HW116901   2.946   0.084   4.455
 5334SOL    HW216902   2.820   6.998   4.446
 5335SOL     OW16903   6.923   5.992   0.754
 5335SOL    HW116904   6.865   5.922   0.796
 5335SOL    HW216905   6.865   6.060   0.710
 5336SOL     OW16906   1.226   3.889   1.695
 5336SOL    HW116907   1.149   3.914   1.635
 5336SOL    HW216908   1.231   3.954   1.771
 5337SOL     OW16909   5.064   4.408   1.285
 5337SOL    HW116910   4.989   4.434   1.346
 5337SOL    HW216911   5.139   4.473   1.294
 5338SOL     OW16912   6.312   2.490   6.434
 5338SOL    HW116913   6.258   2.477   6.517
 5338SOL    HW216914   6.353   2.581   6.435
 5339SOL     OW16915   6.234   1.542   3.463
 5339SOL    HW116916   6.139   1.528   3.436
 5339SOL    HW216917   6.271   1.621   3.414
 5340SOL     OW16918   5.452   2.201   6.191
 5340SOL    HW116919   5.429   2.290   6.150
 5340SOL    HW216920   5.377   2.172   6.249
 5341SOL     OW16921   4.250   0.242   0.242
 5341SOL    HW116922   4.283   0.267   0.333
 5341SOL    HW216923   4.253   0.322   0.182
 5342SOL     OW16924   3.304   0.716   5.530
 5342SOL    HW116925   3.274   0.756   5.443
 5342SOL    HW216926   3.397   0.680   5.520
 5343SOL     OW16927   3.850   3.917   2.538
 5343SOL    HW116928   3.914   3.863   2.593
 5343SOL    HW216929   3.812   3.991   2.593
 5344SOL     OW16930   2.569   1.952   2.894
 5344SOL    HW116931   2.491   1.966   2.956
 5344SOL    HW216932   2.546   1.988   2.803
 5345SOL     OW16933   4.597   6.620   1.697
 5345SOL    HW116934   4.688   6.615   1.740
 5345SOL    HW216935   4.578   6.714   1.669
 5346SOL     OW16936   2.601   6.409   3.041
 5346SOL    HW116937   2.678   6.459   3.082
 5346SOL    HW216938   2.516   6.437   3.085
 5347SOL     OW16939   0.167   1.683   1.268
 5347SOL    HW116940   0.083   1.630   1.257
 5347SOL    HW216941   0.244   1.631   1.231
 5348SOL     OW16942   0.544   1.249   6.790
 5348SOL    HW116943   0.497   1.267   6.877
 5348SOL    HW216944   0.506   1.308   6.719
 5349SOL     OW16945   6.330   0.871   1.581
 5349SOL    HW116946   6.340   0.883   1.680
 5349SOL    HW216947   6.326   0.774   1.560
 5350SOL     OW16948   2.553   1.438   6.290
 5350SOL    HW116949   2.558   1.410   6.386
 5350SOL    HW216950   2.544   1.537   6.285
 5351SOL     OW16951   3.986   6.894   2.072
 5351SOL    HW116952   3.930   6.910   1.992
 5351SOL    HW216953   3.979   6.972   2.134
 5352SOL     OW16954   3.253   5.193   3.879
 5352SOL    HW116955   3.345   5.204   3.916
 5352SOL    HW216956   3.237   5.097   3.857
 5353SOL     OW16957   5.731   6.220   5.777
 5353SOL    HW116958   5.658   6.279   5.811
 5353SOL    HW216959   5.807   6.220   5.842
 5354SOL     OW16960   0.624   3.976   1.426
 5354SOL    HW116961   0.564   4.053   1.447
 5354SOL    HW216962   0.582   3.892   1.461
 5355SOL     OW16963   4.504   1.987   5.080
 5355SOL    HW116964   4.521   1.934   4.997
 5355SOL    HW216965   4.461   2.074   5.057
 5356SOL     OW16966   6.388   3.583   1.076
 5356SOL    HW116967   6.298   3.628   1.071
 5356SOL    HW216968   6.398   3.539   1.165
 5357SOL     OW16969   3.629   6.989   0.339
 5357SOL    HW116970   3.630   0.030   0.258
 5357SOL    HW216971   3.563   6.916   0.325
 5358SOL     OW16972   4.651   3.107   0.857
 5358SOL    HW116973   4.654   3.027   0.797
 5358SOL    HW216974   4.730   3.166   0.838
 5359SOL     OW16975   1.891   0.629   6.743
 5359SOL    HW116976   1.808   0.679   6.717
 5359SOL    HW216977   1.868   0.563   6.814
 5360SOL     OW16978   3.515   0.154   6.912
 5360SOL    HW116979   3.595   0.125   6.861
 5360SOL    HW216980   3.456   0.075   6.929
 5361SOL     OW16981   2.121   0.669   5.727
 5361SOL    HW116982   2.037   0.648   5.675
 5361SOL    HW216983   2.128   0.768   5.739
 5362SOL     OW16984   4.601   5.295   2.777
 5362SOL    HW116985   4.661   5.342   2.712
 5362SOL    HW216986   4.641   5.207   2.801
 5363SOL     OW16987   0.667   5.631   6.094
 5363SOL    HW116988   0.652   5.577   6.177
 5363SOL    HW216989   0.653   5.728   6.116
 5364SOL     OW16990   0.811   6.281   0.704
 5364SOL    HW116991   0.838   6.337   0.783
 5364SOL    HW216992   0.890   6.269   0.644
 5365SOL     OW16993   4.390   2.066   6.077
 5365SOL    HW116994   4.443   2.127   6.018
 5365SOL    HW216995   4.407   1.971   6.050
 5366SOL     OW16996   4.032   3.244   0.098
 5366SOL    HW116997   4.057   3.217   0.005
 5366SOL    HW216998   3.944   3.203   0.123
 5367SOL     OW16999   0.224   5.266   1.161
 5367SOL    HW117000   0.294   5.324   1.200
 5367SOL    HW217001   0.134   5.306   1.176
 5368SOL     OW17002   6.048   1.452   3.848
 5368SOL    HW117003   5.994   1.378   3.888
 5368SOL    HW217004   6.063   1.523   3.917
 5369SOL     OW17005   2.173   3.890   2.892
 5369SOL    HW117006   2.116   3.809   2.905
 5369SOL    HW217007   2.160   3.926   2.799
 5370SOL     OW17008   3.761   3.038   1.419
 5370SOL    HW117009   3.730   3.017   1.511
 5370SOL    HW217010   3.845   3.092   1.423
 5371SOL     OW17011   0.553   3.910   5.250
 5371SOL    HW117012   0.646   3.946   5.253
 5371SOL    HW217013   0.541   3.841   5.322
 5372SOL     OW17014   2.827   5.326   2.526
 5372SOL    HW117015   2.795   5.419   2.511
 5372SOL    HW217016   2.910   5.327   2.582
 5373SOL     OW17017   2.847   4.817   3.137
 5373SOL    HW117018   2.772   4.770   3.090
 5373SOL    HW217019   2.857   4.909   3.099
 5374SOL     OW17020   2.556   2.109   0.259
 5374SOL    HW117021   2.608   2.156   0.330
 5374SOL    HW217022   2.549   2.167   0.178
 5375SOL     OW17023   1.502   4.868   3.913
 5375SOL    HW117024   1.588   4.902   3.950
 5375SOL    HW217025   1.459   4.805   3.978
 5376SOL     OW17026   1.706   3.603   0.730
 5376SOL    HW117027   1.771   3.656   0.675
 5376SOL    HW217028   1.685   3.517   0.683
 5377SOL     OW17029   0.320   1.452   1.262
 5377SOL    HW117030   0.397   1.389   1.260
 5377SOL    HW217031   0.255   1.429   1.190
 5378SOL     OW17032   5.512   0.563   0.915
 5378SOL    HW117033   5.446   0.623   0.870
 5378SOL    HW217034   5.580   0.619   0.962
 5379SOL     OW17035   6.965   6.424   1.954
 5379SOL    HW117036   7.018   6.373   2.022
 5379SOL    HW217037   0.007   6.451   1.879
 5380SOL     OW17038   3.010   0.256   4.228
 5380SOL    HW117039   3.097   0.302   4.244
 5380SOL    HW217040   2.974   0.222   4.315
 5381SOL     OW17041   5.717   4.256   1.545
 5381SOL    HW117042   5.621   4.240   1.521
 5381SOL    HW217043   5.775   4.234   1.467
 5382SOL     OW17044   1.759   0.018   1.657
 5382SOL    HW117045   1.843   0.003   1.604
 5382SOL    HW217046   1.681   0.025   1.594
 5383SOL     OW17047   2.236   1.821   4.957
 5383SOL    HW117048   2.225   1.861   5.048
 5383SOL    HW217049   2.315   1.759   4.957
 5384SOL     OW17050   5.912   6.590   4.135
 5384SOL    HW117051   5.960   6.552   4.214
 5384SOL    HW217052   5.933   6.537   4.053
 5385SOL     OW17053   3.449   3.947   2.186
 5385SOL    HW117054   3.390   4.022   2.218
 5385SOL    HW217055   3.491   3.903   2.266
 5386SOL     OW17056   5.285   6.276   5.072
 5386SOL    HW117057   5.343   6.195   5.068
 5386SOL    HW217058   5.341   6.356   5.095
 5387SOL     OW17059   2.749   5.621   1.779
 5387SOL    HW117060   2.713   5.713   1.768
 5387SOL    HW217061   2.705   5.576   1.856
 5388SOL     OW17062   5.647   0.617   2.598
 5388SOL    HW117063   5.680   0.585   2.686
 5388SOL    HW217064   5.550   0.594   2.588
 5389SOL     OW17065   4.634   2.134   1.045
 5389SOL    HW117066   4.621   2.035   1.044
 5389SOL    HW217067   4.583   2.173   1.122
 5390SOL     OW17068   5.980   4.713   6.120
 5390SOL    HW117069   6.077   4.731   6.137
 5390SOL    HW217070   5.932   4.704   6.207
 5391SOL     OW17071   2.555   3.177   6.683
 5391SOL    HW117072   2.492   3.249   6.653
 5391SOL    HW217073   2.587   3.126   6.603
 5392SOL     OW17074   6.485   3.048   2.487
 5392SOL    HW117075   6.501   2.949   2.489
 5392SOL    HW217076   6.447   3.073   2.398
 5393SOL     OW17077   6.728   0.202   6.831
 5393SOL    HW117078   6.677   0.261   6.768
 5393SOL    HW217079   6.776   0.132   6.779
 5394SOL     OW17080   0.927   4.103   5.628
 5394SOL    HW117081   0.922   4.150   5.540
 5394SOL    HW217082   1.009   4.133   5.677
 5395SOL     OW17083   4.122   1.554   0.043
 5395SOL    HW117084   4.175   1.511   0.115
 5395SOL    HW217085   4.114   1.492   6.983
 5396SOL     OW17086   5.516   3.133   2.626
 5396SOL    HW117087   5.434   3.148   2.572
 5396SOL    HW217088   5.548   3.039   2.614
 5397SOL     OW17089   0.556   3.433   1.557
 5397SOL    HW117090   0.511   3.519   1.579
 5397SOL    HW217091   0.623   3.448   1.484
 5398SOL     OW17092   3.061   2.653   1.792
 5398SOL    HW117093   3.133   2.599   1.747
 5398SOL    HW217094   2.997   2.592   1.837
 5399SOL     OW17095   1.298   5.915   0.821
 5399SOL    HW117096   1.294   5.861   0.737
 5399SOL    HW217097   1.335   6.006   0.800
 5400SOL     OW17098   2.721   4.534   0.637
 5400SOL    HW117099   2.685   4.585   0.715
 5400SOL    HW217100   2.815   4.504   0.658
 5401SOL     OW17101   6.194   3.266   1.493
 5401SOL    HW117102   6.237   3.187   1.449
 5401SOL    HW217103   6.240   3.350   1.465
 5402SOL     OW17104   1.205   6.142   2.343
 5402SOL    HW117105   1.201   6.150   2.244
 5402SOL    HW217106   1.275   6.076   2.369
 5403SOL     OW17107   0.084   2.579   6.321
 5403SOL    HW117108   0.162   2.529   6.359
 5403SOL    HW217109   7.018   2.528   6.339
 5404SOL     OW17110   1.872   2.815   3.316
 5404SOL    HW117111   1.916   2.808   3.406
 5404SOL    HW217112   1.773   2.817   3.328
 5405SOL     OW17113   6.793   5.068   6.078
 5405SOL    HW117114   6.836   5.045   6.165
 5405SOL    HW217115   6.694   5.055   6.086
 5406SOL     OW17116   2.292   0.640   5.303
 5406SOL    HW117117   2.194   0.661   5.313
 5406SOL    HW217118   2.315   0.631   5.207
 5407SOL     OW17119   3.955   3.527   6.313
 5407SOL    HW117120   3.923   3.614   6.275
 5407SOL    HW217121   3.905   3.507   6.397
 5408SOL     OW17122   2.792   1.142   6.806
 5408SOL    HW117123   2.761   1.093   6.725
 5408SOL    HW217124   2.772   1.087   6.887
 5409SOL     OW17125   3.907   0.857   2.218
 5409SOL    HW117126   3.861   0.838   2.132
 5409SOL    HW217127   3.983   0.920   2.202
 5410SOL     OW17128   2.478   2.155   2.108
 5410SOL    HW117129   2.521   2.245   2.112
 5410SOL    HW217130   2.445   2.138   2.015
 5411SOL     OW17131   0.722   5.618   4.790
 5411SOL    HW117132   0.727   5.615   4.890
 5411SOL    HW217133   0.682   5.532   4.757
 5412SOL     OW17134   6.319   2.916   1.060
 5412SOL    HW117135   6.381   2.990   1.033
 5412SOL    HW217136   6.230   2.954   1.083
 5413SOL     OW17137   2.130   0.785   1.808
 5413SOL    HW117138   2.111   0.687   1.797
 5413SOL    HW217139   2.150   0.825   1.719
 5414SOL     OW17140   3.887   1.122   5.276
 5414SOL    HW117141   3.831   1.151   5.199
 5414SOL    HW217142   3.938   1.039   5.251
 5415SOL     OW17143   6.196   5.190   1.932
 5415SOL    HW117144   6.196   5.131   1.851
 5415SOL    HW217145   6.180   5.285   1.905
 5416SOL     OW17146   4.562   5.794   4.466
 5416SOL    HW117147   4.511   5.804   4.381
 5416SOL    HW217148   4.581   5.697   4.482
 5417SOL     OW17149   3.168   6.638   4.690
 5417SOL    HW117150   3.116   6.723   4.698
 5417SOL    HW217151   3.266   6.658   4.703
 5418SOL     OW17152   3.691   0.538   3.081
 5418SOL    HW117153   3.674   0.540   2.982
 5418SOL    HW217154   3.605   0.557   3.129
 5419SOL     OW17155   3.417   4.306   6.912
 5419SOL    HW117156   3.390   4.401   6.893
 5419SOL    HW217157   3.391   4.282   7.005
 5420SOL     OW17158   1.133   1.282   2.884
 5420SOL    HW117159   1.170   1.311   2.796
 5420SOL    HW217160   1.076   1.200   2.872
 5421SOL     OW17161   1.752   3.530   1.765
 5421SOL    HW117162   1.704   3.530   1.678
 5421SOL    HW217163   1.842   3.573   1.753
 5422SOL     OW17164   2.252   3.427   0.896
 5422SOL    HW117165   2.223   3.394   0.986
 5422SOL    HW217166   2.343   3.390   0.875
 5423SOL     OW17167   5.867   3.296   6.965
 5423SOL    HW117168   5.892   3.352   0.026
 5423SOL    HW217169   5.786   3.335   6.922
 5424SOL     OW17170   5.202   4.037   5.100
 5424SOL    HW117171   5.111   4.077   5.095
 5424SOL    HW217172   5.224   4.014   5.195
 5425SOL     OW17173   5.151   0.424   4.981
 5425SOL    HW117174   5.204   0.489   4.927
 5425SOL    HW217175   5.055   0.452   4.984
 5426SOL     OW17176   6.162   0.239   5.358
 5426SOL    HW117177   6.132   0.239   5.262
 5426SOL    HW217178   6.085   0.262   5.417
 5427SOL     OW17179   3.937   5.776   6.531
 5427SOL    HW117180   3.998   5.798   6.608
 5427SOL    HW217181   3.928   5.857   6.472
 5428SOL     OW17182   1.152   0.472   7.011
 5428SOL    HW117183   1.088   0.412   0.040
 5428SOL    HW217184   1.164   0.440   6.917
 5429SOL     OW17185   1.084   2.344   6.608
 5429SOL    HW117186   1.099   2.422   6.548
 5429SOL    HW217187   0.990   2.345   6.641
 5430SOL     OW17188   2.140   2.627   5.638
 5430SOL    HW117189   2.199   2.587   5.707
 5430SOL    HW217190   2.079   2.694   5.680
 5431SOL     OW17191   3.968   6.086   4.587
 5431SOL    HW117192   3.998   6.155   4.653
 5431SOL    HW217193   3.873   6.104   4.561
 5432SOL     OW17194   5.196   6.629   1.190
 5432SOL    HW117195   5.097   6.614   1.183
 5432SOL    HW217196   5.244   6.544   1.170
 5433SOL     OW17197   0.227   1.494   4.710
 5433SOL    HW117198   0.191   1.477   4.801
 5433SOL    HW217199   0.260   1.588   4.703
 5434SOL     OW17200   2.694   0.131   5.875
 5434SOL    HW117201   2.695   0.031   5.872
 5434SOL    HW217202   2.610   0.164   5.831
 5435SOL     OW17203   4.496   0.799   1.988
 5435SOL    HW117204   4.414   0.758   1.945
 5435SOL    HW217205   4.531   0.737   2.058
 5436SOL     OW17206   5.192   4.091   2.431
 5436SOL    HW117207   5.126   4.146   2.482
 5436SOL    HW217208   5.238   4.149   2.363
 5437SOL     OW17209   3.102   3.339   0.058
 5437SOL    HW117210   3.069   3.253   0.020
 5437SOL    HW217211   3.049   3.415   0.021
 5438SOL     OW17212   6.487   2.262   0.750
 5438SOL    HW117213   6.572   2.259   0.802
 5438SOL    HW217214   6.411   2.235   0.809
 5439SOL     OW17215   1.052   2.055   1.337
 5439SOL    HW117216   0.987   2.131   1.340
 5439SOL    HW217217   1.141   2.085   1.370
 5440SOL     OW17218   1.101   1.742   1.044
 5440SOL    HW117219   1.023   1.747   0.982
 5440SOL    HW217220   1.089   1.663   1.105
 5441SOL     OW17221   3.720   2.081   3.355
 5441SOL    HW117222   3.678   2.060   3.443
 5441SOL    HW217223   3.655   2.062   3.281
 5442SOL     OW17224   4.044   0.532   2.373
 5442SOL    HW117225   3.984   0.611   2.384
 5442SOL    HW217226   3.989   0.448   2.374
 5443SOL     OW17227   3.357   6.866   5.269
 5443SOL    HW117228   3.406   6.905   5.191
 5443SOL    HW217229   3.289   6.801   5.236
 5444SOL     OW17230   6.889   6.888   3.472
 5444SOL    HW117231   6.906   6.974   3.423
 5444SOL    HW217232   6.801   6.893   3.519
 5445SOL     OW17233   5.851   3.410   2.143
 5445SOL    HW117234   5.842   3.353   2.061
 5445SOL    HW217235   5.763   3.415   2.190
 5446SOL     OW17236   6.662   5.530   5.646
 5446SOL    HW117237   6.731   5.493   5.583
 5446SOL    HW217238   6.572   5.493   5.623
 5447SOL     OW17239   3.691   1.755   0.242
 5447SOL    HW117240   3.780   1.764   0.286
 5447SOL    HW217241   3.703   1.742   0.144
 5448SOL     OW17242   5.580   2.214   5.553
 5448SOL    HW117243   5.557   2.213   5.455
 5448SOL    HW217244   5.644   2.288   5.572
 5449SOL     OW17245   0.946   3.393   6.411
 5449SOL    HW117246   0.980   3.304   6.384
 5449SOL    HW217247   0.882   3.382   6.488
 5450SOL     OW17248   1.753   6.963   0.901
 5450SOL    HW117249   1.845   6.929   0.881
 5450SOL    HW217250   1.757   0.004   0.982
 5451SOL     OW17251   1.338   0.309   2.589
 5451SOL    HW117252   1.423   0.296   2.537
 5451SOL    HW217253   1.346   0.263   2.677
 5452SOL     OW17254   2.728   3.909   6.157
 5452SOL    HW117255   2.711   4.007   6.172
 5452SOL    HW217256   2.817   3.885   6.195
 5453SOL     OW17257   6.341   5.264   6.841
 5453SOL    HW117258   6.268   5.227   6.782
 5453SOL    HW217259   6.402   5.190   6.869
 5454SOL     OW17260   6.897   4.596   6.731
 5454SOL    HW117261   6.967   4.573   6.799
 5454SOL    HW217262   6.840   4.670   6.764
 5455SOL     OW17263   6.520   3.384   1.344
 5455SOL    HW117264   6.554   3.300   1.386
 5455SOL    HW217265   6.529   3.378   1.244
 5456SOL     OW17266   3.033   6.616   0.591
 5456SOL    HW117267   3.053   6.585   0.684
 5456SOL    HW217268   2.994   6.541   0.538
 5457SOL     OW17269   6.432   3.351   0.483
 5457SOL    HW117270   6.338   3.375   0.510
 5457SOL    HW217271   6.462   3.414   0.411
 5458SOL     OW17272   2.369   4.152   6.958
 5458SOL    HW117273   2.433   4.200   7.018
 5458SOL    HW217274   2.375   4.054   6.975
 5459SOL     OW17275   1.682   4.688   6.300
 5459SOL    HW117276   1.679   4.687   6.400
 5459SOL    HW217277   1.743   4.761   6.269
 5460SOL     OW17278   3.010   0.532   1.386
 5460SOL    HW117279   2.940   0.463   1.367
 5460SOL    HW217280   3.046   0.518   1.478
 5461SOL     OW17281   4.476   6.961   5.367
 5461SOL    HW117282   4.521   7.006   5.444
 5461SOL    HW217283   4.441   6.872   5.395
 5462SOL     OW17284   0.743   0.398   0.942
 5462SOL    HW117285   0.798   0.476   0.970
 5462SOL    HW217286   0.729   0.401   0.843
 5463SOL     OW17287   6.722   2.738   0.903
 5463SOL    HW117288   6.780   2.770   0.978
 5463SOL    HW217289   6.778   2.695   0.833
 5464SOL     OW17290   1.700   0.075   4.435
 5464SOL    HW117291   1.635   0.109   4.502
 5464SOL    HW217292   1.791   0.070   4.477
 5465SOL     OW17293   2.740   6.981   5.448
 5465SOL    HW117294   2.798   0.010   5.383
 5465SOL    HW217295   2.794   6.953   5.527
 5466SOL     OW17296   4.531   4.490   4.522
 5466SOL    HW117297   4.447   4.534   4.490
 5466SOL    HW217298   4.554   4.414   4.461
 5467SOL     OW17299   6.142   1.515   2.023
 5467SOL    HW117300   6.205   1.592   2.013
 5467SOL    HW217301   6.189   1.439   2.069
 5468SOL     OW17302   4.066   1.551   5.251
 5468SOL    HW117303   4.082   1.498   5.168
 5468SOL    HW217304   4.051   1.647   5.227
 5469SOL     OW17305   4.161   4.153   6.492
 5469SOL    HW117306   4.197   4.187   6.405
 5469SOL    HW217307   4.132   4.230   6.549
 5470SOL     OW17308   1.730   5.299   3.684
 5470SOL    HW117309   1.684   5.321   3.598
 5470SOL    HW217310   1.669   5.242   3.740
 5471SOL     OW17311   6.292   5.825   1.966
 5471SOL    HW117312   6.238   5.846   1.885
 5471SOL    HW217313   6.236   5.774   2.032
 5472SOL     OW17314   3.916   4.953   5.512
 5472SOL    HW117315   3.899   4.869   5.563
 5472SOL    HW217316   4.012   4.978   5.519
 5473SOL     OW17317   1.123   3.460   3.561
 5473SOL    HW117318   1.212   3.426   3.532
 5473SOL    HW217319   1.050   3.402   3.525
 5474SOL     OW17320   1.676   5.540   3.501
 5474SOL    HW117321   1.613   5.532   3.579
 5474SOL    HW217322   1.758   5.590   3.530
 5475SOL     OW17323   2.895   2.606   1.108
 5475SOL    HW117324   2.939   2.675   1.049
 5475SOL    HW217325   2.935   2.516   1.089
 5476SOL     OW17326   1.125   3.242   5.617
 5476SOL    HW117327   1.152   3.280   5.706
 5476SOL    HW217328   1.143   3.309   5.546
 5477SOL     OW17329   2.180   3.058   3.023
 5477SOL    HW117330   2.104   3.122   3.030
 5477SOL    HW217331   2.220   3.064   2.931
 5478SOL     OW17332   6.713   6.305   6.016
 5478SOL    HW117333   6.694   6.224   6.071
 5478SOL    HW217334   6.635   6.322   5.955
 5479SOL     OW17335   4.809   0.526   4.795
 5479SOL    HW117336   4.842   0.545   4.703
 5479SOL    HW217337   4.724   0.473   4.790
 5480SOL     OW17338   0.132   3.548   4.411
 5480SOL    HW117339   0.157   3.531   4.316
 5480SOL    HW217340   0.087   3.637   4.419
 5481SOL     OW17341   4.702   6.373   4.012
 5481SOL    HW117342   4.661   6.352   3.923
 5481SOL    HW217343   4.777   6.438   3.999
 5482SOL     OW17344   1.772   4.387   1.551
 5482SOL    HW117345   1.701   4.320   1.571
 5482SOL    HW217346   1.782   4.396   1.451
 5483SOL     OW17347   0.101   2.581   5.609
 5483SOL    HW117348   0.192   2.556   5.641
 5483SOL    HW217349   0.032   2.526   5.657
 5484SOL     OW17350   4.610   0.720   5.016
 5484SOL    HW117351   4.673   0.711   5.093
 5484SOL    HW217352   4.522   0.678   5.040
 5485SOL     OW17353   3.239   0.276   4.821
 5485SOL    HW117354   3.324   0.328   4.837
 5485SOL    HW217355   3.162   0.326   4.860
 5486SOL     OW17356   2.674   6.165   5.219
 5486SOL    HW117357   2.686   6.193   5.124
 5486SOL    HW217358   2.680   6.244   5.279
 5487SOL     OW17359   3.215   5.584   5.467
 5487SOL    HW117360   3.164   5.620   5.545
 5487SOL    HW217361   3.260   5.659   5.419
 5488SOL     OW17362   5.943   2.391   0.780
 5488SOL    HW117363   6.028   2.347   0.752
 5488SOL    HW217364   5.942   2.485   0.746
 5489SOL     OW17365   6.663   4.049   2.885
 5489SOL    HW117366   6.658   3.954   2.918
 5489SOL    HW217367   6.758   4.077   2.880
 5490SOL     OW17368   1.826   6.273   2.919
 5490SOL    HW117369   1.884   6.278   2.838
 5490SOL    HW217370   1.851   6.193   2.974
 5491SOL     OW17371   6.806   4.129   0.595
 5491SOL    HW117372   6.733   4.070   0.562
 5491SOL    HW217373   6.777   4.174   0.680
 5492SOL     OW17374   6.699   2.009   5.901
 5492SOL    HW117375   6.723   2.035   5.807
 5492SOL    HW217376   6.609   2.045   5.924
 5493SOL     OW17377   4.156   3.690   1.322
 5493SOL    HW117378   4.065   3.653   1.302
 5493SOL    HW217379   4.223   3.650   1.260
 5494SOL     OW17380   6.216   4.184   5.381
 5494SOL    HW117381   6.306   4.227   5.368
 5494SOL    HW217382   6.185   4.203   5.474
 5495SOL     OW17383   5.522   0.075   0.258
 5495SOL    HW117384   5.438   0.061   0.206
 5495SOL    HW217385   5.600   0.042   0.205
 5496SOL     OW17386   4.152   0.533   4.240
 5496SOL    HW117387   4.081   0.571   4.299
 5496SOL    HW217388   4.120   0.532   4.145
 5497SOL     OW17389   1.085   0.622   5.791
 5497SOL    HW117390   1.093   0.524   5.808
 5497SOL    HW217391   0.998   0.640   5.745
 5498SOL     OW17392   0.629   5.445   0.991
 5498SOL    HW117393   0.558   5.451   0.922
 5498SOL    HW217394   0.692   5.522   0.982
 5499SOL     OW17395   1.718   0.443   4.895
 5499SOL    HW117396   1.744   0.501   4.817
 5499SOL    HW217397   1.630   0.399   4.876
 5500SOL     OW17398   2.820   0.262   0.940
 5500SOL    HW117399   2.810   0.314   0.855
 5500SOL    HW217400   2.746   0.195   0.947
 5501SOL     OW17401   3.764   3.569   6.767
 5501SOL    HW117402   3.714   3.655   6.760
 5501SOL    HW217403   3.848   3.583   6.820
 5502SOL     OW17404   4.680   2.817   0.080
 5502SOL    HW117405   4.705   2.911   0.058
 5502SOL    HW217406   4.674   2.763   7.014
 5503SOL     OW17407   6.540   3.656   0.868
 5503SOL    HW117408   6.638   3.637   0.859
 5503SOL    HW217409   6.503   3.605   0.946
 5504SOL     OW17410   3.643   1.495   6.973
 5504SOL    HW117411   3.703   1.555   0.008
 5504SOL    HW217412   3.663   1.504   6.876
 5505SOL     OW17413   3.128   5.460   3.157
 5505SOL    HW117414   3.177   5.463   3.244
 5505SOL    HW217415   3.112   5.365   3.131
 5506SOL     OW17416   0.521   3.401   5.522
 5506SOL    HW117417   0.522   3.335   5.597
 5506SOL    HW217418   0.535   3.493   5.559
 5507SOL     OW17419   2.738   6.813   6.725
 5507SOL    HW117420   2.801   6.737   6.708
 5507SOL    HW217421   2.791   6.893   6.752
 5508SOL     OW17422   6.788   0.856   6.474
 5508SOL    HW117423   6.843   0.780   6.440
 5508SOL    HW217424   6.700   0.822   6.509
 5509SOL     OW17425   6.510   5.279   0.786
 5509SOL    HW117426   6.575   5.351   0.762
 5509SOL    HW217427   6.547   5.190   0.756
 5510SOL     OW17428   4.181   4.913   0.121
 5510SOL    HW117429   4.105   4.933   0.184
 5510SOL    HW217430   4.176   4.976   0.042
 5511SOL     OW17431   0.089   2.205   5.350
 5511SOL    HW117432   0.102   2.106   5.346
 5511SOL    HW217433   0.178   2.250   5.362
 5512SOL     OW17434   2.479   0.820   2.270
 5512SOL    HW117435   2.445   0.825   2.364
 5512SOL    HW217436   2.446   0.735   2.228
 5513SOL     OW17437   4.211   4.313   0.187
 5513SOL    HW117438   4.244   4.391   0.241
 5513SOL    HW217439   4.206   4.339   0.091
 5514SOL     OW17440   3.007   1.143   0.518
 5514SOL    HW117441   2.930   1.127   0.456
 5514SOL    HW217442   2.989   1.097   0.605
 5515SOL     OW17443   2.842   5.727   2.100
 5515SOL    HW117444   2.926   5.707   2.049
 5515SOL    HW217445   2.771   5.663   2.072
 5516SOL     OW17446   1.588   2.303   5.313
 5516SOL    HW117447   1.492   2.318   5.288
 5516SOL    HW217448   1.603   2.337   5.406
 5517SOL     OW17449   1.338   2.348   3.262
 5517SOL    HW117450   1.337   2.350   3.162
 5517SOL    HW217451   1.430   2.371   3.295
 5518SOL     OW17452   4.555   4.915   6.792
 5518SOL    HW117453   4.589   4.949   6.879
 5518SOL    HW217454   4.597   4.967   6.717
 5519SOL     OW17455   4.739   2.896   4.376
 5519SOL    HW117456   4.649   2.856   4.359
 5519SOL    HW217457   4.800   2.876   4.299
 5520SOL     OW17458   4.962   0.115   1.804
 5520SOL    HW117459   4.944   0.094   1.708
 5520SOL    HW217460   5.058   0.139   1.816
 5521SOL     OW17461   4.825   6.359   2.295
 5521SOL    HW117462   4.826   6.406   2.207
 5521SOL    HW217463   4.812   6.426   2.368
 5522SOL     OW17464   5.943   6.305   1.183
 5522SOL    HW117465   5.893   6.385   1.150
 5522SOL    HW217466   5.918   6.225   1.129
 5523SOL     OW17467   5.385   1.415   1.123
 5523SOL    HW117468   5.375   1.510   1.093
 5523SOL    HW217469   5.374   1.354   1.044
 5524SOL     OW17470   2.397   1.418   4.119
 5524SOL    HW117471   2.316   1.370   4.152
 5524SOL    HW217472   2.413   1.394   4.023
 5525SOL     OW17473   6.121   1.240   1.554
 5525SOL    HW117474   6.027   1.213   1.535
 5525SOL    HW217475   6.177   1.227   1.473
 5526SOL     OW17476   5.394   4.743   4.048
 5526SOL    HW117477   5.490   4.748   4.073
 5526SOL    HW217478   5.359   4.651   4.068
 5527SOL     OW17479   5.722   0.664   3.734
 5527SOL    HW117480   5.642   0.721   3.752
 5527SOL    HW217481   5.735   0.599   3.809
 5528SOL     OW17482   0.832   1.309   6.941
 5528SOL    HW117483   0.766   1.384   6.939
 5528SOL    HW217484   0.785   1.222   6.927
 5529SOL     OW17485   3.815   0.682   1.971
 5529SOL    HW117486   3.816   0.622   2.051
 5529SOL    HW217487   3.723   0.717   1.956
 5530SOL     OW17488   6.946   2.299   1.211
 5530SOL    HW117489   6.983   2.288   1.303
 5530SOL    HW217490   0.002   2.289   1.144
 5531SOL     OW17491   2.156   4.153   1.239
 5531SOL    HW117492   2.096   4.074   1.252
 5531SOL    HW217493   2.215   4.164   1.319
 5532SOL     OW17494   1.215   2.874   6.752
 5532SOL    HW117495   1.235   2.929   6.833
 5532SOL    HW217496   1.125   2.831   6.763
 5533SOL     OW17497   3.178   1.830   2.569
 5533SOL    HW117498   3.114   1.898   2.533
 5533SOL    HW217499   3.255   1.820   2.507
 5534SOL     OW17500   1.541   0.401   4.560
 5534SOL    HW117501   1.549   0.496   4.530
 5534SOL    HW217502   1.453   0.364   4.530
 5535SOL     OW17503   0.123   1.730   3.199
 5535SOL    HW117504   0.122   1.830   3.193
 5535SOL    HW217505   0.135   1.691   3.107
 5536SOL     OW17506   3.975   6.080   4.283
 5536SOL    HW117507   3.939   6.173   4.293
 5536SOL    HW217508   4.027   6.057   4.366
 5537SOL     OW17509   2.963   1.636   3.511
 5537SOL    HW117510   3.006   1.618   3.599
 5537SOL    HW217511   3.000   1.573   3.442
 5538SOL     OW17512   4.497   5.472   4.801
 5538SOL    HW117513   4.503   5.376   4.828
 5538SOL    HW217514   4.490   5.479   4.702
 5539SOL     OW17515   2.342   4.818   0.461
 5539SOL    HW117516   2.246   4.807   0.486
 5539SOL    HW217517   2.391   4.733   0.478
 5540SOL     OW17518   4.705   5.522   1.730
 5540SOL    HW117519   4.739   5.568   1.647
 5540SOL    HW217520   4.606   5.510   1.723
 5541SOL     OW17521   4.876   1.495   5.714
 5541SOL    HW117522   4.850   1.517   5.808
 5541SOL    HW217523   4.971   1.463   5.711
 5542SOL     OW17524   5.393   4.621   6.870
 5542SOL    HW117525   5.332   4.690   6.833
 5542SOL    HW217526   5.485   4.659   6.881
 5543SOL     OW17527   6.904   1.783   5.745
 5543SOL    HW117528   6.967   1.826   5.810
 5543SOL    HW217529   6.840   1.724   5.795
 5544SOL     OW17530   5.934   0.797   0.015
 5544SOL    HW117531   5.899   0.704   0.005
 5544SOL    HW217532   5.890   0.856   6.965
 5545SOL     OW17533   2.734   2.519   1.709
 5545SOL    HW117534   2.791   2.476   1.779
 5545SOL    HW217535   2.746   2.618   1.714
 5546SOL     OW17536   3.488   4.933   5.680
 5546SOL    HW117537   3.526   4.841   5.691
 5546SOL    HW217538   3.398   4.928   5.637
 5547SOL     OW17539   3.492   5.509   4.054
 5547SOL    HW117540   3.574   5.523   4.110
 5547SOL    HW217541   3.482   5.585   3.990
 5548SOL     OW17542   0.466   2.504   4.693
 5548SOL    HW117543   0.466   2.588   4.747
 5548SOL    HW217544   0.501   2.429   4.748
 5549SOL     OW17545   3.591   4.530   0.587
 5549SOL    HW117546   3.626   4.577   0.668
 5549SOL    HW217547   3.525   4.588   0.541
 5550SOL     OW17548   3.147   6.596   2.418
 5550SOL    HW117549   3.131   6.614   2.321
 5550SOL    HW217550   3.244   6.608   2.438
 5551SOL     OW17551   0.434   1.118   2.426
 5551SOL    HW117552   0.459   1.142   2.520
 5551SOL    HW217553   0.378   1.035   2.427
 5552SOL     OW17554   0.872   2.602   1.659
 5552SOL    HW117555   0.846   2.678   1.599
 5552SOL    HW217556   0.792   2.546   1.679
 5553SOL     OW17557   4.887   6.164   6.877
 5553SOL    HW117558   4.967   6.206   6.919
 5553SOL    HW217559   4.816   6.233   6.865
 5554SOL     OW17560   3.588   1.056   4.503
 5554SOL    HW117561   3.606   1.004   4.587
 5554SOL    HW217562   3.511   1.015   4.455
 5555SOL     OW17563   0.489   5.783   2.045
 5555SOL    HW117564   0.425   5.801   1.969
 5555SOL    HW217565   0.462   5.699   2.092
 5556SOL     OW17566   0.808   1.085   4.531
 5556SOL    HW117567   0.866   1.010   4.563
 5556SOL    HW217568   0.861   1.170   4.531
 5557SOL     OW17569   2.834   0.674   3.216
 5557SOL    HW117570   2.897   0.735   3.265
 5557SOL    HW217571   2.786   0.727   3.146
 5558SOL     OW17572   5.058   2.521   5.512
 5558SOL    HW117573   4.986   2.532   5.443
 5558SOL    HW217574   5.124   2.596   5.503
 5559SOL     OW17575   2.443   0.779   1.476
 5559SOL    HW117576   2.411   0.850   1.539
 5559SOL    HW217577   2.542   0.771   1.483
 5560SOL     OW17578   6.926   1.236   4.127
 5560SOL    HW117579   7.001   1.301   4.115
 5560SOL    HW217580   6.852   1.279   4.177
 5561SOL     OW17581   1.747   3.506   2.494
 5561SOL    HW117582   1.813   3.442   2.534
 5561SOL    HW217583   1.695   3.550   2.567
 5562SOL     OW17584   3.132   2.199   6.581
 5562SOL    HW117585   3.224   2.206   6.541
 5562SOL    HW217586   3.133   2.240   6.672
 5563SOL     OW17587   4.058   4.197   1.686
 5563SOL    HW117588   4.018   4.208   1.596
 5563SOL    HW217589   3.989   4.160   1.749
 5564SOL     OW17590   5.839   3.253   1.930
 5564SOL    HW117591   5.743   3.230   1.919
 5564SOL    HW217592   5.895   3.173   1.908
 5565SOL     OW17593   3.403   3.037   5.534
 5565SOL    HW117594   3.337   2.993   5.596
 5565SOL    HW217595   3.354   3.098   5.471
 5566SOL     OW17596   2.045   4.515   0.445
 5566SOL    HW117597   2.050   4.503   0.346
 5566SOL    HW217598   2.016   4.429   0.487
 5567SOL     OW17599   1.634   5.133   2.990
 5567SOL    HW117600   1.668   5.223   3.018
 5567SOL    HW217601   1.702   5.088   2.932
 5568SOL     OW17602   3.443   2.575   0.939
 5568SOL    HW117603   3.484   2.608   0.854
 5568SOL    HW217604   3.491   2.493   0.970
 5569SOL     OW17605   5.297   2.056   6.713
 5569SOL    HW117606   5.269   2.152   6.710
 5569SOL    HW217607   5.247   2.005   6.643
 5570SOL     OW17608   0.530   3.658   5.087
 5570SOL    HW117609   0.557   3.745   5.127
 5570SOL    HW217610   0.528   3.587   5.157
 5571SOL     OW17611   6.690   4.760   6.816
 5571SOL    HW117612   6.600   4.759   6.860
 5571SOL    HW217613   6.734   4.848   6.830
 5572SOL     OW17614   6.218   3.053   4.946
 5572SOL    HW117615   6.175   3.081   4.860
 5572SOL    HW217616   6.154   3.068   5.022
 5573SOL     OW17617   6.832   4.193   0.170
 5573SOL    HW117618   6.754   4.214   0.228
 5573SOL    HW217619   6.914   4.183   0.226
 5574SOL     OW17620   0.689   6.342   4.127
 5574SOL    HW117621   0.738   6.259   4.103
 5574SOL    HW217622   0.718   6.375   4.216
 5575SOL     OW17623   0.856   1.340   1.544
 5575SOL    HW117624   0.888   1.305   1.632
 5575SOL    HW217625   0.789   1.413   1.559
 5576SOL     OW17626   5.705   5.902   6.739
 5576SOL    HW117627   5.627   5.841   6.742
 5576SOL    HW217628   5.687   5.976   6.675
 5577SOL     OW17629   2.382   4.482   4.875
 5577SOL    HW117630   2.329   4.402   4.902
 5577SOL    HW217631   2.433   4.517   4.953
 5578SOL     OW17632   3.415   1.945   6.601
 5578SOL    HW117633   3.486   2.006   6.635
 5578SOL    HW217634   3.427   1.854   6.641
 5579SOL     OW17635   4.848   5.254   1.842
 5579SOL    HW117636   4.806   5.310   1.771
 5579SOL    HW217637   4.783   5.239   1.916
 5580SOL     OW17638   5.408   1.195   1.770
 5580SOL    HW117639   5.472   1.258   1.815
 5580SOL    HW217640   5.456   1.145   1.698
 5581SOL     OW17641   2.621   2.921   0.471
 5581SOL    HW117642   2.617   2.875   0.559
 5581SOL    HW217643   2.529   2.928   0.433
 5582SOL     OW17644   3.254   3.058   3.535
 5582SOL    HW117645   3.314   2.992   3.490
 5582SOL    HW217646   3.309   3.124   3.585
 5583SOL     OW17647   4.801   0.755   0.203
 5583SOL    HW117648   4.827   0.847   0.233
 5583SOL    HW217649   4.709   0.733   0.236
 5584SOL     OW17650   5.189   3.100   2.863
 5584SOL    HW117651   5.136   3.058   2.936
 5584SOL    HW217652   5.271   3.143   2.901
 5585SOL     OW17653   0.339   6.318   4.439
 5585SOL    HW117654   0.372   6.287   4.529
 5585SOL    HW217655   0.256   6.267   4.415
 5586SOL     OW17656   2.842   1.334   6.365
 5586SOL    HW117657   2.761   1.391   6.355
 5586SOL    HW217658   2.905   1.377   6.429
 5587SOL     OW17659   3.490   6.569   4.176
 5587SOL    HW117660   3.459   6.495   4.116
 5587SOL    HW217661   3.460   6.551   4.269
 5588SOL     OW17662   5.018   0.247   5.839
 5588SOL    HW117663   5.014   0.337   5.882
 5588SOL    HW217664   4.926   0.211   5.826
 5589SOL     OW17665   2.663   3.846   0.062
 5589SOL    HW117666   2.698   3.863   6.988
 5589SOL    HW217667   2.693   3.918   0.123
 5590SOL     OW17668   6.690   0.351   3.531
 5590SOL    HW117669   6.736   0.262   3.532
 5590SOL    HW217670   6.729   0.407   3.457
 5591SOL     OW17671   5.421   0.351   0.293
 5591SOL    HW117672   5.416   0.397   0.381
 5591SOL    HW217673   5.435   0.253   0.307
 5592SOL     OW17674   1.509   2.526   2.610
 5592SOL    HW117675   1.527   2.436   2.569
 5592SOL    HW217676   1.537   2.598   2.547
 5593SOL     OW17677   2.425   4.460   4.600
 5593SOL    HW117678   2.413   4.469   4.699
 5593SOL    HW217679   2.503   4.516   4.571
 5594SOL     OW17680   3.142   1.619   6.130
 5594SOL    HW117681   3.105   1.703   6.092
 5594SOL    HW217682   3.173   1.560   6.056
 5595SOL     OW17683   0.308   1.932   6.051
 5595SOL    HW117684   0.393   1.943   6.000
 5595SOL    HW217685   0.301   2.003   6.120
 5596SOL     OW17686   4.702   2.328   4.127
 5596SOL    HW117687   4.698   2.417   4.173
 5596SOL    HW217688   4.794   2.312   4.091
 5597SOL     OW17689   6.866   2.136   6.223
 5597SOL    HW117690   6.827   2.140   6.315
 5597SOL    HW217691   6.817   2.067   6.169
 5598SOL     OW17692   6.821   1.687   3.998
 5598SOL    HW117693   6.878   1.767   3.982
 5598SOL    HW217694   6.795   1.646   3.911
 5599SOL     OW17695   5.316   2.191   3.040
 5599SOL    HW117696   5.300   2.237   2.952
 5599SOL    HW217697   5.289   2.095   3.032
 5600SOL     OW17698   2.062   2.563   2.053
 5600SOL    HW117699   2.160   2.583   2.064
 5600SOL    HW217700   2.046   2.522   1.964
 5601SOL     OW17701   5.735   3.378   5.904
 5601SOL    HW117702   5.790   3.432   5.840
 5601SOL    HW217703   5.736   3.422   5.994
 5602SOL     OW17704   6.556   2.527   2.500
 5602SOL    HW117705   6.617   2.537   2.422
 5602SOL    HW217706   6.594   2.575   2.579
 5603SOL     OW17707   3.638   2.221   6.007
 5603SOL    HW117708   3.637   2.128   6.044
 5603SOL    HW217709   3.555   2.269   6.036
 5604SOL     OW17710   0.935   6.219   3.643
 5604SOL    HW117711   0.906   6.291   3.706
 5604SOL    HW217712   0.990   6.152   3.693
 5605SOL     OW17713   4.312   0.364   3.928
 5605SOL    HW117714   4.354   0.346   3.839
 5605SOL    HW217715   4.371   0.426   3.980
 5606SOL     OW17716   4.547   3.236   0.308
 5606SOL    HW117717   4.602   3.193   0.236
 5606SOL    HW217718   4.528   3.169   0.380
 5607SOL     OW17719   0.233   2.364   3.345
 5607SOL    HW117720   0.250   2.265   3.344
 5607SOL    HW217721   0.234   2.397   3.439
 5608SOL     OW17722   5.120   0.420   4.133
 5608SOL    HW117723   5.123   0.518   4.154
 5608SOL    HW217724   5.082   0.371   4.211
 5609SOL     OW17725   6.536   1.019   6.716
 5609SOL    HW117726   6.577   0.943   6.766
 5609SOL    HW217727   6.516   0.991   6.623
 5610SOL     OW17728   6.081   5.742   6.294
 5610SOL    HW117729   6.091   5.671   6.363
 5610SOL    HW217730   6.008   5.805   6.320
 5611SOL     OW17731   6.009   4.083   1.588
 5611SOL    HW117732   6.016   4.138   1.505
 5611SOL    HW217733   5.925   4.107   1.637
 5612SOL     OW17734   3.949   2.378   0.376
 5612SOL    HW117735   3.872   2.316   0.388
 5612SOL    HW217736   3.927   2.467   0.416
 5613SOL     OW17737   6.039   5.214   5.933
 5613SOL    HW117738   5.985   5.270   5.997
 5613SOL    HW217739   6.007   5.119   5.938
 5614SOL     OW17740   4.883   2.083   4.981
 5614SOL    HW117741   4.957   2.053   4.921
 5614SOL    HW217742   4.888   2.033   5.068
 5615SOL     OW17743   0.445   3.139   3.922
 5615SOL    HW117744   0.385   3.216   3.905
 5615SOL    HW217745   0.541   3.169   3.918
 5616SOL     OW17746   1.810   3.163   2.746
 5616SOL    HW117747   1.857   3.218   2.677
 5616SOL    HW217748   1.741   3.218   2.792
 5617SOL     OW17749   1.531   4.819   6.103
 5617SOL    HW117750   1.447   4.775   6.071
 5617SOL    HW217751   1.558   4.780   6.191
 5618SOL     OW17752   4.686   6.871   2.714
 5618SOL    HW117753   4.753   6.906   2.779
 5618SOL    HW217754   4.637   6.794   2.754
 5619SOL     OW17755   3.202   3.335   3.150
 5619SOL    HW117756   3.110   3.354   3.114
 5619SOL    HW217757   3.198   3.255   3.210
 5620SOL     OW17758   4.946   4.456   4.701
 5620SOL    HW117759   4.861   4.441   4.752
 5620SOL    HW217760   5.000   4.372   4.700
 5621SOL     OW17761   0.646   2.550   6.592
 5621SOL    HW117762   0.674   2.639   6.629
 5621SOL    HW217763   0.555   2.558   6.551
 5622SOL     OW17764   4.706   5.236   4.088
 5622SOL    HW117765   4.638   5.302   4.122
 5622SOL    HW217766   4.714   5.244   3.989
 5623SOL     OW17767   4.413   4.612   3.714
 5623SOL    HW117768   4.320   4.584   3.735
 5623SOL    HW217769   4.423   4.622   3.615
 5624SOL     OW17770   4.872   4.343   3.457
 5624SOL    HW117771   4.937   4.278   3.497
 5624SOL    HW217772   4.858   4.420   3.520
 5625SOL     OW17773   2.935   6.656   6.261
 5625SOL    HW117774   2.990   6.580   6.295
 5625SOL    HW217775   2.941   6.732   6.326
 5626SOL     OW17776   1.140   4.562   6.294
 5626SOL    HW117777   1.156   4.572   6.393
 5626SOL    HW217778   1.084   4.482   6.277
 5627SOL     OW17779   1.070   5.225   0.299
 5627SOL    HW117780   0.976   5.248   0.273
 5627SOL    HW217781   1.068   5.163   0.377
 5628SOL     OW17782   1.798   3.148   0.117
 5628SOL    HW117783   1.871   3.213   0.135
 5628SOL    HW217784   1.825   3.086   0.043
 5629SOL     OW17785   6.676   3.566   3.471
 5629SOL    HW117786   6.753   3.524   3.519
 5629SOL    HW217787   6.600   3.581   3.535
 5630SOL     OW17788   0.820   3.542   0.871
 5630SOL    HW117789   0.917   3.516   0.873
 5630SOL    HW217790   0.792   3.557   0.776
 5631SOL     OW17791   3.502   1.348   1.398
 5631SOL    HW117792   3.552   1.270   1.435
 5631SOL    HW217793   3.550   1.433   1.421
 5632SOL     OW17794   4.605   6.470   5.970
 5632SOL    HW117795   4.513   6.448   5.938
 5632SOL    HW217796   4.606   6.479   6.069
 5633SOL     OW17797   1.364   5.456   5.405
 5633SOL    HW117798   1.375   5.412   5.494
 5633SOL    HW217799   1.326   5.390   5.340
 5634SOL     OW17800   3.077   0.833   1.598
 5634SOL    HW117801   3.084   0.932   1.605
 5634SOL    HW217802   3.120   0.803   1.513
 5635SOL     OW17803   3.714   0.666   1.521
 5635SOL    HW117804   3.687   0.734   1.589
 5635SOL    HW217805   3.654   0.586   1.527
 5636SOL     OW17806   5.434   0.483   5.772
 5636SOL    HW117807   5.379   0.542   5.831
 5636SOL    HW217808   5.435   0.521   5.679
 5637SOL     OW17809   5.296   0.059   4.894
 5637SOL    HW117810   5.350   0.118   4.833
 5637SOL    HW217811   5.332   0.065   4.987
 5638SOL     OW17812   6.113   5.805   0.557
 5638SOL    HW117813   6.135   5.719   0.603
 5638SOL    HW217814   6.022   5.836   0.585
 5639SOL     OW17815   3.084   0.500   1.655
 5639SOL    HW117816   3.124   0.590   1.674
 5639SOL    HW217817   3.008   0.485   1.717
 5640SOL     OW17818   3.056   6.904   3.192
 5640SOL    HW117819   3.147   6.864   3.201
 5640SOL    HW217820   2.987   6.835   3.215
 5641SOL     OW17821   6.790   4.130   3.774
 5641SOL    HW117822   6.750   4.079   3.698
 5641SOL    HW217823   6.861   4.191   3.740
 5642SOL     OW17824   2.259   3.589   6.280
 5642SOL    HW117825   2.301   3.538   6.354
 5642SOL    HW217826   2.161   3.597   6.296
 5643SOL     OW17827   6.082   2.304   4.429
 5643SOL    HW117828   6.104   2.362   4.508
 5643SOL    HW217829   6.099   2.355   4.345
 5644SOL     OW17830   4.063   0.385   5.237
 5644SOL    HW117831   4.057   0.453   5.311
 5644SOL    HW217832   4.133   0.413   5.172
 5645SOL     OW17833   6.200   6.474   3.548
 5645SOL    HW117834   6.105   6.505   3.545
 5645SOL    HW217835   6.230   6.449   3.456
 5646SOL     OW17836   6.530   6.620   3.899
 5646SOL    HW117837   6.446   6.646   3.852
 5646SOL    HW217838   6.606   6.616   3.834
 5647SOL     OW17839   6.850   4.094   6.800
 5647SOL    HW117840   6.943   4.105   6.835
 5647SOL    HW217841   6.852   4.037   6.717
 5648SOL     OW17842   2.768   1.127   4.513
 5648SOL    HW117843   2.791   1.183   4.592
 5648SOL    HW217844   2.754   1.186   4.434
 5649SOL     OW17845   1.068   6.731   5.396
 5649SOL    HW117846   1.114   6.752   5.482
 5649SOL    HW217847   1.115   6.655   5.351
 5650SOL     OW17848   6.531   4.793   6.249
 5650SOL    HW117849   6.558   4.843   6.331
 5650SOL    HW217850   6.613   4.765   6.199
 5651SOL     OW17851   5.811   1.537   2.185
 5651SOL    HW117852   5.906   1.545   2.217
 5651SOL    HW217853   5.805   1.572   2.091
 5652SOL     OW17854   5.660   4.044   0.606
 5652SOL    HW117855   5.755   4.071   0.620
 5652SOL    HW217856   5.657   3.954   0.561
 5653SOL     OW17857   2.040   5.873   6.320
 5653SOL    HW117858   2.047   5.951   6.258
 5653SOL    HW217859   2.043   5.788   6.267
 5654SOL     OW17860   1.508   6.043   6.532
 5654SOL    HW117861   1.566   6.125   6.530
 5654SOL    HW217862   1.545   5.975   6.469
 5655SOL     OW17863   6.832   5.699   3.128
 5655SOL    HW117864   6.821   5.600   3.135
 5655SOL    HW217865   6.924   5.725   3.159
 5656SOL     OW17866   3.698   5.727   6.615
 5656SOL    HW117867   3.789   5.751   6.579
 5656SOL    HW217868   3.635   5.714   6.539
 5657SOL     OW17869   4.193   5.485   2.136
 5657SOL    HW117870   4.185   5.581   2.161
 5657SOL    HW217871   4.147   5.428   2.203
 5658SOL     OW17872   5.354   6.794   5.688
 5658SOL    HW117873   5.285   6.760   5.752
 5658SOL    HW217874   5.445   6.788   5.729
 5659SOL     OW17875   3.178   4.004   2.863
 5659SOL    HW117876   3.130   3.977   2.780
 5659SOL    HW217877   3.192   3.923   2.921
 5660SOL     OW17878   6.281   6.351   1.560
 5660SOL    HW117879   6.302   6.294   1.480
 5660SOL    HW217880   6.254   6.443   1.530
 5661SOL     OW17881   6.141   5.743   4.606
 5661SOL    HW117882   6.217   5.783   4.658
 5661SOL    HW217883   6.174   5.712   4.517
 5662SOL     OW17884   2.389   4.762   4.732
 5662SOL    HW117885   2.480   4.732   4.759
 5662SOL    HW217886   2.325   4.746   4.807
 5663SOL     OW17887   2.569   4.060   1.265
 5663SOL    HW117888   2.509   4.139   1.254
 5663SOL    HW217889   2.532   3.982   1.214
 5664SOL     OW17890   0.193   5.986   2.530
 5664SOL    HW117891   0.246   6.010   2.612
 5664SOL    HW217892   0.111   5.935   2.557
 5665SOL     OW17893   1.474   1.202   5.965
 5665SOL    HW117894   1.486   1.197   5.866
 5665SOL    HW217895   1.536   1.271   6.002
 5666SOL     OW17896   5.854   5.993   0.231
 5666SOL    HW117897   5.820   6.082   0.202
 5666SOL    HW217898   5.950   5.983   0.203
 5667SOL     OW17899   6.280   5.609   3.228
 5667SOL    HW117900   6.362   5.552   3.231
 5667SOL    HW217901   6.254   5.625   3.133
 5668SOL     OW17902   6.133   3.522   5.852
 5668SOL    HW117903   6.063   3.565   5.794
 5668SOL    HW217904   6.173   3.445   5.803
 5669SOL     OW17905   6.864   3.340   4.868
 5669SOL    HW117906   6.867   3.257   4.923
 5669SOL    HW217907   6.914   3.326   4.783
 5670SOL     OW17908   1.567   3.567   2.714
 5670SOL    HW117909   1.537   3.480   2.675
 5670SOL    HW217910   1.640   3.551   2.780
 5671SOL     OW17911   1.414   0.995   5.327
 5671SOL    HW117912   1.370   0.943   5.254
 5671SOL    HW217913   1.449   0.932   5.396
 5672SOL     OW17914   5.389   3.631   5.974
 5672SOL    HW117915   5.391   3.645   5.875
 5672SOL    HW217916   5.334   3.551   5.996
 5673SOL     OW17917   1.436   0.639   1.116
 5673SOL    HW117918   1.386   0.691   1.186
 5673SOL    HW217919   1.432   0.542   1.137
 5674SOL     OW17920   6.700   2.994   1.214
 5674SOL    HW117921   6.713   3.044   1.128
 5674SOL    HW217922   6.674   3.059   1.286
 5675SOL     OW17923   3.808   1.192   5.992
 5675SOL    HW117924   3.848   1.233   6.074
 5675SOL    HW217925   3.739   1.125   6.018
 5676SOL     OW17926   3.519   0.069   1.605
 5676SOL    HW117927   3.433   0.076   1.555
 5676SOL    HW217928   3.591   0.035   1.543
 5677SOL     OW17929   6.843   1.033   3.861
 5677SOL    HW117930   6.876   1.124   3.836
 5677SOL    HW217931   6.764   1.010   3.805
 5678SOL     OW17932   1.853   5.055   3.474
 5678SOL    HW117933   1.896   5.004   3.399
 5678SOL    HW217934   1.826   5.146   3.442
 5679SOL     OW17935   3.246   5.792   5.271
 5679SOL    HW117936   3.216   5.846   5.349
 5679SOL    HW217937   3.250   5.850   5.189
 5680SOL     OW17938   2.051   6.931   6.555
 5680SOL    HW117939   2.144   6.940   6.521
 5680SOL    HW217940   2.053   6.898   6.649
 5681SOL     OW17941   2.354   3.682   0.084
 5681SOL    HW117942   2.394   3.743   0.153
 5681SOL    HW217943   2.393   3.591   0.093
 5682SOL     OW17944   1.104   3.977   4.129
 5682SOL    HW117945   1.150   3.950   4.044
 5682SOL    HW217946   1.012   4.009   4.108
 5683SOL     OW17947   4.189   3.512   4.628
 5683SOL    HW117948   4.164   3.599   4.587
 5683SOL    HW217949   4.217   3.526   4.722
 5684SOL     OW17950   2.989   3.815   3.218
 5684SOL    HW117951   2.934   3.732   3.227
 5684SOL    HW217952   3.006   3.853   3.309
 5685SOL     OW17953   0.757   5.311   1.965
 5685SOL    HW117954   0.710   5.270   2.043
 5685SOL    HW217955   0.722   5.404   1.950
 5686SOL     OW17956   3.557   4.995   0.141
 5686SOL    HW117957   3.559   4.910   0.089
 5686SOL    HW217958   3.461   5.022   0.156
 5687SOL     OW17959   4.410   5.648   6.331
 5687SOL    HW117960   4.486   5.594   6.368
 5687SOL    HW217961   4.325   5.596   6.340
 5688SOL     OW17962   5.835   1.983   2.589
 5688SOL    HW117963   5.846   1.895   2.544
 5688SOL    HW217964   5.906   1.995   2.658
 5689SOL     OW17965   4.520   2.983   6.296
 5689SOL    HW117966   4.519   3.080   6.320
 5689SOL    HW217967   4.428   2.953   6.272
 5690SOL     OW17968   4.640   6.781   2.311
 5690SOL    HW117969   4.565   6.739   2.258
 5690SOL    HW217970   4.687   6.710   2.363
 5691SOL     OW17971   2.692   0.193   3.473
 5691SOL    HW117972   2.701   0.245   3.389
 5691SOL    HW217973   2.774   0.204   3.528
 5692SOL     OW17974   5.856   3.396   0.215
 5692SOL    HW117975   5.864   3.303   0.251
 5692SOL    HW217976   5.902   3.460   0.277
 5693SOL     OW17977   4.586   2.638   2.702
 5693SOL    HW117978   4.536   2.614   2.618
 5693SOL    HW217979   4.671   2.686   2.678
 5694SOL     OW17980   1.413   1.798   4.295
 5694SOL    HW117981   1.483   1.801   4.366
 5694SOL    HW217982   1.325   1.822   4.335
 5695SOL     OW17983   1.838   3.819   3.547
 5695SOL    HW117984   1.745   3.814   3.584
 5695SOL    HW217985   1.835   3.864   3.458
 5696SOL     OW17986   3.239   0.627   5.955
 5696SOL    HW117987   3.336   0.602   5.960
 5696SOL    HW217988   3.224   0.684   5.873
 5697SOL     OW17989   6.337   3.542   6.962
 5697SOL    HW117990   6.242   3.566   6.982
 5697SOL    HW217991   6.381   3.618   6.914
 5698SOL     OW17992   1.071   4.331   2.625
 5698SOL    HW117993   1.051   4.363   2.532
 5698SOL    HW217994   1.082   4.409   2.686
 5699SOL     OW17995   6.537   1.657   4.813
 5699SOL    HW117996   6.577   1.581   4.763
 5699SOL    HW217997   6.536   1.738   4.755
 5700SOL     OW17998   1.029   5.416   2.708
 5700SOL    HW117999   1.079   5.470   2.776
 5700SOL    HW218000   0.931   5.418   2.729
 5701SOL     OW18001   5.241   5.200   2.180
 5701SOL    HW118002   5.177   5.217   2.106
 5701SOL    HW218003   5.334   5.203   2.145
 5702SOL     OW18004   2.370   0.398   6.898
 5702SOL    HW118005   2.289   0.342   6.917
 5702SOL    HW218006   2.343   0.494   6.890
 5703SOL     OW18007   4.697   4.253   1.702
 5703SOL    HW118008   4.608   4.274   1.743
 5703SOL    HW218009   4.718   4.157   1.716
 5704SOL     OW18010   4.862   4.578   3.584
 5704SOL    HW118011   4.884   4.666   3.542
 5704SOL    HW218012   4.885   4.581   3.681
 5705SOL     OW18013   5.830   1.674   2.972
 5705SOL    HW118014   5.878   1.659   2.885
 5705SOL    HW218015   5.790   1.588   3.003
 5706SOL     OW18016   2.061   0.750   7.017
 5706SOL    HW118017   2.081   0.841   0.036
 5706SOL    HW218018   1.963   0.739   7.005
 5707SOL     OW18019   3.332   1.951   6.325
 5707SOL    HW118020   3.370   1.963   6.417
 5707SOL    HW218021   3.287   2.036   6.296
 5708SOL     OW18022   6.334   0.067   1.956
 5708SOL    HW118023   6.434   0.072   1.956
 5708SOL    HW218024   6.306   7.001   2.002
 5709SOL     OW18025   1.039   1.325   2.384
 5709SOL    HW118026   1.071   1.382   2.460
 5709SOL    HW218027   0.941   1.311   2.392
 5710SOL     OW18028   3.237   4.089   6.396
 5710SOL    HW118029   3.215   4.099   6.299
 5710SOL    HW218030   3.308   4.154   6.422
 5711SOL     OW18031   4.925   1.403   4.871
 5711SOL    HW118032   4.960   1.353   4.950
 5711SOL    HW218033   4.957   1.498   4.876
 5712SOL     OW18034   6.887   6.283   6.673
 5712SOL    HW118035   6.878   6.382   6.685
 5712SOL    HW218036   6.835   6.237   6.745
 5713SOL     OW18037   0.043   2.556   2.792
 5713SOL    HW118038   0.081   2.531   2.703
 5713SOL    HW218039   6.982   2.499   2.812
 5714SOL     OW18040   2.012   0.811   6.377
 5714SOL    HW118041   2.055   0.827   6.466
 5714SOL    HW218042   2.000   0.712   6.364
 5715SOL     OW18043   1.689   6.683   3.325
 5715SOL    HW118044   1.783   6.651   3.321
 5715SOL    HW218045   1.676   6.758   3.259
 5716SOL     OW18046   1.656   2.614   4.962
 5716SOL    HW118047   1.727   2.616   5.031
 5716SOL    HW218048   1.698   2.608   4.871
 5717SOL     OW18049   0.516   3.504   6.940
 5717SOL    HW118050   0.427   3.507   6.985
 5717SOL    HW218051   0.589   3.502   7.008
 5718SOL     OW18052   2.210   5.085   4.774
 5718SOL    HW118053   2.300   5.089   4.732
 5718SOL    HW218054   2.177   4.991   4.775
 5719SOL     OW18055   2.964   0.321   0.136
 5719SOL    HW118056   2.975   0.375   0.053
 5719SOL    HW218057   2.928   0.380   0.209
 5720SOL     OW18058   2.098   5.945   3.990
 5720SOL    HW118059   2.000   5.932   4.004
 5720SOL    HW218060   2.149   5.899   4.063
 5721SOL     OW18061   0.038   4.094   0.455
 5721SOL    HW118062   6.966   4.097   0.498
 5721SOL    HW218063   0.108   4.089   0.527
 5722SOL     OW18064   5.418   1.403   3.928
 5722SOL    HW118065   5.349   1.350   3.877
 5722SOL    HW218066   5.503   1.351   3.932
 5723SOL     OW18067   1.355   4.381   0.660
 5723SOL    HW118068   1.368   4.384   0.561
 5723SOL    HW218069   1.257   4.386   0.680
 5724SOL     OW18070   5.005   2.142   6.386
 5724SOL    HW118071   4.971   2.224   6.341
 5724SOL    HW218072   5.083   2.105   6.335
 5725SOL     OW18073   5.337   5.698   5.840
 5725SOL    HW118074   5.287   5.724   5.757
 5725SOL    HW218075   5.380   5.780   5.879
 5726SOL     OW18076   4.249   3.483   5.575
 5726SOL    HW118077   4.300   3.513   5.495
 5726SOL    HW218078   4.182   3.414   5.548
 5727SOL     OW18079   5.993   2.293   3.869
 5727SOL    HW118080   6.082   2.329   3.841
 5727SOL    HW218081   5.960   2.229   3.799
 5728SOL     OW18082   4.881   0.707   5.951
 5728SOL    HW118083   4.939   0.783   5.922
 5728SOL    HW218084   4.832   0.732   6.034
 5729SOL     OW18085   1.127   3.180   4.901
 5729SOL    HW118086   1.110   3.153   4.996
 5729SOL    HW218087   1.168   3.103   4.852
 5730SOL     OW18088   3.979   5.331   6.926
 5730SOL    HW118089   4.067   5.377   6.924
 5730SOL    HW218090   3.926   5.358   6.846
 5731SOL     OW18091   4.071   1.007   4.652
 5731SOL    HW118092   4.113   1.095   4.674
 5731SOL    HW218093   4.117   0.967   4.573
 5732SOL     OW18094   5.765   3.910   3.902
 5732SOL    HW118095   5.810   3.966   3.971
 5732SOL    HW218096   5.725   3.829   3.945
 5733SOL     OW18097   2.583   0.101   1.243
 5733SOL    HW118098   2.585   0.091   1.143
 5733SOL    HW218099   2.507   0.161   1.268
 5734SOL     OW18100   1.676   6.484   6.452
 5734SOL    HW118101   1.685   6.500   6.550
 5734SOL    HW218102   1.579   6.488   6.426
 5735SOL     OW18103   5.201   0.935   2.154
 5735SOL    HW118104   5.181   1.023   2.111
 5735SOL    HW218105   5.133   0.918   2.225
 5736SOL     OW18106   6.458   4.746   6.950
 5736SOL    HW118107   6.477   4.674   7.016
 5736SOL    HW218108   6.374   4.725   6.901
 5737SOL     OW18109   4.464   5.507   1.627
 5737SOL    HW118110   4.368   5.479   1.631
 5737SOL    HW218111   4.473   5.591   1.574
 5738SOL     OW18112   2.263   0.673   0.812
 5738SOL    HW118113   2.191   0.609   0.836
 5738SOL    HW218114   2.223   0.759   0.780
 5739SOL     OW18115   2.483   1.382   5.793
 5739SOL    HW118116   2.524   1.379   5.702
 5739SOL    HW218117   2.555   1.388   5.862
 5740SOL     OW18118   5.077   3.440   2.491
 5740SOL    HW118119   5.102   3.356   2.540
 5740SOL    HW218120   5.018   3.417   2.414
 5741SOL     OW18121   0.039   3.437   3.977
 5741SOL    HW118122   0.039   3.357   4.038
 5741SOL    HW218123   6.963   3.467   3.963
 5742SOL     OW18124   5.568   0.149   3.580
 5742SOL    HW118125   5.534   0.134   3.488
 5742SOL    HW218126   5.514   0.095   3.645
 5743SOL     OW18127   3.537   5.295   6.910
 5743SOL    HW118128   3.542   5.370   6.844
 5743SOL    HW218129   3.573   5.211   6.868
 5744SOL     OW18130   5.223   6.837   3.138
 5744SOL    HW118131   5.187   6.928   3.162
 5744SOL    HW218132   5.158   6.767   3.168
 5745SOL     OW18133   1.150   2.876   1.740
 5745SOL    HW118134   1.081   2.811   1.772
 5745SOL    HW218135   1.237   2.856   1.786
 5746SOL     OW18136   4.995   6.669   3.243
 5746SOL    HW118137   4.943   6.654   3.159
 5746SOL    HW218138   4.953   6.619   3.318
 5747SOL     OW18139   1.521   6.928   0.677
 5747SOL    HW118140   1.479   6.850   0.723
 5747SOL    HW218141   1.611   6.945   0.715
 5748SOL     OW18142   6.948   6.223   0.918
 5748SOL    HW118143   6.948   6.147   0.853
 5748SOL    HW218144   6.947   6.188   1.011
 5749SOL     OW18145   2.034   5.593   6.240
 5749SOL    HW118146   1.946   5.598   6.192
 5749SOL    HW218147   2.038   5.510   6.294
 5750SOL     OW18148   0.131   3.000   4.865
 5750SOL    HW118149   0.111   2.909   4.829
 5750SOL    HW218150   0.078   3.015   4.948
 5751SOL     OW18151   1.215   3.873   4.714
 5751SOL    HW118152   1.219   3.811   4.792
 5751SOL    HW218153   1.303   3.922   4.706
 5752SOL     OW18154   5.058   0.625   0.957
 5752SOL    HW118155   5.035   0.721   0.974
 5752SOL    HW218156   5.005   0.590   0.880
 5753SOL     OW18157   3.882   4.156   5.047
 5753SOL    HW118158   3.859   4.135   4.953
 5753SOL    HW218159   3.977   4.188   5.052
 5754SOL     OW18160   0.870   5.896   1.478
 5754SOL    HW118161   0.848   5.987   1.513
 5754SOL    HW218162   0.906   5.904   1.385
 5755SOL     OW18163   1.144   2.577   6.433
 5755SOL    HW118164   1.129   2.669   6.396
 5755SOL    HW218165   1.060   2.523   6.423
 5756SOL     OW18166   5.891   6.113   1.825
 5756SOL    HW118167   5.836   6.150   1.750
 5756SOL    HW218168   5.832   6.062   1.888
 5757SOL     OW18169   6.764   1.043   4.127
 5757SOL    HW118170   6.771   1.017   4.031
 5757SOL    HW218171   6.831   1.114   4.148
 5758SOL     OW18172   5.913   6.720   3.180
 5758SOL    HW118173   5.937   6.814   3.205
 5758SOL    HW218174   5.827   6.694   3.225
 5759SOL     OW18175   2.829   0.334   1.327
 5759SOL    HW118176   2.798   0.398   1.257
 5759SOL    HW218177   2.847   0.245   1.285
 5760SOL     OW18178   1.743   2.779   6.988
 5760SOL    HW118179   1.710   2.766   0.063
 5760SOL    HW218180   1.810   2.854   6.987
 5761SOL     OW18181   6.304   0.239   4.831
 5761SOL    HW118182   6.356   0.161   4.796
 5761SOL    HW218183   6.220   0.250   4.778
 5762SOL     OW18184   0.392   5.421   6.779
 5762SOL    HW118185   0.423   5.355   6.847
 5762SOL    HW218186   0.358   5.503   6.826
 5763SOL     OW18187   5.879   0.222   0.294
 5763SOL    HW118188   5.823   0.284   0.239
 5763SOL    HW218189   5.837   0.211   0.384
 5764SOL     OW18190   5.069   6.333   4.032
 5764SOL    HW118191   4.975   6.363   4.015
 5764SOL    HW218192   5.086   6.248   3.983
 5765SOL     OW18193   6.070   5.086   2.518
 5765SOL    HW118194   6.158   5.068   2.561
 5765SOL    HW218195   6.047   5.011   2.457
 5766SOL     OW18196   0.214   1.031   4.372
 5766SOL    HW118197   0.305   1.028   4.415
 5766SOL    HW218198   0.146   1.060   4.440
 5767SOL     OW18199   4.022   6.477   6.802
 5767SOL    HW118200   3.925   6.456   6.816
 5767SOL    HW218201   4.057   6.524   6.883
 5768SOL     OW18202   0.685   0.673   5.390
 5768SOL    HW118203   0.623   0.652   5.315
 5768SOL    HW218204   0.766   0.614   5.385
 5769SOL     OW18205   2.016   4.064   5.385
 5769SOL    HW118206   2.075   3.986   5.362
 5769SOL    HW218207   1.991   4.058   5.481
 5770SOL     OW18208   2.074   4.193   1.730
 5770SOL    HW118209   2.044   4.192   1.826
 5770SOL    HW218210   2.076   4.288   1.698
 5771SOL     OW18211   3.577   4.892   4.009
 5771SOL    HW118212   3.604   4.875   3.914
 5771SOL    HW218213   3.478   4.908   4.014
 5772SOL     OW18214   3.231   0.177   2.258
 5772SOL    HW118215   3.255   0.148   2.350
 5772SOL    HW218216   3.149   0.236   2.262
 5773SOL     OW18217   5.062   1.470   2.581
 5773SOL    HW118218   5.122   1.502   2.508
 5773SOL    HW218219   5.118   1.426   2.652
 5774SOL     OW18220   0.604   6.718   2.237
 5774SOL    HW118221   0.577   6.658   2.161
 5774SOL    HW218222   0.527   6.778   2.260
 5775SOL     OW18223   6.296   5.439   1.208
 5775SOL    HW118224   6.269   5.526   1.250
 5775SOL    HW218225   6.223   5.372   1.221
 5776SOL     OW18226   2.559   1.091   4.130
 5776SOL    HW118227   2.516   1.149   4.199
 5776SOL    HW218228   2.491   1.029   4.091
 5777SOL     OW18229   1.738   6.529   2.397
 5777SOL    HW118230   1.647   6.568   2.411
 5777SOL    HW218231   1.793   6.591   2.342
 5778SOL     OW18232   0.775   1.665   0.704
 5778SOL    HW118233   0.856   1.648   0.648
 5778SOL    HW218234   0.798   1.651   0.800
 5779SOL     OW18235   5.816   1.168   5.971
 5779SOL    HW118236   5.833   1.076   6.005
 5779SOL    HW218237   5.882   1.231   6.011
 5780SOL     OW18238   4.941   5.178   4.207
 5780SOL    HW118239   4.922   5.161   4.304
 5780SOL    HW218240   4.856   5.207   4.161
 5781SOL     OW18241   0.801   4.999   5.188
 5781SOL    HW118242   0.868   5.063   5.150
 5781SOL    HW218243   0.738   4.970   5.116
 5782SOL     OW18244   0.375   0.572   0.658
 5782SOL    HW118245   0.412   0.640   0.594
 5782SOL    HW218246   0.421   0.582   0.747
 5783SOL     OW18247   1.847   1.972   0.888
 5783SOL    HW118248   1.805   1.991   0.977
 5783SOL    HW218249   1.908   2.047   0.864
 5784SOL     OW18250   6.863   5.877   6.651
 5784SOL    HW118251   6.773   5.918   6.634
 5784SOL    HW218252   6.908   5.859   6.563
 5785SOL     OW18253   0.699   1.164   0.564
 5785SOL    HW118254   0.712   1.259   0.535
 5785SOL    HW218255   0.760   1.144   0.641
 5786SOL     OW18256   5.780   5.223   1.650
 5786SOL    HW118257   5.768   5.308   1.598
 5786SOL    HW218258   5.797   5.245   1.746
 5787SOL     OW18259   2.400   2.829   6.136
 5787SOL    HW118260   2.435   2.833   6.230
 5787SOL    HW218261   2.473   2.852   6.072
 5788SOL     OW18262   2.552   0.990   3.665
 5788SOL    HW118263   2.613   0.916   3.696
 5788SOL    HW218264   2.470   0.950   3.624
 5789SOL     OW18265   3.945   4.722   6.066
 5789SOL    HW118266   3.912   4.637   6.106
 5789SOL    HW218267   3.884   4.751   5.993
 5790SOL     OW18268   0.929   3.295   3.477
 5790SOL    HW118269   0.880   3.232   3.537
 5790SOL    HW218270   0.948   3.250   3.390
 5791SOL     OW18271   2.227   0.736   2.928
 5791SOL    HW118272   2.200   0.640   2.922
 5791SOL    HW218273   2.224   0.766   3.023
 5792SOL     OW18274   0.135   2.430   2.591
 5792SOL    HW118275   0.154   2.422   2.493
 5792SOL    HW218276   0.056   2.374   2.615
 5793SOL     OW18277   0.209   0.571   4.052
 5793SOL    HW118278   0.153   0.511   3.994
 5793SOL    HW218279   0.214   0.661   4.010
 5794SOL     OW18280   4.789   4.513   6.722
 5794SOL    HW118281   4.777   4.446   6.648
 5794SOL    HW218282   4.699   4.540   6.757
 5795SOL     OW18283   5.861   4.371   6.819
 5795SOL    HW118284   5.959   4.349   6.818
 5795SOL    HW218285   5.817   4.327   6.741
 5796SOL     OW18286   3.799   2.167   0.407
 5796SOL    HW118287   3.791   2.093   0.474
 5796SOL    HW218288   3.770   2.135   0.317
 5797SOL     OW18289   3.027   1.934   5.701
 5797SOL    HW118290   3.112   1.982   5.676
 5797SOL    HW218291   2.952   2.000   5.705
 5798SOL     OW18292   6.717   4.625   4.301
 5798SOL    HW118293   6.676   4.536   4.320
 5798SOL    HW218294   6.704   4.648   4.204
 5799SOL     OW18295   5.663   0.326   3.856
 5799SOL    HW118296   5.685   0.229   3.864
 5799SOL    HW218297   5.595   0.338   3.783
 5800SOL     OW18298   5.663   5.294   1.041
 5800SOL    HW118299   5.714   5.226   1.094
 5800SOL    HW218300   5.578   5.252   1.006
 5801SOL     OW18301   2.488   1.422   3.324
 5801SOL    HW118302   2.428   1.499   3.347
 5801SOL    HW218303   2.443   1.336   3.347
 5802SOL     OW18304   0.725   3.305   5.082
 5802SOL    HW118305   0.667   3.227   5.059
 5802SOL    HW218306   0.807   3.272   5.129
 5803SOL     OW18307   1.748   4.351   0.245
 5803SOL    HW118308   1.839   4.311   0.232
 5803SOL    HW218309   1.715   4.326   0.336
 5804SOL     OW18310   6.423   3.326   4.886
 5804SOL    HW118311   6.429   3.241   4.937
 5804SOL    HW218312   6.496   3.388   4.915
 5805SOL     OW18313   5.389   3.339   0.019
 5805SOL    HW118314   5.307   3.391   7.012
 5805SOL    HW218315   5.374   3.296   0.108
 5806SOL     OW18316   0.210   6.400   0.301
 5806SOL    HW118317   0.176   6.311   0.330
 5806SOL    HW218318   0.308   6.406   0.323
 5807SOL     OW18319   2.043   3.634   1.806
 5807SOL    HW118320   2.103   3.580   1.865
 5807SOL    HW218321   2.004   3.710   1.858
 5808SOL     OW18322   6.893   3.612   2.946
 5808SOL    HW118323   6.925   3.699   2.983
 5808SOL    HW218324   6.817   3.629   2.883
 5809SOL     OW18325   6.441   3.356   4.140
 5809SOL    HW118326   6.361   3.298   4.155
 5809SOL    HW218327   6.492   3.365   4.225
 5810SOL     OW18328   2.620   2.281   2.353
 5810SOL    HW118329   2.586   2.355   2.295
 5810SOL    HW218330   2.562   2.201   2.341
 5811SOL     OW18331   2.275   1.585   3.457
 5811SOL    HW118332   2.309   1.604   3.549
 5811SOL    HW218333   2.198   1.522   3.462
 5812SOL     OW18334   4.240   0.647   4.775
 5812SOL    HW118335   4.216   0.563   4.725
 5812SOL    HW218336   4.335   0.670   4.759
 5813SOL     OW18337   1.558   0.465   5.302
 5813SOL    HW118338   1.519   0.516   5.226
 5813SOL    HW218339   1.517   0.374   5.306
 5814SOL     OW18340   0.248   5.284   0.860
 5814SOL    HW118341   0.151   5.279   0.840
 5814SOL    HW218342   0.262   5.276   0.959
 5815SOL     OW18343   3.123   1.804   2.836
 5815SOL    HW118344   3.152   1.828   2.743
 5815SOL    HW218345   3.036   1.756   2.832
 5816SOL     OW18346   4.864   0.525   0.800
 5816SOL    HW118347   4.787   0.464   0.819
 5816SOL    HW218348   4.889   0.516   0.703
 5817SOL     OW18349   5.189   2.134   4.924
 5817SOL    HW118350   5.237   2.178   4.848
 5817SOL    HW218351   5.186   2.196   5.002
 5818SOL     OW18352   6.106   6.193   6.152
 5818SOL    HW118353   6.119   6.094   6.153
 5818SOL    HW218354   6.175   6.235   6.093
 5819SOL     OW18355   6.236   0.150   1.252
 5819SOL    HW118356   6.245   0.119   1.346
 5819SOL    HW218357   6.193   0.241   1.250
 5820SOL     OW18358   5.323   6.347   3.229
 5820SOL    HW118359   5.318   6.379   3.323
 5820SOL    HW218360   5.235   6.361   3.184
 5821SOL     OW18361   2.832   0.771   1.706
 5821SOL    HW118362   2.816   0.721   1.791
 5821SOL    HW218363   2.928   0.764   1.681
 5822SOL     OW18364   0.111   1.362   2.176
 5822SOL    HW118365   0.073   1.274   2.148
 5822SOL    HW218366   0.096   1.430   2.105
 5823SOL     OW18367   2.827   2.050   4.082
 5823SOL    HW118368   2.749   2.038   4.022
 5823SOL    HW218369   2.802   2.023   4.175
 5824SOL     OW18370   4.896   0.132   3.907
 5824SOL    HW118371   4.917   0.225   3.877
 5824SOL    HW218372   4.804   0.107   3.878
 5825SOL     OW18373   2.539   0.611   0.948
 5825SOL    HW118374   2.460   0.648   0.898
 5825SOL    HW218375   2.550   0.661   1.034
 5826SOL     OW18376   6.749   0.776   4.737
 5826SOL    HW118377   6.843   0.742   4.734
 5826SOL    HW218378   6.730   0.813   4.828
 5827SOL     OW18379   1.078   5.461   4.782
 5827SOL    HW118380   1.011   5.403   4.828
 5827SOL    HW218381   1.157   5.475   4.842
 5828SOL     OW18382   0.251   3.424   1.924
 5828SOL    HW118383   0.327   3.489   1.937
 5828SOL    HW218384   0.264   3.375   1.838
 5829SOL     OW18385   1.485   1.437   1.972
 5829SOL    HW118386   1.568   1.389   1.942
 5829SOL    HW218387   1.511   1.520   2.021
 5830SOL     OW18388   2.082   1.671   5.856
 5830SOL    HW118389   2.005   1.639   5.802
 5830SOL    HW218390   2.125   1.749   5.811
 5831SOL     OW18391   5.463   6.473   3.002
 5831SOL    HW118392   5.412   6.432   3.078
 5831SOL    HW218393   5.401   6.525   2.944
 5832SOL     OW18394   3.657   3.771   4.997
 5832SOL    HW118395   3.634   3.825   4.915
 5832SOL    HW218396   3.740   3.808   5.039
 5833SOL     OW18397   3.634   3.245   4.877
 5833SOL    HW118398   3.642   3.206   4.785
 5833SOL    HW218399   3.605   3.340   4.869
 5834SOL     OW18400   6.004   1.095   0.621
 5834SOL    HW118401   5.938   1.121   0.551
 5834SOL    HW218402   6.079   1.161   0.623
 5835SOL     OW18403   5.142   2.413   4.173
 5835SOL    HW118404   5.075   2.407   4.098
 5835SOL    HW218405   5.224   2.460   4.140
 5836SOL     OW18406   3.404   6.131   2.593
 5836SOL    HW118407   3.337   6.184   2.542
 5836SOL    HW218408   3.456   6.073   2.529
 5837SOL     OW18409   4.507   4.610   6.471
 5837SOL    HW118410   4.520   4.517   6.438
 5837SOL    HW218411   4.413   4.639   6.452
 5838SOL     OW18412   0.958   0.993   5.490
 5838SOL    HW118413   0.940   1.070   5.552
 5838SOL    HW218414   1.004   1.026   5.408
 5839SOL     OW18415   0.125   3.280   2.698
 5839SOL    HW118416   0.047   3.268   2.759
 5839SOL    HW218417   0.172   3.193   2.687
 5840SOL     OW18418   1.951   4.960   6.423
 5840SOL    HW118419   1.883   4.980   6.352
 5840SOL    HW218420   1.915   4.987   6.512
 5841SOL     OW18421   6.965   2.167   3.295
 5841SOL    HW118422   0.006   2.181   3.375
 5841SOL    HW218423   6.877   2.212   3.310
 5842SOL     OW18424   3.616   3.503   0.728
 5842SOL    HW118425   3.630   3.563   0.806
 5842SOL    HW218426   3.691   3.437   0.722
 5843SOL     OW18427   1.493   3.554   1.886
 5843SOL    HW118428   1.581   3.571   1.842
 5843SOL    HW218429   1.421   3.603   1.837
 5844SOL     OW18430   0.858   6.260   6.764
 5844SOL    HW118431   0.850   6.177   6.708
 5844SOL    HW218432   0.895   6.334   6.709
 5845SOL     OW18433   0.896   2.256   4.425
 5845SOL    HW118434   0.884   2.355   4.415
 5845SOL    HW218435   0.989   2.237   4.457
 5846SOL     OW18436   6.798   2.942   6.172
 5846SOL    HW118437   6.892   2.926   6.200
 5846SOL    HW218438   6.765   2.864   6.119
 5847SOL     OW18439   2.292   2.643   2.915
 5847SOL    HW118440   2.204   2.679   2.947
 5847SOL    HW218441   2.358   2.645   2.990
 5848SOL     OW18442   1.405   4.362   3.727
 5848SOL    HW118443   1.477   4.295   3.711
 5848SOL    HW218444   1.340   4.325   3.793
 5849SOL     OW18445   2.473   6.680   5.517
 5849SOL    HW118446   2.398   6.617   5.538
 5849SOL    HW218447   2.455   6.769   5.560
 5850SOL     OW18448   0.924   4.738   2.790
 5850SOL    HW118449   0.902   4.689   2.873
 5850SOL    HW218450   0.841   4.755   2.737
 5851SOL     OW18451   6.415   3.365   2.077
 5851SOL    HW118452   6.365   3.440   2.120
 5851SOL    HW218453   6.357   3.318   2.011
 5852SOL     OW18454   4.046   5.541   2.806
 5852SOL    HW118455   4.020   5.536   2.902
 5852SOL    HW218456   3.982   5.488   2.751
 5853SOL     OW18457   3.452   4.441   5.890
 5853SOL    HW118458   3.418   4.347   5.888
 5853SOL    HW218459   3.386   4.499   5.937
 5854SOL     OW18460   7.012   1.164   6.279
 5854SOL    HW118461   6.957   1.207   6.207
 5854SOL    HW218462   0.087   1.151   6.247
 5855SOL     OW18463   1.757   0.799   4.872
 5855SOL    HW118464   1.744   0.857   4.792
 5855SOL    HW218465   1.696   0.829   4.945
 5856SOL     OW18466   1.877   4.748   3.751
 5856SOL    HW118467   1.894   4.845   3.766
 5856SOL    HW218468   1.915   4.695   3.828
 5857SOL     OW18469   6.823   2.936   5.400
 5857SOL    HW118470   6.918   2.948   5.430
 5857SOL    HW218471   6.800   3.008   5.334
 5858SOL     OW18472   3.776   0.661   2.421
 5858SOL    HW118473   3.747   0.704   2.336
 5858SOL    HW218474   3.839   0.721   2.470
 5859SOL     OW18475   6.324   6.550   1.057
 5859SOL    HW118476   6.258   6.486   1.096
 5859SOL    HW218477   6.331   6.631   1.114
 5860SOL     OW18478   1.576   3.489   0.968
 5860SOL    HW118479   1.634   3.515   0.891
 5860SOL    HW218480   1.592   3.551   1.045
 5861SOL     OW18481   6.140   2.442   4.192
 5861SOL    HW118482   6.078   2.520   4.202
 5861SOL    HW218483   6.129   2.402   4.102
 5862SOL     OW18484   4.786   4.187   2.691
 5862SOL    HW118485   4.809   4.095   2.724
 5862SOL    HW218486   4.818   4.255   2.757
 5863SOL     OW18487   2.278   1.468   7.012
 5863SOL    HW118488   2.196   1.476   6.955
 5863SOL    HW218489   2.355   1.442   6.954
 5864SOL     OW18490   4.712   4.884   1.187
 5864SOL    HW118491   4.693   4.844   1.276
 5864SOL    HW218492   4.626   4.918   1.147
 5865SOL     OW18493   3.961   0.475   3.013
 5865SOL    HW118494   4.044   0.530   2.999
 5865SOL    HW218495   3.888   0.533   3.050
 5866SOL     OW18496   4.006   0.280   6.493
 5866SOL    HW118497   4.046   0.303   6.404
 5866SOL    HW218498   4.035   0.187   6.519
 5867SOL     OW18499   0.330   2.439   1.475
 5867SOL    HW118500   0.392   2.456   1.398
 5867SOL    HW218501   0.383   2.432   1.559
 5868SOL     OW18502   1.582   6.847   5.198
 5868SOL    HW118503   1.600   6.751   5.176
 5868SOL    HW218504   1.667   6.899   5.193
 5869SOL     OW18505   2.706   4.770   3.362
 5869SOL    HW118506   2.747   4.804   3.277
 5869SOL    HW218507   2.641   4.697   3.341
 5870SOL     OW18508   5.304   4.956   5.015
 5870SOL    HW118509   5.346   4.936   4.926
 5870SOL    HW218510   5.211   4.920   5.017
 5871SOL     OW18511   3.033   3.086   6.921
 5871SOL    HW118512   3.035   3.005   6.980
 5871SOL    HW218513   2.939   3.108   6.898
 5872SOL     OW18514   3.158   6.197   5.101
 5872SOL    HW118515   3.235   6.134   5.097
 5872SOL    HW218516   3.164   6.252   5.184
 5873SOL     OW18517   2.678   3.593   0.118
 5873SOL    HW118518   2.651   3.687   0.100
 5873SOL    HW218519   2.680   3.577   0.217
 5874SOL     OW18520   1.537   4.097   0.863
 5874SOL    HW118521   1.583   4.064   0.945
 5874SOL    HW218522   1.495   4.019   0.815
 5875SOL     OW18523   4.238   1.828   0.082
 5875SOL    HW118524   4.190   1.741   0.073
 5875SOL    HW218525   4.173   1.900   0.107
 5876SOL     OW18526   3.149   4.700   5.782
 5876SOL    HW118527   3.231   4.714   5.837
 5876SOL    HW218528   3.097   4.623   5.819
 5877SOL     OW18529   0.254   6.781   3.051
 5877SOL    HW118530   0.192   6.859   3.052
 5877SOL    HW218531   0.203   6.698   3.031
 5878SOL     OW18532   5.145   4.560   2.290
 5878SOL    HW118533   5.075   4.553   2.361
 5878SOL    HW218534   5.115   4.509   2.210
 5879SOL     OW18535   3.690   3.244   5.682
 5879SOL    HW118536   3.703   3.155   5.727
 5879SOL    HW218537   3.725   3.240   5.589
 5880SOL     OW18538   5.570   2.628   5.948
 5880SOL    HW118539   5.608   2.672   5.866
 5880SOL    HW218540   5.542   2.698   6.014
 5881SOL     OW18541   1.401   6.323   2.461
 5881SOL    HW118542   1.309   6.292   2.483
 5881SOL    HW218543   1.446   6.357   2.544
 5882SOL     OW18544   1.373   5.018   5.449
 5882SOL    HW118545   1.353   4.951   5.377
 5882SOL    HW218546   1.424   4.973   5.522
 5883SOL     OW18547   6.698   4.804   0.519
 5883SOL    HW118548   6.752   4.738   0.572
 5883SOL    HW218549   6.724   4.897   0.545
 5884SOL     OW18550   6.341   2.284   2.821
 5884SOL    HW118551   6.266   2.253   2.879
 5884SOL    HW218552   6.372   2.374   2.853
 5885SOL     OW18553   6.494   5.728   0.177
 5885SOL    HW118554   6.435   5.809   0.184
 5885SOL    HW218555   6.445   5.648   0.209
 5886SOL     OW18556   2.212   4.158   3.484
 5886SOL    HW118557   2.275   4.236   3.475
 5886SOL    HW218558   2.140   4.181   3.549
 5887SOL     OW18559   2.618   2.783   0.734
 5887SOL    HW118560   2.698   2.756   0.681
 5887SOL    HW218561   2.622   2.739   0.824
 5888SOL     OW18562   3.511   6.688   1.229
 5888SOL    HW118563   3.425   6.659   1.271
 5888SOL    HW218564   3.556   6.755   1.288
 5889SOL     OW18565   6.025   1.157   1.945
 5889SOL    HW118566   6.105   1.179   1.888
 5889SOL    HW218567   6.016   1.058   1.952
 5890SOL     OW18568   1.441   5.548   2.688
 5890SOL    HW118569   1.504   5.536   2.611
 5890SOL    HW218570   1.419   5.459   2.727
 5891SOL     OW18571   2.510   3.473   6.951
 5891SOL    HW118572   2.479   3.385   6.989
 5891SOL    HW218573   2.579   3.512   7.011
 5892SOL     OW18574   1.351   3.066   0.262
 5892SOL    HW118575   1.260   3.087   0.298
 5892SOL    HW218576   1.410   3.038   0.338
 5893SOL     OW18577   0.945   6.455   1.211
 5893SOL    HW118578   1.014   6.517   1.248
 5893SOL    HW218579   0.855   6.478   1.248
 5894SOL     OW18580   2.242   5.528   6.660
 5894SOL    HW118581   2.308   5.511   6.586
 5894SOL    HW218582   2.204   5.620   6.651
 5895SOL     OW18583   5.226   4.081   3.978
 5895SOL    HW118584   5.222   4.181   3.975
 5895SOL    HW218585   5.292   4.048   3.910
 5896SOL     OW18586   5.921   2.481   2.683
 5896SOL    HW118587   5.973   2.420   2.623
 5896SOL    HW218588   5.900   2.566   2.634
 5897SOL     OW18589   4.065   2.292   0.026
 5897SOL    HW118590   3.997   2.302   0.098
 5897SOL    HW218591   4.026   2.317   6.956
 5898SOL     OW18592   2.073   1.335   5.882
 5898SOL    HW118593   2.092   1.429   5.911
 5898SOL    HW218594   2.043   1.282   5.961
 5899SOL     OW18595   0.150   6.557   6.508
 5899SOL    HW118596   0.215   6.593   6.441
 5899SOL    HW218597   0.192   6.559   6.599
 5900SOL     OW18598   5.819   6.408   3.346
 5900SOL    HW118599   5.785   6.478   3.283
 5900SOL    HW218600   5.742   6.365   3.393
 5901SOL     OW18601   2.600   0.766   5.094
 5901SOL    HW118602   2.651   0.784   5.010
 5901SOL    HW218603   2.510   0.808   5.088
 5902SOL     OW18604   4.490   4.186   6.093
 5902SOL    HW118605   4.457   4.093   6.076
 5902SOL    HW218606   4.519   4.227   6.007
 5903SOL     OW18607   6.158   1.987   5.522
 5903SOL    HW118608   6.154   1.904   5.577
 5903SOL    HW218609   6.072   2.037   5.530
 5904SOL     OW18610   1.231   4.828   1.823
 5904SOL    HW118611   1.264   4.879   1.744
 5904SOL    HW218612   1.180   4.748   1.793
 5905SOL     OW18613   5.707   1.118   4.287
 5905SOL    HW118614   5.655   1.162   4.361
 5905SOL    HW218615   5.801   1.102   4.317
 5906SOL     OW18616   4.890   1.023   5.780
 5906SOL    HW118617   4.896   1.097   5.713
 5906SOL    HW218618   4.828   1.050   5.854
 5907SOL     OW18619   1.632   3.616   5.254
 5907SOL    HW118620   1.624   3.516   5.252
 5907SOL    HW218621   1.655   3.646   5.346
 5908SOL     OW18622   5.305   3.380   6.582
 5908SOL    HW118623   5.289   3.351   6.487
 5908SOL    HW218624   5.397   3.351   6.611
 5909SOL     OW18625   6.702   4.523   3.805
 5909SOL    HW118626   6.686   4.607   3.754
 5909SOL    HW218627   6.692   4.444   3.744
 5910SOL     OW18628   2.593   4.678   0.845
 5910SOL    HW118629   2.562   4.609   0.911
 5910SOL    HW218630   2.520   4.745   0.830
 5911SOL     OW18631   5.325   6.789   6.905
 5911SOL    HW118632   5.322   6.856   6.979
 5911SOL    HW218633   5.406   6.805   6.849
 5912SOL     OW18634   0.002   3.038   5.923
 5912SOL    HW118635   6.966   3.114   5.959
 5912SOL    HW218636   0.047   2.990   5.999
 5913SOL     OW18637   1.228   1.970   5.398
 5913SOL    HW118638   1.195   1.883   5.362
 5913SOL    HW218639   1.326   1.977   5.383
 5914SOL     OW18640   1.914   6.015   1.248
 5914SOL    HW118641   1.951   5.995   1.157
 5914SOL    HW218642   1.816   5.998   1.249
 5915SOL     OW18643   5.256   3.010   3.296
 5915SOL    HW118644   5.311   2.929   3.315
 5915SOL    HW218645   5.173   3.008   3.352
 5916SOL     OW18646   3.293   0.083   6.281
 5916SOL    HW118647   3.201   0.117   6.263
 5916SOL    HW218648   3.294   7.002   6.278
 5917SOL     OW18649   3.968   3.087   2.618
 5917SOL    HW118650   3.933   3.157   2.557
 5917SOL    HW218651   4.035   3.128   2.681
 5918SOL     OW18652   2.252   2.857   3.664
 5918SOL    HW118653   2.168   2.890   3.708
 5918SOL    HW218654   2.302   2.797   3.726
 5919SOL     OW18655   1.299   2.744   0.095
 5919SOL    HW118656   1.338   2.701   0.014
 5919SOL    HW218657   1.372   2.765   0.161
 5920SOL     OW18658   3.171   5.455   6.895
 5920SOL    HW118659   3.181   5.525   6.824
 5920SOL    HW218660   3.154   5.367   6.851
 5921SOL     OW18661   3.974   5.301   5.399
 5921SOL    HW118662   4.066   5.317   5.434
 5921SOL    HW218663   3.961   5.352   5.314
 5922SOL     OW18664   5.812   4.146   1.862
 5922SOL    HW118665   5.820   4.198   1.948
 5922SOL    HW218666   5.754   4.196   1.798
 5923SOL     OW18667   0.248   6.997   3.419
 5923SOL    HW118668   0.203   0.041   3.356
 5923SOL    HW218669   0.266   6.910   3.373
 5924SOL     OW18670   5.552   2.208   4.192
 5924SOL    HW118671   5.591   2.264   4.119
 5924SOL    HW218672   5.520   2.266   4.266
 5925SOL     OW18673   6.388   6.065   1.076
 5925SOL    HW118674   6.367   6.122   0.997
 5925SOL    HW218675   6.370   5.969   1.054
 5926SOL     OW18676   3.740   4.885   2.160
 5926SOL    HW118677   3.751   4.982   2.140
 5926SOL    HW218678   3.668   4.847   2.102
 5927SOL     OW18679   2.367   5.576   2.002
 5927SOL    HW118680   2.294   5.613   2.060
 5927SOL    HW218681   2.334   5.566   1.908
 5928SOL     OW18682   1.085   6.544   1.794
 5928SOL    HW118683   1.084   6.521   1.891
 5928SOL    HW218684   1.007   6.501   1.749
 5929SOL     OW18685   1.598   6.906   5.682
 5929SOL    HW118686   1.612   6.860   5.770
 5929SOL    HW218687   1.536   6.851   5.625
 5930SOL     OW18688   0.043   1.547   5.239
 5930SOL    HW118689   6.987   1.605   5.274
 5930SOL    HW218690   0.039   1.457   5.284
 5931SOL     OW18691   5.404   5.491   1.477
 5931SOL    HW118692   5.435   5.406   1.519
 5931SOL    HW218693   5.440   5.569   1.529
 5932SOL     OW18694   2.092   6.696   0.098
 5932SOL    HW118695   2.093   6.624   0.167
 5932SOL    HW218696   2.182   6.702   0.055
 5933SOL     OW18697   6.171   3.515   2.760
 5933SOL    HW118698   6.126   3.426   2.750
 5933SOL    HW218699   6.209   3.523   2.852
 5934SOL     OW18700   3.758   4.098   3.188
 5934SOL    HW118701   3.760   4.058   3.097
 5934SOL    HW218702   3.670   4.143   3.203
 5935SOL     OW18703   3.809   2.920   3.154
 5935SOL    HW118704   3.791   2.920   3.252
 5935SOL    HW218705   3.747   2.856   3.109
 5936SOL     OW18706   5.847   5.890   6.342
 5936SOL    HW118707   5.836   5.922   6.436
 5936SOL    HW218708   5.859   5.968   6.281
 5937SOL     OW18709   1.017   3.726   0.746
 5937SOL    HW118710   0.939   3.783   0.721
 5937SOL    HW218711   1.049   3.752   0.837
 5938SOL     OW18712   1.866   4.000   1.291
 5938SOL    HW118713   1.845   4.097   1.276
 5938SOL    HW218714   1.810   3.965   1.366
 5939SOL     OW18715   2.515   0.595   3.017
 5939SOL    HW118716   2.549   0.676   3.065
 5939SOL    HW218717   2.555   0.591   2.926
 5940SOL     OW18718   4.437   5.237   3.817
 5940SOL    HW118719   4.375   5.281   3.752
 5940SOL    HW218720   4.531   5.248   3.786
 5941SOL     OW18721   6.352   4.448   2.443
 5941SOL    HW118722   6.310   4.494   2.364
 5941SOL    HW218723   6.317   4.354   2.449
 5942SOL     OW18724   5.922   1.649   5.473
 5942SOL    HW118725   6.016   1.614   5.481
 5942SOL    HW218726   5.862   1.575   5.442
 5943SOL     OW18727   1.242   5.371   6.879
 5943SOL    HW118728   1.206   5.440   6.817
 5943SOL    HW218729   1.229   5.400   6.973
 5944SOL     OW18730   4.433   1.806   2.429
 5944SOL    HW118731   4.349   1.799   2.483
 5944SOL    HW218732   4.505   1.752   2.472
 5945SOL     OW18733   0.305   4.834   5.721
 5945SOL    HW118734   0.334   4.925   5.689
 5945SOL    HW218735   0.362   4.806   5.798
 5946SOL     OW18736   3.935   2.805   5.242
 5946SOL    HW118737   3.866   2.768   5.305
 5946SOL    HW218738   4.026   2.775   5.271
 5947SOL     OW18739   4.337   3.464   1.734
 5947SOL    HW118740   4.239   3.476   1.751
 5947SOL    HW218741   4.363   3.514   1.652
 5948SOL     OW18742   4.032   4.781   2.885
 5948SOL    HW118743   4.105   4.816   2.944
 5948SOL    HW218744   3.947   4.828   2.905
 5949SOL     OW18745   4.680   4.789   2.160
 5949SOL    HW118746   4.663   4.692   2.173
 5949SOL    HW218747   4.758   4.801   2.098
 5950SOL     OW18748   6.332   2.654   3.673
 5950SOL    HW118749   6.279   2.616   3.597
 5950SOL    HW218750   6.429   2.631   3.661
 5951SOL     OW18751   2.085   6.088   3.553
 5951SOL    HW118752   1.986   6.102   3.545
 5951SOL    HW218753   2.131   6.140   3.481
 5952SOL     OW18754   6.973   6.942   4.723
 5952SOL    HW118755   6.987   0.013   4.765
 5952SOL    HW218756   0.028   6.880   4.753
 5953SOL     OW18757   0.240   2.939   6.373
 5953SOL    HW118758   0.253   2.890   6.460
 5953SOL    HW218759   0.329   2.964   6.335
 5954SOL     OW18760   1.211   4.843   6.662
 5954SOL    HW118761   1.131   4.853   6.602
 5954SOL    HW218762   1.195   4.893   6.747
 5955SOL     OW18763   5.332   5.675   2.811
 5955SOL    HW118764   5.430   5.673   2.826
 5955SOL    HW218765   5.294   5.583   2.824
 5956SOL     OW18766   6.274   2.496   0.052
 5956SOL    HW118767   6.247   2.563   0.121
 5956SOL    HW218768   6.367   2.465   0.070
 5957SOL     OW18769   5.121   6.757   5.876
 5957SOL    HW118770   5.023   6.743   5.888
 5957SOL    HW218771   5.168   6.735   5.962
 5958SOL     OW18772   0.736   5.875   2.439
 5958SOL    HW118773   0.662   5.923   2.486
 5958SOL    HW218774   0.792   5.827   2.506
 5959SOL     OW18775   2.052   1.382   6.352
 5959SOL    HW118776   2.058   1.430   6.265
 5959SOL    HW218777   2.143   1.346   6.377
 5960SOL     OW18778   3.579   0.586   4.660
 5960SOL    HW118779   3.636   0.505   4.650
 5960SOL    HW218780   3.633   0.660   4.701
 5961SOL     OW18781   2.774   0.968   6.027
 5961SOL    HW118782   2.817   0.878   6.018
 5961SOL    HW218783   2.816   1.031   5.962
 5962SOL     OW18784   5.761   5.526   2.587
 5962SOL    HW118785   5.690   5.459   2.563
 5962SOL    HW218786   5.850   5.481   2.585
 5963SOL     OW18787   4.000   3.787   2.283
 5963SOL    HW118788   4.048   3.719   2.338
 5963SOL    HW218789   3.956   3.854   2.344
 5964SOL     OW18790   1.139   4.222   5.775
 5964SOL    HW118791   1.176   4.286   5.707
 5964SOL    HW218792   1.063   4.265   5.824
 5965SOL     OW18793   2.324   1.677   4.535
 5965SOL    HW118794   2.385   1.752   4.509
 5965SOL    HW218795   2.373   1.590   4.528
 5966SOL     OW18796   1.380   6.598   3.946
 5966SOL    HW118797   1.377   6.691   3.982
 5966SOL    HW218798   1.471   6.579   3.908
 5967SOL     OW18799   4.748   0.172   2.122
 5967SOL    HW118800   4.839   0.199   2.153
 5967SOL    HW218801   4.691   0.254   2.111
 5968SOL     OW18802   0.643   1.945   4.176
 5968SOL    HW118803   0.728   1.968   4.224
 5968SOL    HW218804   0.573   2.013   4.198
 5969SOL     OW18805   5.587   2.870   2.683
 5969SOL    HW118806   5.538   2.876   2.770
 5969SOL    HW218807   5.678   2.832   2.698
 5970SOL     OW18808   1.974   2.516   3.568
 5970SOL    HW118809   1.925   2.442   3.615
 5970SOL    HW218810   1.918   2.598   3.567
 5971SOL     OW18811   2.376   6.885   2.565
 5971SOL    HW118812   2.386   6.878   2.664
 5971SOL    HW218813   2.317   6.812   2.531
 5972SOL     OW18814   4.289   6.293   1.298
 5972SOL    HW118815   4.235   6.330   1.223
 5972SOL    HW218816   4.386   6.304   1.277
 5973SOL     OW18817   0.860   4.736   3.625
 5973SOL    HW118818   0.875   4.679   3.706
 5973SOL    HW218819   0.947   4.752   3.579
 5974SOL     OW18820   0.850   4.119   6.105
 5974SOL    HW118821   0.927   4.094   6.046
 5974SOL    HW218822   0.796   4.038   6.125
 5975SOL     OW18823   1.926   2.649   6.816
 5975SOL    HW118824   1.857   2.686   6.878
 5975SOL    HW218825   1.973   2.725   6.770
 5976SOL     OW18826   3.330   4.018   5.348
 5976SOL    HW118827   3.306   3.921   5.339
 5976SOL    HW218828   3.340   4.058   5.256
 5977SOL     OW18829   0.984   3.170   3.253
 5977SOL    HW118830   1.082   3.152   3.244
 5977SOL    HW218831   0.933   3.111   3.190
 5978SOL     OW18832   5.428   5.439   2.946
 5978SOL    HW118833   5.346   5.425   3.003
 5978SOL    HW218834   5.494   5.495   2.996
 5979SOL     OW18835   0.141   0.733   3.010
 5979SOL    HW118836   0.140   0.747   3.109
 5979SOL    HW218837   0.058   0.773   2.971
 5980SOL     OW18838   6.549   3.667   6.285
 5980SOL    HW118839   6.542   3.586   6.227
 5980SOL    HW218840   6.479   3.663   6.357
 5981SOL     OW18841   3.951   1.168   1.498
 5981SOL    HW118842   3.887   1.137   1.568
 5981SOL    HW218843   3.978   1.092   1.440
 5982SOL     OW18844   5.855   2.417   6.696
 5982SOL    HW118845   5.913   2.494   6.668
 5982SOL    HW218846   5.907   2.332   6.688
 5983SOL     OW18847   1.105   1.104   4.637
 5983SOL    HW118848   1.091   1.104   4.736
 5983SOL    HW218849   1.149   1.190   4.609
 5984SOL     OW18850   0.247   0.189   5.449
 5984SOL    HW118851   0.287   0.100   5.472
 5984SOL    HW218852   0.258   0.252   5.526
 5985SOL     OW18853   4.617   2.656   4.281
 5985SOL    HW118854   4.716   2.651   4.290
 5985SOL    HW218855   4.575   2.627   4.368
 5986SOL     OW18856   3.601   2.812   2.238
 5986SOL    HW118857   3.656   2.731   2.216
 5986SOL    HW218858   3.510   2.803   2.196
 5987SOL     OW18859   4.319   6.863   5.155
 5987SOL    HW118860   4.290   6.776   5.193
 5987SOL    HW218861   4.343   6.926   5.229
 5988SOL     OW18862   4.094   0.888   4.197
 5988SOL    HW118863   4.128   0.833   4.273
 5988SOL    HW218864   3.996   0.904   4.207
 5989SOL     OW18865   2.688   1.028   6.566
 5989SOL    HW118866   2.756   1.015   6.495
 5989SOL    HW218867   2.628   0.948   6.570
 5990SOL     OW18868   3.208   4.872   1.936
 5990SOL    HW118869   3.266   4.864   1.856
 5990SOL    HW218870   3.115   4.844   1.914
 5991SOL     OW18871   2.672   5.141   3.599
 5991SOL    HW118872   2.672   5.170   3.503
 5991SOL    HW218873   2.730   5.060   3.609
 5992SOL     OW18874   4.645   0.965   3.915
 5992SOL    HW118875   4.669   1.042   3.975
 5992SOL    HW218876   4.701   0.969   3.832
 5993SOL     OW18877   3.588   5.374   4.572
 5993SOL    HW118878   3.653   5.353   4.499
 5993SOL    HW218879   3.596   5.471   4.597
 5994SOL     OW18880   0.052   2.509   1.784
 5994SOL    HW118881   0.114   2.430   1.782
 5994SOL    HW218882   0.083   2.577   1.718
 5995SOL     OW18883   0.221   4.689   1.246
 5995SOL    HW118884   0.263   4.776   1.219
 5995SOL    HW218885   0.195   4.638   1.164
 5996SOL     OW18886   0.676   5.261   6.375
 5996SOL    HW118887   0.605   5.331   6.376
 5996SOL    HW218888   0.708   5.247   6.282
 5997SOL     OW18889   0.535   0.474   2.058
 5997SOL    HW118890   0.451   0.429   2.087
 5997SOL    HW218891   0.607   0.406   2.047
 5998SOL     OW18892   4.214   1.973   3.296
 5998SOL    HW118893   4.126   1.964   3.250
 5998SOL    HW218894   4.252   1.882   3.314
 5999SOL     OW18895   1.693   1.478   2.573
 5999SOL    HW118896   1.617   1.422   2.606
 5999SOL    HW218897   1.672   1.575   2.589
 6000SOL     OW18898   4.191   6.354   2.892
 6000SOL    HW118899   4.289   6.372   2.879
 6000SOL    HW218900   4.150   6.327   2.805
 6001SOL     OW18901   6.308   2.272   6.742
 6001SOL    HW118902   6.298   2.367   6.771
 6001SOL    HW218903   6.405   2.247   6.742
 6002SOL     OW18904   1.564   0.440   1.967
 6002SOL    HW118905   1.646   0.455   2.022
 6002SOL    HW218906   1.535   0.344   1.975
 6003SOL     OW18907   4.643   4.371   4.035
 6003SOL    HW118908   4.652   4.365   3.936
 6003SOL    HW218909   4.579   4.445   4.058
 6004SOL     OW18910   6.915   4.000   2.119
 6004SOL    HW118911   6.928   3.988   2.218
 6004SOL    HW218912   6.997   4.040   2.079
 6005SOL     OW18913   2.531   6.069   2.440
 6005SOL    HW118914   2.513   5.982   2.485
 6005SOL    HW218915   2.625   6.072   2.407
 6006SOL     OW18916   2.392   6.168   6.962
 6006SOL    HW118917   2.296   6.140   6.951
 6006SOL    HW218918   2.416   6.163   0.040
 6007SOL     OW18919   5.334   2.521   3.983
 6007SOL    HW118920   5.263   2.531   3.913
 6007SOL    HW218921   5.345   2.608   4.032
 6008SOL     OW18922   3.849   4.420   6.855
 6008SOL    HW118923   3.906   4.490   6.899
 6008SOL    HW218924   3.790   4.378   6.923
 6009SOL     OW18925   3.022   1.609   4.359
 6009SOL    HW118926   3.096   1.633   4.422
 6009SOL    HW218927   2.934   1.638   4.398
 6010SOL     OW18928   1.831   2.483   3.284
 6010SOL    HW118929   1.926   2.474   3.313
 6010SOL    HW218930   1.801   2.398   3.240
 6011SOL     OW18931   6.809   3.428   2.559
 6011SOL    HW118932   6.895   3.390   2.526
 6011SOL    HW218933   6.733   3.387   2.508
 6012SOL     OW18934   6.965   3.249   0.945
 6012SOL    HW118935   6.977   3.314   0.870
 6012SOL    HW218936   0.032   3.199   0.959
 6013SOL     OW18937   5.874   1.379   2.567
 6013SOL    HW118938   5.924   1.391   2.481
 6013SOL    HW218939   5.919   1.433   2.639
 6014SOL     OW18940   5.454   0.483   1.169
 6014SOL    HW118941   5.494   0.505   1.080
 6014SOL    HW218942   5.400   0.399   1.161
 6015SOL     OW18943   5.053   1.797   4.650
 6015SOL    HW118944   4.970   1.797   4.705
 6015SOL    HW218945   5.072   1.890   4.618
 6016SOL     OW18946   1.864   6.808   5.396
 6016SOL    HW118947   1.802   6.877   5.360
 6016SOL    HW218948   1.812   6.728   5.424
 6017SOL     OW18949   6.702   4.284   2.737
 6017SOL    HW118950   6.625   4.281   2.801
 6017SOL    HW218951   6.670   4.315   2.647
 6018SOL     OW18952   2.472   4.919   0.795
 6018SOL    HW118953   2.515   5.007   0.815
 6018SOL    HW218954   2.378   4.920   0.828
 6019SOL     OW18955   4.736   6.914   4.174
 6019SOL    HW118956   4.748   6.896   4.271
 6019SOL    HW218957   4.675   6.992   4.162
 6020SOL     OW18958   3.572   0.572   2.833
 6020SOL    HW118959   3.640   0.534   2.770
 6020SOL    HW218960   3.485   0.583   2.785
 6021SOL     OW18961   4.181   0.373   2.605
 6021SOL    HW118962   4.082   0.377   2.617
 6021SOL    HW218963   4.210   0.448   2.546
 6022SOL     OW18964   4.204   1.737   5.398
 6022SOL    HW118965   4.290   1.785   5.413
 6022SOL    HW218966   4.221   1.652   5.348
 6023SOL     OW18967   6.495   1.812   2.528
 6023SOL    HW118968   6.446   1.828   2.443
 6023SOL    HW218969   6.529   1.718   2.530
 6024SOL     OW18970   0.785   4.611   2.426
 6024SOL    HW118971   0.809   4.704   2.455
 6024SOL    HW218972   0.865   4.552   2.434
 6025SOL     OW18973   4.368   1.884   1.973
 6025SOL    HW118974   4.296   1.846   2.032
 6025SOL    HW218975   4.457   1.851   2.005
 6026SOL     OW18976   0.998   4.608   5.184
 6026SOL    HW118977   0.918   4.548   5.175
 6026SOL    HW218978   0.971   4.695   5.224
 6027SOL     OW18979   3.034   3.690   0.973
 6027SOL    HW118980   3.117   3.745   0.961
 6027SOL    HW218981   3.057   3.593   0.969
 6028SOL     OW18982   1.669   3.648   6.819
 6028SOL    HW118983   1.655   3.747   6.812
 6028SOL    HW218984   1.586   3.600   6.789
 6029SOL     OW18985   1.488   4.925   1.215
 6029SOL    HW118986   1.410   4.865   1.198
 6029SOL    HW218987   1.567   4.894   1.163
 6030SOL     OW18988   1.965   0.245   0.932
 6030SOL    HW118989   2.036   0.315   0.920
 6030SOL    HW218990   1.875   0.288   0.929
 6031SOL     OW18991   5.626   7.014   5.061
 6031SOL    HW118992   5.541   6.993   5.110
 6031SOL    HW218993   5.650   0.092   5.077
 6032SOL     OW18994   0.384   3.418   2.639
 6032SOL    HW118995   0.311   3.351   2.655
 6032SOL    HW218996   0.444   3.422   2.719
 6033SOL     OW18997   1.113   0.325   4.483
 6033SOL    HW118998   1.165   0.410   4.477
 6033SOL    HW218999   1.175   0.248   4.497
 6034SOL     OW19000   2.169   4.063   4.714
 6034SOL    HW119001   2.214   4.042   4.801
 6034SOL    HW219002   2.164   3.980   4.659
 6035SOL     OW19003   5.991   0.634   4.044
 6035SOL    HW119004   6.012   0.541   4.014
 6035SOL    HW219005   5.985   0.694   3.965
 6036SOL     OW19006   0.426   1.065   4.173
 6036SOL    HW119007   0.484   1.046   4.253
 6036SOL    HW219008   0.331   1.075   4.202
 6037SOL     OW19009   6.781   4.852   4.920
 6037SOL    HW119010   6.744   4.882   4.832
 6037SOL    HW219011   6.717   4.878   4.994
 6038SOL     OW19012   5.068   4.076   6.642
 6038SOL    HW119013   5.028   4.103   6.729
 6038SOL    HW219014   4.998   4.035   6.584
 6039SOL     OW19015   3.304   3.741   3.536
 6039SOL    HW119016   3.339   3.833   3.556
 6039SOL    HW219017   3.204   3.745   3.529
 6040SOL     OW19018   0.717   1.998   0.200
 6040SOL    HW119019   0.807   1.989   0.242
 6040SOL    HW219020   0.727   2.031   0.106
 6041SOL     OW19021   0.467   2.831   0.284
 6041SOL    HW119022   0.446   2.888   0.204
 6041SOL    HW219023   0.529   2.881   0.345
 6042SOL     OW19024   5.271   5.236   4.218
 6042SOL    HW119025   5.235   5.220   4.126
 6042SOL    HW219026   5.274   5.149   4.268
 6043SOL     OW19027   0.301   5.042   3.926
 6043SOL    HW119028   0.228   4.980   3.954
 6043SOL    HW219029   0.372   5.045   3.997
 6044SOL     OW19030   1.053   0.627   1.525
 6044SOL    HW119031   1.064   0.646   1.428
 6044SOL    HW219032   1.142   0.628   1.570
 6045SOL     OW19033   0.267   3.976   0.974
 6045SOL    HW119034   0.362   3.956   0.997
 6045SOL    HW219035   0.213   3.892   0.979
 6046SOL     OW19036   3.242   2.917   0.244
 6046SOL    HW119037   3.336   2.943   0.220
 6046SOL    HW219038   3.188   2.999   0.259
 6047SOL     OW19039   6.957   6.463   4.983
 6047SOL    HW119040   6.870   6.485   5.027
 6047SOL    HW219041   7.014   6.412   5.046
 6048SOL     OW19042   4.712   6.397   4.898
 6048SOL    HW119043   4.786   6.363   4.841
 6048SOL    HW219044   4.671   6.478   4.855
 6049SOL     OW19045   6.232   5.171   1.645
 6049SOL    HW119046   6.281   5.229   1.580
 6049SOL    HW219047   6.221   5.079   1.605
 6050SOL     OW19048   5.028   4.219   5.434
 6050SOL    HW119049   5.109   4.246   5.382
 6050SOL    HW219050   4.960   4.293   5.431
 6051SOL     OW19051   1.779   2.245   3.157
 6051SOL    HW119052   1.730   2.195   3.085
 6051SOL    HW219053   1.877   2.228   3.149
 6052SOL     OW19054   6.663   1.032   0.152
 6052SOL    HW119055   6.675   0.976   0.234
 6052SOL    HW219056   6.752   1.064   0.119
 6053SOL     OW19057   2.185   0.470   6.393
 6053SOL    HW119058   2.257   0.534   6.368
 6053SOL    HW219059   2.203   0.434   6.485
 6054SOL     OW19060   2.566   4.799   0.265
 6054SOL    HW119061   2.600   4.715   0.307
 6054SOL    HW219062   2.559   4.871   0.335
 6055SOL     OW19063   5.179   0.711   4.089
 6055SOL    HW119064   5.220   0.738   4.002
 6055SOL    HW219065   5.083   0.740   4.091
 6056SOL     OW19066   4.756   2.951   6.126
 6056SOL    HW119067   4.821   2.895   6.177
 6056SOL    HW219068   4.669   2.956   6.176
 6057SOL     OW19069   3.392   0.799   6.171
 6057SOL    HW119070   3.295   0.774   6.182
 6057SOL    HW219071   3.419   0.785   6.075
 6058SOL     OW19072   5.434   1.724   3.974
 6058SOL    HW119073   5.534   1.724   3.972
 6058SOL    HW219074   5.402   1.730   4.069
 6059SOL     OW19075   0.244   5.389   6.141
 6059SOL    HW119076   0.336   5.377   6.103
 6059SOL    HW219077   0.177   5.387   6.067
 6060SOL     OW19078   3.389   6.433   6.084
 6060SOL    HW119079   3.370   6.508   6.021
 6060SOL    HW219080   3.474   6.451   6.133
 6061SOL     OW19081   2.267   1.960   6.343
 6061SOL    HW119082   2.222   1.878   6.308
 6061SOL    HW219083   2.212   1.998   6.418
 6062SOL     OW19084   2.439   0.797   4.538
 6062SOL    HW119085   2.493   0.818   4.456
 6062SOL    HW219086   2.439   0.876   4.599
 6063SOL     OW19087   3.997   0.275   0.141
 6063SOL    HW119088   4.083   0.246   0.184
 6063SOL    HW219089   4.013   0.293   0.044
 6064SOL     OW19090   0.929   5.866   3.679
 6064SOL    HW119091   0.890   5.828   3.595
 6064SOL    HW219092   1.027   5.848   3.682
 6065SOL     OW19093   6.525   0.382   0.811
 6065SOL    HW119094   6.468   0.341   0.740
 6065SOL    HW219095   6.544   0.314   0.882
 6066SOL     OW19096   4.500   2.292   6.920
 6066SOL    HW119097   4.540   2.350   6.849
 6066SOL    HW219098   4.421   2.339   6.960
 6067SOL     OW19099   5.744   2.561   6.905
 6067SOL    HW119100   5.712   2.476   6.949
 6067SOL    HW219101   5.808   2.538   6.831
 6068SOL     OW19102   4.901   2.406   5.101
 6068SOL    HW119103   4.888   2.321   5.050
 6068SOL    HW219104   4.897   2.484   5.038
 6069SOL     OW19105   6.041   3.857   4.357
 6069SOL    HW119106   5.953   3.893   4.388
 6069SOL    HW219107   6.051   3.874   4.258
 6070SOL     OW19108   3.614   2.133   6.508
 6070SOL    HW119109   3.678   2.204   6.479
 6070SOL    HW219110   3.628   2.051   6.453
 6071SOL     OW19111   4.677   6.165   5.240
 6071SOL    HW119112   4.618   6.150   5.160
 6071SOL    HW219113   4.730   6.248   5.227
 6072SOL     OW19114   0.033   2.070   0.727
 6072SOL    HW119115   0.046   2.167   0.747
 6072SOL    HW219116   0.099   2.017   0.780
 6073SOL     OW19117   0.078   2.336   1.447
 6073SOL    HW119118   0.080   2.263   1.515
 6073SOL    HW219119   0.172   2.368   1.430
 6074SOL     OW19120   0.730   0.606   4.784
 6074SOL    HW119121   0.808   0.562   4.739
 6074SOL    HW219122   0.700   0.685   4.730
 6075SOL     OW19123   5.132   4.307   6.867
 6075SOL    HW119124   5.217   4.306   6.815
 6075SOL    HW219125   5.083   4.393   6.850
 6076SOL     OW19126   2.497   6.587   3.417
 6076SOL    HW119127   2.542   6.636   3.492
 6076SOL    HW219128   2.413   6.544   3.451
 6077SOL     OW19129   5.604   5.936   2.582
 6077SOL    HW119130   5.608   6.036   2.593
 6077SOL    HW219131   5.519   5.911   2.536
 6078SOL     OW19132   2.555   5.021   3.148
 6078SOL    HW119133   2.571   4.948   3.215
 6078SOL    HW219134   2.505   4.983   3.070
 6079SOL     OW19135   2.082   1.142   0.282
 6079SOL    HW119136   2.055   1.231   0.318
 6079SOL    HW219137   2.135   1.093   0.350
 6080SOL     OW19138   5.816   2.151   2.910
 6080SOL    HW119139   5.912   2.172   2.897
 6080SOL    HW219140   5.760   2.209   2.850
 6081SOL     OW19141   0.502   4.381   3.367
 6081SOL    HW119142   0.474   4.291   3.401
 6081SOL    HW219143   0.456   4.398   3.280
 6082SOL     OW19144   3.919   1.702   4.601
 6082SOL    HW119145   3.968   1.652   4.529
 6082SOL    HW219146   3.828   1.727   4.568
 6083SOL     OW19147   1.789   6.841   0.336
 6083SOL    HW119148   1.734   6.759   0.327
 6083SOL    HW219149   1.836   6.840   0.425
 6084SOL     OW19150   0.794   5.245   6.108
 6084SOL    HW119151   0.761   5.151   6.101
 6084SOL    HW219152   0.749   5.301   6.039
 6085SOL     OW19153   4.768   4.340   1.441
 6085SOL    HW119154   4.738   4.322   1.535
 6085SOL    HW219155   4.756   4.258   1.386
 6086SOL     OW19156   2.674   1.633   3.525
 6086SOL    HW119157   2.768   1.642   3.494
 6086SOL    HW219158   2.617   1.599   3.450
 6087SOL     OW19159   5.028   6.797   0.116
 6087SOL    HW119160   4.967   6.731   0.073
 6087SOL    HW219161   5.006   6.889   0.083
 6088SOL     OW19162   6.816   6.975   4.996
 6088SOL    HW119163   6.764   6.971   4.910
 6088SOL    HW219164   6.850   0.050   5.010
 6089SOL     OW19165   0.215   3.054   0.090
 6089SOL    HW119166   0.139   3.060   0.025
 6089SOL    HW219167   0.197   2.980   0.155
 6090SOL     OW19168   0.107   5.813   4.071
 6090SOL    HW119169   0.187   5.779   4.120
 6090SOL    HW219170   0.077   5.899   4.112
 6091SOL     OW19171   5.817   2.201   1.797
 6091SOL    HW119172   5.901   2.205   1.743
 6091SOL    HW219173   5.790   2.294   1.824
 6092SOL     OW19174   1.482   2.484   1.036
 6092SOL    HW119175   1.582   2.486   1.032
 6092SOL    HW219176   1.446   2.502   0.944
 6093SOL     OW19177   1.221   3.031   1.234
 6093SOL    HW119178   1.276   3.114   1.229
 6093SOL    HW219179   1.233   2.988   1.324
 6094SOL     OW19180   1.189   0.711   0.936
 6094SOL    HW119181   1.244   0.638   0.976
 6094SOL    HW219182   1.215   0.799   0.975
 6095SOL     OW19183   6.976   4.247   5.719
 6095SOL    HW119184   7.008   4.289   5.634
 6095SOL    HW219185   6.917   4.169   5.697
 6096SOL     OW19186   3.742   1.895   2.659
 6096SOL    HW119187   3.648   1.862   2.649
 6096SOL    HW219188   3.800   1.821   2.695
 6097SOL     OW19189   2.925   1.984   1.614
 6097SOL    HW119190   3.013   1.959   1.654
 6097SOL    HW219191   2.866   2.024   1.684
 6098SOL     OW19192   1.690   1.451   5.689
 6098SOL    HW119193   1.591   1.444   5.683
 6098SOL    HW219194   1.722   1.411   5.775
 6099SOL     OW19195   6.164   5.206   5.013
 6099SOL    HW119196   6.133   5.115   4.984
 6099SOL    HW219197   6.263   5.212   5.003
 6100SOL     OW19198   6.331   2.880   0.331
 6100SOL    HW119199   6.276   2.927   0.400
 6100SOL    HW219200   6.274   2.855   0.253
 6101SOL     OW19201   5.796   1.632   4.451
 6101SOL    HW119202   5.742   1.548   4.459
 6101SOL    HW219203   5.834   1.638   4.358
 6102SOL     OW19204   3.350   0.464   5.166
 6102SOL    HW119205   3.405   0.408   5.228
 6102SOL    HW219206   3.405   0.539   5.131
 6103SOL     OW19207   5.909   0.321   5.461
 6103SOL    HW119208   5.967   0.351   5.536
 6103SOL    HW219209   5.862   0.236   5.487
 6104SOL     OW19210   1.537   2.930   0.515
 6104SOL    HW119211   1.595   2.974   0.447
 6104SOL    HW219212   1.593   2.903   0.594
 6105SOL     OW19213   3.445   5.413   4.342
 6105SOL    HW119214   3.483   5.391   4.432
 6105SOL    HW219215   3.519   5.444   4.282
 6106SOL     OW19216   3.398   5.604   4.715
 6106SOL    HW119217   3.298   5.614   4.710
 6106SOL    HW219218   3.422   5.545   4.792
 6107SOL     OW19219   2.345   4.824   5.093
 6107SOL    HW119220   2.269   4.802   5.033
 6107SOL    HW219221   2.315   4.820   5.188
 6108SOL     OW19222   6.784   2.007   4.200
 6108SOL    HW119223   6.806   1.911   4.214
 6108SOL    HW219224   6.858   2.050   4.148
 6109SOL     OW19225   6.509   4.675   1.891
 6109SOL    HW119226   6.461   4.691   1.805
 6109SOL    HW219227   6.585   4.612   1.875
 6110SOL     OW19228   3.069   2.116   4.207
 6110SOL    HW119229   2.992   2.075   4.158
 6110SOL    HW219230   3.153   2.068   4.183
 6111SOL     OW19231   0.809   4.972   2.979
 6111SOL    HW119232   0.766   4.902   3.036
 6111SOL    HW219233   0.740   5.016   2.922
 6112SOL     OW19234   0.769   1.752   2.452
 6112SOL    HW119235   0.736   1.703   2.371
 6112SOL    HW219236   0.777   1.849   2.431
 6113SOL     OW19237   1.888   5.478   5.309
 6113SOL    HW119238   1.789   5.473   5.322
 6113SOL    HW219239   1.933   5.488   5.398
 6114SOL     OW19240   5.488   5.435   0.702
 6114SOL    HW119241   5.566   5.392   0.656
 6114SOL    HW219242   5.461   5.380   0.781
 6115SOL     OW19243   6.178   4.802   2.563
 6115SOL    HW119244   6.277   4.817   2.569
 6115SOL    HW219245   6.139   4.862   2.492
 6116SOL     OW19246   3.803   1.408   1.409
 6116SOL    HW119247   3.833   1.469   1.336
 6116SOL    HW219248   3.865   1.330   1.415
 6117SOL     OW19249   5.526   6.683   4.323
 6117SOL    HW119250   5.540   6.773   4.364
 6117SOL    HW219251   5.519   6.692   4.223
 6118SOL     OW19252   5.818   0.112   2.893
 6118SOL    HW119253   5.760   0.045   2.941
 6118SOL    HW219254   5.850   0.181   2.958
 6119SOL     OW19255   6.325   5.123   3.804
 6119SOL    HW119256   6.410   5.077   3.831
 6119SOL    HW219257   6.267   5.136   3.884
 6120SOL     OW19258   2.935   0.947   3.026
 6120SOL    HW119259   2.912   0.987   2.937
 6120SOL    HW219260   2.857   0.955   3.087
 6121SOL     OW19261   6.827   2.276   4.320
 6121SOL    HW119262   6.754   2.344   4.329
 6121SOL    HW219263   6.793   2.196   4.271
 6122SOL     OW19264   4.700   5.508   3.555
 6122SOL    HW119265   4.647   5.593   3.549
 6122SOL    HW219266   4.798   5.530   3.555
 6123SOL     OW19267   6.552   1.357   2.278
 6123SOL    HW119268   6.513   1.276   2.233
 6123SOL    HW219269   6.581   1.423   2.209
 6124SOL     OW19270   2.931   0.281   5.816
 6124SOL    HW119271   2.934   0.350   5.888
 6124SOL    HW219272   2.846   0.229   5.824
 6125SOL     OW19273   1.788   5.295   1.887
 6125SOL    HW119274   1.693   5.323   1.878
 6125SOL    HW219275   1.848   5.371   1.862
 6126SOL     OW19276   5.292   5.431   2.432
 6126SOL    HW119277   5.349   5.410   2.512
 6126SOL    HW219278   5.199   5.450   2.462
 6127SOL     OW19279   2.081   4.473   1.607
 6127SOL    HW119280   1.989   4.436   1.613
 6127SOL    HW219281   2.081   4.554   1.548
 6128SOL     OW19282   4.931   2.438   1.092
 6128SOL    HW119283   4.904   2.405   1.002
 6128SOL    HW219284   4.855   2.426   1.156
 6129SOL     OW19285   5.925   4.196   3.868
 6129SOL    HW119286   5.889   4.289   3.855
 6129SOL    HW219287   5.916   4.171   3.965
 6130SOL     OW19288   5.465   4.255   2.641
 6130SOL    HW119289   5.506   4.297   2.561
 6130SOL    HW219290   5.376   4.297   2.659
 6131SOL     OW19291   6.838   1.052   4.785
 6131SOL    HW119292   6.926   1.058   4.833
 6131SOL    HW219293   6.820   1.139   4.738
 6132SOL     OW19294   6.504   2.555   0.225
 6132SOL    HW119295   6.573   2.617   0.186
 6132SOL    HW219296   6.473   2.592   0.312
 6133SOL     OW19297   1.686   3.922   0.231
 6133SOL    HW119298   1.716   3.906   0.137
 6133SOL    HW219299   1.590   3.951   0.231
 6134SOL     OW19300   4.687   3.020   6.860
 6134SOL    HW119301   4.774   3.064   6.883
 6134SOL    HW219302   4.611   3.071   6.900
 6135SOL     OW19303   5.381   0.103   1.440
 6135SOL    HW119304   5.429   0.190   1.448
 6135SOL    HW219305   5.285   0.115   1.463
 6136SOL     OW19306   0.084   1.526   1.786
 6136SOL    HW119307   0.091   1.566   1.695
 6136SOL    HW219308   0.161   1.465   1.802
 6137SOL     OW19309   2.711   6.871   5.823
 6137SOL    HW119310   2.689   6.817   5.905
 6137SOL    HW219311   2.642   6.854   5.753
 6138SOL     OW19312   4.521   0.045   3.061
 6138SOL    HW119313   4.476   0.122   3.107
 6138SOL    HW219314   4.616   0.068   3.042
 6139SOL     OW19315   1.970   4.819   4.375
 6139SOL    HW119316   1.930   4.752   4.439
 6139SOL    HW219317   2.026   4.771   4.308
 6140SOL     OW19318   2.048   6.497   1.004
 6140SOL    HW119319   1.967   6.442   1.025
 6140SOL    HW219320   2.037   6.589   1.042
 6141SOL     OW19321   6.369   6.564   5.725
 6141SOL    HW119322   6.354   6.655   5.763
 6141SOL    HW219323   6.283   6.529   5.688
 6142SOL     OW19324   0.675   4.801   3.132
 6142SOL    HW119325   0.709   4.831   3.221
 6142SOL    HW219326   0.634   4.711   3.140
 6143SOL     OW19327   6.617   4.461   6.746
 6143SOL    HW119328   6.632   4.546   6.796
 6143SOL    HW219329   6.667   4.465   6.659
 6144SOL     OW19330   6.860   5.433   3.827
 6144SOL    HW119331   6.845   5.439   3.728
 6144SOL    HW219332   6.867   5.525   3.865
 6145SOL     OW19333   5.265   5.842   3.549
 6145SOL    HW119334   5.218   5.869   3.465
 6145SOL    HW219335   5.226   5.891   3.627
 6146SOL     OW19336   5.179   0.818   3.094
 6146SOL    HW119337   5.205   0.905   3.135
 6146SOL    HW219338   5.230   0.744   3.137
 6147SOL     OW19339   1.759   3.604   2.928
 6147SOL    HW119340   1.768   3.559   3.016
 6147SOL    HW219341   1.704   3.688   2.938
 6148SOL     OW19342   6.322   6.366   3.875
 6148SOL    HW119343   6.279   6.413   3.951
 6148SOL    HW219344   6.316   6.423   3.793
 6149SOL     OW19345   1.890   6.786   3.907
 6149SOL    HW119346   1.869   6.882   3.889
 6149SOL    HW219347   1.805   6.734   3.915
 6150SOL     OW19348   4.543   5.510   6.053
 6150SOL    HW119349   4.616   5.444   6.070
 6150SOL    HW219350   4.504   5.540   6.140
 6151SOL     OW19351   4.230   1.587   5.829
 6151SOL    HW119352   4.150   1.637   5.862
 6151SOL    HW219353   4.206   1.537   5.746
 6152SOL     OW19354   0.145   4.926   6.537
 6152SOL    HW119355   0.208   5.004   6.535
 6152SOL    HW219356   0.194   4.842   6.514
 6153SOL     OW19357   5.020   3.673   0.366
 6153SOL    HW119358   5.051   3.675   0.272
 6153SOL    HW219359   5.098   3.679   0.428
 6154SOL     OW19360   5.078   2.771   2.821
 6154SOL    HW119361   5.069   2.821   2.907
 6154SOL    HW219362   5.166   2.722   2.820
 6155SOL     OW19363   1.405   3.706   4.203
 6155SOL    HW119364   1.325   3.741   4.252
 6155SOL    HW219365   1.431   3.772   4.132
 6156SOL     OW19366   6.771   0.369   3.837
 6156SOL    HW119367   6.852   0.360   3.779
 6156SOL    HW219368   6.701   0.421   3.788
 6157SOL     OW19369   1.820   1.577   3.103
 6157SOL    HW119370   1.810   1.618   3.194
 6157SOL    HW219371   1.825   1.478   3.112
 6158SOL     OW19372   4.519   0.886   0.576
 6158SOL    HW119373   4.456   0.964   0.575
 6158SOL    HW219374   4.559   0.877   0.667
 6159SOL     OW19375   4.909   3.007   0.046
 6159SOL    HW119376   4.884   3.035   0.139
 6159SOL    HW219377   5.008   3.011   0.035
 6160SOL     OW19378   6.615   5.018   2.156
 6160SOL    HW119379   6.695   5.074   2.177
 6160SOL    HW219380   6.536   5.076   2.142
 6161SOL     OW19381   5.536   0.322   6.590
 6161SOL    HW119382   5.479   0.363   6.519
 6161SOL    HW219383   5.619   0.284   6.549
 6162SOL     OW19384   5.890   5.349   4.062
 6162SOL    HW119385   5.849   5.397   4.140
 6162SOL    HW219386   5.855   5.256   4.059
 6163SOL     OW19387   6.864   4.282   1.800
 6163SOL    HW119388   6.811   4.197   1.801
 6163SOL    HW219389   6.884   4.310   1.894
 6164SOL     OW19390   4.488   3.107   0.540
 6164SOL    HW119391   4.464   3.167   0.616
 6164SOL    HW219392   4.556   3.040   0.570
 6165SOL     OW19393   4.466   6.457   0.671
 6165SOL    HW119394   4.441   6.456   0.768
 6165SOL    HW219395   4.561   6.487   0.662
 6166SOL     OW19396   3.434   1.713   6.700
 6166SOL    HW119397   3.483   1.760   6.773
 6166SOL    HW219398   3.469   1.620   6.690
 6167SOL     OW19399   6.612   4.782   3.362
 6167SOL    HW119400   6.611   4.744   3.270
 6167SOL    HW219401   6.706   4.784   3.396
 6168SOL     OW19402   0.894   2.386   1.976
 6168SOL    HW119403   0.978   2.432   2.006
 6168SOL    HW219404   0.914   2.333   1.893
 6169SOL     OW19405   1.977   4.202   1.983
 6169SOL    HW119406   2.005   4.137   2.054
 6169SOL    HW219407   2.026   4.288   1.995
 6170SOL     OW19408   0.047   2.434   3.643
 6170SOL    HW119409   0.147   2.433   3.655
 6170SOL    HW219410   0.020   2.517   3.595
 6171SOL     OW19411   6.802   0.537   6.146
 6171SOL    HW119412   6.839   0.623   6.111
 6171SOL    HW219413   6.759   0.486   6.072
 6172SOL     OW19414   1.033   4.411   3.719
 6172SOL    HW119415   0.993   4.367   3.638
 6172SOL    HW219416   1.016   4.353   3.799
 6173SOL     OW19417   5.765   6.097   3.357
 6173SOL    HW119418   5.811   6.009   3.366
 6173SOL    HW219419   5.780   6.132   3.264
 6174SOL     OW19420   6.044   3.193   2.188
 6174SOL    HW119421   6.102   3.207   2.268
 6174SOL    HW219422   5.978   3.267   2.180
 6175SOL     OW19423   3.249   2.218   6.240
 6175SOL    HW119424   3.164   2.188   6.197
 6175SOL    HW219425   3.296   2.282   6.180
 6176SOL     OW19426   3.986   4.347   6.143
 6176SOL    HW119427   3.903   4.356   6.087
 6176SOL    HW219428   3.962   4.362   6.239
 6177SOL     OW19429   5.756   0.056   1.238
 6177SOL    HW119430   5.679   0.009   1.194
 6177SOL    HW219431   5.728   0.147   1.266
 6178SOL     OW19432   4.021   4.820   1.648
 6178SOL    HW119433   3.947   4.848   1.709
 6178SOL    HW219434   4.004   4.727   1.616
 6179SOL     OW19435   5.859   5.006   4.952
 6179SOL    HW119436   5.872   4.961   5.041
 6179SOL    HW219437   5.946   5.011   4.904
 6180SOL     OW19438   3.191   4.597   6.595
 6180SOL    HW119439   3.210   4.505   6.630
 6180SOL    HW219440   3.205   4.598   6.496
 6181SOL     OW19441   6.170   6.207   6.999
 6181SOL    HW119442   6.264   6.204   0.016
 6181SOL    HW219443   6.127   6.293   0.007
 6182SOL     OW19444   3.535   2.589   0.670
 6182SOL    HW119445   3.444   2.625   0.652
 6182SOL    HW219446   3.532   2.489   0.670
 6183SOL     OW19447   0.203   6.947   0.570
 6183SOL    HW119448   0.203   0.018   0.525
 6183SOL    HW219449   0.126   6.942   0.634
 6184SOL     OW19450   2.718   6.566   5.611
 6184SOL    HW119451   2.628   6.608   5.595
 6184SOL    HW219452   2.786   6.612   5.554
 6185SOL     OW19453   3.717   3.083   4.639
 6185SOL    HW119454   3.673   2.994   4.653
 6185SOL    HW219455   3.801   3.088   4.693
 6186SOL     OW19456   0.309   1.622   2.030
 6186SOL    HW119457   0.394   1.673   2.019
 6186SOL    HW219458   0.308   1.545   1.966
 6187SOL     OW19459   3.501   1.211   5.837
 6187SOL    HW119460   3.533   1.167   5.922
 6187SOL    HW219461   3.405   1.186   5.822
 6188SOL     OW19462   1.557   1.236   5.005
 6188SOL    HW119463   1.630   1.295   5.041
 6188SOL    HW219464   1.588   1.141   5.006
 6189SOL     OW19465   6.631   5.697   1.167
 6189SOL    HW119466   6.644   5.730   1.260
 6189SOL    HW219467   6.655   5.600   1.162
 6190SOL     OW19468   0.582   3.263   4.717
 6190SOL    HW119469   0.537   3.287   4.803
 6190SOL    HW219470   0.667   3.214   4.736
 6191SOL     OW19471   3.298   3.741   0.346
 6191SOL    HW119472   3.327   3.737   0.441
 6191SOL    HW219473   3.259   3.652   0.320
 6192SOL     OW19474   3.118   1.695   0.640
 6192SOL    HW119475   3.155   1.764   0.577
 6192SOL    HW219476   3.028   1.665   0.608
 6193SOL     OW19477   4.126   5.848   6.722
 6193SOL    HW119478   4.127   5.919   6.793
 6193SOL    HW219479   4.189   5.873   6.649
 6194SOL     OW19480   5.525   6.883   6.729
 6194SOL    HW119481   5.557   6.880   6.634
 6194SOL    HW219482   5.487   6.974   6.748
 6195SOL     OW19483   6.125   5.974   6.545
 6195SOL    HW119484   6.131   5.895   6.606
 6195SOL    HW219485   6.049   6.033   6.574
 6196SOL     OW19486   5.612   3.524   2.724
 6196SOL    HW119487   5.687   3.461   2.745
 6196SOL    HW219488   5.530   3.472   2.701
 6197SOL     OW19489   0.921   5.578   0.871
 6197SOL    HW119490   0.859   5.640   0.824
 6197SOL    HW219491   1.016   5.608   0.857
 6198SOL     OW19492   5.891   1.242   6.657
 6198SOL    HW119493   5.794   1.220   6.657
 6198SOL    HW219494   5.924   1.245   6.562
 6199SOL     OW19495   2.091   0.048   6.005
 6199SOL    HW119496   2.185   0.019   5.986
 6199SOL    HW219497   2.073   0.136   5.961
 6200SOL     OW19498   1.307   0.620   1.629
 6200SOL    HW119499   1.381   0.608   1.563
 6200SOL    HW219500   1.340   0.673   1.707
 6201SOL     OW19501   0.413   5.141   2.957
 6201SOL    HW119502   0.474   5.088   2.897
 6201SOL    HW219503   0.401   5.091   3.044
 6202SOL     OW19504   5.592   1.377   2.798
 6202SOL    HW119505   5.563   1.395   2.704
 6202SOL    HW219506   5.596   1.278   2.813
 6203SOL     OW19507   6.362   0.503   1.878
 6203SOL    HW119508   6.447   0.477   1.832
 6203SOL    HW219509   6.384   0.560   1.957
 6204SOL     OW19510   1.292   6.357   5.124
 6204SOL    HW119511   1.229   6.352   5.047
 6204SOL    HW219512   1.348   6.274   5.128
 6205SOL     OW19513   5.324   4.245   3.624
 6205SOL    HW119514   5.413   4.272   3.587
 6205SOL    HW219515   5.297   4.309   3.696
 6206SOL     OW19516   5.704   1.732   3.989
 6206SOL    HW119517   5.742   1.723   4.081
 6206SOL    HW219518   5.776   1.713   3.922
 6207SOL     OW19519   0.912   5.638   4.288
 6207SOL    HW119520   0.952   5.558   4.243
 6207SOL    HW219521   0.930   5.633   4.386
 6208SOL     OW19522   4.114   4.241   5.688
 6208SOL    HW119523   4.048   4.171   5.661
 6208SOL    HW219524   4.180   4.203   5.752
 6209SOL     OW19525   3.422   2.170   1.599
 6209SOL    HW119526   3.493   2.235   1.628
 6209SOL    HW219527   3.389   2.119   1.679
 6210SOL     OW19528   5.129   2.064   4.539
 6210SOL    HW119529   5.109   2.088   4.444
 6210SOL    HW219530   5.223   2.031   4.546
 6211SOL     OW19531   5.730   4.343   5.188
 6211SOL    HW119532   5.763   4.308   5.100
 6211SOL    HW219533   5.805   4.347   5.253
 6212SOL     OW19534   4.843   4.991   5.339
 6212SOL    HW119535   4.823   5.046   5.258
 6212SOL    HW219536   4.909   4.920   5.315
 6213SOL     OW19537   4.047   5.867   0.390
 6213SOL    HW119538   4.002   5.884   0.478
 6213SOL    HW219539   4.039   5.770   0.368
 6214SOL     OW19540   6.028   6.803   6.801
 6214SOL    HW119541   6.008   6.846   6.712
 6214SOL    HW219542   6.084   6.722   6.787
 6215SOL     OW19543   5.679   2.505   5.048
 6215SOL    HW119544   5.600   2.445   5.034
 6215SOL    HW219545   5.734   2.507   4.964
 6216SOL     OW19546   4.506   1.794   4.316
 6216SOL    HW119547   4.470   1.722   4.374
 6216SOL    HW219548   4.482   1.776   4.221
 6217SOL     OW19549   0.382   4.567   3.191
 6217SOL    HW119550   0.367   4.623   3.272
 6217SOL    HW219551   0.337   4.610   3.112
 6218SOL     OW19552   4.638   5.847   0.002
 6218SOL    HW119553   4.617   5.870   6.925
 6218SOL    HW219554   4.691   5.762   0.005
 6219SOL     OW19555   2.214   1.134   6.440
 6219SOL    HW119556   2.240   1.214   6.495
 6219SOL    HW219557   2.255   1.142   6.349
 6220SOL     OW19558   3.435   6.437   0.352
 6220SOL    HW119559   3.388   6.351   0.375
 6220SOL    HW219560   3.385   6.483   0.279
 6221SOL     OW19561   5.431   5.801   6.820
 6221SOL    HW119562   5.354   5.742   6.796
 6221SOL    HW219563   5.407   5.896   6.802
 6222SOL     OW19564   6.677   1.575   2.158
 6222SOL    HW119565   6.694   1.614   2.248
 6222SOL    HW219566   6.735   1.621   2.090
 6223SOL     OW19567   6.953   5.017   4.110
 6223SOL    HW119568   6.961   5.103   4.060
 6223SOL    HW219569   7.014   5.018   4.189
 6224SOL     OW19570   3.658   0.182   0.136
 6224SOL    HW119571   3.702   0.271   0.149
 6224SOL    HW219572   3.622   0.176   0.043
 6225SOL     OW19573   4.639   5.920   6.540
 6225SOL    HW119574   4.655   6.018   6.550
 6225SOL    HW219575   4.700   5.883   6.470
 6226SOL     OW19576   1.167   0.768   4.404
 6226SOL    HW119577   1.113   0.745   4.323
 6226SOL    HW219578   1.107   0.802   4.476
 6227SOL     OW19579   3.113   5.112   5.451
 6227SOL    HW119580   3.168   5.029   5.441
 6227SOL    HW219581   3.017   5.091   5.433
 6228SOL     OW19582   0.706   3.206   3.605
 6228SOL    HW119583   0.647   3.129   3.580
 6228SOL    HW219584   0.675   3.288   3.557
 6229SOL     OW19585   0.415   2.970   4.192
 6229SOL    HW119586   0.502   2.920   4.186
 6229SOL    HW219587   0.407   3.032   4.113
 6230SOL     OW19588   0.006   1.090   1.685
 6230SOL    HW119589   0.099   1.120   1.665
 6230SOL    HW219590   0.004   0.992   1.701
 6231SOL     OW19591   2.477   4.901   6.381
 6231SOL    HW119592   2.447   4.812   6.347
 6231SOL    HW219593   2.493   4.895   6.480
 6232SOL     OW19594   4.123   0.267   6.225
 6232SOL    HW119595   4.223   0.273   6.224
 6232SOL    HW219596   4.094   0.179   6.188
 6233SOL     OW19597   6.712   3.379   1.135
 6233SOL    HW119598   6.659   3.340   1.060
 6233SOL    HW219599   6.806   3.347   1.129
 6234SOL     OW19600   5.002   4.925   4.597
 6234SOL    HW119601   4.939   4.953   4.669
 6234SOL    HW219602   5.063   5.001   4.574
 6235SOL     OW19603   0.579   0.318   2.623
 6235SOL    HW119604   0.578   0.220   2.645
 6235SOL    HW219605   0.571   0.330   2.524
 6236SOL     OW19606   6.636   5.556   1.764
 6236SOL    HW119607   6.546   5.514   1.752
 6236SOL    HW219608   6.626   5.639   1.820
 6237SOL     OW19609   3.399   1.205   2.274
 6237SOL    HW119610   3.415   1.136   2.344
 6237SOL    HW219611   3.360   1.287   2.316
 6238SOL     OW19612   2.390   0.431   4.054
 6238SOL    HW119613   2.479   0.411   4.013
 6238SOL    HW219614   2.385   0.528   4.077
 6239SOL     OW19615   4.875   1.226   4.663
 6239SOL    HW119616   4.902   1.314   4.704
 6239SOL    HW219617   4.823   1.173   4.730
 6240SOL     OW19618   3.905   3.000   3.977
 6240SOL    HW119619   3.928   2.922   4.036
 6240SOL    HW219620   3.828   3.051   4.016
 6241SOL     OW19621   3.279   6.936   3.684
 6241SOL    HW119622   3.296   7.016   3.627
 6241SOL    HW219623   3.351   6.868   3.668
 6242SOL     OW19624   2.791   2.036   3.616
 6242SOL    HW119625   2.857   1.975   3.659
 6242SOL    HW219626   2.787   2.018   3.517
 6243SOL     OW19627   4.497   1.609   6.341
 6243SOL    HW119628   4.553   1.692   6.352
 6243SOL    HW219629   4.513   1.548   6.418
 6244SOL     OW19630   4.565   2.739   1.783
 6244SOL    HW119631   4.583   2.694   1.871
 6244SOL    HW219632   4.614   2.826   1.780
 6245SOL     OW19633   0.378   5.100   1.957
 6245SOL    HW119634   0.448   5.100   1.885
 6245SOL    HW219635   0.298   5.049   1.925
 6246SOL     OW19636   6.878   0.089   4.322
 6246SOL    HW119637   6.840   0.107   4.231
 6246SOL    HW219638   6.897   7.010   4.331
 6247SOL     OW19639   6.042   5.912   3.802
 6247SOL    HW119640   5.986   5.995   3.799
 6247SOL    HW219641   6.111   5.916   3.729
 6248SOL     OW19642   3.775   2.964   5.083
 6248SOL    HW119643   3.809   3.056   5.104
 6248SOL    HW219644   3.838   2.896   5.121
 6249SOL     OW19645   6.138   3.391   2.393
 6249SOL    HW119646   6.062   3.452   2.414
 6249SOL    HW219647   6.200   3.436   2.329
 6250SOL     OW19648   5.739   0.063   6.615
 6250SOL    HW119649   5.714   0.103   6.703
 6250SOL    HW219650   5.750   0.135   6.547
 6251SOL     OW19651   2.345   0.306   4.411
 6251SOL    HW119652   2.301   0.261   4.333
 6251SOL    HW219653   2.440   0.274   4.419
 6252SOL     OW19654   3.208   5.320   6.389
 6252SOL    HW119655   3.267   5.254   6.435
 6252SOL    HW219656   3.259   5.364   6.314
 6253SOL     OW19657   3.891   5.653   3.523
 6253SOL    HW119658   3.834   5.595   3.582
 6253SOL    HW219659   3.836   5.729   3.488
 6254SOL     OW19660   0.446   0.101   1.480
 6254SOL    HW119661   0.395   0.079   1.564
 6254SOL    HW219662   0.484   0.016   1.442
 6255SOL     OW19663   1.459   1.949   0.601
 6255SOL    HW119664   1.440   1.959   0.698
 6255SOL    HW219665   1.444   1.854   0.573
 6256SOL     OW19666   5.831   6.187   2.417
 6256SOL    HW119667   5.805   6.195   2.513
 6256SOL    HW219668   5.930   6.199   2.408
 6257SOL     OW19669   3.073   4.717   0.945
 6257SOL    HW119670   3.097   4.704   0.849
 6257SOL    HW219671   3.116   4.646   1.000
 6258SOL     OW19672   4.381   5.272   5.192
 6258SOL    HW119673   4.393   5.187   5.141
 6258SOL    HW219674   4.469   5.319   5.201
 6259SOL     OW19675   4.251   1.140   4.988
 6259SOL    HW119676   4.329   1.191   5.024
 6259SOL    HW219677   4.236   1.059   5.043
 6260SOL     OW19678   1.852   1.655   0.299
 6260SOL    HW119679   1.937   1.677   0.252
 6260SOL    HW219680   1.776   1.701   0.254
 6261SOL     OW19681   3.391   0.174   0.546
 6261SOL    HW119682   3.449   0.105   0.590
 6261SOL    HW219683   3.449   0.246   0.507
 6262SOL     OW19684   5.916   1.002   2.418
 6262SOL    HW119685   5.883   1.033   2.329
 6262SOL    HW219686   5.838   0.971   2.474
 6263SOL     OW19687   6.320   5.836   5.854
 6263SOL    HW119688   6.413   5.849   5.889
 6263SOL    HW219689   6.297   5.912   5.793
 6264SOL     OW19690   2.728   6.317   6.668
 6264SOL    HW119691   2.634   6.285   6.676
 6264SOL    HW219692   2.790   6.248   6.703
 6265SOL     OW19693   4.736   6.845   6.435
 6265SOL    HW119694   4.700   6.930   6.473
 6265SOL    HW219695   4.685   6.767   6.471
 6266SOL     OW19696   3.230   5.085   2.870
 6266SOL    HW119697   3.162   5.159   2.872
 6266SOL    HW219698   3.319   5.120   2.898
 6267SOL     OW19699   1.766   6.423   4.858
 6267SOL    HW119700   1.802   6.347   4.912
 6267SOL    HW219701   1.705   6.478   4.915
 6268SOL     OW19702   3.295   1.822   0.455
 6268SOL    HW119703   3.348   1.898   0.491
 6268SOL    HW219704   3.355   1.761   0.402
 6269SOL     OW19705   7.007   5.451   6.861
 6269SOL    HW119706   0.073   5.468   6.912
 6269SOL    HW219707   7.005   5.356   6.832
 6270SOL     OW19708   2.210   6.131   1.042
 6270SOL    HW119709   2.143   6.059   1.021
 6270SOL    HW219710   2.166   6.202   1.097
 6271SOL     OW19711   6.611   2.960   5.568
 6271SOL    HW119712   6.666   2.950   5.484
 6271SOL    HW219713   6.646   3.036   5.622
 6272SOL     OW19714   0.193   0.517   6.997
 6272SOL    HW119715   0.146   0.545   0.063
 6272SOL    HW219716   0.210   0.598   6.940
 6273SOL     OW19717   0.946   6.726   2.245
 6273SOL    HW119718   0.922   6.663   2.318
 6273SOL    HW219719   0.915   6.818   2.269
 6274SOL     OW19720   2.782   5.525   3.737
 6274SOL    HW119721   2.723   5.477   3.672
 6274SOL    HW219722   2.747   5.618   3.751
 6275SOL     OW19723   3.070   5.866   6.390
 6275SOL    HW119724   3.142   5.835   6.327
 6275SOL    HW219725   3.014   5.788   6.417
 6276SOL     OW19726   1.174   5.652   2.590
 6276SOL    HW119727   1.250   5.629   2.650
 6276SOL    HW219728   1.209   5.675   2.499
 6277SOL     OW19729   5.360   2.609   1.205
 6277SOL    HW119730   5.263   2.612   1.228
 6277SOL    HW219731   5.395   2.516   1.217
 6278SOL     OW19732   4.161   2.177   0.468
 6278SOL    HW119733   4.196   2.219   0.552
 6278SOL    HW219734   4.089   2.235   0.430
 6279SOL     OW19735   3.479   7.012   1.306
 6279SOL    HW119736   3.482   0.017   1.209
 6279SOL    HW219737   3.570   0.004   1.346
 6280SOL     OW19738   5.396   2.481   6.182
 6280SOL    HW119739   5.374   2.514   6.090
 6280SOL    HW219740   5.463   2.542   6.225
 6281SOL     OW19741   5.234   4.127   6.444
 6281SOL    HW119742   5.176   4.108   6.523
 6281SOL    HW219743   5.330   4.121   6.470
 6282SOL     OW19744   0.464   3.524   5.952
 6282SOL    HW119745   0.391   3.573   6.000
 6282SOL    HW219746   0.431   3.497   5.861
 6283SOL     OW19747   1.935   6.480   4.441
 6283SOL    HW119748   2.018   6.424   4.442
 6283SOL    HW219749   1.901   6.487   4.347
 6284SOL     OW19750   1.338   3.387   5.271
 6284SOL    HW119751   1.368   3.447   5.198
 6284SOL    HW219752   1.305   3.301   5.232
 6285SOL     OW19753   1.256   3.116   2.878
 6285SOL    HW119754   1.276   3.208   2.911
 6285SOL    HW219755   1.196   3.121   2.798
 6286SOL     OW19756   0.841   2.375   6.725
 6286SOL    HW119757   0.793   2.395   6.810
 6286SOL    HW219758   0.797   2.422   6.649
 6287SOL     OW19759   4.880   4.477   5.430
 6287SOL    HW119760   4.806   4.499   5.494
 6287SOL    HW219761   4.852   4.502   5.337
 6288SOL     OW19762   2.546   3.761   6.030
 6288SOL    HW119763   2.616   3.789   6.095
 6288SOL    HW219764   2.467   3.822   6.038
 6289SOL     OW19765   1.987   4.557   5.514
 6289SOL    HW119766   2.076   4.576   5.555
 6289SOL    HW219767   1.991   4.571   5.415
 6290SOL     OW19768   5.878   6.896   4.087
 6290SOL    HW119769   5.952   6.961   4.107
 6290SOL    HW219770   5.888   6.815   4.145
 6291SOL     OW19771   3.618   3.646   2.118
 6291SOL    HW119772   3.613   3.703   2.199
 6291SOL    HW219773   3.713   3.619   2.102
 6292SOL     OW19774   1.349   4.458   4.046
 6292SOL    HW119775   1.420   4.503   3.992
 6292SOL    HW219776   1.364   4.359   4.043
 6293SOL     OW19777   2.878   1.776   6.364
 6293SOL    HW119778   2.839   1.706   6.423
 6293SOL    HW219779   2.958   1.817   6.408
 6294SOL     OW19780   2.016   1.215   2.324
 6294SOL    HW119781   2.085   1.272   2.368
 6294SOL    HW219782   2.057   1.128   2.297
 6295SOL     OW19783   4.271   3.163   6.076
 6295SOL    HW119784   4.260   3.136   6.172
 6295SOL    HW219785   4.193   3.219   6.048
 6296SOL     OW19786   0.996   2.817   6.944
 6296SOL    HW119787   0.910   2.780   6.980
 6296SOL    HW219788   1.069   2.751   6.960
 6297SOL     OW19789   6.296   1.448   3.708
 6297SOL    HW119790   6.225   1.416   3.771
 6297SOL    HW219791   6.255   1.509   3.640
 6298SOL     OW19792   0.570   6.477   0.850
 6298SOL    HW119793   0.515   6.544   0.900
 6298SOL    HW219794   0.619   6.418   0.915
 6299SOL     OW19795   3.983   1.572   3.887
 6299SOL    HW119796   4.006   1.527   3.800
 6299SOL    HW219797   3.914   1.519   3.935
 6300SOL     OW19798   2.430   1.791   6.720
 6300SOL    HW119799   2.440   1.752   6.812
 6300SOL    HW219800   2.375   1.874   6.725
 6301SOL     OW19801   4.122   6.011   6.950
 6301SOL    HW119802   4.118   6.078   0.006
 6301SOL    HW219803   4.151   5.922   6.988
 6302SOL     OW19804   2.087   2.837   6.733
 6302SOL    HW119805   2.114   2.896   6.657
 6302SOL    HW219806   2.169   2.798   6.775
 6303SOL     OW19807   0.420   5.654   4.664
 6303SOL    HW119808   0.498   5.598   4.635
 6303SOL    HW219809   0.336   5.601   4.655
 6304SOL     OW19810   3.212   0.717   4.732
 6304SOL    HW119811   3.138   0.713   4.799
 6304SOL    HW219812   3.206   0.638   4.671
 6305SOL     OW19813   1.151   5.689   5.638
 6305SOL    HW119814   1.240   5.735   5.629
 6305SOL    HW219815   1.084   5.736   5.580
 6306SOL     OW19816   0.506   4.791   5.145
 6306SOL    HW119817   0.544   4.744   5.065
 6306SOL    HW219818   0.433   4.736   5.185
 6307SOL     OW19819   3.598   2.935   1.986
 6307SOL    HW119820   3.509   2.906   2.020
 6307SOL    HW219821   3.659   2.952   2.063
 6308SOL     OW19822   0.357   2.156   0.072
 6308SOL    HW119823   0.323   2.162   6.997
 6308SOL    HW219824   0.329   2.238   0.123
 6309SOL     OW19825   2.300   6.266   4.813
 6309SOL    HW119826   2.371   6.323   4.854
 6309SOL    HW219827   2.317   6.170   4.836
 6310SOL     OW19828   1.302   0.052   3.339
 6310SOL    HW119829   1.394   0.072   3.306
 6310SOL    HW219830   1.307   0.016   3.433
 6311SOL     OW19831   6.292   1.187   6.625
 6311SOL    HW119832   6.241   1.260   6.670
 6311SOL    HW219833   6.305   1.111   6.689
 6312SOL     OW19834   3.051   5.687   0.025
 6312SOL    HW119835   3.092   5.616   6.986
 6312SOL    HW219836   3.048   5.656   0.120
 6313SOL     OW19837   6.439   4.339   4.240
 6313SOL    HW119838   6.468   4.380   4.154
 6313SOL    HW219839   6.500   4.367   4.314
 6314SOL     OW19840   1.834   6.575   2.657
 6314SOL    HW119841   1.919   6.530   2.682
 6314SOL    HW219842   1.811   6.552   2.563
 6315SOL     OW19843   2.067   1.510   3.641
 6315SOL    HW119844   2.105   1.542   3.728
 6315SOL    HW219845   1.995   1.442   3.659
 6316SOL     OW19846   4.268   0.841   5.040
 6316SOL    HW119847   4.278   0.876   4.947
 6316SOL    HW219848   4.329   0.763   5.052
 6317SOL     OW19849   5.520   4.641   2.554
 6317SOL    HW119850   5.559   4.582   2.484
 6317SOL    HW219851   5.566   4.623   2.641
 6318SOL     OW19852   6.459   0.013   7.016
 6318SOL    HW119853   6.534   0.019   0.064
 6318SOL    HW219854   6.495   6.996   6.929
 6319SOL     OW19855   5.167   1.875   4.189
 6319SOL    HW119856   5.120   1.797   4.228
 6319SOL    HW219857   5.167   1.868   4.089
 6320SOL     OW19858   6.150   1.511   5.535
 6320SOL    HW119859   6.232   1.472   5.494
 6320SOL    HW219860   6.130   1.463   5.621
 6321SOL     OW19861   0.280   2.400   0.195
 6321SOL    HW119862   0.251   2.431   0.105
 6321SOL    HW219863   0.347   2.463   0.233
 6322SOL     OW19864   1.232   1.188   3.152
 6322SOL    HW119865   1.323   1.223   3.173
 6322SOL    HW219866   1.207   1.212   3.059
 6323SOL     OW19867   1.889   4.796   0.766
 6323SOL    HW119868   1.815   4.778   0.702
 6323SOL    HW219869   1.888   4.728   0.839
 6324SOL     OW19870   4.888   3.521   1.462
 6324SOL    HW119871   4.948   3.442   1.450
 6324SOL    HW219872   4.794   3.489   1.476
 6325SOL     OW19873   1.260   2.809   3.944
 6325SOL    HW119874   1.287   2.754   3.866
 6325SOL    HW219875   1.302   2.899   3.938
 6326SOL     OW19876   5.236   5.453   5.449
 6326SOL    HW119877   5.332   5.481   5.450
 6326SOL    HW219878   5.218   5.395   5.529
 6327SOL     OW19879   0.492   1.075   3.588
 6327SOL    HW119880   0.445   1.010   3.648
 6327SOL    HW219881   0.506   1.161   3.636
 6328SOL     OW19882   4.700   3.778   5.378
 6328SOL    HW119883   4.690   3.690   5.331
 6328SOL    HW219884   4.749   3.765   5.464
 6329SOL     OW19885   0.733   1.934   5.797
 6329SOL    HW119886   0.667   1.996   5.840
 6329SOL    HW219887   0.808   1.916   5.861
 6330SOL     OW19888   4.688   1.175   4.068
 6330SOL    HW119889   4.768   1.228   4.042
 6330SOL    HW219890   4.699   1.143   4.162
 6331SOL     OW19891   1.185   3.248   4.128
 6331SOL    HW119892   1.228   3.249   4.219
 6331SOL    HW219893   1.169   3.343   4.099
 6332SOL     OW19894   3.235   1.544   6.610
 6332SOL    HW119895   3.262   1.576   6.519
 6332SOL    HW219896   3.274   1.605   6.679
 6333SOL     OW19897   5.714   1.319   1.141
 6333SOL    HW119898   5.754   1.385   1.204
 6333SOL    HW219899   5.770   1.236   1.139
 6334SOL     OW19900   1.429   0.989   1.390
 6334SOL    HW119901   1.489   1.059   1.352
 6334SOL    HW219902   1.409   1.009   1.486
 6335SOL     OW19903   6.532   3.133   6.145
 6335SOL    HW119904   6.513   3.097   6.054
 6335SOL    HW219905   6.595   3.072   6.193
 6336SOL     OW19906   0.505   3.744   5.458
 6336SOL    HW119907   0.495   3.792   5.545
 6336SOL    HW219908   0.598   3.708   5.450
 6337SOL     OW19909   5.380   6.981   5.204
 6337SOL    HW119910   5.309   0.029   5.226
 6337SOL    HW219911   5.371   6.902   5.265
 6338SOL     OW19912   0.859   0.778   3.282
 6338SOL    HW119913   0.776   0.784   3.337
 6338SOL    HW219914   0.860   0.851   3.214
 6339SOL     OW19915   0.238   4.254   3.760
 6339SOL    HW119916   0.291   4.183   3.714
 6339SOL    HW219917   0.298   4.310   3.816
 6340SOL     OW19918   2.563   4.310   0.554
 6340SOL    HW119919   2.582   4.252   0.633
 6340SOL    HW219920   2.558   4.405   0.582
 6341SOL     OW19921   0.546   5.504   1.871
 6341SOL    HW119922   0.591   5.593   1.867
 6341SOL    HW219923   0.561   5.456   1.784
 6342SOL     OW19924   1.703   1.235   1.929
 6342SOL    HW119925   1.724   1.213   1.834
 6342SOL    HW219926   1.757   1.314   1.958
 6343SOL     OW19927   1.060   5.643   0.410
 6343SOL    HW119928   1.159   5.626   0.418
 6343SOL    HW219929   1.042   5.741   0.417
 6344SOL     OW19930   1.271   1.145   4.263
 6344SOL    HW119931   1.299   1.067   4.207
 6344SOL    HW219932   1.175   1.165   4.245
 6345SOL     OW19933   5.874   2.562   2.939
 6345SOL    HW119934   5.800   2.628   2.932
 6345SOL    HW219935   5.909   2.541   2.848
 6346SOL     OW19936   0.159   4.064   5.080
 6346SOL    HW119937   0.209   4.012   5.150
 6346SOL    HW219938   0.144   4.005   5.000
 6347SOL     OW19939   2.202   2.272   3.406
 6347SOL    HW119940   2.207   2.355   3.462
 6347SOL    HW219941   2.193   2.192   3.465
 6348SOL     OW19942   0.942   2.570   5.925
 6348SOL    HW119943   0.869   2.544   5.987
 6348SOL    HW219944   1.019   2.607   5.977
 6349SOL     OW19945   6.369   1.256   0.813
 6349SOL    HW119946   6.325   1.292   0.896
 6349SOL    HW219947   6.403   1.164   0.831
 6350SOL     OW19948   1.189   6.088   1.658
 6350SOL    HW119949   1.197   5.993   1.688
 6350SOL    HW219950   1.228   6.149   1.727
 6351SOL     OW19951   5.844   4.240   1.296
 6351SOL    HW119952   5.859   4.206   1.203
 6351SOL    HW219953   5.926   4.287   1.328
 6352SOL     OW19954   3.753   0.712   4.828
 6352SOL    HW119955   3.700   0.793   4.803
 6352SOL    HW219956   3.845   0.740   4.854
 6353SOL     OW19957   3.663   6.264   5.416
 6353SOL    HW119958   3.752   6.310   5.420
 6353SOL    HW219959   3.674   6.176   5.370
 6354SOL     OW19960   5.038   5.396   2.266
 6354SOL    HW119961   5.122   5.343   2.259
 6354SOL    HW219962   4.960   5.337   2.247
 6355SOL     OW19963   3.585   5.490   0.533
 6355SOL    HW119964   3.526   5.432   0.477
 6355SOL    HW219965   3.659   5.435   0.572
 6356SOL     OW19966   0.297   5.923   6.298
 6356SOL    HW119967   0.225   5.894   6.235
 6356SOL    HW219968   0.256   5.977   6.372
 6357SOL     OW19969   5.320   0.817   2.572
 6357SOL    HW119970   5.321   0.793   2.475
 6357SOL    HW219971   5.282   0.909   2.583
 6358SOL     OW19972   1.078   2.133   4.963
 6358SOL    HW119973   1.100   2.220   4.918
 6358SOL    HW219974   1.101   2.140   5.060
 6359SOL     OW19975   5.138   6.266   1.630
 6359SOL    HW119976   5.200   6.286   1.554
 6359SOL    HW219977   5.051   6.230   1.594
 6360SOL     OW19978   1.217   2.043   1.095
 6360SOL    HW119979   1.219   1.963   1.036
 6360SOL    HW219980   1.149   2.030   1.167
 6361SOL     OW19981   0.523   1.574   0.692
 6361SOL    HW119982   0.514   1.508   0.766
 6361SOL    HW219983   0.614   1.615   0.694
 6362SOL     OW19984   1.602   5.519   0.739
 6362SOL    HW119985   1.607   5.603   0.794
 6362SOL    HW219986   1.655   5.447   0.783
 6363SOL     OW19987   1.841   3.802   1.971
 6363SOL    HW119988   1.852   3.843   2.061
 6363SOL    HW219989   1.744   3.804   1.945
 6364SOL     OW19990   2.826   2.220   4.766
 6364SOL    HW119991   2.853   2.202   4.861
 6364SOL    HW219992   2.737   2.263   4.765
 6365SOL     OW19993   5.734   6.979   3.112
 6365SOL    HW119994   5.652   6.929   3.141
 6365SOL    HW219995   5.776   0.003   3.192
 6366SOL     OW19996   6.085   0.928   4.987
 6366SOL    HW119997   6.159   0.948   5.052
 6366SOL    HW219998   6.018   0.869   5.032
 6367SOL     OW19999   0.960   2.219   3.066
 6367SOL    HW120000   0.954   2.319   3.070
 6367SOL    HW220001   1.046   2.189   3.107
 6368SOL     OW20002   4.934   3.844   4.930
 6368SOL    HW120003   4.928   3.861   5.028
 6368SOL    HW220004   4.936   3.746   4.913
 6369SOL     OW20005   4.428   5.127   0.326
 6369SOL    HW120006   4.361   5.188   0.368
 6369SOL    HW220007   4.428   5.142   0.227
 6370SOL     OW20008   5.612   4.125   4.408
 6370SOL    HW120009   5.588   4.105   4.503
 6370SOL    HW220010   5.683   4.061   4.378
 6371SOL     OW20011   5.400   4.782   1.081
 6371SOL    HW120012   5.499   4.777   1.085
 6371SOL    HW220013   5.363   4.693   1.050
 6372SOL     OW20014   6.338   1.848   1.513
 6372SOL    HW120015   6.278   1.809   1.583
 6372SOL    HW220016   6.422   1.795   1.507
 6373SOL     OW20017   4.981   3.333   2.249
 6373SOL    HW120018   4.932   3.247   2.230
 6373SOL    HW220019   4.999   3.380   2.163
 6374SOL     OW20020   4.565   3.672   6.649
 6374SOL    HW120021   4.534   3.645   6.558
 6374SOL    HW220022   4.551   3.597   6.712
 6375SOL     OW20023   4.694   1.196   1.976
 6375SOL    HW120024   4.667   1.284   2.015
 6375SOL    HW220025   4.791   1.199   1.950
 6376SOL     OW20026   2.632   0.130   0.665
 6376SOL    HW120027   2.574   0.130   0.584
 6376SOL    HW220028   2.722   0.093   0.642
 6377SOL     OW20029   0.568   0.742   0.184
 6377SOL    HW120030   0.645   0.701   0.135
 6377SOL    HW220031   0.521   0.806   0.124
 6378SOL     OW20032   5.799   4.574   2.149
 6378SOL    HW120033   5.812   4.592   2.246
 6378SOL    HW220034   5.721   4.627   2.116
 6379SOL     OW20035   1.710   5.009   6.291
 6379SOL    HW120036   1.718   5.077   6.219
 6379SOL    HW220037   1.623   4.960   6.281
 6380SOL     OW20038   0.858   3.884   5.281
 6380SOL    HW120039   0.887   3.834   5.199
 6380SOL    HW220040   0.837   3.818   5.354
 6381SOL     OW20041   3.958   3.636   0.412
 6381SOL    HW120042   3.992   3.567   0.475
 6381SOL    HW220043   3.916   3.592   0.333
 6382SOL     OW20044   1.611   1.446   0.398
 6382SOL    HW120045   1.603   1.362   0.452
 6382SOL    HW220046   1.648   1.519   0.456
 6383SOL     OW20047   2.334   2.618   2.081
 6383SOL    HW120048   2.360   2.582   2.171
 6383SOL    HW220049   2.370   2.559   2.010
 6384SOL     OW20050   6.498   2.541   2.219
 6384SOL    HW120051   6.449   2.518   2.303
 6384SOL    HW220052   6.454   2.497   2.141
 6385SOL     OW20053   6.814   3.931   0.049
 6385SOL    HW120054   6.861   3.893   6.987
 6385SOL    HW220055   6.856   4.018   0.074
 6386SOL     OW20056   2.921   2.774   0.679
 6386SOL    HW120057   2.917   2.850   0.615
 6386SOL    HW220058   2.975   2.700   0.639
 6387SOL     OW20059   6.931   6.701   7.005
 6387SOL    HW120060   6.987   6.631   0.031
 6387SOL    HW220061   6.876   6.748   0.055
 6388SOL     OW20062   5.502   5.386   2.269
 6388SOL    HW120063   5.530   5.469   2.221
 6388SOL    HW220064   5.408   5.396   2.302
 6389SOL     OW20065   6.773   6.440   0.956
 6389SOL    HW120066   6.839   6.376   0.916
 6389SOL    HW220067   6.808   6.533   0.948
 6390SOL     OW20068   5.465   0.735   0.118
 6390SOL    HW120069   5.538   0.759   0.181
 6390SOL    HW220070   5.402   0.671   0.163
 6391SOL     OW20071   1.221   1.731   4.969
 6391SOL    HW120072   1.298   1.745   5.032
 6391SOL    HW220073   1.194   1.818   4.929
 6392SOL     OW20074   4.364   6.860   4.006
 6392SOL    HW120075   4.402   6.785   4.060
 6392SOL    HW220076   4.294   6.825   3.943
 6393SOL     OW20077   1.485   4.881   0.250
 6393SOL    HW120078   1.536   4.802   0.216
 6393SOL    HW220079   1.509   4.897   0.346
 6394SOL     OW20080   1.894   5.150   1.681
 6394SOL    HW120081   1.985   5.183   1.658
 6394SOL    HW220082   1.865   5.189   1.769
 6395SOL     OW20083   1.966   4.036   3.773
 6395SOL    HW120084   1.894   4.013   3.838
 6395SOL    HW220085   1.948   3.992   3.685
 6396SOL     OW20086   1.928   2.988   5.118
 6396SOL    HW120087   2.023   3.020   5.119
 6396SOL    HW220088   1.909   2.940   5.203
 6397SOL     OW20089   5.939   4.045   4.881
 6397SOL    HW120090   5.982   4.061   4.792
 6397SOL    HW220091   6.007   4.055   4.953
 6398SOL     OW20092   2.750   6.935   2.693
 6398SOL    HW120093   2.751   6.843   2.654
 6398SOL    HW220094   2.713   6.999   2.626
 6399SOL     OW20095   3.339   6.965   0.254
 6399SOL    HW120096   3.247   7.004   0.251
 6399SOL    HW220097   3.396   0.002   0.314
 6400SOL     OW20098   0.747   6.399   2.981
 6400SOL    HW120099   0.704   6.346   2.907
 6400SOL    HW220100   0.687   6.475   3.006
 6401SOL     OW20101   4.238   5.155   2.867
 6401SOL    HW120102   4.175   5.171   2.943
 6401SOL    HW220103   4.238   5.234   2.806
 6402SOL     OW20104   2.960   4.540   5.866
 6402SOL    HW120105   2.915   4.517   5.780
 6402SOL    HW220106   2.959   4.461   5.927
 6403SOL     OW20107   5.498   5.418   5.672
 6403SOL    HW120108   5.511   5.334   5.619
 6403SOL    HW220109   5.549   5.493   5.631
 6404SOL     OW20110   4.591   6.264   1.341
 6404SOL    HW120111   4.680   6.305   1.323
 6404SOL    HW220112   4.560   6.289   1.433
 6405SOL     OW20113   4.648   1.231   2.729
 6405SOL    HW120114   4.619   1.160   2.665
 6405SOL    HW220115   4.672   1.314   2.678
 6406SOL     OW20116   0.454   3.447   3.223
 6406SOL    HW120117   0.531   3.402   3.177
 6406SOL    HW220118   0.394   3.487   3.154
 6407SOL     OW20119   0.320   6.581   2.684
 6407SOL    HW120120   0.297   6.556   2.590
 6407SOL    HW220121   0.369   6.668   2.685
 6408SOL     OW20122   0.058   1.052   2.157
 6408SOL    HW120123   6.994   0.995   2.156
 6408SOL    HW220124   0.082   1.074   2.252
 6409SOL     OW20125   5.223   4.409   3.812
 6409SOL    HW120126   5.130   4.374   3.803
 6409SOL    HW220127   5.240   4.436   3.906
 6410SOL     OW20128   2.186   1.007   0.075
 6410SOL    HW120129   2.151   1.056   0.155
 6410SOL    HW220130   2.285   0.996   0.083
 6411SOL     OW20131   0.615   2.863   2.229
 6411SOL    HW120132   0.527   2.858   2.181
 6411SOL    HW220133   0.600   2.903   2.320
 6412SOL     OW20134   3.959   1.000   6.755
 6412SOL    HW120135   3.960   0.922   6.817
 6412SOL    HW220136   4.048   1.010   6.711
 6413SOL     OW20137   4.820   6.137   3.704
 6413SOL    HW120138   4.794   6.080   3.782
 6413SOL    HW220139   4.790   6.231   3.720
 6414SOL     OW20140   2.633   0.440   0.762
 6414SOL    HW120141   2.595   0.350   0.783
 6414SOL    HW220142   2.590   0.509   0.821
 6415SOL     OW20143   0.932   2.115   4.065
 6415SOL    HW120144   0.984   2.200   4.068
 6415SOL    HW220145   0.919   2.081   4.158
 6416SOL     OW20146   2.895   4.819   0.075
 6416SOL    HW120147   2.872   4.722   0.080
 6416SOL    HW220148   2.811   4.873   0.078
 6417SOL     OW20149   4.317   2.869   6.856
 6417SOL    HW120150   4.328   2.966   6.834
 6417SOL    HW220151   4.345   2.813   6.778
 6418SOL     OW20152   5.084   4.462   0.401
 6418SOL    HW120153   5.087   4.374   0.353
 6418SOL    HW220154   5.082   4.536   0.334
 6419SOL     OW20155   0.854   6.614   6.328
 6419SOL    HW120156   0.861   6.705   6.367
 6419SOL    HW220157   0.765   6.604   6.284
 6420SOL     OW20158   2.723   4.679   4.016
 6420SOL    HW120159   2.681   4.730   3.941
 6420SOL    HW220160   2.661   4.607   4.046
 6421SOL     OW20161   4.249   0.502   2.176
 6421SOL    HW120162   4.194   0.547   2.247
 6421SOL    HW220163   4.296   0.423   2.216
 6422SOL     OW20164   6.516   2.364   4.741
 6422SOL    HW120165   6.498   2.416   4.657
 6422SOL    HW220166   6.611   2.379   4.770
 6423SOL     OW20167   1.369   4.861   4.449
 6423SOL    HW120168   1.355   4.958   4.433
 6423SOL    HW220169   1.427   4.848   4.529
 6424SOL     OW20170   6.728   4.271   6.373
 6424SOL    HW120171   6.814   4.220   6.382
 6424SOL    HW220172   6.740   4.362   6.412
 6425SOL     OW20173   6.757   6.371   4.471
 6425SOL    HW120174   6.774   6.274   4.453
 6425SOL    HW220175   6.844   6.417   4.491
 6426SOL     OW20176   4.780   5.063   4.745
 6426SOL    HW120177   4.731   5.116   4.814
 6426SOL    HW220178   4.724   4.984   4.718
 6427SOL     OW20179   3.755   2.938   3.423
 6427SOL    HW120180   3.829   2.992   3.465
 6427SOL    HW220181   3.710   2.884   3.494
 6428SOL     OW20182   5.754   2.598   0.296
 6428SOL    HW120183   5.697   2.680   0.298
 6428SOL    HW220184   5.707   2.524   0.345
 6429SOL     OW20185   2.465   1.311   5.216
 6429SOL    HW120186   2.418   1.223   5.223
 6429SOL    HW220187   2.398   1.383   5.193
 6430SOL     OW20188   6.057   0.682   5.309
 6430SOL    HW120189   6.107   0.661   5.225
 6430SOL    HW220190   6.118   0.675   5.387
 6431SOL     OW20191   3.408   4.940   2.417
 6431SOL    HW120192   3.410   4.916   2.514
 6431SOL    HW220193   3.314   4.932   2.383
 6432SOL     OW20194   5.203   3.433   6.048
 6432SOL    HW120195   5.170   3.339   6.045
 6432SOL    HW220196   5.125   3.496   6.053
 6433SOL     OW20197   3.589   4.693   5.337
 6433SOL    HW120198   3.591   4.594   5.322
 6433SOL    HW220199   3.656   4.737   5.277
 6434SOL     OW20200   5.391   5.652   6.149
 6434SOL    HW120201   5.331   5.732   6.152
 6434SOL    HW220202   5.392   5.616   6.055
 6435SOL     OW20203   4.385   1.434   1.241
 6435SOL    HW120204   4.427   1.473   1.159
 6435SOL    HW220205   4.370   1.507   1.308
 6436SOL     OW20206   6.951   3.206   3.711
 6436SOL    HW120207   6.996   3.192   3.799
 6436SOL    HW220208   6.857   3.172   3.716
 6437SOL     OW20209   1.400   2.488   5.673
 6437SOL    HW120210   1.383   2.500   5.575
 6437SOL    HW220211   1.465   2.557   5.704
 6438SOL     OW20212   0.704   4.997   6.962
 6438SOL    HW120213   0.668   5.089   6.947
 6438SOL    HW220214   0.631   4.937   6.991
 6439SOL     OW20215   5.188   6.415   2.579
 6439SOL    HW120216   5.277   6.383   2.548
 6439SOL    HW220217   5.186   6.515   2.577
 6440SOL     OW20218   2.842   1.568   6.174
 6440SOL    HW120219   2.893   1.485   6.197
 6440SOL    HW220220   2.869   1.642   6.237
 6441SOL     OW20221   6.912   1.998   2.197
 6441SOL    HW120222   6.814   1.993   2.214
 6441SOL    HW220223   6.928   2.038   2.107
 6442SOL     OW20224   2.471   2.068   4.612
 6442SOL    HW120225   2.466   2.158   4.570
 6442SOL    HW220226   2.482   2.078   4.711
 6443SOL     OW20227   4.168   2.636   6.489
 6443SOL    HW120228   4.141   2.548   6.450
 6443SOL    HW220229   4.088   2.680   6.531
 6444SOL     OW20230   0.023   4.271   4.675
 6444SOL    HW120231   0.114   4.231   4.671
 6444SOL    HW220232   0.030   4.368   4.699
 6445SOL     OW20233   2.900   3.414   3.498
 6445SOL    HW120234   2.879   3.320   3.522
 6445SOL    HW220235   2.998   3.431   3.511
 6446SOL     OW20236   1.213   1.851   6.812
 6446SOL    HW120237   1.203   1.757   6.845
 6446SOL    HW220238   1.288   1.895   6.861
 6447SOL     OW20239   5.563   3.485   2.287
 6447SOL    HW120240   5.605   3.573   2.310
 6447SOL    HW220241   5.484   3.500   2.228
 6448SOL     OW20242   4.191   4.631   1.143
 6448SOL    HW120243   4.172   4.572   1.222
 6448SOL    HW220244   4.166   4.725   1.165
 6449SOL     OW20245   3.570   5.065   0.455
 6449SOL    HW120246   3.617   4.997   0.399
 6449SOL    HW220247   3.550   5.146   0.400
 6450SOL     OW20248   6.272   4.558   6.626
 6450SOL    HW120249   6.221   4.640   6.602
 6450SOL    HW220250   6.370   4.576   6.618
 6451SOL     OW20251   4.203   2.618   1.650
 6451SOL    HW120252   4.251   2.697   1.611
 6451SOL    HW220253   4.105   2.635   1.648
 6452SOL     OW20254   3.638   2.070   4.700
 6452SOL    HW120255   3.574   2.147   4.700
 6452SOL    HW220256   3.695   2.075   4.618
 6453SOL     OW20257   2.334   0.374   2.422
 6453SOL    HW120258   2.288   0.295   2.462
 6453SOL    HW220259   2.421   0.389   2.469
 6454SOL     OW20260   5.313   2.641   3.592
 6454SOL    HW120261   5.217   2.661   3.576
 6454SOL    HW220262   5.336   2.552   3.552
 6455SOL     OW20263   6.833   2.878   4.312
 6455SOL    HW120264   6.924   2.919   4.322
 6455SOL    HW220265   6.767   2.949   4.287
 6456SOL     OW20266   6.274   1.640   2.331
 6456SOL    HW120267   6.289   1.559   2.275
 6456SOL    HW220268   6.310   1.721   2.284
 6457SOL     OW20269   3.122   6.698   2.742
 6457SOL    HW120270   3.133   6.631   2.668
 6457SOL    HW220271   3.154   6.787   2.711
 6458SOL     OW20272   0.094   0.093   4.533
 6458SOL    HW120273   0.032   0.101   4.455
 6458SOL    HW220274   0.074   0.164   4.600
 6459SOL     OW20275   0.660   3.240   3.064
 6459SOL    HW120276   0.604   3.167   3.103
 6459SOL    HW220277   0.756   3.221   3.082
 6460SOL     OW20278   0.875   5.581   6.844
 6460SOL    HW120279   0.959   5.594   6.790
 6460SOL    HW220280   0.799   5.624   6.796
 6461SOL     OW20281   1.248   6.396   0.906
 6461SOL    HW120282   1.227   6.453   0.985
 6461SOL    HW220283   1.231   6.447   0.822
 6462SOL     OW20284   1.795   3.631   4.757
 6462SOL    HW120285   1.890   3.661   4.748
 6462SOL    HW220286   1.793   3.540   4.799
 6463SOL     OW20287   4.447   3.270   1.119
 6463SOL    HW120288   4.508   3.193   1.134
 6463SOL    HW220289   4.370   3.241   1.061
 6464SOL     OW20290   0.852   4.059   4.051
 6464SOL    HW120291   0.820   4.122   4.121
 6464SOL    HW220292   0.774   4.014   4.008
 6465SOL     OW20293   3.297   0.859   4.242
 6465SOL    HW120294   3.232   0.801   4.193
 6465SOL    HW220295   3.268   0.955   4.234
 6466SOL     OW20296   0.018   4.812   6.882
 6466SOL    HW120297   0.088   4.818   6.810
 6466SOL    HW220298   0.017   4.897   6.934
 6467SOL     OW20299   1.659   2.337   6.473
 6467SOL    HW120300   1.575   2.326   6.420
 6467SOL    HW220301   1.738   2.311   6.417
 6468SOL     OW20302   1.891   0.532   1.107
 6468SOL    HW120303   1.846   0.522   1.196
 6468SOL    HW220304   1.971   0.590   1.116
 6469SOL     OW20305   1.982   1.227   1.634
 6469SOL    HW120306   2.011   1.255   1.725
 6469SOL    HW220307   1.886   1.250   1.621
 6470SOL     OW20308   6.525   2.123   6.852
 6470SOL    HW120309   6.609   2.123   6.797
 6470SOL    HW220310   6.537   2.060   6.929
 6471SOL     OW20311   0.647   6.458   5.795
 6471SOL    HW120312   0.711   6.489   5.865
 6471SOL    HW220313   0.601   6.537   5.755
 6472SOL     OW20314   0.153   6.088   3.056
 6472SOL    HW120315   0.233   6.140   3.086
 6472SOL    HW220316   0.128   6.022   3.128
 6473SOL     OW20317   2.358   1.155   3.376
 6473SOL    HW120318   2.364   1.179   3.473
 6473SOL    HW220319   2.264   1.168   3.345
 6474SOL     OW20320   3.720   6.132   4.477
 6474SOL    HW120321   3.750   6.222   4.445
 6474SOL    HW220322   3.669   6.086   4.404
 6475SOL     OW20323   5.777   5.765   2.437
 6475SOL    HW120324   5.778   5.679   2.489
 6475SOL    HW220325   5.703   5.823   2.471
 6476SOL     OW20326   3.909   2.790   6.563
 6476SOL    HW120327   3.853   2.721   6.607
 6476SOL    HW220328   3.852   2.845   6.501
 6477SOL     OW20329   0.173   6.546   1.470
 6477SOL    HW120330   0.137   6.639   1.467
 6477SOL    HW220331   0.255   6.543   1.527
 6478SOL     OW20332   2.679   5.875   1.218
 6478SOL    HW120333   2.593   5.925   1.213
 6478SOL    HW220334   2.664   5.780   1.189
 6479SOL     OW20335   4.595   5.732   3.265
 6479SOL    HW120336   4.588   5.830   3.248
 6479SOL    HW220337   4.550   5.711   3.352
 6480SOL     OW20338   4.082   1.482   6.227
 6480SOL    HW120339   4.141   1.562   6.217
 6480SOL    HW220340   4.041   1.459   6.138
 6481SOL     OW20341   4.002   3.053   2.222
 6481SOL    HW120342   4.004   2.956   2.245
 6481SOL    HW220343   4.086   3.078   2.174
 6482SOL     OW20344   5.005   3.877   6.047
 6482SOL    HW120345   5.090   3.876   5.994
 6482SOL    HW220346   5.000   3.961   6.101
 6483SOL     OW20347   2.092   5.796   4.975
 6483SOL    HW120348   2.139   5.784   5.062
 6483SOL    HW220349   2.075   5.707   4.933
 6484SOL     OW20350   3.324   1.338   3.228
 6484SOL    HW120351   3.316   1.295   3.138
 6484SOL    HW220352   3.387   1.286   3.285
 6485SOL     OW20353   2.344   5.977   4.905
 6485SOL    HW120354   2.399   5.908   4.859
 6485SOL    HW220355   2.260   5.935   4.940
 6486SOL     OW20356   0.351   4.763   2.725
 6486SOL    HW120357   0.350   4.701   2.647
 6486SOL    HW220358   0.337   4.857   2.693
 6487SOL     OW20359   6.518   4.894   3.865
 6487SOL    HW120360   6.593   4.915   3.928
 6487SOL    HW220361   6.553   4.838   3.790
 6488SOL     OW20362   3.580   5.148   4.190
 6488SOL    HW120363   3.542   5.059   4.215
 6488SOL    HW220364   3.565   5.165   4.092
 6489SOL     OW20365   5.499   3.245   5.038
 6489SOL    HW120366   5.447   3.285   5.114
 6489SOL    HW220367   5.436   3.200   4.975
 6490SOL     OW20368   2.096   2.205   0.612
 6490SOL    HW120369   2.146   2.266   0.551
 6490SOL    HW220370   2.039   2.143   0.559
 6491SOL     OW20371   1.497   6.986   1.993
 6491SOL    HW120372   1.478   7.004   2.089
 6491SOL    HW220373   1.417   6.942   1.951
 6492SOL     OW20374   4.133   3.326   3.962
 6492SOL    HW120375   4.065   3.361   3.897
 6492SOL    HW220376   4.124   3.374   4.049
 6493SOL     OW20377   1.115   4.438   4.189
 6493SOL    HW120378   1.197   4.439   4.132
 6493SOL    HW220379   1.138   4.464   4.283
 6494SOL     OW20380   6.655   1.015   1.944
 6494SOL    HW120381   6.729   1.081   1.939
 6494SOL    HW220382   6.693   0.922   1.947
 6495SOL     OW20383   6.450   6.976   2.967
 6495SOL    HW120384   6.429   0.014   3.047
 6495SOL    HW220385   6.438   6.879   2.991
 6496SOL     OW20386   3.333   2.087   1.877
 6496SOL    HW120387   3.267   2.146   1.923
 6496SOL    HW220388   3.380   2.030   1.944
 6497SOL     OW20389   0.016   1.042   0.399
 6497SOL    HW120390   6.952   1.097   0.409
 6497SOL    HW220391   0.065   1.039   0.486
 6498SOL     OW20392   2.267   4.293   4.103
 6498SOL    HW120393   2.317   4.341   4.174
 6498SOL    HW220394   2.187   4.249   4.143
 6499SOL     OW20395   4.681   2.599   3.687
 6499SOL    HW120396   4.711   2.507   3.711
 6499SOL    HW220397   4.605   2.593   3.622
 6500SOL     OW20398   1.416   3.597   3.278
 6500SOL    HW120399   1.417   3.599   3.178
 6500SOL    HW220400   1.510   3.606   3.312
 6501SOL     OW20401   6.002   1.816   3.125
 6501SOL    HW120402   5.944   1.751   3.076
 6501SOL    HW220403   6.096   1.811   3.090
 6502SOL     OW20404   0.164   3.989   1.613
 6502SOL    HW120405   0.083   3.934   1.595
 6502SOL    HW220406   0.139   4.086   1.616
 6503SOL     OW20407   0.093   3.297   5.706
 6503SOL    HW120408   0.114   3.199   5.706
 6503SOL    HW220409   0.169   3.347   5.665
 6504SOL     OW20410   3.568   6.813   6.104
 6504SOL    HW120411   3.648   6.873   6.096
 6504SOL    HW220412   3.509   6.826   6.024
 6505SOL     OW20413   0.193   6.272   0.595
 6505SOL    HW120414   0.237   6.182   0.598
 6505SOL    HW220415   0.262   6.344   0.604
 6506SOL     OW20416   0.739   4.173   2.294
 6506SOL    HW120417   0.713   4.094   2.238
 6506SOL    HW220418   0.802   4.144   2.366
 6507SOL     OW20419   4.351   5.406   0.248
 6507SOL    HW120420   4.363   5.351   0.331
 6507SOL    HW220421   4.413   5.484   0.251
 6508SOL     OW20422   0.343   0.198   3.535
 6508SOL    HW120423   0.295   0.111   3.533
 6508SOL    HW220424   0.364   0.228   3.442
 6509SOL     OW20425   2.494   1.686   6.982
 6509SOL    HW120426   2.466   1.591   6.993
 6509SOL    HW220427   2.578   1.703   0.015
 6510SOL     OW20428   3.244   5.909   5.006
 6510SOL    HW120429   3.153   5.940   4.981
 6510SOL    HW220430   3.296   5.889   4.923
 6511SOL     OW20431   2.962   2.447   0.755
 6511SOL    HW120432   3.054   2.449   0.794
 6511SOL    HW220433   2.967   2.472   0.658
 6512SOL     OW20434   4.772   1.446   0.444
 6512SOL    HW120435   4.742   1.354   0.469
 6512SOL    HW220436   4.828   1.442   0.361
 6513SOL     OW20437   2.629   4.647   2.526
 6513SOL    HW120438   2.594   4.604   2.443
 6513SOL    HW220439   2.727   4.663   2.517
 6514SOL     OW20440   5.148   6.497   5.537
 6514SOL    HW120441   5.174   6.594   5.535
 6514SOL    HW220442   5.050   6.489   5.556
 6515SOL     OW20443   1.073   4.882   3.064
 6515SOL    HW120444   1.058   4.788   3.093
 6515SOL    HW220445   0.984   4.926   3.047
 6516SOL     OW20446   6.696   2.883   2.413
 6516SOL    HW120447   6.789   2.846   2.413
 6516SOL    HW220448   6.646   2.847   2.333
 6517SOL     OW20449   6.811   3.260   0.617
 6517SOL    HW120450   6.768   3.342   0.581
 6517SOL    HW220451   6.887   3.234   0.557
 6518SOL     OW20452   0.975   1.064   2.274
 6518SOL    HW120453   1.038   1.138   2.299
 6518SOL    HW220454   0.921   1.038   2.353
 6519SOL     OW20455   1.066   0.623   3.341
 6519SOL    HW120456   1.143   0.684   3.326
 6519SOL    HW220457   0.983   0.664   3.302
 6520SOL     OW20458   0.471   5.836   0.408
 6520SOL    HW120459   0.382   5.798   0.434
 6520SOL    HW220460   0.543   5.768   0.428
 6521SOL     OW20461   1.944   4.566   3.943
 6521SOL    HW120462   1.862   4.515   3.966
 6521SOL    HW220463   2.017   4.502   3.918
 6522SOL     OW20464   2.570   2.640   5.205
 6522SOL    HW120465   2.641   2.660   5.272
 6522SOL    HW220466   2.491   2.699   5.223
 6523SOL     OW20467   6.125   6.504   0.609
 6523SOL    HW120468   6.050   6.519   0.673
 6523SOL    HW220469   6.212   6.513   0.658
 6524SOL     OW20470   2.867   2.948   1.248
 6524SOL    HW120471   2.866   2.849   1.260
 6524SOL    HW220472   2.909   2.991   1.329
 6525SOL     OW20473   1.324   5.042   3.655
 6525SOL    HW120474   1.370   5.124   3.621
 6525SOL    HW220475   1.333   4.969   3.588
 6526SOL     OW20476   0.624   5.963   0.692
 6526SOL    HW120477   0.721   5.981   0.706
 6526SOL    HW220478   0.604   5.867   0.713
 6527SOL     OW20479   6.278   1.657   0.670
 6527SOL    HW120480   6.258   1.686   0.764
 6527SOL    HW220481   6.208   1.690   0.608
 6528SOL     OW20482   4.133   6.247   0.147
 6528SOL    HW120483   4.173   6.334   0.118
 6528SOL    HW220484   4.196   6.201   0.210
 6529SOL     OW20485   5.110   6.914   2.139
 6529SOL    HW120486   5.094   6.816   2.131
 6529SOL    HW220487   5.203   6.935   2.107
 6530SOL     OW20488   0.778   2.578   3.245
 6530SOL    HW120489   0.703   2.604   3.185
 6530SOL    HW220490   0.742   2.548   3.333
 6531SOL     OW20491   3.781   4.034   4.510
 6531SOL    HW120492   3.775   3.941   4.545
 6531SOL    HW220493   3.797   4.033   4.411
 6532SOL     OW20494   1.335   6.344   0.547
 6532SOL    HW120495   1.285   6.296   0.475
 6532SOL    HW220496   1.433   6.333   0.533
 6533SOL     OW20497   4.877   4.598   1.949
 6533SOL    HW120498   4.921   4.567   1.864
 6533SOL    HW220499   4.897   4.532   2.022
 6534SOL     OW20500   6.900   4.463   3.213
 6534SOL    HW120501   6.889   4.516   3.129
 6534SOL    HW220502   6.997   4.457   3.236
 6535SOL     OW20503   4.881   3.770   5.593
 6535SOL    HW120504   4.833   3.742   5.676
 6535SOL    HW220505   4.917   3.863   5.604
 6536SOL     OW20506   0.482   4.330   5.641
 6536SOL    HW120507   0.463   4.318   5.543
 6536SOL    HW220508   0.498   4.427   5.660
 6537SOL     OW20509   6.337   5.229   3.526
 6537SOL    HW120510   6.367   5.211   3.620
 6537SOL    HW220511   6.282   5.312   3.524
 6538SOL     OW20512   0.995   2.583   4.579
 6538SOL    HW120513   0.933   2.635   4.638
 6538SOL    HW220514   0.945   2.551   4.498
 6539SOL     OW20515   4.815   6.699   6.231
 6539SOL    HW120516   4.729   6.647   6.227
 6539SOL    HW220517   4.809   6.767   6.304
 6540SOL     OW20518   6.836   2.610   5.521
 6540SOL    HW120519   6.936   2.614   5.523
 6540SOL    HW220520   6.799   2.700   5.499
 6541SOL     OW20521   4.998   1.881   5.609
 6541SOL    HW120522   4.982   1.887   5.511
 6541SOL    HW220523   5.070   1.813   5.627
 6542SOL     OW20524   1.356   3.626   2.937
 6542SOL    HW120525   1.436   3.625   2.876
 6542SOL    HW220526   1.298   3.704   2.914
 6543SOL     OW20527   4.135   1.430   5.027
 6543SOL    HW120528   4.126   1.519   4.983
 6543SOL    HW220529   4.104   1.358   4.964
 6544SOL     OW20530   0.299   0.068   1.026
 6544SOL    HW120531   0.292   0.158   0.981
 6544SOL    HW220532   0.212   0.020   1.018
 6545SOL     OW20533   4.707   6.790   1.316
 6545SOL    HW120534   4.629   6.800   1.255
 6545SOL    HW220535   4.719   6.694   1.339
 6546SOL     OW20536   5.526   4.428   6.310
 6546SOL    HW120537   5.559   4.395   6.399
 6546SOL    HW220538   5.559   4.368   6.238
 6547SOL     OW20539   0.932   6.142   5.435
 6547SOL    HW120540   0.842   6.180   5.458
 6547SOL    HW220541   0.921   6.046   5.409
 6548SOL     OW20542   0.236   1.277   5.984
 6548SOL    HW120543   0.229   1.200   5.920
 6548SOL    HW220544   0.243   1.242   6.077
 6549SOL     OW20545   4.022   1.686   3.031
 6549SOL    HW120546   3.991   1.746   3.105
 6549SOL    HW220547   4.067   1.605   3.070
 6550SOL     OW20548   6.123   6.392   2.918
 6550SOL    HW120549   6.094   6.408   3.012
 6550SOL    HW220550   6.218   6.423   2.906
 6551SOL     OW20551   2.642   4.192   0.814
 6551SOL    HW120552   2.599   4.115   0.861
 6551SOL    HW220553   2.687   4.251   0.881
 6552SOL     OW20554   2.057   5.094   0.104
 6552SOL    HW120555   2.003   5.159   0.158
 6552SOL    HW220556   2.009   5.006   0.099
 6553SOL     OW20557   0.872   1.699   3.505
 6553SOL    HW120558   0.968   1.673   3.498
 6553SOL    HW220559   0.841   1.736   3.417
 6554SOL     OW20560   1.310   2.582   4.180
 6554SOL    HW120561   1.238   2.613   4.242
 6554SOL    HW220562   1.322   2.648   4.106
 6555SOL     OW20563   0.165   3.900   3.906
 6555SOL    HW120564   0.123   3.822   3.953
 6555SOL    HW220565   0.133   3.902   3.811
 6556SOL     OW20566   4.817   3.043   2.675
 6556SOL    HW120567   4.739   3.071   2.620
 6556SOL    HW220568   4.810   2.945   2.695
 6557SOL     OW20569   2.140   0.613   2.547
 6557SOL    HW120570   2.172   0.525   2.510
 6557SOL    HW220571   2.042   0.606   2.568
 6558SOL     OW20572   5.219   6.566   0.137
 6558SOL    HW120573   5.218   6.622   0.054
 6558SOL    HW220574   5.137   6.586   0.191
 6559SOL     OW20575   6.490   2.908   6.014
 6559SOL    HW120576   6.560   2.838   6.030
 6559SOL    HW220577   6.405   2.865   5.986
 6560SOL     OW20578   0.057   5.041   7.006
 6560SOL    HW120579   0.003   5.077   0.064
 6560SOL    HW220580   0.048   5.102   6.927
 6561SOL     OW20581   2.973   4.286   0.299
 6561SOL    HW120582   3.042   4.267   0.368
 6561SOL    HW220583   3.017   4.324   0.217
 6562SOL     OW20584   5.114   2.573   1.758
 6562SOL    HW120585   5.087   2.543   1.850
 6562SOL    HW220586   5.210   2.549   1.743
 6563SOL     OW20587   6.047   5.267   5.262
 6563SOL    HW120588   6.042   5.364   5.286
 6563SOL    HW220589   6.083   5.257   5.169
 6564SOL     OW20590   5.850   3.000   2.589
 6564SOL    HW120591   5.913   3.072   2.562
 6564SOL    HW220592   5.768   3.003   2.530
 6565SOL     OW20593   5.297   6.671   2.895
 6565SOL    HW120594   5.244   6.707   2.818
 6565SOL    HW220595   5.261   6.710   2.980
 6566SOL     OW20596   5.108   5.512   3.949
 6566SOL    HW120597   5.200   5.472   3.945
 6566SOL    HW220598   5.101   5.587   3.885
 6567SOL     OW20599   3.828   0.452   2.131
 6567SOL    HW120600   3.788   0.409   2.211
 6567SOL    HW220601   3.927   0.439   2.132
 6568SOL     OW20602   4.435   1.365   0.877
 6568SOL    HW120603   4.451   1.436   0.809
 6568SOL    HW220604   4.379   1.292   0.836
 6569SOL     OW20605   1.120   4.791   4.385
 6569SOL    HW120606   1.089   4.864   4.324
 6569SOL    HW220607   1.201   4.821   4.436
 6570SOL     OW20608   4.134   6.951   2.397
 6570SOL    HW120609   4.152   6.853   2.391
 6570SOL    HW220610   4.200   6.994   2.458
 6571SOL     OW20611   2.923   6.291   3.481
 6571SOL    HW120612   2.934   6.211   3.540
 6571SOL    HW220613   2.997   6.295   3.414
 6572SOL     OW20614   1.695   6.032   3.863
 6572SOL    HW120615   1.616   6.092   3.874
 6572SOL    HW220616   1.667   5.947   3.818
 6573SOL     OW20617   0.497   2.048   3.160
 6573SOL    HW120618   0.404   2.064   3.127
 6573SOL    HW220619   0.518   2.110   3.235
 6574SOL     OW20620   1.378   4.746   2.245
 6574SOL    HW120621   1.400   4.749   2.147
 6574SOL    HW220622   1.283   4.773   2.259
 6575SOL     OW20623   0.133   1.430   3.549
 6575SOL    HW120624   0.158   1.470   3.638
 6575SOL    HW220625   0.195   1.465   3.479
 6576SOL     OW20626   4.391   6.689   1.487
 6576SOL    HW120627   4.388   6.685   1.387
 6576SOL    HW220628   4.444   6.769   1.516
 6577SOL     OW20629   3.633   1.336   4.240
 6577SOL    HW120630   3.682   1.331   4.327
 6577SOL    HW220631   3.577   1.254   4.228
 6578SOL     OW20632   0.885   4.546   0.430
 6578SOL    HW120633   0.982   4.550   0.405
 6578SOL    HW220634   0.866   4.458   0.473
 6579SOL     OW20635   0.912   0.893   3.758
 6579SOL    HW120636   0.945   0.985   3.779
 6579SOL    HW220637   0.863   0.894   3.671
 6580SOL     OW20638   2.582   1.865   0.385
 6580SOL    HW120639   2.486   1.842   0.399
 6580SOL    HW220640   2.589   1.949   0.332
 6581SOL     OW20641   0.476   2.289   0.923
 6581SOL    HW120642   0.542   2.280   0.998
 6581SOL    HW220643   0.488   2.378   0.878
 6582SOL     OW20644   5.714   1.118   2.966
 6582SOL    HW120645   5.663   1.073   2.893
 6582SOL    HW220646   5.808   1.134   2.936
 6583SOL     OW20647   3.145   4.390   0.098
 6583SOL    HW120648   3.194   4.469   0.060
 6583SOL    HW220649   3.211   4.321   0.128
 6584SOL     OW20650   4.519   2.130   6.495
 6584SOL    HW120651   4.498   2.187   6.575
 6584SOL    HW220652   4.435   2.097   6.454
 6585SOL     OW20653   5.760   0.110   2.313
 6585SOL    HW120654   5.842   0.099   2.256
 6585SOL    HW220655   5.744   0.207   2.329
 6586SOL     OW20656   6.731   1.179   6.497
 6586SOL    HW120657   6.669   1.255   6.477
 6586SOL    HW220658   6.739   1.167   6.596
 6587SOL     OW20659   2.463   5.042   4.961
 6587SOL    HW120660   2.393   4.975   4.983
 6587SOL    HW220661   2.474   5.106   5.037
 6588SOL     OW20662   0.361   2.350   0.604
 6588SOL    HW120663   0.329   2.315   0.517
 6588SOL    HW220664   0.442   2.298   0.633
 6589SOL     OW20665   6.889   6.562   2.252
 6589SOL    HW120666   6.874   6.556   2.351
 6589SOL    HW220667   6.804   6.540   2.205
 6590SOL     OW20668   0.802   6.439   4.369
 6590SOL    HW120669   0.890   6.421   4.325
 6590SOL    HW220670   0.778   6.361   4.427
 6591SOL     OW20671   6.123   3.845   3.609
 6591SOL    HW120672   6.024   3.835   3.611
 6591SOL    HW220673   6.165   3.778   3.670
 6592SOL     OW20674   6.289   6.672   3.720
 6592SOL    HW120675   6.219   6.725   3.767
 6592SOL    HW220676   6.246   6.609   3.655
 6593SOL     OW20677   2.028   1.252   1.895
 6593SOL    HW120678   1.985   1.320   1.955
 6593SOL    HW220679   2.004   1.160   1.927
 6594SOL     OW20680   5.097   0.100   6.851
 6594SOL    HW120681   5.141   0.048   6.925
 6594SOL    HW220682   5.034   0.040   6.802
 6595SOL     OW20683   0.797   1.993   5.160
 6595SOL    HW120684   0.818   1.905   5.202
 6595SOL    HW220685   0.803   2.065   5.229
 6596SOL     OW20686   5.034   0.803   2.334
 6596SOL    HW120687   4.967   0.848   2.393
 6596SOL    HW220688   5.075   0.726   2.382
 6597SOL     OW20689   0.558   4.721   1.167
 6597SOL    HW120690   0.574   4.637   1.220
 6597SOL    HW220691   0.607   4.715   1.080
 6598SOL     OW20692   1.920   4.824   3.254
 6598SOL    HW120693   1.994   4.823   3.188
 6598SOL    HW220694   1.845   4.766   3.221
 6599SOL     OW20695   0.511   5.584   5.829
 6599SOL    HW120696   0.552   5.675   5.832
 6599SOL    HW220697   0.526   5.544   5.739
 6600SOL     OW20698   4.622   0.019   5.589
 6600SOL    HW120699   4.706   6.998   5.552
 6600SOL    HW220700   4.619   0.116   5.565
 6601SOL     OW20701   1.489   2.154   1.877
 6601SOL    HW120702   1.439   2.221   1.932
 6601SOL    HW220703   1.583   2.147   1.911
 6602SOL     OW20704   0.097   5.576   1.857
 6602SOL    HW120705   0.028   5.547   1.791
 6602SOL    HW220706   0.161   5.500   1.874
 6603SOL     OW20707   0.065   4.127   2.646
 6603SOL    HW120708   7.004   4.071   2.623
 6603SOL    HW220709   0.147   4.085   2.606
 6604SOL     OW20710   1.720   5.666   3.251
 6604SOL    HW120711   1.654   5.633   3.183
 6604SOL    HW220712   1.703   5.620   3.338
 6605SOL     OW20713   6.999   5.810   1.058
 6605SOL    HW120714   6.988   5.885   1.123
 6605SOL    HW220715   0.044   5.838   0.986
 6606SOL     OW20716   1.648   3.344   2.876
 6606SOL    HW120717   1.691   3.391   2.953
 6606SOL    HW220718   1.549   3.341   2.890
 6607SOL     OW20719   6.230   3.376   3.754
 6607SOL    HW120720   6.223   3.294   3.809
 6607SOL    HW220721   6.327   3.395   3.734
 6608SOL     OW20722   1.676   6.752   5.889
 6608SOL    HW120723   1.770   6.780   5.908
 6608SOL    HW220724   1.662   6.658   5.921
 6609SOL     OW20725   4.015   1.567   6.750
 6609SOL    HW120726   3.996   1.659   6.784
 6609SOL    HW220727   4.033   1.571   6.651
 6610SOL     OW20728   2.854   5.430   1.173
 6610SOL    HW120729   2.854   5.335   1.204
 6610SOL    HW220730   2.921   5.482   1.227
 6611SOL     OW20731   2.970   1.797   4.948
 6611SOL    HW120732   2.957   1.852   4.866
 6611SOL    HW220733   3.007   1.708   4.924
 6612SOL     OW20734   0.456   0.338   6.887
 6612SOL    HW120735   0.460   0.400   6.809
 6612SOL    HW220736   0.361   0.326   6.915
 6613SOL     OW20737   4.539   6.873   0.253
 6613SOL    HW120738   4.537   6.893   0.351
 6613SOL    HW220739   4.557   6.957   0.202
 6614SOL     OW20740   4.028   5.117   0.743
 6614SOL    HW120741   3.938   5.087   0.774
 6614SOL    HW220742   4.055   5.064   0.663
 6615SOL     OW20743   3.784   5.846   6.119
 6615SOL    HW120744   3.830   5.773   6.069
 6615SOL    HW220745   3.797   5.933   6.072
 6616SOL     OW20746   4.071   1.120   7.008
 6616SOL    HW120747   4.066   1.182   6.930
 6616SOL    HW220748   4.029   1.165   0.069
 6617SOL     OW20749   3.532   0.603   3.974
 6617SOL    HW120750   3.460   0.666   3.945
 6617SOL    HW220751   3.603   0.653   4.023
 6618SOL     OW20752   5.854   2.525   4.207
 6618SOL    HW120753   5.854   2.435   4.162
 6618SOL    HW220754   5.817   2.594   4.146
 6619SOL     OW20755   4.987   5.281   3.872
 6619SOL    HW120756   4.996   5.372   3.914
 6619SOL    HW220757   5.071   5.230   3.886
 6620SOL     OW20758   1.287   2.698   3.234
 6620SOL    HW120759   1.332   2.637   3.168
 6620SOL    HW220760   1.201   2.730   3.196
 6621SOL     OW20761   2.935   3.817   4.151
 6621SOL    HW120762   2.932   3.717   4.147
 6621SOL    HW220763   2.980   3.845   4.235
 6622SOL     OW20764   0.343   5.644   1.193
 6622SOL    HW120765   0.345   5.650   1.093
 6622SOL    HW220766   0.249   5.627   1.224
 6623SOL     OW20767   3.268   4.061   4.460
 6623SOL    HW120768   3.361   4.032   4.481
 6623SOL    HW220769   3.213   4.062   4.544
 6624SOL     OW20770   2.440   2.243   2.707
 6624SOL    HW120771   2.430   2.148   2.679
 6624SOL    HW220772   2.535   2.260   2.734
 6625SOL     OW20773   6.574   4.117   5.444
 6625SOL    HW120774   6.509   4.189   5.423
 6625SOL    HW220775   6.662   4.158   5.468
 6626SOL     OW20776   2.895   5.984   5.809
 6626SOL    HW120777   2.865   5.893   5.838
 6626SOL    HW220778   2.892   5.989   5.709
 6627SOL     OW20779   2.197   6.285   3.718
 6627SOL    HW120780   2.172   6.205   3.663
 6627SOL    HW220781   2.270   6.259   3.782
 6628SOL     OW20782   3.674   6.209   3.539
 6628SOL    HW120783   3.747   6.272   3.512
 6628SOL    HW220784   3.585   6.253   3.526
 6629SOL     OW20785   5.075   5.929   5.643
 6629SOL    HW120786   5.037   6.008   5.596
 6629SOL    HW220787   5.088   5.855   5.577
 6630SOL     OW20788   1.383   1.102   0.143
 6630SOL    HW120789   1.365   1.045   0.223
 6630SOL    HW220790   1.477   1.085   0.112
 6631SOL     OW20791   1.892   3.530   5.642
 6631SOL    HW120792   1.951   3.495   5.569
 6631SOL    HW220793   1.948   3.581   5.707
 6632SOL     OW20794   1.254   0.040   0.079
 6632SOL    HW120795   1.301   0.115   0.125
 6632SOL    HW220796   1.303   6.973   0.095
 6633SOL     OW20797   4.093   5.351   6.055
 6633SOL    HW120798   4.067   5.335   5.960
 6633SOL    HW220799   4.101   5.449   6.071
 6634SOL     OW20800   3.477   1.903   3.887
 6634SOL    HW120801   3.411   1.912   3.812
 6634SOL    HW220802   3.568   1.928   3.855
 6635SOL     OW20803   4.822   5.308   4.970
 6635SOL    HW120804   4.757   5.352   5.032
 6635SOL    HW220805   4.865   5.377   4.912
 6636SOL     OW20806   4.435   0.872   0.240
 6636SOL    HW120807   4.446   0.923   0.325
 6636SOL    HW220808   4.341   0.882   0.207
 6637SOL     OW20809   0.179   2.242   0.430
 6637SOL    HW120810   0.103   2.277   0.485
 6637SOL    HW220811   0.194   2.303   0.352
 6638SOL     OW20812   3.171   4.095   3.927
 6638SOL    HW120813   3.108   4.018   3.915
 6638SOL    HW220814   3.172   4.124   4.023
 6639SOL     OW20815   5.324   2.736   0.956
 6639SOL    HW120816   5.348   2.676   1.032
 6639SOL    HW220817   5.225   2.733   0.942
 6640SOL     OW20818   1.771   4.168   4.969
 6640SOL    HW120819   1.838   4.159   5.043
 6640SOL    HW220820   1.713   4.087   4.967
 6641SOL     OW20821   6.085   2.288   1.006
 6641SOL    HW120822   6.085   2.317   0.910
 6641SOL    HW220823   6.161   2.334   1.054
 6642SOL     OW20824   1.509   5.767   6.969
 6642SOL    HW120825   1.434   5.745   0.012
 6642SOL    HW220826   1.487   5.849   6.917
 6643SOL     OW20827   3.124   5.974   5.964
 6643SOL    HW120828   3.044   5.995   5.908
 6643SOL    HW220829   3.157   6.057   6.008
 6644SOL     OW20830   1.791   6.480   4.196
 6644SOL    HW120831   1.857   6.554   4.186
 6644SOL    HW220832   1.758   6.453   4.105
 6645SOL     OW20833   5.509   3.172   6.213
 6645SOL    HW120834   5.429   3.114   6.224
 6645SOL    HW220835   5.547   3.160   6.121
 6646SOL     OW20836   3.679   7.010   5.775
 6646SOL    HW120837   3.701   0.036   5.688
 6646SOL    HW220838   3.654   6.914   5.758
 6647SOL     OW20839   4.267   5.028   0.940
 6647SOL    HW120840   4.238   5.032   0.844
 6647SOL    HW220841   4.299   4.936   0.961
 6648SOL     OW20842   2.974   6.003   5.207
 6648SOL    HW120843   3.022   6.086   5.179
 6648SOL    HW220844   2.904   5.980   5.139
 6649SOL     OW20845   4.833   2.649   6.304
 6649SOL    HW120846   4.879   2.584   6.364
 6649SOL    HW220847   4.877   2.647   6.214
 6650SOL     OW20848   1.409   1.465   5.603
 6650SOL    HW120849   1.340   1.536   5.589
 6650SOL    HW220850   1.366   1.386   5.647
 6651SOL     OW20851   6.743   1.609   5.882
 6651SOL    HW120852   6.657   1.642   5.921
 6651SOL    HW220853   6.724   1.549   5.804
 6652SOL     OW20854   6.990   4.886   0.367
 6652SOL    HW120855   0.023   4.880   0.453
 6652SOL    HW220856   6.947   4.798   0.348
 6653SOL     OW20857   5.819   4.605   0.286
 6653SOL    HW120858   5.872   4.613   0.370
 6653SOL    HW220859   5.722   4.599   0.308
 6654SOL     OW20860   6.205   3.659   3.784
 6654SOL    HW120861   6.230   3.669   3.880
 6654SOL    HW220862   6.186   3.563   3.764
 6655SOL     OW20863   6.970   5.998   1.835
 6655SOL    HW120864   0.032   6.007   1.776
 6655SOL    HW220865   6.908   6.075   1.819
 6656SOL     OW20866   4.126   1.308   3.398
 6656SOL    HW120867   4.055   1.243   3.427
 6656SOL    HW220868   4.213   1.260   3.388
 6657SOL     OW20869   5.203   1.820   3.902
 6657SOL    HW120870   5.296   1.792   3.926
 6657SOL    HW220871   5.178   1.780   3.814
 6658SOL     OW20872   6.688   6.218   5.474
 6658SOL    HW120873   6.786   6.229   5.495
 6658SOL    HW220874   6.676   6.142   5.411
 6659SOL     OW20875   0.741   5.003   1.528
 6659SOL    HW120876   0.718   5.085   1.475
 6659SOL    HW220877   0.707   4.922   1.480
 6660SOL     OW20878   6.869   0.307   4.524
 6660SOL    HW120879   6.946   0.361   4.491
 6660SOL    HW220880   6.864   0.221   4.471
 6661SOL     OW20881   4.165   5.589   3.895
 6661SOL    HW120882   4.204   5.596   3.987
 6661SOL    HW220883   4.067   5.607   3.898
 6662SOL     OW20884   3.674   6.597   2.537
 6662SOL    HW120885   3.709   6.687   2.513
 6662SOL    HW220886   3.683   6.583   2.636
 6663SOL     OW20887   0.926   4.356   5.876
 6663SOL    HW120888   0.838   4.369   5.921
 6663SOL    HW220889   0.924   4.400   5.786
 6664SOL     OW20890   2.671   0.558   1.644
 6664SOL    HW120891   2.731   0.637   1.645
 6664SOL    HW220892   2.722   0.477   1.673
 6665SOL     OW20893   2.656   1.007   7.000
 6665SOL    HW120894   2.588   1.080   6.996
 6665SOL    HW220895   2.692   1.000   0.075
 6666SOL     OW20896   3.785   6.230   4.938
 6666SOL    HW120897   3.841   6.239   4.855
 6666SOL    HW220898   3.705   6.173   4.918
 6667SOL     OW20899   1.358   5.737   6.583
 6667SOL    HW120900   1.379   5.827   6.544
 6667SOL    HW220901   1.358   5.669   6.509
 6668SOL     OW20902   0.330   4.283   0.577
 6668SOL    HW120903   0.268   4.355   0.609
 6668SOL    HW220904   0.297   4.194   0.610
 6669SOL     OW20905   1.728   1.973   2.611
 6669SOL    HW120906   1.647   2.019   2.648
 6669SOL    HW220907   1.809   2.000   2.663
 6670SOL     OW20908   3.801   2.915   0.366
 6670SOL    HW120909   3.895   2.882   0.356
 6670SOL    HW220910   3.785   2.991   0.302
 6671SOL     OW20911   4.670   4.825   0.055
 6671SOL    HW120912   4.719   4.817   0.143
 6671SOL    HW220913   4.640   4.919   0.042
 6672SOL     OW20914   0.844   2.232   1.613
 6672SOL    HW120915   0.935   2.274   1.605
 6672SOL    HW220916   0.854   2.132   1.617
 6673SOL     OW20917   6.388   2.830   4.076
 6673SOL    HW120918   6.326   2.851   4.152
 6673SOL    HW220919   6.341   2.844   3.989
 6674SOL     OW20920   0.370   1.567   0.471
 6674SOL    HW120921   0.437   1.618   0.416
 6674SOL    HW220922   0.402   1.562   0.565
 6675SOL     OW20923   4.754   0.521   6.727
 6675SOL    HW120924   4.764   0.602   6.669
 6675SOL    HW220925   4.799   0.537   6.815
 6676SOL     OW20926   0.665   4.238   4.236
 6676SOL    HW120927   0.639   4.142   4.247
 6676SOL    HW220928   0.584   4.293   4.217
 6677SOL     OW20929   0.952   1.771   6.157
 6677SOL    HW120930   0.994   1.700   6.215
 6677SOL    HW220931   0.900   1.728   6.084
 6678SOL     OW20932   2.679   4.148   6.265
 6678SOL    HW120933   2.670   4.238   6.223
 6678SOL    HW220934   2.656   4.154   6.362
 6679SOL     OW20935   1.483   0.625   3.685
 6679SOL    HW120936   1.563   0.651   3.740
 6679SOL    HW220937   1.436   0.707   3.653
 6680SOL     OW20938   6.634   6.039   1.191
 6680SOL    HW120939   6.624   5.979   1.271
 6680SOL    HW220940   6.560   6.022   1.126
 6681SOL     OW20941   3.399   6.138   1.562
 6681SOL    HW120942   3.390   6.151   1.463
 6681SOL    HW220943   3.354   6.053   1.589
 6682SOL     OW20944   3.252   5.822   5.744
 6682SOL    HW120945   3.237   5.869   5.831
 6682SOL    HW220946   3.329   5.759   5.753
 6683SOL     OW20947   0.057   4.754   6.060
 6683SOL    HW120948   7.016   4.816   6.112
 6683SOL    HW220949   0.033   4.760   5.963
 6684SOL     OW20950   2.950   6.219   0.068
 6684SOL    HW120951   2.904   6.305   0.089
 6684SOL    HW220952   2.893   6.143   0.098
 6685SOL     OW20953   5.401   2.928   0.553
 6685SOL    HW120954   5.444   3.011   0.589
 6685SOL    HW220955   5.421   2.921   0.455
 6686SOL     OW20956   5.280   5.180   4.822
 6686SOL    HW120957   5.340   5.109   4.857
 6686SOL    HW220958   5.214   5.206   4.892
 6687SOL     OW20959   6.938   1.574   1.253
 6687SOL    HW120960   6.873   1.499   1.243
 6687SOL    HW220961   6.908   1.635   1.326
 6688SOL     OW20962   4.265   4.948   0.604
 6688SOL    HW120963   4.364   4.945   0.597
 6688SOL    HW220964   4.232   4.869   0.656
 6689SOL     OW20965   2.617   4.371   5.858
 6689SOL    HW120966   2.586   4.378   5.762
 6689SOL    HW220967   2.600   4.278   5.891
 6690SOL     OW20968   0.747   0.509   6.581
 6690SOL    HW120969   0.755   0.434   6.516
 6690SOL    HW220970   0.661   0.557   6.567
 6691SOL     OW20971   2.991   1.934   2.355
 6691SOL    HW120972   3.084   1.967   2.337
 6691SOL    HW220973   2.925   2.002   2.323
 6692SOL     OW20974   4.207   5.357   2.650
 6692SOL    HW120975   4.165   5.442   2.682
 6692SOL    HW220976   4.137   5.302   2.603
 6693SOL     OW20977   3.331   1.930   5.204
 6693SOL    HW120978   3.332   1.867   5.126
 6693SOL    HW220979   3.425   1.945   5.235
 6694SOL     OW20980   3.896   4.306   1.513
 6694SOL    HW120981   3.803   4.279   1.537
 6694SOL    HW220982   3.909   4.298   1.414
 6695SOL     OW20983   2.697   2.226   0.464
 6695SOL    HW120984   2.641   2.281   0.526
 6695SOL    HW220985   2.770   2.180   0.516
 6696SOL     OW20986   4.078   3.245   4.249
 6696SOL    HW120987   4.104   3.214   4.158
 6696SOL    HW220988   3.981   3.229   4.263
 6697SOL     OW20989   4.659   2.118   2.019
 6697SOL    HW120990   4.668   2.086   2.114
 6697SOL    HW220991   4.567   2.156   2.006
 6698SOL     OW20992   3.653   4.213   1.592
 6698SOL    HW120993   3.675   4.130   1.642
 6698SOL    HW220994   3.595   4.271   1.649
 6699SOL     OW20995   1.159   3.728   5.527
 6699SOL    HW120996   1.083   3.777   5.570
 6699SOL    HW220997   1.242   3.744   5.580
 6700SOL     OW20998   5.998   0.356   0.848
 6700SOL    HW120999   6.000   0.295   0.927
 6700SOL    HW221000   5.904   0.372   0.821
 6701SOL     OW21001   6.426   6.905   1.672
 6701SOL    HW121002   6.504   6.849   1.698
 6701SOL    HW221003   6.370   6.925   1.753
 6702SOL     OW21004   3.836   3.169   1.037
 6702SOL    HW121005   3.908   3.230   1.068
 6702SOL    HW221006   3.759   3.223   1.002
 6703SOL     OW21007   6.802   1.148   0.471
 6703SOL    HW121008   6.766   1.187   0.386
 6703SOL    HW221009   6.780   1.208   0.547
 6704SOL     OW21010   3.502   6.791   5.736
 6704SOL    HW121011   3.413   6.770   5.778
 6704SOL    HW221012   3.488   6.840   5.650
 6705SOL     OW21013   0.176   4.348   2.277
 6705SOL    HW121014   0.195   4.444   2.255
 6705SOL    HW221015   0.243   4.290   2.232
 6706SOL     OW21016   0.006   6.771   1.589
 6706SOL    HW121017   6.973   6.689   1.565
 6706SOL    HW221018   0.059   6.801   1.510
 6707SOL     OW21019   4.868   1.002   2.417
 6707SOL    HW121020   4.945   1.064   2.400
 6707SOL    HW221021   4.802   1.010   2.341
 6708SOL     OW21022   0.972   3.511   0.284
 6708SOL    HW121023   0.972   3.513   0.384
 6708SOL    HW221024   1.048   3.454   0.252
 6709SOL     OW21025   2.299   4.398   2.217
 6709SOL    HW121026   2.273   4.302   2.222
 6709SOL    HW221027   2.294   4.430   2.122
 6710SOL     OW21028   4.656   1.304   1.071
 6710SOL    HW121029   4.722   1.308   1.146
 6710SOL    HW221030   4.646   1.395   1.030
 6711SOL     OW21031   3.136   6.198   6.108
 6711SOL    HW121032   3.146   6.208   6.207
 6711SOL    HW221033   3.072   6.267   6.073
 6712SOL     OW21034   5.332   4.715   1.489
 6712SOL    HW121035   5.278   4.756   1.415
 6712SOL    HW221036   5.349   4.619   1.468
 6713SOL     OW21037   1.860   5.323   4.389
 6713SOL    HW121038   1.892   5.258   4.458
 6713SOL    HW221039   1.801   5.391   4.433
 6714SOL     OW21040   5.831   1.300   1.786
 6714SOL    HW121041   5.880   1.220   1.820
 6714SOL    HW221042   5.825   1.295   1.686
 6715SOL     OW21043   1.615   0.299   6.668
 6715SOL    HW121044   1.692   0.237   6.685
 6715SOL    HW221045   1.539   0.274   6.727
 6716SOL     OW21046   6.948   5.853   2.574
 6716SOL    HW121047   6.949   5.912   2.493
 6716SOL    HW221048   6.901   5.768   2.553
 6717SOL     OW21049   5.673   1.540   5.817
 6717SOL    HW121050   5.595   1.518   5.759
 6717SOL    HW221051   5.706   1.632   5.795
 6718SOL     OW21052   4.353   1.584   0.686
 6718SOL    HW121053   4.411   1.588   0.605
 6718SOL    HW221054   4.260   1.612   0.662
 6719SOL     OW21055   1.791   1.276   6.937
 6719SOL    HW121056   1.886   1.245   6.948
 6719SOL    HW221057   1.762   1.323   0.003
 6720SOL     OW21058   1.528   0.910   5.845
 6720SOL    HW121059   1.550   0.980   5.913
 6720SOL    HW221060   1.603   0.844   5.840
 6721SOL     OW21061   6.011   0.039   1.067
 6721SOL    HW121062   6.096   0.075   1.105
 6721SOL    HW221063   5.941   0.035   1.138
 6722SOL     OW21064   5.443   3.773   0.196
 6722SOL    HW121065   5.355   3.791   0.240
 6722SOL    HW221066   5.493   3.858   0.183
 6723SOL     OW21067   1.247   2.874   5.800
 6723SOL    HW121068   1.253   2.932   5.719
 6723SOL    HW221069   1.236   2.931   5.881
 6724SOL     OW21070   2.137   3.582   4.045
 6724SOL    HW121071   2.145   3.673   4.005
 6724SOL    HW221072   2.104   3.518   3.975
 6725SOL     OW21073   4.975   2.342   3.423
 6725SOL    HW121074   5.057   2.321   3.369
 6725SOL    HW221075   4.978   2.292   3.509
 6726SOL     OW21076   0.457   0.561   5.776
 6726SOL    HW121077   0.472   0.535   5.681
 6726SOL    HW221078   0.545   0.578   5.821
 6727SOL     OW21079   1.513   4.944   5.792
 6727SOL    HW121080   1.532   4.887   5.712
 6727SOL    HW221081   1.532   4.891   5.875
 6728SOL     OW21082   3.564   1.268   2.957
 6728SOL    HW121083   3.583   1.201   3.029
 6728SOL    HW221084   3.465   1.271   2.940
 6729SOL     OW21085   4.435   1.128   2.259
 6729SOL    HW121086   4.385   1.115   2.174
 6729SOL    HW221087   4.418   1.220   2.294
 6730SOL     OW21088   0.136   1.684   0.482
 6730SOL    HW121089   0.219   1.629   0.467
 6730SOL    HW221090   0.118   1.741   0.402
 6731SOL     OW21091   3.680   0.294   6.277
 6731SOL    HW121092   3.747   0.290   6.351
 6731SOL    HW221093   3.690   0.381   6.228
 6732SOL     OW21094   0.046   5.035   5.701
 6732SOL    HW121095   0.035   5.058   5.798
 6732SOL    HW221096   0.057   4.937   5.691
 6733SOL     OW21097   4.673   4.755   5.893
 6733SOL    HW121098   4.614   4.680   5.860
 6733SOL    HW221099   4.769   4.726   5.889
 6734SOL     OW21100   6.049   1.956   4.006
 6734SOL    HW121101   6.076   1.910   4.090
 6734SOL    HW221102   5.990   2.034   4.027
 6735SOL     OW21103   6.453   2.496   3.040
 6735SOL    HW121104   6.362   2.532   3.021
 6735SOL    HW221105   6.449   2.436   3.120
 6736SOL     OW21106   3.671   3.647   0.961
 6736SOL    HW121107   3.577   3.674   0.980
 6736SOL    HW221108   3.734   3.715   1.000
 6737SOL     OW21109   6.995   3.794   6.891
 6737SOL    HW121110   7.016   3.861   6.820
 6737SOL    HW221111   6.936   3.723   6.854
 6738SOL     OW21112   1.074   6.094   4.012
 6738SOL    HW121113   1.106   6.024   3.948
 6738SOL    HW221114   1.075   6.183   3.967
 6739SOL     OW21115   6.966   0.270   5.112
 6739SOL    HW121116   0.001   0.195   5.153
 6739SOL    HW221117   6.983   0.273   5.014
 6740SOL     OW21118   0.557   6.621   3.010
 6740SOL    HW121119   0.558   6.652   3.106
 6740SOL    HW221120   0.602   6.689   2.953
 6741SOL     OW21121   4.005   1.841   6.810
 6741SOL    HW121122   4.089   1.870   6.763
 6741SOL    HW221123   3.932   1.906   6.791
 6742SOL     OW21124   5.697   4.131   3.651
 6742SOL    HW121125   5.780   4.171   3.690
 6742SOL    HW221126   5.653   4.073   3.720
 6743SOL     OW21127   3.785   3.822   0.581
 6743SOL    HW121128   3.687   3.837   0.573
 6743SOL    HW221129   3.802   3.728   0.611
 6744SOL     OW21130   6.091   6.788   6.013
 6744SOL    HW121131   6.079   6.711   6.076
 6744SOL    HW221132   6.187   6.792   5.984
 6745SOL     OW21133   0.101   4.809   5.175
 6745SOL    HW121134   0.142   4.728   5.131
 6745SOL    HW221135   0.023   4.780   5.230
 6746SOL     OW21136   0.857   2.273   2.572
 6746SOL    HW121137   0.912   2.237   2.496
 6746SOL    HW221138   0.893   2.238   2.658
 6747SOL     OW21139   1.602   6.361   5.647
 6747SOL    HW121140   1.522   6.315   5.607
 6747SOL    HW221141   1.681   6.349   5.587
 6748SOL     OW21142   2.164   1.182   4.752
 6748SOL    HW121143   2.072   1.220   4.753
 6748SOL    HW221144   2.206   1.192   4.842
 6749SOL     OW21145   4.190   4.962   2.341
 6749SOL    HW121146   4.150   5.038   2.392
 6749SOL    HW221147   4.118   4.898   2.316
 6750SOL     OW21148   3.696   1.260   5.103
 6750SOL    HW121149   3.705   1.320   5.024
 6750SOL    HW221150   3.604   1.267   5.141
 6751SOL     OW21151   4.584   0.152   4.159
 6751SOL    HW121152   4.499   0.113   4.194
 6751SOL    HW221153   4.630   0.205   4.230
 6752SOL     OW21154   2.071   4.679   2.222
 6752SOL    HW121155   2.062   4.688   2.122
 6752SOL    HW221156   2.015   4.748   2.267
 6753SOL     OW21157   3.933   3.162   5.918
 6753SOL    HW121158   3.954   3.093   5.988
 6753SOL    HW221159   3.982   3.139   5.834
 6754SOL     OW21160   5.924   1.955   0.617
 6754SOL    HW121161   5.849   1.959   0.682
 6754SOL    HW221162   5.898   2.002   0.533
 6755SOL     OW21163   2.893   5.890   6.125
 6755SOL    HW121164   2.907   5.825   6.200
 6755SOL    HW221165   2.981   5.926   6.095
 6756SOL     OW21166   3.116   2.158   5.987
 6756SOL    HW121167   3.186   2.125   5.924
 6756SOL    HW221168   3.049   2.212   5.936
 6757SOL     OW21169   4.478   0.159   0.993
 6757SOL    HW121170   4.430   0.235   0.949
 6757SOL    HW221171   4.434   0.073   0.967
 6758SOL     OW21172   5.105   1.817   3.392
 6758SOL    HW121173   5.092   1.916   3.402
 6758SOL    HW221174   5.023   1.777   3.351
 6759SOL     OW21175   0.562   2.115   2.863
 6759SOL    HW121176   0.481   2.143   2.811
 6759SOL    HW221177   0.532   2.068   2.947
 6760SOL     OW21178   5.447   2.415   4.335
 6760SOL    HW121179   5.475   2.510   4.322
 6760SOL    HW221180   5.399   2.406   4.423
 6761SOL     OW21181   3.731   1.458   4.915
 6761SOL    HW121182   3.796   1.534   4.913
 6761SOL    HW221183   3.639   1.493   4.903
 6762SOL     OW21184   6.647   5.781   4.213
 6762SOL    HW121185   6.577   5.845   4.184
 6762SOL    HW221186   6.618   5.734   4.297
 6763SOL     OW21187   5.553   5.640   4.791
 6763SOL    HW121188   5.479   5.706   4.805
 6763SOL    HW221189   5.520   5.548   4.812
 6764SOL     OW21190   1.220   4.939   0.778
 6764SOL    HW121191   1.309   4.933   0.825
 6764SOL    HW221192   1.220   4.877   0.699
 6765SOL     OW21193   0.271   4.653   2.955
 6765SOL    HW121194   0.251   4.560   2.923
 6765SOL    HW221195   0.314   4.705   2.881
 6766SOL     OW21196   5.893   0.662   1.423
 6766SOL    HW121197   5.916   0.759   1.422
 6766SOL    HW221198   5.872   0.631   1.330
 6767SOL     OW21199   3.239   0.523   0.759
 6767SOL    HW121200   3.308   0.562   0.698
 6767SOL    HW221201   3.162   0.586   0.767
 6768SOL     OW21202   1.445   0.960   0.501
 6768SOL    HW121203   1.385   0.979   0.423
 6768SOL    HW221204   1.510   0.888   0.476
 6769SOL     OW21205   4.165   2.926   1.635
 6769SOL    HW121206   4.247   2.978   1.658
 6769SOL    HW221207   4.161   2.914   1.536
 6770SOL     OW21208   0.284   0.635   1.728
 6770SOL    HW121209   0.335   0.549   1.735
 6770SOL    HW221210   0.281   0.679   1.817
 6771SOL     OW21211   4.237   2.040   3.577
 6771SOL    HW121212   4.256   1.987   3.495
 6771SOL    HW221213   4.143   2.075   3.574
 6772SOL     OW21214   3.301   1.851   3.345
 6772SOL    HW121215   3.305   1.790   3.267
 6772SOL    HW221216   3.209   1.850   3.383
 6773SOL     OW21217   0.615   4.188   1.781
 6773SOL    HW121218   0.544   4.126   1.813
 6773SOL    HW221219   0.701   4.138   1.771
 6774SOL     OW21220   0.380   1.731   6.220
 6774SOL    HW121221   0.428   1.677   6.152
 6774SOL    HW221222   0.350   1.817   6.179
 6775SOL     OW21223   2.304   4.702   0.180
 6775SOL    HW121224   2.284   4.617   0.131
 6775SOL    HW221225   2.353   4.682   0.265
 6776SOL     OW21226   5.727   5.575   0.003
 6776SOL    HW121227   5.737   5.485   6.978
 6776SOL    HW221228   5.804   5.590   0.065
 6777SOL     OW21229   4.969   4.813   6.565
 6777SOL    HW121230   4.872   4.813   6.539
 6777SOL    HW221231   5.018   4.748   6.508
 6778SOL     OW21232   0.635   6.266   2.783
 6778SOL    HW121233   0.543   6.305   2.785
 6778SOL    HW221234   0.664   6.253   2.688
 6779SOL     OW21235   0.664   4.225   0.240
 6779SOL    HW121236   0.627   4.287   0.309
 6779SOL    HW221237   0.733   4.273   0.186
 6780SOL     OW21238   0.380   2.829   2.126
 6780SOL    HW121239   0.316   2.757   2.153
 6780SOL    HW221240   0.362   2.856   2.032
 6781SOL     OW21241   5.890   4.986   6.021
 6781SOL    HW121242   5.938   5.002   6.108
 6781SOL    HW221243   5.923   4.900   5.981
 6782SOL     OW21244   5.734   1.437   3.048
 6782SOL    HW121245   5.696   1.399   2.964
 6782SOL    HW221246   5.797   1.371   3.089
 6783SOL     OW21247   0.564   6.076   6.523
 6783SOL    HW121248   0.496   6.150   6.529
 6783SOL    HW221249   0.554   6.016   6.602
 6784SOL     OW21250   3.534   2.981   0.226
 6784SOL    HW121251   3.543   2.941   0.135
 6784SOL    HW221252   3.567   2.916   0.294
 6785SOL     OW21253   6.091   6.652   2.471
 6785SOL    HW121254   6.013   6.696   2.428
 6785SOL    HW221255   6.172   6.710   2.460
 6786SOL     OW21256   2.258   3.039   5.997
 6786SOL    HW121257   2.299   2.955   6.034
 6786SOL    HW221258   2.330   3.107   5.983
 6787SOL     OW21259   1.069   3.665   1.959
 6787SOL    HW121260   0.994   3.689   1.898
 6787SOL    HW221261   1.088   3.742   2.021
 6788SOL     OW21262   2.548   3.941   0.904
 6788SOL    HW121263   2.528   3.897   0.991
 6788SOL    HW221264   2.571   3.872   0.836
 6789SOL     OW21265   0.339   6.339   2.815
 6789SOL    HW121266   0.315   6.429   2.781
 6789SOL    HW221267   0.352   6.343   2.914
 6790SOL     OW21268   1.948   3.010   6.935
 6790SOL    HW121269   2.013   2.934   6.950
 6790SOL    HW221270   1.959   3.045   6.842
 6791SOL     OW21271   4.323   3.625   5.977
 6791SOL    HW121272   4.367   3.590   6.059
 6791SOL    HW221273   4.365   3.584   5.896
 6792SOL     OW21274   0.085   5.563   0.643
 6792SOL    HW121275   0.004   5.522   0.599
 6792SOL    HW221276   0.067   5.574   0.741
 6793SOL     OW21277   6.683   1.835   1.200
 6793SOL    HW121278   6.724   1.766   1.140
 6793SOL    HW221279   6.588   1.850   1.174
 6794SOL     OW21280   4.888   1.000   5.024
 6794SOL    HW121281   4.791   1.013   5.000
 6794SOL    HW221282   4.929   1.088   5.044
 6795SOL     OW21283   3.266   5.595   6.701
 6795SOL    HW121284   3.334   5.526   6.723
 6795SOL    HW221285   3.306   5.687   6.711
 6796SOL     OW21286   4.413   1.842   2.789
 6796SOL    HW121287   4.446   1.754   2.823
 6796SOL    HW221288   4.313   1.844   2.792
 6797SOL     OW21289   6.776   3.599   2.304
 6797SOL    HW121290   6.820   3.627   2.390
 6797SOL    HW221291   6.730   3.677   2.263
 6798SOL     OW21292   6.418   6.204   2.869
 6798SOL    HW121293   6.506   6.240   2.837
 6798SOL    HW221294   6.348   6.217   2.799
 6799SOL     OW21295   5.134   6.272   1.096
 6799SOL    HW121296   5.153   6.193   1.154
 6799SOL    HW221297   5.129   6.243   1.001
 6800SOL     OW21298   2.935   4.950   6.846
 6800SOL    HW121299   2.909   5.045   6.861
 6800SOL    HW221300   2.929   4.900   6.932
 6801SOL     OW21301   1.957   1.954   2.403
 6801SOL    HW121302   1.990   2.008   2.480
 6801SOL    HW221303   1.861   1.929   2.418
 6802SOL     OW21304   2.152   6.032   2.374
 6802SOL    HW121305   2.206   5.989   2.447
 6802SOL    HW221306   2.062   6.057   2.410
 6803SOL     OW21307   5.165   2.639   0.172
 6803SOL    HW121308   5.233   2.615   0.103
 6803SOL    HW221309   5.078   2.660   0.127
 6804SOL     OW21310   1.641   6.644   3.829
 6804SOL    HW121311   1.634   6.717   3.897
 6804SOL    HW221312   1.605   6.676   3.741
 6805SOL     OW21313   5.461   0.601   4.397
 6805SOL    HW121314   5.537   0.539   4.378
 6805SOL    HW221315   5.496   0.694   4.411
 6806SOL     OW21316   4.441   0.794   5.771
 6806SOL    HW121317   4.503   0.813   5.695
 6806SOL    HW221318   4.348   0.787   5.737
 6807SOL     OW21319   3.089   3.094   0.707
 6807SOL    HW121320   3.128   3.018   0.759
 6807SOL    HW221321   3.160   3.133   0.648
 6808SOL     OW21322   1.472   2.984   5.019
 6808SOL    HW121323   1.427   2.974   4.930
 6808SOL    HW221324   1.463   2.898   5.070
 6809SOL     OW21325   1.923   3.353   6.328
 6809SOL    HW121326   1.859   3.421   6.363
 6809SOL    HW221327   1.950   3.376   6.235
 6810SOL     OW21328   6.062   1.438   2.320
 6810SOL    HW121329   6.043   1.382   2.240
 6810SOL    HW221330   6.161   1.441   2.336
 6811SOL     OW21331   5.188   5.814   1.598
 6811SOL    HW121332   5.151   5.723   1.582
 6811SOL    HW221333   5.121   5.868   1.649
 6812SOL     OW21334   3.113   3.568   2.923
 6812SOL    HW121335   3.203   3.531   2.944
 6812SOL    HW221336   3.103   3.657   2.968
 6813SOL     OW21337   4.439   3.881   0.971
 6813SOL    HW121338   4.488   3.793   0.970
 6813SOL    HW221339   4.408   3.900   1.064
 6814SOL     OW21340   2.442   3.566   0.364
 6814SOL    HW121341   2.368   3.630   0.344
 6814SOL    HW221342   2.410   3.497   0.429
 6815SOL     OW21343   2.111   0.370   1.913
 6815SOL    HW121344   2.062   0.429   1.849
 6815SOL    HW221345   2.070   0.279   1.911
 6816SOL     OW21346   6.619   4.606   1.126
 6816SOL    HW121347   6.612   4.510   1.156
 6816SOL    HW221348   6.594   4.612   1.030
 6817SOL     OW21349   0.041   1.449   5.959
 6817SOL    HW121350   6.974   1.410   5.923
 6817SOL    HW221351   0.107   1.376   5.976
 6818SOL     OW21352   3.048   6.370   2.907
 6818SOL    HW121353   3.049   6.443   2.839
 6818SOL    HW221354   2.998   6.291   2.870
 6819SOL     OW21355   3.366   1.357   3.913
 6819SOL    HW121356   3.350   1.453   3.935
 6819SOL    HW221357   3.422   1.350   3.831
 6820SOL     OW21358   0.849   4.333   3.539
 6820SOL    HW121359   0.778   4.396   3.572
 6820SOL    HW221360   0.807   4.245   3.517
 6821SOL     OW21361   2.421   1.895   4.411
 6821SOL    HW121362   2.452   1.978   4.458
 6821SOL    HW221363   2.455   1.895   4.317
 6822SOL     OW21364   5.278   1.992   5.788
 6822SOL    HW121365   5.212   2.042   5.731
 6822SOL    HW221366   5.354   2.052   5.811
 6823SOL     OW21367   3.002   3.225   2.347
 6823SOL    HW121368   3.083   3.245   2.292
 6823SOL    HW221369   2.954   3.310   2.368
 6824SOL     OW21370   1.690   3.965   6.482
 6824SOL    HW121371   1.736   4.053   6.468
 6824SOL    HW221372   1.713   3.904   6.406
 6825SOL     OW21373   4.583   0.170   3.423
 6825SOL    HW121374   4.564   0.132   3.513
 6825SOL    HW221375   4.525   0.127   3.355
 6826SOL     OW21376   1.197   3.180   2.401
 6826SOL    HW121377   1.263   3.132   2.460
 6826SOL    HW221378   1.212   3.154   2.306
 6827SOL     OW21379   5.712   5.973   4.887
 6827SOL    HW121380   5.728   6.001   4.793
 6827SOL    HW221381   5.630   5.915   4.892
 6828SOL     OW21382   1.443   2.571   1.319
 6828SOL    HW121383   1.412   2.486   1.362
 6828SOL    HW221384   1.459   2.554   1.221
 6829SOL     OW21385   4.769   5.694   3.874
 6829SOL    HW121386   4.808   5.753   3.945
 6829SOL    HW221387   4.720   5.619   3.917
 6830SOL     OW21388   5.627   2.177   3.713
 6830SOL    HW121389   5.630   2.122   3.797
 6830SOL    HW221390   5.544   2.155   3.662
 6831SOL     OW21391   0.264   0.998   6.225
 6831SOL    HW121392   0.342   1.055   6.250
 6831SOL    HW221393   0.287   0.943   6.144
 6832SOL     OW21394   3.016   5.425   2.159
 6832SOL    HW121395   3.013   5.353   2.089
 6832SOL    HW221396   2.924   5.441   2.194
 6833SOL     OW21397   4.189   5.115   6.947
 6833SOL    HW121398   4.103   5.154   6.915
 6833SOL    HW221399   4.240   5.078   6.869
 6834SOL     OW21400   3.674   5.311   2.484
 6834SOL    HW121401   3.592   5.278   2.436
 6834SOL    HW221402   3.671   5.411   2.488
 6835SOL     OW21403   3.998   6.904   4.895
 6835SOL    HW121404   4.092   6.929   4.873
 6835SOL    HW221405   3.962   6.844   4.824
 6836SOL     OW21406   3.480   6.242   6.675
 6836SOL    HW121407   3.533   6.178   6.620
 6836SOL    HW221408   3.434   6.193   6.749
 6837SOL     OW21409   1.339   3.089   1.971
 6837SOL    HW121410   1.369   3.003   2.013
 6837SOL    HW221411   1.378   3.166   2.022
 6838SOL     OW21412   2.255   1.375   6.567
 6838SOL    HW121413   2.171   1.401   6.615
 6838SOL    HW221414   2.301   1.458   6.534
 6839SOL     OW21415   4.451   1.157   1.166
 6839SOL    HW121416   4.389   1.216   1.218
 6839SOL    HW221417   4.509   1.214   1.108
 6840SOL     OW21418   1.022   1.986   6.693
 6840SOL    HW121419   0.963   1.927   6.638
 6840SOL    HW221420   1.088   1.930   6.742
 6841SOL     OW21421   6.952   3.843   6.329
 6841SOL    HW121422   6.891   3.785   6.383
 6841SOL    HW221423   6.903   3.877   6.249
 6842SOL     OW21424   2.052   4.346   2.760
 6842SOL    HW121425   2.047   4.333   2.859
 6842SOL    HW221426   2.147   4.354   2.732
 6843SOL     OW21427   4.285   6.521   7.012
 6843SOL    HW121428   4.228   6.597   0.025
 6843SOL    HW221429   4.329   6.546   6.925
 6844SOL     OW21430   5.094   0.640   5.625
 6844SOL    HW121431   4.999   0.671   5.619
 6844SOL    HW221432   5.138   0.683   5.703
 6845SOL     OW21433   5.425   2.071   2.144
 6845SOL    HW121434   5.411   1.972   2.147
 6845SOL    HW221435   5.521   2.092   2.161
 6846SOL     OW21436   2.692   3.661   0.382
 6846SOL    HW121437   2.612   3.615   0.421
 6846SOL    HW221438   2.684   3.760   0.397
 6847SOL     OW21439   6.481   3.570   3.659
 6847SOL    HW121440   6.444   3.662   3.667
 6847SOL    HW221441   6.491   3.530   3.750
 6848SOL     OW21442   5.871   4.487   3.604
 6848SOL    HW121443   5.843   4.425   3.532
 6848SOL    HW221444   5.851   4.581   3.577
 6849SOL     OW21445   3.086   3.946   6.728
 6849SOL    HW121446   3.124   3.995   6.807
 6849SOL    HW221447   3.079   3.849   6.750
 6850SOL     OW21448   4.199   1.737   3.979
 6850SOL    HW121449   4.165   1.824   4.016
 6850SOL    HW221450   4.121   1.679   3.953
 6851SOL     OW21451   2.002   2.955   3.826
 6851SOL    HW121452   2.006   3.046   3.867
 6851SOL    HW221453   1.965   2.890   3.892
 6852SOL     OW21454   2.628   4.574   0.390
 6852SOL    HW121455   2.535   4.545   0.412
 6852SOL    HW221456   2.688   4.553   0.468
 6853SOL     OW21457   4.954   3.511   6.699
 6853SOL    HW121458   4.924   3.462   6.617
 6853SOL    HW221459   4.932   3.608   6.690
 6854SOL     OW21460   6.198   5.932   6.111
 6854SOL    HW121461   6.248   5.898   6.031
 6854SOL    HW221462   6.164   5.855   6.165
 6855SOL     OW21463   4.181   5.130   3.502
 6855SOL    HW121464   4.220   5.041   3.527
 6855SOL    HW221465   4.251   5.186   3.459
 6856SOL     OW21466   0.527   1.635   6.429
 6856SOL    HW121467   0.487   1.658   6.340
 6856SOL    HW221468   0.613   1.586   6.415
 6857SOL     OW21469   0.814   3.931   4.971
 6857SOL    HW121470   0.816   3.844   4.921
 6857SOL    HW221471   0.748   3.992   4.928
 6858SOL     OW21472   2.348   3.692   1.732
 6858SOL    HW121473   2.358   3.599   1.770
 6858SOL    HW221474   2.252   3.708   1.711
 6859SOL     OW21475   1.111   1.531   2.534
 6859SOL    HW121476   1.182   1.591   2.498
 6859SOL    HW221477   1.150   1.471   2.604
 6860SOL     OW21478   0.888   6.336   2.197
 6860SOL    HW121479   0.849   6.393   2.124
 6860SOL    HW221480   0.884   6.240   2.170
 6861SOL     OW21481   5.610   3.090   5.290
 6861SOL    HW121482   5.590   2.996   5.263
 6861SOL    HW221483   5.529   3.147   5.276
 6862SOL     OW21484   0.851   4.466   4.889
 6862SOL    HW121485   0.933   4.499   4.844
 6862SOL    HW221486   0.867   4.374   4.925
 6863SOL     OW21487   5.858   0.757   5.525
 6863SOL    HW121488   5.910   0.709   5.454
 6863SOL    HW221489   5.775   0.705   5.546
 6864SOL     OW21490   1.215   3.704   6.024
 6864SOL    HW121491   1.226   3.613   6.065
 6864SOL    HW221492   1.261   3.706   5.935
 6865SOL     OW21493   2.269   0.303   3.713
 6865SOL    HW121494   2.229   0.214   3.690
 6865SOL    HW221495   2.366   0.292   3.732
 6866SOL     OW21496   1.117   4.523   0.672
 6866SOL    HW121497   1.023   4.493   0.656
 6866SOL    HW221498   1.130   4.541   0.770
 6867SOL     OW21499   2.211   4.259   6.770
 6867SOL    HW121500   2.261   4.229   6.852
 6867SOL    HW221501   2.251   4.343   6.736
 6868SOL     OW21502   2.810   5.326   4.003
 6868SOL    HW121503   2.734   5.291   3.949
 6868SOL    HW221504   2.873   5.251   4.024
 6869SOL     OW21505   3.099   0.945   6.005
 6869SOL    HW121506   3.127   0.894   6.087
 6869SOL    HW221507   3.114   0.888   5.924
 6870SOL     OW21508   6.217   2.684   0.755
 6870SOL    HW121509   6.167   2.716   0.674
 6870SOL    HW221510   6.301   2.640   0.726
 6871SOL     OW21511   0.487   4.046   2.270
 6871SOL    HW121512   0.529   4.096   2.346
 6871SOL    HW221513   0.420   4.103   2.225
 6872SOL     OW21514   1.465   3.887   0.570
 6872SOL    HW121515   1.450   3.983   0.546
 6872SOL    HW221516   1.537   3.849   0.512
 6873SOL     OW21517   0.349   4.691   3.838
 6873SOL    HW121518   0.303   4.750   3.904
 6873SOL    HW221519   0.418   4.743   3.789
 6874SOL     OW21520   5.316   6.126   3.462
 6874SOL    HW121521   5.285   6.205   3.409
 6874SOL    HW221522   5.273   6.127   3.552
 6875SOL     OW21523   2.652   1.512   0.458
 6875SOL    HW121524   2.702   1.597   0.472
 6875SOL    HW221525   2.676   1.447   0.530
 6876SOL     OW21526   5.222   4.857   3.873
 6876SOL    HW121527   5.302   4.818   3.919
 6876SOL    HW221528   5.168   4.783   3.832
 6877SOL     OW21529   1.131   3.431   2.454
 6877SOL    HW121530   1.144   3.334   2.436
 6877SOL    HW221531   1.199   3.484   2.404
 6878SOL     OW21532   2.100   0.657   4.586
 6878SOL    HW121533   2.115   0.749   4.623
 6878SOL    HW221534   2.189   0.611   4.574
 6879SOL     OW21535   2.144   0.923   0.756
 6879SOL    HW121536   2.051   0.938   0.792
 6879SOL    HW221537   2.211   0.941   0.828
 6880SOL     OW21538   1.658   5.440   6.500
 6880SOL    HW121539   1.634   5.479   6.411
 6880SOL    HW221540   1.677   5.342   6.489
 6881SOL     OW21541   0.953   2.906   0.836
 6881SOL    HW121542   0.881   2.838   0.826
 6881SOL    HW221543   1.002   2.890   0.922
 6882SOL     OW21544   2.657   6.740   6.449
 6882SOL    HW121545   2.558   6.751   6.450
 6882SOL    HW221546   2.694   6.767   6.537
 6883SOL     OW21547   4.664   0.664   0.463
 6883SOL    HW121548   4.587   0.725   0.480
 6883SOL    HW221549   4.747   0.702   0.505
 6884SOL     OW21550   2.212   4.040   3.113
 6884SOL    HW121551   2.214   3.987   3.197
 6884SOL    HW221552   2.211   3.979   3.034
 6885SOL     OW21553   5.954   5.386   4.743
 6885SOL    HW121554   6.010   5.461   4.780
 6885SOL    HW221555   5.890   5.422   4.676
 6886SOL     OW21556   5.307   2.294   0.284
 6886SOL    HW121557   5.325   2.211   0.233
 6886SOL    HW221558   5.215   2.327   0.264
 6887SOL     OW21559   5.442   5.861   5.621
 6887SOL    HW121560   5.464   5.789   5.555
 6887SOL    HW221561   5.526   5.897   5.661
 6888SOL     OW21562   6.346   5.019   6.511
 6888SOL    HW121563   6.434   4.984   6.543
 6888SOL    HW221564   6.298   4.949   6.459
 6889SOL     OW21565   0.408   2.161   6.618
 6889SOL    HW121566   0.334   2.095   6.625
 6889SOL    HW221567   0.480   2.126   6.559
 6890SOL     OW21568   4.697   4.468   3.060
 6890SOL    HW121569   4.614   4.474   3.115
 6890SOL    HW221570   4.776   4.492   3.116
 6891SOL     OW21571   1.978   1.133   1.060
 6891SOL    HW121572   2.025   1.205   1.008
 6891SOL    HW221573   2.036   1.102   1.135
 6892SOL     OW21574   2.666   0.580   4.451
 6892SOL    HW121575   2.606   0.587   4.371
 6892SOL    HW221576   2.750   0.633   4.433
 6893SOL     OW21577   5.736   3.239   0.944
 6893SOL    HW121578   5.657   3.280   0.990
 6893SOL    HW221579   5.705   3.160   0.891
 6894SOL     OW21580   5.879   5.472   0.681
 6894SOL    HW121581   5.889   5.497   0.584
 6894SOL    HW221582   5.965   5.489   0.729
 6895SOL     OW21583   0.372   6.519   1.840
 6895SOL    HW121584   0.421   6.568   1.769
 6895SOL    HW221585   0.426   6.519   1.924
 6896SOL     OW21586   4.737   1.663   4.538
 6896SOL    HW121587   4.660   1.599   4.542
 6896SOL    HW221588   4.774   1.665   4.445
 6897SOL     OW21589   4.829   3.297   5.094
 6897SOL    HW121590   4.777   3.244   5.028
 6897SOL    HW221591   4.806   3.393   5.085
 6898SOL     OW21592   1.963   6.919   1.538
 6898SOL    HW121593   1.991   6.870   1.621
 6898SOL    HW221594   2.042   6.934   1.480
 6899SOL     OW21595   6.454   5.790   2.415
 6899SOL    HW121596   6.516   5.795   2.338
 6899SOL    HW221597   6.384   5.862   2.406
 6900SOL     OW21598   6.508   3.871   5.570
 6900SOL    HW121599   6.535   3.856   5.665
 6900SOL    HW221600   6.524   3.966   5.546
 6901SOL     OW21601   5.193   4.720   0.114
 6901SOL    HW121602   5.216   4.756   0.023
 6901SOL    HW221603   5.100   4.746   0.138
 6902SOL     OW21604   0.792   6.177   5.918
 6902SOL    HW121605   0.806   6.187   6.017
 6902SOL    HW221606   0.751   6.261   5.882
 6903SOL     OW21607   1.468   5.828   4.643
 6903SOL    HW121608   1.447   5.853   4.738
 6903SOL    HW221609   1.383   5.815   4.592
 6904SOL     OW21610   6.967   6.735   5.563
 6904SOL    HW121611   6.930   6.781   5.644
 6904SOL    HW221612   6.901   6.742   5.488
 6905SOL     OW21613   4.769   6.243   5.910
 6905SOL    HW121614   4.721   6.330   5.920
 6905SOL    HW221615   4.758   6.210   5.817
 6906SOL     OW21616   3.202   1.164   3.749
 6906SOL    HW121617   3.269   1.186   3.820
 6906SOL    HW221618   3.117   1.135   3.792
 6907SOL     OW21619   5.932   2.602   0.490
 6907SOL    HW121620   5.875   2.615   0.571
 6907SOL    HW221621   5.873   2.598   0.409
 6908SOL     OW21622   2.713   4.917   0.649
 6908SOL    HW121623   2.646   4.905   0.722
 6908SOL    HW221624   2.757   5.006   0.660
 6909SOL     OW21625   6.149   5.556   1.972
 6909SOL    HW121626   6.227   5.528   1.916
 6909SOL    HW221627   6.159   5.520   2.065
 6910SOL     OW21628   1.286   2.762   2.641
 6910SOL    HW121629   1.297   2.668   2.672
 6910SOL    HW221630   1.344   2.822   2.696
 6911SOL     OW21631   1.762   6.578   5.489
 6911SOL    HW121632   1.742   6.509   5.419
 6911SOL    HW221633   1.681   6.592   5.546
 6912SOL     OW21634   2.568   3.779   6.676
 6912SOL    HW121635   2.572   3.779   6.577
 6912SOL    HW221636   2.638   3.841   6.713
 6913SOL     OW21637   5.027   6.006   5.922
 6913SOL    HW121638   4.955   6.075   5.920
 6913SOL    HW221639   5.045   5.974   5.829
 6914SOL     OW21640   6.070   2.763   2.604
 6914SOL    HW121641   5.993   2.774   2.667
 6914SOL    HW221642   6.126   2.846   2.604
 6915SOL     OW21643   6.357   3.440   3.442
 6915SOL    HW121644   6.404   3.497   3.509
 6915SOL    HW221645   6.403   3.352   3.433
 6916SOL     OW21646   5.037   6.052   6.652
 6916SOL    HW121647   4.999   6.097   6.733
 6916SOL    HW221648   4.970   5.988   6.616
 6917SOL     OW21649   4.773   6.216   1.684
 6917SOL    HW121650   4.694   6.255   1.637
 6917SOL    HW221651   4.803   6.277   1.757
 6918SOL     OW21652   2.077   3.230   1.098
 6918SOL    HW121653   2.050   3.275   1.183
 6918SOL    HW221654   2.169   3.192   1.108
 6919SOL     OW21655   5.592   5.601   3.675
 6919SOL    HW121656   5.592   5.699   3.654
 6919SOL    HW221657   5.633   5.587   3.765
 6920SOL     OW21658   6.188   1.013   6.044
 6920SOL    HW121659   6.192   0.984   5.949
 6920SOL    HW221660   6.111   1.076   6.056
 6921SOL     OW21661   4.297   0.278   4.353
 6921SOL    HW121662   4.263   0.372   4.351
 6921SOL    HW221663   4.271   0.231   4.268
 6922SOL     OW21664   1.725   4.241   6.093
 6922SOL    HW121665   1.738   4.144   6.113
 6922SOL    HW221666   1.671   4.252   6.010
 6923SOL     OW21667   5.860   6.972   2.655
 6923SOL    HW121668   5.766   6.969   2.622
 6923SOL    HW221669   5.862   7.017   2.744
 6924SOL     OW21670   3.005   5.952   1.666
 6924SOL    HW121671   2.976   6.016   1.594
 6924SOL    HW221672   2.977   5.859   1.640
 6925SOL     OW21673   5.626   6.487   5.566
 6925SOL    HW121674   5.538   6.447   5.590
 6925SOL    HW221675   5.619   6.532   5.477
 6926SOL     OW21676   3.102   2.600   0.545
 6926SOL    HW121677   3.193   2.641   0.546
 6926SOL    HW221678   3.063   2.606   0.453
 6927SOL     OW21679   4.983   0.917   0.538
 6927SOL    HW121680   5.032   0.831   0.549
 6927SOL    HW221681   4.986   0.968   0.624
 6928SOL     OW21682   4.541   5.017   0.547
 6928SOL    HW121683   4.633   4.978   0.552
 6928SOL    HW221684   4.533   5.071   0.463
 6929SOL     OW21685   5.812   5.194   1.947
 6929SOL    HW121686   5.828   5.095   1.943
 6929SOL    HW221687   5.808   5.223   2.042
 6930SOL     OW21688   0.780   0.098   1.319
 6930SOL    HW121689   0.867   0.103   1.369
 6930SOL    HW221690   0.758   0.188   1.282
 6931SOL     OW21691   2.615   3.638   1.221
 6931SOL    HW121692   2.652   3.701   1.289
 6931SOL    HW221693   2.668   3.645   1.137
 6932SOL     OW21694   4.211   6.218   6.769
 6932SOL    HW121695   4.170   6.137   6.811
 6932SOL    HW221696   4.145   6.292   6.769
 6933SOL     OW21697   3.389   6.004   6.278
 6933SOL    HW121698   3.319   6.059   6.324
 6933SOL    HW221699   3.345   5.929   6.228
 6934SOL     OW21700   5.394   4.381   6.761
 6934SOL    HW121701   5.412   4.338   6.850
 6934SOL    HW221702   5.388   4.480   6.774
 6935SOL     OW21703   4.267   6.428   2.013
 6935SOL    HW121704   4.193   6.467   2.068
 6935SOL    HW221705   4.336   6.499   1.995
 6936SOL     OW21706   0.102   1.900   5.309
 6936SOL    HW121707   0.196   1.867   5.321
 6936SOL    HW221708   0.075   1.889   5.214
 6937SOL     OW21709   5.901   5.308   0.220
 6937SOL    HW121710   5.873   5.337   0.128
 6937SOL    HW221711   5.829   5.250   0.260
 6938SOL     OW21712   2.237   0.906   5.005
 6938SOL    HW121713   2.154   0.960   5.020
 6938SOL    HW221714   2.252   0.895   4.906
 6939SOL     OW21715   5.823   3.442   3.338
 6939SOL    HW121716   5.744   3.385   3.316
 6939SOL    HW221717   5.845   3.435   3.435
 6940SOL     OW21718   2.993   5.991   0.726
 6940SOL    HW121719   2.945   6.079   0.728
 6940SOL    HW221720   2.988   5.952   0.634
 6941SOL     OW21721   3.714   3.747   3.161
 6941SOL    HW121722   3.636   3.794   3.203
 6941SOL    HW221723   3.693   3.728   3.065
 6942SOL     OW21724   6.281   5.977   2.353
 6942SOL    HW121725   6.246   5.993   2.446
 6942SOL    HW221726   6.211   5.930   2.299
 6943SOL     OW21727   4.230   4.623   6.431
 6943SOL    HW121728   4.176   4.699   6.395
 6943SOL    HW221729   4.199   4.538   6.388
 6944SOL     OW21730   1.423   4.376   5.219
 6944SOL    HW121731   1.471   4.288   5.221
 6944SOL    HW221732   1.435   4.419   5.130
 6945SOL     OW21733   4.932   1.922   1.155
 6945SOL    HW121734   4.900   1.829   1.140
 6945SOL    HW221735   4.902   1.954   1.245
 6946SOL     OW21736   4.955   5.622   3.294
 6946SOL    HW121737   4.994   5.692   3.234
 6946SOL    HW221738   4.888   5.568   3.244
 6947SOL     OW21739   6.015   4.645   5.476
 6947SOL    HW121740   6.040   4.593   5.394
 6947SOL    HW221741   5.943   4.710   5.453
 6948SOL     OW21742   0.304   4.536   6.742
 6948SOL    HW121743   0.384   4.545   6.801
 6948SOL    HW221744   0.224   4.516   6.798
 6949SOL     OW21745   2.336   2.047   4.072
 6949SOL    HW121746   2.429   2.032   4.107
 6949SOL    HW221747   2.289   2.113   4.131
 6950SOL     OW21748   0.351   0.710   4.568
 6950SOL    HW121749   0.393   0.634   4.617
 6950SOL    HW221750   0.401   0.795   4.589
 6951SOL     OW21751   0.667   4.085   6.872
 6951SOL    HW121752   0.595   4.124   6.930
 6951SOL    HW221753   0.717   4.159   6.827
 6952SOL     OW21754   4.902   5.903   4.069
 6952SOL    HW121755   4.847   5.848   4.132
 6952SOL    HW221756   4.953   5.972   4.122
 6953SOL     OW21757   6.476   2.179   1.214
 6953SOL    HW121758   6.425   2.248   1.162
 6953SOL    HW221759   6.566   2.165   1.172
 6954SOL     OW21760   6.769   4.860   0.120
 6954SOL    HW121761   6.854   4.809   0.137
 6954SOL    HW221762   6.695   4.819   0.172
 6955SOL     OW21763   4.537   6.258   3.125
 6955SOL    HW121764   4.574   6.346   3.156
 6955SOL    HW221765   4.494   6.270   3.036
 6956SOL     OW21766   5.954   5.347   2.465
 6956SOL    HW121767   5.881   5.318   2.402
 6956SOL    HW221768   6.007   5.267   2.493
 6957SOL     OW21769   6.229   5.610   5.733
 6957SOL    HW121770   6.240   5.697   5.780
 6957SOL    HW221771   6.293   5.606   5.656
 6958SOL     OW21772   3.062   3.876   3.479
 6958SOL    HW121773   3.108   3.935   3.546
 6958SOL    HW221774   2.993   3.821   3.526
 6959SOL     OW21775   1.470   4.349   2.781
 6959SOL    HW121776   1.505   4.276   2.839
 6959SOL    HW221777   1.382   4.322   2.743
 6960SOL     OW21778   3.828   4.472   0.960
 6960SOL    HW121779   3.918   4.453   0.921
 6960SOL    HW221780   3.789   4.388   0.999
 6961SOL     OW21781   4.408   2.221   5.002
 6961SOL    HW121782   4.458   2.303   5.031
 6961SOL    HW221783   4.310   2.240   5.002
 6962SOL     OW21784   2.310   0.005   6.451
 6962SOL    HW121785   2.254   0.073   6.404
 6962SOL    HW221786   2.360   0.048   6.526
 6963SOL     OW21787   6.278   5.867   0.793
 6963SOL    HW121788   6.259   5.794   0.727
 6963SOL    HW221789   6.364   5.847   0.840
 6964SOL     OW21790   1.732   1.386   5.415
 6964SOL    HW121791   1.691   1.432   5.494
 6964SOL    HW221792   1.813   1.437   5.386
 6965SOL     OW21793   0.845   1.672   0.200
 6965SOL    HW121794   0.920   1.738   0.208
 6965SOL    HW221795   0.763   1.710   0.243
 6966SOL     OW21796   1.649   6.672   0.954
 6966SOL    HW121797   1.690   6.702   0.868
 6966SOL    HW221798   1.690   6.723   1.029
 6967SOL     OW21799   4.473   1.316   6.469
 6967SOL    HW121800   4.540   1.251   6.504
 6967SOL    HW221801   4.408   1.339   6.541
 6968SOL     OW21802   3.779   6.581   3.117
 6968SOL    HW121803   3.793   6.483   3.104
 6968SOL    HW221804   3.687   6.605   3.085
 6969SOL     OW21805   2.156   1.646   2.487
 6969SOL    HW121806   2.228   1.656   2.418
 6969SOL    HW221807   2.072   1.689   2.454
 6970SOL     OW21808   3.938   5.494   5.191
 6970SOL    HW121809   3.897   5.528   5.106
 6970SOL    HW221810   3.919   5.559   5.265
 6971SOL     OW21811   6.739   3.750   0.473
 6971SOL    HW121812   6.815   3.791   0.524
 6971SOL    HW221813   6.658   3.809   0.480
 6972SOL     OW21814   5.474   4.194   1.429
 6972SOL    HW121815   5.443   4.109   1.470
 6972SOL    HW221816   5.479   4.184   1.329
 6973SOL     OW21817   1.921   2.371   2.800
 6973SOL    HW121818   1.928   2.340   2.894
 6973SOL    HW221819   2.004   2.347   2.750
 6974SOL     OW21820   3.794   3.327   3.036
 6974SOL    HW121821   3.730   3.378   2.979
 6974SOL    HW221822   3.766   3.231   3.040
 6975SOL     OW21823   2.898   5.432   4.357
 6975SOL    HW121824   2.893   5.464   4.452
 6975SOL    HW221825   2.818   5.465   4.307
 6976SOL     OW21826   4.659   4.360   6.498
 6976SOL    HW121827   4.699   4.285   6.551
 6976SOL    HW221828   4.660   4.338   6.401
 6977SOL     OW21829   4.650   5.254   2.023
 6977SOL    HW121830   4.585   5.329   2.012
 6977SOL    HW221831   4.601   5.167   2.028
 6978SOL     OW21832   6.958   3.854   1.545
 6978SOL    HW121833   6.942   3.776   1.606
 6978SOL    HW221834   6.963   3.821   1.451
 6979SOL     OW21835   1.673   3.096   2.095
 6979SOL    HW121836   1.692   3.035   2.019
 6979SOL    HW221837   1.692   3.191   2.068
 6980SOL     OW21838   1.769   5.621   2.085
 6980SOL    HW121839   1.866   5.643   2.072
 6980SOL    HW221840   1.761   5.526   2.117
 6981SOL     OW21841   4.396   2.786   6.604
 6981SOL    HW121842   4.458   2.810   6.528
 6981SOL    HW221843   4.324   2.726   6.570
 6982SOL     OW21844   1.886   0.749   2.628
 6982SOL    HW121845   1.815   0.687   2.663
 6982SOL    HW221846   1.866   0.774   2.534
 6983SOL     OW21847   5.651   0.805   4.113
 6983SOL    HW121848   5.667   0.707   4.101
 6983SOL    HW221849   5.580   0.819   4.183
 6984SOL     OW21850   1.282   2.849   2.990
 6984SOL    HW121851   1.190   2.812   2.983
 6984SOL    HW221852   1.303   2.903   2.909
 6985SOL     OW21853   5.700   3.419   6.768
 6985SOL    HW121854   5.688   3.517   6.784
 6985SOL    HW221855   5.756   3.405   6.686
 6986SOL     OW21856   4.474   4.615   5.419
 6986SOL    HW121857   4.508   4.709   5.422
 6986SOL    HW221858   4.529   4.558   5.480
 6987SOL     OW21859   0.459   0.970   6.688
 6987SOL    HW121860   0.386   1.015   6.739
 6987SOL    HW221861   0.541   0.965   6.746
 6988SOL     OW21862   2.951   1.865   6.757
 6988SOL    HW121863   3.042   1.905   6.766
 6988SOL    HW221864   2.957   1.779   6.706
 6989SOL     OW21865   0.593   5.010   2.789
 6989SOL    HW121866   0.611   5.021   2.691
 6989SOL    HW221867   0.616   4.916   2.816
 6990SOL     OW21868   3.848   3.370   0.742
 6990SOL    HW121869   3.880   3.275   0.742
 6990SOL    HW221870   3.918   3.429   0.701
 6991SOL     OW21871   6.646   3.150   2.802
 6991SOL    HW121872   6.637   3.108   2.712
 6991SOL    HW221873   6.679   3.244   2.792
 6992SOL     OW21874   1.330   6.083   0.115
 6992SOL    HW121875   1.334   5.983   0.116
 6992SOL    HW221876   1.420   6.120   0.093
 6993SOL     OW21877   4.619   1.708   1.295
 6993SOL    HW121878   4.555   1.638   1.329
 6993SOL    HW221879   4.708   1.696   1.339
 6994SOL     OW21880   2.705   0.777   3.790
 6994SOL    HW121881   2.794   0.786   3.747
 6994SOL    HW221882   2.659   0.696   3.754
 6995SOL     OW21883   0.100   4.240   1.031
 6995SOL    HW121884   0.121   4.226   1.127
 6995SOL    HW221885   0.167   4.192   0.974
 6996SOL     OW21886   1.123   1.521   6.603
 6996SOL    HW121887   1.120   1.426   6.575
 6996SOL    HW221888   1.048   1.539   6.668
 6997SOL     OW21889   5.816   5.666   5.849
 6997SOL    HW121890   5.860   5.594   5.795
 6997SOL    HW221891   5.792   5.630   5.939
 6998SOL     OW21892   6.789   1.342   0.216
 6998SOL    HW121893   6.801   1.404   0.139
 6998SOL    HW221894   6.706   1.367   0.267
 6999SOL     OW21895   0.271   2.913   6.833
 6999SOL    HW121896   0.190   2.964   6.806
 6999SOL    HW221897   0.253   2.863   6.917
 7000SOL     OW21898   6.966   5.360   3.312
 7000SOL    HW121899   0.017   5.430   3.300
 7000SOL    HW221900   6.996   5.275   3.267
 7001SOL     OW21901   6.977   2.155   4.069
 7001SOL    HW121902   6.940   2.194   3.985
 7001SOL    HW221903   0.054   2.184   4.080
 7002SOL     OW21904   0.883   5.664   2.574
 7002SOL    HW121905   0.977   5.631   2.579
 7002SOL    HW221906   0.836   5.620   2.498
 7003SOL     OW21907   6.990   3.774   0.635
 7003SOL    HW121908   6.953   3.820   0.716
 7003SOL    HW221909   0.072   3.784   0.634
 7004SOL     OW21910   1.804   6.460   0.650
 7004SOL    HW121911   1.734   6.452   0.721
 7004SOL    HW221912   1.894   6.438   0.689
 7005SOL     OW21913   1.222   5.616   0.862
 7005SOL    HW121914   1.274   5.624   0.777
 7005SOL    HW221915   1.236   5.699   0.917
 7006SOL     OW21916   1.078   0.209   3.854
 7006SOL    HW121917   1.001   0.267   3.831
 7006SOL    HW221918   1.059   0.159   3.939
 7007SOL     OW21919   2.495   0.730   5.860
 7007SOL    HW121920   2.431   0.784   5.915
 7007SOL    HW221921   2.467   0.634   5.861
 7008SOL     OW21922   5.355   3.525   2.877
 7008SOL    HW121923   5.314   3.597   2.820
 7008SOL    HW221924   5.292   3.449   2.885
 7009SOL     OW21925   4.442   5.625   2.533
 7009SOL    HW121926   4.533   5.661   2.512
 7009SOL    HW221927   4.435   5.532   2.498
 7010SOL     OW21928   5.166   3.779   1.760
 7010SOL    HW121929   5.104   3.782   1.838
 7010SOL    HW221930   5.257   3.807   1.790
 7011SOL     OW21931   3.251   6.660   6.537
 7011SOL    HW121932   3.294   6.748   6.518
 7011SOL    HW221933   3.270   6.597   6.462
 7012SOL     OW21934   6.594   2.840   0.409
 7012SOL    HW121935   6.499   2.842   0.378
 7012SOL    HW221936   6.627   2.934   0.422
 7013SOL     OW21937   3.206   2.647   0.238
 7013SOL    HW121938   3.237   2.741   0.250
 7013SOL    HW221939   3.106   2.644   0.240
 7014SOL     OW21940   5.750   3.175   0.517
 7014SOL    HW121941   5.772   3.184   0.420
 7014SOL    HW221942   5.778   3.085   0.549
 7015SOL     OW21943   5.631   6.601   1.434
 7015SOL    HW121944   5.582   6.656   1.366
 7015SOL    HW221945   5.589   6.615   1.524
 7016SOL     OW21946   3.206   4.976   0.940
 7016SOL    HW121947   3.150   4.894   0.934
 7016SOL    HW221948   3.272   4.966   1.015
 7017SOL     OW21949   6.085   4.967   5.247
 7017SOL    HW121950   6.067   5.058   5.284
 7017SOL    HW221951   6.000   4.914   5.248
 7018SOL     OW21952   5.185   3.785   4.539
 7018SOL    HW121953   5.164   3.874   4.500
 7018SOL    HW221954   5.268   3.791   4.594
 7019SOL     OW21955   4.351   5.915   2.388
 7019SOL    HW121956   4.351   5.827   2.435
 7019SOL    HW221957   4.427   5.918   2.323
 7020SOL     OW21958   0.621   2.649   6.172
 7020SOL    HW121959   0.594   2.679   6.264
 7020SOL    HW221960   0.556   2.685   6.105
 7021SOL     OW21961   0.809   1.960   4.618
 7021SOL    HW121962   0.846   1.961   4.711
 7021SOL    HW221963   0.743   1.885   4.610
 7022SOL     OW21964   3.262   2.191   0.768
 7022SOL    HW121965   3.234   2.117   0.830
 7022SOL    HW221966   3.225   2.278   0.800
 7023SOL     OW21967   0.585   1.805   0.322
 7023SOL    HW121968   0.559   1.834   0.415
 7023SOL    HW221969   0.616   1.885   0.270
 7024SOL     OW21970   3.970   3.808   4.710
 7024SOL    HW121971   4.035   3.789   4.636
 7024SOL    HW221972   3.877   3.803   4.674
 7025SOL     OW21973   3.095   0.274   1.023
 7025SOL    HW121974   2.995   0.271   1.012
 7025SOL    HW221975   3.138   0.241   0.939
 7026SOL     OW21976   3.630   2.946   1.172
 7026SOL    HW121977   3.662   2.851   1.166
 7026SOL    HW221978   3.652   2.983   1.262
 7027SOL     OW21979   2.524   5.038   2.799
 7027SOL    HW121980   2.610   5.068   2.758
 7027SOL    HW221981   2.462   5.116   2.806
 7028SOL     OW21982   2.912   0.056   3.754
 7028SOL    HW121983   2.914   0.093   3.847
 7028SOL    HW221984   2.927   0.129   3.688
 7029SOL     OW21985   3.299   3.841   3.865
 7029SOL    HW121986   3.359   3.851   3.786
 7029SOL    HW221987   3.291   3.928   3.913
 7030SOL     OW21988   6.565   0.934   4.609
 7030SOL    HW121989   6.622   0.872   4.662
 7030SOL    HW221990   6.621   0.982   4.541
 7031SOL     OW21991   4.707   6.792   0.597
 7031SOL    HW121992   4.766   6.799   0.517
 7031SOL    HW221993   4.628   6.852   0.585
 7032SOL     OW21994   4.677   5.534   4.422
 7032SOL    HW121995   4.751   5.542   4.489
 7032SOL    HW221996   4.677   5.443   4.383
 7033SOL     OW21997   1.784   1.743   4.770
 7033SOL    HW121998   1.817   1.672   4.708
 7033SOL    HW221999   1.855   1.763   4.838
 7034SOL     OW22000   6.320   0.742   3.573
 7034SOL    HW122001   6.237   0.763   3.520
 7034SOL    HW222002   6.392   0.712   3.511
 7035SOL     OW22003   1.963   0.129   0.603
 7035SOL    HW122004   2.016   0.163   0.681
 7035SOL    HW222005   2.006   0.159   0.518
 7036SOL     OW22006   6.398   1.408   2.674
 7036SOL    HW122007   6.415   1.393   2.772
 7036SOL    HW222008   6.485   1.427   2.629
 7037SOL     OW22009   1.161   0.338   5.815
 7037SOL    HW122010   1.203   0.277   5.749
 7037SOL    HW222011   1.216   0.341   5.898
 7038SOL     OW22012   1.091   4.041   0.156
 7038SOL    HW122013   1.162   4.084   0.101
 7038SOL    HW222014   1.078   3.946   0.127
 7039SOL     OW22015   0.291   6.501   2.413
 7039SOL    HW122016   0.235   6.550   2.346
 7039SOL    HW222017   0.240   6.421   2.446
 7040SOL     OW22018   5.150   3.315   5.117
 7040SOL    HW122019   5.100   3.399   5.136
 7040SOL    HW222020   5.120   3.277   5.029
 7041SOL     OW22021   1.719   6.716   4.388
 7041SOL    HW122022   1.757   6.652   4.322
 7041SOL    HW222023   1.782   6.793   4.401
 7042SOL     OW22024   5.384   6.153   5.355
 7042SOL    HW122025   5.452   6.159   5.428
 7042SOL    HW222026   5.334   6.066   5.363
 7043SOL     OW22027   2.226   5.006   1.238
 7043SOL    HW122028   2.274   4.929   1.196
 7043SOL    HW222029   2.292   5.076   1.266
 7044SOL     OW22030   5.624   6.944   4.797
 7044SOL    HW122031   5.524   6.955   4.794
 7044SOL    HW222032   5.660   6.990   4.878
 7045SOL     OW22033   6.520   6.146   2.367
 7045SOL    HW122034   6.572   6.106   2.443
 7045SOL    HW222035   6.425   6.118   2.374
 7046SOL     OW22036   2.182   1.345   4.435
 7046SOL    HW122037   2.253   1.296   4.485
 7046SOL    HW222038   2.092   1.309   4.461
 7047SOL     OW22039   1.240   6.558   0.704
 7047SOL    HW122040   1.284   6.495   0.639
 7047SOL    HW222041   1.220   6.644   0.658
 7048SOL     OW22042   0.108   6.205   4.409
 7048SOL    HW122043   0.064   6.245   4.489
 7048SOL    HW222044   0.093   6.264   4.330
 7049SOL     OW22045   3.678   1.120   3.671
 7049SOL    HW122046   3.660   1.060   3.593
 7049SOL    HW222047   3.637   1.210   3.654
 7050SOL     OW22048   4.057   3.923   1.215
 7050SOL    HW122049   4.128   3.963   1.157
 7050SOL    HW222050   4.093   3.841   1.259
 7051SOL     OW22051   0.893   1.169   2.032
 7051SOL    HW122052   0.828   1.115   1.978
 7051SOL    HW222053   0.905   1.128   2.122
 7052SOL     OW22054   4.242   0.601   3.051
 7052SOL    HW122055   4.326   0.636   3.010
 7052SOL    HW222056   4.264   0.527   3.114
 7053SOL     OW22057   1.915   3.459   3.343
 7053SOL    HW122058   1.971   3.433   3.421
 7053SOL    HW222059   1.856   3.536   3.369
 7054SOL     OW22060   6.271   0.899   0.328
 7054SOL    HW122061   6.255   0.877   0.424
 7054SOL    HW222062   6.360   0.944   0.319
 7055SOL     OW22063   2.515   1.167   0.235
 7055SOL    HW122064   2.461   1.207   0.309
 7055SOL    HW222065   2.469   1.086   0.199
 7056SOL     OW22066   0.007   5.420   1.145
 7056SOL    HW122067   0.061   5.487   1.196
 7056SOL    HW222068   6.996   5.460   1.058
 7057SOL     OW22069   2.468   5.578   4.637
 7057SOL    HW122070   2.541   5.604   4.573
 7057SOL    HW222071   2.425   5.493   4.607
 7058SOL     OW22072   5.555   2.864   6.139
 7058SOL    HW122073   5.529   2.794   6.205
 7058SOL    HW222074   5.652   2.853   6.114
 7059SOL     OW22075   2.040   0.173   5.131
 7059SOL    HW122076   2.077   0.137   5.216
 7059SOL    HW222077   2.088   0.257   5.106
 7060SOL     OW22078   3.194   1.405   1.277
 7060SOL    HW122079   3.177   1.376   1.183
 7060SOL    HW222080   3.268   1.352   1.316
 7061SOL     OW22081   0.992   1.481   1.831
 7061SOL    HW122082   0.938   1.467   1.914
 7061SOL    HW222083   1.030   1.393   1.802
 7062SOL     OW22084   3.345   0.288   4.085
 7062SOL    HW122085   3.434   0.333   4.092
 7062SOL    HW222086   3.353   0.208   4.024
 7063SOL     OW22087   0.383   0.817   1.280
 7063SOL    HW122088   0.480   0.807   1.258
 7063SOL    HW222089   0.328   0.795   1.199
 7064SOL     OW22090   3.772   1.496   5.286
 7064SOL    HW122091   3.872   1.489   5.292
 7064SOL    HW222092   3.734   1.405   5.272
 7065SOL     OW22093   4.131   5.597   5.486
 7065SOL    HW122094   4.185   5.682   5.491
 7065SOL    HW222095   4.038   5.619   5.458
 7066SOL     OW22096   3.566   0.309   0.383
 7066SOL    HW122097   3.615   0.234   0.428
 7066SOL    HW222098   3.541   0.281   0.291
 7067SOL     OW22099   1.582   3.413   6.365
 7067SOL    HW122100   1.608   3.450   6.454
 7067SOL    HW222101   1.535   3.326   6.377
 7068SOL     OW22102   5.201   4.020   4.391
 7068SOL    HW122103   5.245   4.108   4.409
 7068SOL    HW222104   5.135   4.030   4.317
 7069SOL     OW22105   5.456   0.803   6.079
 7069SOL    HW122106   5.395   0.731   6.113
 7069SOL    HW222107   5.448   0.883   6.138
 7070SOL     OW22108   0.206   0.533   5.453
 7070SOL    HW122109   0.121   0.518   5.401
 7070SOL    HW222110   0.216   0.462   5.523
 7071SOL     OW22111   4.938   5.297   6.691
 7071SOL    HW122112   4.875   5.374   6.683
 7071SOL    HW222113   4.924   5.234   6.614
 7072SOL     OW22114   0.785   3.764   6.124
 7072SOL    HW122115   0.703   3.821   6.115
 7072SOL    HW222116   0.774   3.703   6.202
 7073SOL     OW22117   4.568   1.581   3.855
 7073SOL    HW122118   4.644   1.524   3.825
 7073SOL    HW222119   4.483   1.530   3.846
 7074SOL     OW22120   5.186   4.314   3.218
 7074SOL    HW122121   5.133   4.229   3.224
 7074SOL    HW222122   5.178   4.365   3.304
 7075SOL     OW22123   2.775   5.053   3.002
 7075SOL    HW122124   2.682   5.039   3.037
 7075SOL    HW222125   2.774   5.050   2.902
 7076SOL     OW22126   5.873   2.623   1.465
 7076SOL    HW122127   5.774   2.631   1.481
 7076SOL    HW222128   5.888   2.594   1.370
 7077SOL     OW22129   3.861   5.390   2.010
 7077SOL    HW122130   3.863   5.436   1.921
 7077SOL    HW222131   3.796   5.314   2.007
 7078SOL     OW22132   6.445   0.376   6.984
 7078SOL    HW122133   6.543   0.377   7.006
 7078SOL    HW222134   6.426   0.302   6.920
 7079SOL     OW22135   1.490   6.176   4.603
 7079SOL    HW122136   1.475   6.105   4.534
 7079SOL    HW222137   1.557   6.242   4.569
 7080SOL     OW22138   4.009   2.083   5.616
 7080SOL    HW122139   3.987   2.179   5.604
 7080SOL    HW222140   3.947   2.042   5.683
 7081SOL     OW22141   2.046   0.185   0.310
 7081SOL    HW122142   2.134   0.213   0.272
 7081SOL    HW222143   2.008   0.112   0.253
 7082SOL     OW22144   0.588   4.045   3.088
 7082SOL    HW122145   0.559   3.950   3.102
 7082SOL    HW222146   0.688   4.048   3.082
 7083SOL     OW22147   5.397   2.142   2.716
 7083SOL    HW122148   5.460   2.086   2.770
 7083SOL    HW222149   5.313   2.157   2.767
 7084SOL     OW22150   1.194   5.435   0.134
 7084SOL    HW122151   1.126   5.496   0.092
 7084SOL    HW222152   1.151   5.385   0.209
 7085SOL     OW22153   0.682   3.901   1.995
 7085SOL    HW122154   0.777   3.921   2.021
 7085SOL    HW222155   0.680   3.818   1.940
 7086SOL     OW22156   5.273   1.198   3.789
 7086SOL    HW122157   5.187   1.185   3.838
 7086SOL    HW222158   5.292   1.117   3.733
 7087SOL     OW22159   4.860   3.239   2.891
 7087SOL    HW122160   4.854   3.167   2.822
 7087SOL    HW222161   4.841   3.328   2.848
 7088SOL     OW22162   5.964   2.171   5.238
 7088SOL    HW122163   5.917   2.149   5.323
 7088SOL    HW222164   6.034   2.103   5.219
 7089SOL     OW22165   2.547   5.552   1.579
 7089SOL    HW122166   2.622   5.612   1.609
 7089SOL    HW222167   2.581   5.458   1.573
 7090SOL     OW22168   4.435   2.801   1.264
 7090SOL    HW122169   4.524   2.792   1.220
 7090SOL    HW222170   4.446   2.796   1.363
 7091SOL     OW22171   0.366   6.506   0.598
 7091SOL    HW122172   0.352   6.582   0.534
 7091SOL    HW222173   0.429   6.534   0.670
 7092SOL     OW22174   4.637   0.522   6.106
 7092SOL    HW122175   4.618   0.425   6.087
 7092SOL    HW222176   4.682   0.530   6.194
 7093SOL     OW22177   3.441   3.269   0.783
 7093SOL    HW122178   3.461   3.366   0.775
 7093SOL    HW222179   3.413   3.248   0.877
 7094SOL     OW22180   3.388   0.264   6.068
 7094SOL    HW122181   3.316   0.231   6.129
 7094SOL    HW222182   3.396   0.203   5.989
 7095SOL     OW22183   2.386   4.899   4.489
 7095SOL    HW122184   2.437   4.983   4.507
 7095SOL    HW222185   2.379   4.845   4.573
 7096SOL     OW22186   6.715   0.396   1.308
 7096SOL    HW122187   6.662   0.468   1.355
 7096SOL    HW222188   6.673   0.377   1.220
 7097SOL     OW22189   4.952   1.528   2.227
 7097SOL    HW122190   5.038   1.491   2.261
 7097SOL    HW222191   4.910   1.585   2.297
 7098SOL     OW22192   0.970   0.185   3.519
 7098SOL    HW122193   1.044   0.219   3.577
 7098SOL    HW222194   0.928   0.262   3.470
 7099SOL     OW22195   2.950   2.157   4.471
 7099SOL    HW122196   2.990   2.180   4.382
 7099SOL    HW222197   2.914   2.240   4.514
 7100SOL     OW22198   6.771   4.030   1.871
 7100SOL    HW122199   6.705   3.955   1.878
 7100SOL    HW222200   6.846   4.015   1.935
 7101SOL     OW22201   2.262   5.868   5.208
 7101SOL    HW122202   2.300   5.955   5.238
 7101SOL    HW222203   2.175   5.853   5.255
 7102SOL     OW22204   5.889   1.193   2.194
 7102SOL    HW122205   5.948   1.191   2.114
 7102SOL    HW222206   5.830   1.274   2.190
 7103SOL     OW22207   4.870   3.622   3.082
 7103SOL    HW122208   4.939   3.597   3.150
 7103SOL    HW222209   4.779   3.610   3.121
 7104SOL     OW22210   4.854   2.959   4.031
 7104SOL    HW122211   4.895   2.923   4.115
 7104SOL    HW222212   4.921   3.014   3.982
 7105SOL     OW22213   3.478   3.968   3.663
 7105SOL    HW122214   3.544   3.933   3.597
 7105SOL    HW222215   3.523   4.028   3.728
 7106SOL     OW22216   3.146   1.896   1.765
 7106SOL    HW122217   3.155   1.796   1.766
 7106SOL    HW222218   3.232   1.938   1.791
 7107SOL     OW22219   3.991   0.494   6.138
 7107SOL    HW122220   4.023   0.414   6.189
 7107SOL    HW222221   4.048   0.573   6.161
 7108SOL     OW22222   4.571   0.398   2.083
 7108SOL    HW122223   4.552   0.473   2.146
 7108SOL    HW222224   4.497   0.331   2.088
 7109SOL     OW22225   2.424   5.386   7.012
 7109SOL    HW122226   2.361   5.310   6.992
 7109SOL    HW222227   2.509   5.372   6.962
 7110SOL     OW22228   3.530   0.101   4.546
 7110SOL    HW122229   3.569   0.117   4.455
 7110SOL    HW222230   3.437   0.066   4.536
 7111SOL     OW22231   0.016   0.921   5.025
 7111SOL    HW122232   0.043   0.878   5.111
 7111SOL    HW222233   0.083   0.898   4.954
 7112SOL     OW22234   0.676   4.990   4.929
 7112SOL    HW122235   0.761   4.991   4.877
 7112SOL    HW222236   0.622   4.910   4.905
 7113SOL     OW22237   3.478   6.309   4.943
 7113SOL    HW122238   3.536   6.232   4.970
 7113SOL    HW222239   3.433   6.345   5.024
 7114SOL     OW22240   6.003   4.274   0.935
 7114SOL    HW122241   6.059   4.318   1.005
 7114SOL    HW222242   5.975   4.183   0.967
 7115SOL     OW22243   6.115   3.701   6.237
 7115SOL    HW122244   6.168   3.772   6.190
 7115SOL    HW222245   6.137   3.612   6.198
 7116SOL     OW22246   6.404   3.690   4.754
 7116SOL    HW122247   6.438   3.620   4.692
 7116SOL    HW222248   6.320   3.730   4.717
 7117SOL     OW22249   5.430   0.138   3.347
 7117SOL    HW122250   5.430   0.120   3.249
 7117SOL    HW222251   5.405   0.234   3.363
 7118SOL     OW22252   3.805   4.404   5.949
 7118SOL    HW122253   3.744   4.468   5.995
 7118SOL    HW222254   3.752   4.332   5.905
 7119SOL     OW22255   3.658   6.637   5.091
 7119SOL    HW122256   3.624   6.587   5.171
 7119SOL    HW222257   3.699   6.723   5.121
 7120SOL     OW22258   4.651   0.903   0.838
 7120SOL    HW122259   4.563   0.918   0.884
 7120SOL    HW222260   4.711   0.849   0.897
 7121SOL     OW22261   1.434   6.091   1.976
 7121SOL    HW122262   1.494   6.163   2.010
 7121SOL    HW222263   1.373   6.060   2.049
 7122SOL     OW22264   3.495   1.986   0.124
 7122SOL    HW122265   3.434   2.064   0.107
 7122SOL    HW222266   3.585   2.020   0.151
 7123SOL     OW22267   5.648   5.279   5.839
 7123SOL    HW122268   5.590   5.345   5.792
 7123SOL    HW222269   5.619   5.271   5.934
 7124SOL     OW22270   1.436   2.233   1.143
 7124SOL    HW122271   1.411   2.328   1.124
 7124SOL    HW222272   1.366   2.172   1.106
 7125SOL     OW22273   0.586   6.321   2.271
 7125SOL    HW122274   0.665   6.275   2.310
 7125SOL    HW222275   0.561   6.399   2.329
 7126SOL     OW22276   3.405   5.395   0.905
 7126SOL    HW122277   3.366   5.325   0.846
 7126SOL    HW222278   3.392   5.485   0.864
 7127SOL     OW22279   2.454   6.248   6.169
 7127SOL    HW122280   2.461   6.303   6.252
 7127SOL    HW222281   2.534   6.190   6.160
 7128SOL     OW22282   3.816   4.070   6.973
 7128SOL    HW122283   3.882   4.089   6.901
 7128SOL    HW222284   3.757   4.149   6.986
 7129SOL     OW22285   0.643   0.143   0.558
 7129SOL    HW122286   0.571   0.203   0.522
 7129SOL    HW222287   0.601   0.065   0.605
 7130SOL     OW22288   3.458   6.467   3.815
 7130SOL    HW122289   3.454   6.402   3.891
 7130SOL    HW222290   3.369   6.511   3.803
 7131SOL     OW22291   2.262   1.347   2.121
 7131SOL    HW122292   2.183   1.300   2.159
 7131SOL    HW222293   2.340   1.334   2.183
 7132SOL     OW22294   5.098   4.317   0.760
 7132SOL    HW122295   5.064   4.237   0.710
 7132SOL    HW222296   5.109   4.294   0.857
 7133SOL     OW22297   4.778   5.748   3.046
 7133SOL    HW122298   4.719   5.748   2.966
 7133SOL    HW222299   4.724   5.770   3.127
 7134SOL     OW22300   4.898   5.427   0.177
 7134SOL    HW122301   4.996   5.407   0.171
 7134SOL    HW222302   4.882   5.496   0.247
 7135SOL     OW22303   1.379   3.285   1.277
 7135SOL    HW122304   1.305   3.352   1.280
 7135SOL    HW222305   1.466   3.331   1.297
 7136SOL     OW22306   1.213   2.277   2.185
 7136SOL    HW122307   1.271   2.328   2.121
 7136SOL    HW222308   1.161   2.340   2.241
 7137SOL     OW22309   2.589   1.288   1.153
 7137SOL    HW122310   2.664   1.283   1.218
 7137SOL    HW222311   2.506   1.251   1.195
 7138SOL     OW22312   0.808   2.633   0.505
 7138SOL    HW122313   0.797   2.537   0.478
 7138SOL    HW222314   0.838   2.687   0.426
 7139SOL     OW22315   5.849   6.281   0.786
 7139SOL    HW122316   5.932   6.276   0.730
 7139SOL    HW222317   5.851   6.210   0.856
 7140SOL     OW22318   6.558   4.269   0.274
 7140SOL    HW122319   6.558   4.249   0.176
 7140SOL    HW222320   6.493   4.343   0.292
 7141SOL     OW22321   2.768   0.499   1.129
 7141SOL    HW122322   2.812   0.588   1.143
 7141SOL    HW222323   2.813   0.450   1.055
 7142SOL     OW22324   3.987   0.150   5.131
 7142SOL    HW122325   4.066   0.102   5.094
 7142SOL    HW222326   4.016   0.236   5.173
 7143SOL     OW22327   2.863   3.484   6.947
 7143SOL    HW122328   2.807   3.549   6.998
 7143SOL    HW222329   2.872   3.515   6.852
 7144SOL     OW22330   6.614   1.048   6.221
 7144SOL    HW122331   6.594   1.125   6.281
 7144SOL    HW222332   6.598   1.074   6.126
 7145SOL     OW22333   5.395   1.680   6.203
 7145SOL    HW122334   5.451   1.729   6.136
 7145SOL    HW222335   5.395   1.731   6.289
 7146SOL     OW22336   1.185   2.051   5.878
 7146SOL    HW122337   1.178   2.150   5.866
 7146SOL    HW222338   1.282   2.026   5.889
 7147SOL     OW22339   6.348   6.401   1.809
 7147SOL    HW122340   6.327   6.382   1.713
 7147SOL    HW222341   6.278   6.358   1.868
 7148SOL     OW22342   6.390   6.795   1.205
 7148SOL    HW122343   6.327   6.815   1.279
 7148SOL    HW222344   6.412   6.880   1.156
 7149SOL     OW22345   5.898   4.730   5.819
 7149SOL    HW122346   5.879   4.642   5.861
 7149SOL    HW222347   5.968   4.719   5.748
 7150SOL     OW22348   3.322   2.802   6.902
 7150SOL    HW122349   3.362   2.889   6.874
 7150SOL    HW222350   3.226   2.816   6.926
 7151SOL     OW22351   4.810   1.410   7.001
 7151SOL    HW122352   4.838   1.455   0.067
 7151SOL    HW222353   4.782   1.316   0.003
 7152SOL     OW22354   5.703   0.860   6.490
 7152SOL    HW122355   5.605   0.841   6.486
 7152SOL    HW222356   5.748   0.793   6.549
 7153SOL     OW22357   3.696   5.434   0.174
 7153SOL    HW122358   3.794   5.424   0.187
 7153SOL    HW222359   3.678   5.519   0.125
 7154SOL     OW22360   4.217   1.801   2.192
 7154SOL    HW122361   4.203   1.886   2.242
 7154SOL    HW222362   4.156   1.731   2.228
 7155SOL     OW22363   1.304   1.102   2.094
 7155SOL    HW122364   1.272   1.196   2.080
 7155SOL    HW222365   1.315   1.085   2.192
 7156SOL     OW22366   6.484   2.908   5.272
 7156SOL    HW122367   6.419   2.841   5.236
 7156SOL    HW222368   6.479   2.909   5.372
 7157SOL     OW22369   0.201   4.041   6.015
 7157SOL    HW122370   0.295   4.049   5.980
 7157SOL    HW222371   0.152   3.973   5.961
 7158SOL     OW22372   4.776   6.866   3.895
 7158SOL    HW122373   4.873   6.870   3.873
 7158SOL    HW222374   4.764   6.861   3.994
 7159SOL     OW22375   0.226   6.411   3.700
 7159SOL    HW122376   0.152   6.379   3.759
 7159SOL    HW222377   0.279   6.333   3.668
 7160SOL     OW22378   6.246   0.148   3.792
 7160SOL    HW122379   6.227   0.170   3.887
 7160SOL    HW222380   6.188   0.205   3.733
 7161SOL     OW22381   3.743   3.680   2.887
 7161SOL    HW122382   3.685   3.602   2.909
 7161SOL    HW222383   3.753   3.687   2.788
 7162SOL     OW22384   0.237   6.017   1.587
 7162SOL    HW122385   0.222   6.081   1.661
 7162SOL    HW222386   0.323   6.038   1.541
 7163SOL     OW22387   6.929   1.079   0.741
 7163SOL    HW122388   6.834   1.084   0.710
 7163SOL    HW222389   6.967   0.990   0.716
 7164SOL     OW22390   1.645   0.733   6.652
 7164SOL    HW122391   1.567   0.671   6.660
 7164SOL    HW222392   1.612   0.825   6.628
 7165SOL     OW22393   6.159   2.426   0.504
 7165SOL    HW122394   6.236   2.485   0.482
 7165SOL    HW222395   6.077   2.481   0.517
 7166SOL     OW22396   0.171   6.062   5.793
 7166SOL    HW122397   0.196   6.040   5.698
 7166SOL    HW222398   0.240   6.122   5.833
 7167SOL     OW22399   6.456   2.420   5.117
 7167SOL    HW122400   6.466   2.326   5.148
 7167SOL    HW222401   6.433   2.421   5.019
 7168SOL     OW22402   2.088   1.002   1.960
 7168SOL    HW122403   2.180   1.002   1.999
 7168SOL    HW222404   2.083   0.936   1.885
 7169SOL     OW22405   2.006   4.336   5.748
 7169SOL    HW122406   2.087   4.296   5.705
 7169SOL    HW222407   1.954   4.388   5.680
 7170SOL     OW22408   3.541   1.456   1.108
 7170SOL    HW122409   3.489   1.541   1.098
 7170SOL    HW222410   3.531   1.421   1.202
 7171SOL     OW22411   0.253   4.040   0.690
 7171SOL    HW122412   0.272   3.951   0.647
 7171SOL    HW222413   0.258   4.030   0.790
 7172SOL     OW22414   0.920   2.170   3.760
 7172SOL    HW122415   0.911   2.143   3.856
 7172SOL    HW222416   0.959   2.095   3.707
 7173SOL     OW22417   4.945   5.472   5.939
 7173SOL    HW122418   4.873   5.450   5.873
 7173SOL    HW222419   4.933   5.565   5.972
 7174SOL     OW22420   6.546   4.317   2.053
 7174SOL    HW122421   6.491   4.237   2.075
 7174SOL    HW222422   6.531   4.388   2.122
 7175SOL     OW22423   6.765   4.083   5.674
 7175SOL    HW122424   6.723   4.000   5.636
 7175SOL    HW222425   6.695   4.135   5.723
 7176SOL     OW22426   0.059   0.617   6.137
 7176SOL    HW122427   0.074   0.610   6.039
 7176SOL    HW222428   7.015   0.545   6.167
 7177SOL     OW22429   1.330   5.814   3.546
 7177SOL    HW122430   1.280   5.743   3.498
 7177SOL    HW222431   1.374   5.875   3.479
 7178SOL     OW22432   2.044   6.265   4.936
 7178SOL    HW122433   2.125   6.272   4.878
 7178SOL    HW222434   1.971   6.220   4.885
 7179SOL     OW22435   3.874   5.026   6.068
 7179SOL    HW122436   3.972   5.038   6.077
 7179SOL    HW222437   3.837   5.096   6.007
 7180SOL     OW22438   1.935   3.155   1.771
 7180SOL    HW122439   1.903   3.190   1.859
 7180SOL    HW222440   2.025   3.193   1.751
 7181SOL     OW22441   1.806   1.469   6.750
 7181SOL    HW122442   1.732   1.534   6.731
 7181SOL    HW222443   1.775   1.401   6.816
 7182SOL     OW22444   1.701   1.359   3.969
 7182SOL    HW122445   1.610   1.349   4.009
 7182SOL    HW222446   1.769   1.324   4.033
 7183SOL     OW22447   1.459   6.605   2.015
 7183SOL    HW122448   1.550   6.622   1.977
 7183SOL    HW222449   1.414   6.533   1.962
 7184SOL     OW22450   6.311   1.234   3.464
 7184SOL    HW122451   6.338   1.314   3.518
 7184SOL    HW222452   6.366   1.230   3.380
 7185SOL     OW22453   4.519   0.366   4.495
 7185SOL    HW122454   4.445   0.319   4.446
 7185SOL    HW222455   4.518   0.463   4.471
 7186SOL     OW22456   6.182   0.968   6.849
 7186SOL    HW122457   6.102   0.910   6.867
 7186SOL    HW222458   6.153   1.063   6.840
 7187SOL     OW22459   3.350   3.331   4.298
 7187SOL    HW122460   3.259   3.315   4.336
 7187SOL    HW222461   3.370   3.429   4.299
 7188SOL     OW22462   4.473   4.389   6.882
 7188SOL    HW122463   4.450   4.329   6.805
 7188SOL    HW222464   4.485   4.482   6.849
 7189SOL     OW22465   6.122   2.766   5.589
 7189SOL    HW122466   6.093   2.720   5.505
 7189SOL    HW222467   6.049   2.762   5.657
 7190SOL     OW22468   6.579   5.042   0.213
 7190SOL    HW122469   6.609   5.002   0.126
 7190SOL    HW222470   6.658   5.052   0.273
 7191SOL     OW22471   6.793   4.911   3.022
 7191SOL    HW122472   6.745   4.998   3.031
 7191SOL    HW222473   6.860   4.918   2.948
 7192SOL     OW22474   2.208   4.108   5.989
 7192SOL    HW122475   2.140   4.164   6.036
 7192SOL    HW222476   2.269   4.168   5.936
 7193SOL     OW22477   3.399   2.106   3.298
 7193SOL    HW122478   3.375   2.010   3.305
 7193SOL    HW222479   3.471   2.118   3.229
 7194SOL     OW22480   2.808   2.987   6.025
 7194SOL    HW122481   2.860   3.019   5.947
 7194SOL    HW222482   2.871   2.951   6.094
 7195SOL     OW22483   0.663   4.686   4.928
 7195SOL    HW122484   0.605   4.628   4.870
 7195SOL    HW222485   0.758   4.656   4.920
 7196SOL     OW22486   3.571   4.181   1.984
 7196SOL    HW122487   3.589   4.234   2.067
 7196SOL    HW222488   3.620   4.094   1.989
 7197SOL     OW22489   3.190   4.459   6.328
 7197SOL    HW122490   3.230   4.455   6.236
 7197SOL    HW222491   3.106   4.405   6.329
 7198SOL     OW22492   0.697   1.077   1.869
 7198SOL    HW122493   0.716   1.084   1.771
 7198SOL    HW222494   0.599   1.084   1.885
 7199SOL     OW22495   6.007   1.621   2.770
 7199SOL    HW122496   6.039   1.563   2.845
 7199SOL    HW222497   6.079   1.630   2.701
 7200SOL     OW22498   1.075   2.348   0.458
 7200SOL    HW122499   1.093   2.434   0.506
 7200SOL    HW222500   1.129   2.275   0.498
 7201SOL     OW22501   6.156   5.142   4.013
 7201SOL    HW122502   6.202   5.074   4.070
 7201SOL    HW222503   6.146   5.227   4.064
 7202SOL     OW22504   4.791   6.944   6.083
 7202SOL    HW122505   4.788   7.005   6.162
 7202SOL    HW222506   4.829   6.855   6.110
 7203SOL     OW22507   0.043   1.655   0.926
 7203SOL    HW122508   0.074   1.601   1.004
 7203SOL    HW222509   0.117   1.660   0.858
 7204SOL     OW22510   6.603   0.302   2.471
 7204SOL    HW122511   6.544   0.286   2.391
 7204SOL    HW222512   6.553   0.358   2.538
 7205SOL     OW22513   2.966   1.925   3.814
 7205SOL    HW122514   2.908   1.892   3.888
 7205SOL    HW222515   3.007   2.012   3.839
 7206SOL     OW22516   1.839   3.441   6.904
 7206SOL    HW122517   1.787   3.526   6.894
 7206SOL    HW222518   1.916   3.457   6.965
 7207SOL     OW22519   1.897   0.922   3.579
 7207SOL    HW122520   1.864   0.906   3.673
 7207SOL    HW222521   1.864   0.849   3.520
 7208SOL     OW22522   3.110   0.719   4.091
 7208SOL    HW122523   3.117   0.771   4.006
 7208SOL    HW222524   3.105   0.622   4.071
 7209SOL     OW22525   3.509   1.229   2.038
 7209SOL    HW122526   3.458   1.210   2.122
 7209SOL    HW222527   3.447   1.267   1.970
 7210SOL     OW22528   2.906   1.448   3.239
 7210SOL    HW122529   2.996   1.435   3.280
 7210SOL    HW222530   2.845   1.376   3.272
 7211SOL     OW22531   4.606   6.441   5.387
 7211SOL    HW122532   4.610   6.349   5.348
 7211SOL    HW222533   4.626   6.509   5.317
 7212SOL     OW22534   0.310   4.647   6.040
 7212SOL    HW122535   0.288   4.563   5.991
 7212SOL    HW222536   0.230   4.708   6.040
 7213SOL     OW22537   4.145   2.103   6.837
 7213SOL    HW122538   4.108   2.120   6.928
 7213SOL    HW222539   4.213   2.029   6.841
 7214SOL     OW22540   6.186   0.616   6.200
 7214SOL    HW122541   6.129   0.534   6.190
 7214SOL    HW222542   6.273   0.591   6.243
 7215SOL     OW22543   5.883   2.056   3.236
 7215SOL    HW122544   5.913   2.125   3.170
 7215SOL    HW222545   5.945   1.977   3.233
 7216SOL     OW22546   4.009   6.566   3.327
 7216SOL    HW122547   3.980   6.641   3.387
 7216SOL    HW222548   3.982   6.587   3.233
 7217SOL     OW22549   1.010   3.135   2.620
 7217SOL    HW122550   1.057   3.214   2.658
 7217SOL    HW222551   1.030   3.128   2.523
 7218SOL     OW22552   6.408   2.962   4.519
 7218SOL    HW122553   6.452   3.051   4.535
 7218SOL    HW222554   6.358   2.964   4.433
 7219SOL     OW22555   3.404   6.462   2.692
 7219SOL    HW122556   3.376   6.367   2.676
 7219SOL    HW222557   3.413   6.509   2.604
 7220SOL     OW22558   6.571   4.447   4.021
 7220SOL    HW122559   6.608   4.462   3.929
 7220SOL    HW222560   6.499   4.514   4.039
 7221SOL     OW22561   3.862   5.582   3.905
 7221SOL    HW122562   3.830   5.558   3.813
 7221SOL    HW222563   3.806   5.657   3.941
 7222SOL     OW22564   6.324   5.844   4.789
 7222SOL    HW122565   6.394   5.912   4.769
 7222SOL    HW222566   6.317   5.830   4.888
 7223SOL     OW22567   0.089   4.047   1.944
 7223SOL    HW122568   0.101   4.145   1.933
 7223SOL    HW222569   0.110   4.001   1.858
 7224SOL     OW22570   4.137   2.016   2.370
 7224SOL    HW122571   4.080   2.081   2.320
 7224SOL    HW222572   4.233   2.044   2.364
 7225SOL     OW22573   1.358   5.452   0.597
 7225SOL    HW122574   1.441   5.469   0.650
 7225SOL    HW222575   1.335   5.533   0.544
 7226SOL     OW22576   6.446   6.624   0.489
 7226SOL    HW122577   6.515   6.679   0.442
 7226SOL    HW222578   6.436   6.657   0.583
 7227SOL     OW22579   2.133   0.902   2.531
 7227SOL    HW122580   2.046   0.912   2.483
 7227SOL    HW222581   2.141   0.809   2.566
 7228SOL     OW22582   0.040   3.258   2.299
 7228SOL    HW122583   0.107   3.256   2.225
 7228SOL    HW222584   7.006   3.173   2.300
 7229SOL     OW22585   6.414   1.184   5.161
 7229SOL    HW122586   6.499   1.208   5.207
 7229SOL    HW222587   6.379   1.263   5.111
 7230SOL     OW22588   2.396   5.340   4.544
 7230SOL    HW122589   2.401   5.311   4.449
 7230SOL    HW222590   2.398   5.259   4.604
 7231SOL     OW22591   4.101   2.263   5.945
 7231SOL    HW122592   4.049   2.269   5.861
 7231SOL    HW222593   4.137   2.170   5.957
 7232SOL     OW22594   5.118   6.385   3.699
 7232SOL    HW122595   5.123   6.428   3.609
 7232SOL    HW222596   5.142   6.288   3.691
 7233SOL     OW22597   0.089   1.163   4.833
 7233SOL    HW122598   0.037   1.232   4.884
 7233SOL    HW222599   0.175   1.204   4.803
 7234SOL     OW22600   5.076   4.155   3.525
 7234SOL    HW122601   5.148   4.211   3.565
 7234SOL    HW222602   5.109   4.061   3.513
 7235SOL     OW22603   6.777   5.573   1.532
 7235SOL    HW122604   6.800   5.671   1.536
 7235SOL    HW222605   6.727   5.547   1.614
 7236SOL     OW22606   0.994   3.786   2.495
 7236SOL    HW122607   0.996   3.787   2.595
 7236SOL    HW222608   1.085   3.806   2.459
 7237SOL     OW22609   6.020   0.830   0.561
 7237SOL    HW122610   6.071   0.767   0.620
 7237SOL    HW222611   6.029   0.923   0.596
 7238SOL     OW22612   4.069   3.375   6.619
 7238SOL    HW122613   3.974   3.405   6.626
 7238SOL    HW222614   4.079   3.284   6.658
 7239SOL     OW22615   6.917   2.596   1.989
 7239SOL    HW122616   6.836   2.542   2.011
 7239SOL    HW222617   6.970   2.550   1.918
 7240SOL     OW22618   6.510   1.903   0.012
 7240SOL    HW122619   6.478   1.855   0.094
 7240SOL    HW222620   6.480   1.853   6.949
 7241SOL     OW22621   2.646   1.384   1.933
 7241SOL    HW122622   2.684   1.460   1.880
 7241SOL    HW222623   2.718   1.347   1.992
 7242SOL     OW22624   6.699   4.634   4.595
 7242SOL    HW122625   6.723   4.618   4.500
 7242SOL    HW222626   6.732   4.724   4.624
 7243SOL     OW22627   5.868   4.430   6.369
 7243SOL    HW122628   5.846   4.345   6.321
 7243SOL    HW222629   5.967   4.435   6.383
 7244SOL     OW22630   0.440   6.348   6.844
 7244SOL    HW122631   0.527   6.385   6.878
 7244SOL    HW222632   0.393   6.300   6.919
 7245SOL     OW22633   0.792   3.052   0.651
 7245SOL    HW122634   0.796   3.149   0.674
 7245SOL    HW222635   0.856   3.001   0.707
 7246SOL     OW22636   4.190   6.757   3.818
 7246SOL    HW122637   4.095   6.753   3.789
 7246SOL    HW222638   4.244   6.690   3.767
 7247SOL     OW22639   3.046   4.072   5.419
 7247SOL    HW122640   3.141   4.057   5.445
 7247SOL    HW222641   2.999   3.984   5.408
 7248SOL     OW22642   3.140   1.058   4.928
 7248SOL    HW122643   3.056   1.100   4.893
 7248SOL    HW222644   3.126   1.031   5.023
 7249SOL     OW22645   3.837   5.122   2.336
 7249SOL    HW122646   3.804   5.032   2.364
 7249SOL    HW222647   3.766   5.190   2.352
 7250SOL     OW22648   5.332   5.105   5.262
 7250SOL    HW122649   5.379   5.193   5.250
 7250SOL    HW222650   5.298   5.073   5.174
 7251SOL     OW22651   0.166   6.006   5.509
 7251SOL    HW122652   0.200   5.913   5.502
 7251SOL    HW222653   0.208   6.063   5.438
 7252SOL     OW22654   3.473   4.143   2.551
 7252SOL    HW122655   3.395   4.082   2.559
 7252SOL    HW222656   3.450   4.221   2.492
 7253SOL     OW22657   2.153   5.728   4.652
 7253SOL    HW122658   2.224   5.797   4.638
 7253SOL    HW222659   2.173   5.676   4.735
 7254SOL     OW22660   5.471   3.363   3.921
 7254SOL    HW122661   5.508   3.326   4.006
 7254SOL    HW222662   5.499   3.459   3.911
 7255SOL     OW22663   5.039   3.012   6.471
 7255SOL    HW122664   4.945   2.978   6.470
 7255SOL    HW222665   5.051   3.072   6.550
 7256SOL     OW22666   3.470   0.317   5.344
 7256SOL    HW122667   3.415   0.289   5.423
 7256SOL    HW222668   3.505   0.236   5.297
 7257SOL     OW22669   0.555   1.501   4.344
 7257SOL    HW122670   0.563   1.577   4.279
 7257SOL    HW222671   0.606   1.422   4.309
 7258SOL     OW22672   6.114   2.301   2.593
 7258SOL    HW122673   6.150   2.376   2.537
 7258SOL    HW222674   6.175   2.284   2.670
 7259SOL     OW22675   1.367   3.722   2.599
 7259SOL    HW122676   1.429   3.674   2.660
 7259SOL    HW222677   1.378   3.821   2.610
 7260SOL     OW22678   5.814   3.339   1.367
 7260SOL    HW122679   5.855   3.277   1.301
 7260SOL    HW222680   5.852   3.321   1.458
 7261SOL     OW22681   6.992   4.678   0.106
 7261SOL    HW122682   0.070   4.653   0.112
 7261SOL    HW222683   6.966   4.691   0.010
 7262SOL     OW22684   6.317   1.332   5.412
 7262SOL    HW122685   6.353   1.246   5.447
 7262SOL    HW222686   6.385   1.375   5.353
 7263SOL     OW22687   0.597   5.215   6.809
 7263SOL    HW122688   0.588   5.136   6.749
 7263SOL    HW222689   0.635   5.292   6.757
 7264SOL     OW22690   6.404   1.752   0.227
 7264SOL    HW122691   6.462   1.733   0.307
 7264SOL    HW222692   6.370   1.665   0.189
 7265SOL     OW22693   4.534   5.776   5.567
 7265SOL    HW122694   4.553   5.692   5.516
 7265SOL    HW222695   4.576   5.770   5.657
 7266SOL     OW22696   0.360   0.920   3.774
 7266SOL    HW122697   0.306   0.884   3.850
 7266SOL    HW222698   0.457   0.912   3.795
 7267SOL     OW22699   6.202   4.569   4.692
 7267SOL    HW122700   6.252   4.539   4.610
 7267SOL    HW222701   6.255   4.639   4.740
 7268SOL     OW22702   6.522   6.337   4.305
 7268SOL    HW122703   6.472   6.418   4.332
 7268SOL    HW222704   6.588   6.313   4.376
 7269SOL     OW22705   2.501   4.608   5.329
 7269SOL    HW122706   2.596   4.607   5.358
 7269SOL    HW222707   2.492   4.566   5.239
 7270SOL     OW22708   0.573   1.079   4.390
 7270SOL    HW122709   0.664   1.065   4.427
 7270SOL    HW222710   0.526   1.150   4.442
 7271SOL     OW22711   1.005   4.480   3.367
 7271SOL    HW122712   0.955   4.441   3.444
 7271SOL    HW222713   1.103   4.468   3.380
 7272SOL     OW22714   6.461   4.665   2.803
 7272SOL    HW122715   6.468   4.765   2.800
 7272SOL    HW222716   6.484   4.633   2.895
 7273SOL     OW22717   0.270   2.392   5.399
 7273SOL    HW122718   0.267   2.466   5.466
 7273SOL    HW222719   0.258   2.430   5.307
 7274SOL     OW22720   0.559   4.569   0.143
 7274SOL    HW122721   0.658   4.571   0.159
 7274SOL    HW222722   0.511   4.598   0.226
 7275SOL     OW22723   0.001   0.373   3.215
 7275SOL    HW122724   0.005   0.404   3.120
 7275SOL    HW222725   0.052   0.436   3.273
 7276SOL     OW22726   5.743   6.540   4.486
 7276SOL    HW122727   5.649   6.567   4.464
 7276SOL    HW222728   5.755   6.540   4.585
 7277SOL     OW22729   4.659   0.236   6.068
 7277SOL    HW122730   4.689   0.192   5.983
 7277SOL    HW222731   4.712   0.200   6.145
 7278SOL     OW22732   2.948   3.806   2.955
 7278SOL    HW122733   2.958   3.830   3.052
 7278SOL    HW222734   2.859   3.763   2.940
 7279SOL     OW22735   3.293   6.595   5.889
 7279SOL    HW122736   3.214   6.543   5.921
 7279SOL    HW222737   3.322   6.559   5.800
 7280SOL     OW22738   4.775   1.540   5.979
 7280SOL    HW122739   4.680   1.570   5.966
 7280SOL    HW222740   4.835   1.620   5.977
 7281SOL     OW22741   5.019   0.984   6.568
 7281SOL    HW122742   5.061   1.027   6.647
 7281SOL    HW222743   4.979   1.054   6.509
 7282SOL     OW22744   5.871   5.624   2.184
 7282SOL    HW122745   5.902   5.675   2.264
 7282SOL    HW222746   5.775   5.600   2.193
 7283SOL     OW22747   1.785   0.611   3.803
 7283SOL    HW122748   1.781   0.603   3.903
 7283SOL    HW222749   1.831   0.531   3.765
 7284SOL     OW22750   0.187   3.947   4.827
 7284SOL    HW122751   0.122   3.890   4.777
 7284SOL    HW222752   0.258   3.888   4.866
 7285SOL     OW22753   4.706   5.796   1.642
 7285SOL    HW122754   4.702   5.734   1.720
 7285SOL    HW222755   4.619   5.792   1.592
 7286SOL     OW22756   2.028   3.605   1.364
 7286SOL    HW122757   1.929   3.591   1.362
 7286SOL    HW222758   2.070   3.541   1.428
 7287SOL     OW22759   6.036   1.429   6.315
 7287SOL    HW122760   6.107   1.434   6.386
 7287SOL    HW222761   5.984   1.345   6.326
 7288SOL     OW22762   3.834   6.587   0.100
 7288SOL    HW122763   3.913   6.573   0.160
 7288SOL    HW222764   3.804   6.499   0.063
 7289SOL     OW22765   4.504   2.021   2.973
 7289SOL    HW122766   4.559   2.100   2.948
 7289SOL    HW222767   4.502   1.956   2.897
 7290SOL     OW22768   2.664   5.098   4.471
 7290SOL    HW122769   2.738   5.041   4.506
 7290SOL    HW222770   2.688   5.132   4.380
 7291SOL     OW22771   2.373   5.877   1.793
 7291SOL    HW122772   2.463   5.861   1.753
 7291SOL    HW222773   2.369   5.836   1.883
 7292SOL     OW22774   2.674   6.649   4.129
 7292SOL    HW122775   2.707   6.714   4.061
 7292SOL    HW222776   2.673   6.693   4.219
 7293SOL     OW22777   1.107   2.156   5.241
 7293SOL    HW122778   1.136   2.075   5.292
 7293SOL    HW222779   1.019   2.188   5.277
 7294SOL     OW22780   3.289   5.166   0.793
 7294SOL    HW122781   3.253   5.085   0.838
 7294SOL    HW222782   3.353   5.139   0.721
 7295SOL     OW22783   6.059   0.930   1.397
 7295SOL    HW122784   6.144   0.878   1.409
 7295SOL    HW222785   6.067   0.987   1.315
 7296SOL     OW22786   3.751   4.987   1.396
 7296SOL    HW122787   3.730   4.987   1.494
 7296SOL    HW222788   3.710   4.907   1.353
 7297SOL     OW22789   4.967   6.859   1.607
 7297SOL    HW122790   4.909   6.803   1.667
 7297SOL    HW222791   4.912   6.891   1.530
 7298SOL     OW22792   5.703   3.892   4.298
 7298SOL    HW122793   5.705   3.863   4.394
 7298SOL    HW222794   5.720   3.813   4.239
 7299SOL     OW22795   6.597   4.196   6.806
 7299SOL    HW122796   6.601   4.289   6.770
 7299SOL    HW222797   6.688   4.154   6.803
 7300SOL     OW22798   4.460   5.013   1.145
 7300SOL    HW122799   4.378   4.985   1.096
 7300SOL    HW222800   4.482   5.108   1.122
 7301SOL     OW22801   6.675   0.350   5.975
 7301SOL    HW122802   6.599   0.285   5.980
 7301SOL    HW222803   6.761   0.300   5.967
 7302SOL     OW22804   5.440   0.834   6.485
 7302SOL    HW122805   5.344   0.819   6.463
 7302SOL    HW222806   5.460   0.932   6.483
 7303SOL     OW22807   3.489   1.066   0.134
 7303SOL    HW122808   3.521   1.160   0.121
 7303SOL    HW222809   3.496   1.041   0.230
 7304SOL     OW22810   3.598   3.740   5.538
 7304SOL    HW122811   3.684   3.689   5.530
 7304SOL    HW222812   3.584   3.795   5.456
 7305SOL     OW22813   5.148   1.312   0.935
 7305SOL    HW122814   5.233   1.312   0.882
 7305SOL    HW222815   5.092   1.390   0.909
 7306SOL     OW22816   4.857   4.962   1.810
 7306SOL    HW122817   4.869   5.062   1.813
 7306SOL    HW222818   4.881   4.923   1.899
 7307SOL     OW22819   4.049   6.470   2.243
 7307SOL    HW122820   4.086   6.409   2.313
 7307SOL    HW222821   3.958   6.502   2.271
 7308SOL     OW22822   6.624   2.684   4.725
 7308SOL    HW122823   6.676   2.667   4.808
 7308SOL    HW222824   6.687   2.697   4.648
 7309SOL     OW22825   4.548   6.361   1.597
 7309SOL    HW122826   4.570   6.459   1.602
 7309SOL    HW222827   4.465   6.343   1.649
 7310SOL     OW22828   3.182   5.172   1.602
 7310SOL    HW122829   3.279   5.146   1.605
 7310SOL    HW222830   3.125   5.090   1.607
 7311SOL     OW22831   2.852   2.096   1.850
 7311SOL    HW122832   2.883   2.172   1.908
 7311SOL    HW222833   2.868   2.009   1.897
 7312SOL     OW22834   6.555   1.238   5.830
 7312SOL    HW122835   6.508   1.322   5.857
 7312SOL    HW222836   6.495   1.160   5.847
 7313SOL     OW22837   4.149   2.367   6.419
 7313SOL    HW122838   4.119   2.271   6.421
 7313SOL    HW222839   4.206   2.382   6.338
 7314SOL     OW22840   6.921   3.380   4.277
 7314SOL    HW122841   6.990   3.328   4.228
 7314SOL    HW222842   6.930   3.363   4.375
 7315SOL     OW22843   6.780   0.193   4.050
 7315SOL    HW122844   6.687   0.183   4.085
 7315SOL    HW222845   6.781   0.259   3.975
 7316SOL     OW22846   3.331   3.510   5.547
 7316SOL    HW122847   3.344   3.597   5.594
 7316SOL    HW222848   3.418   3.481   5.507
 7317SOL     OW22849   3.544   1.049   3.928
 7317SOL    HW122850   3.571   1.113   4.000
 7317SOL    HW222851   3.580   1.080   3.840
 7318SOL     OW22852   1.821   2.244   1.322
 7318SOL    HW122853   1.797   2.341   1.332
 7318SOL    HW222854   1.920   2.235   1.308
 7319SOL     OW22855   5.715   4.585   6.718
 7319SOL    HW122856   5.762   4.518   6.776
 7319SOL    HW222857   5.706   4.548   6.626
 7320SOL     OW22858   0.333   3.110   2.264
 7320SOL    HW122859   0.284   3.071   2.342
 7320SOL    HW222860   0.347   3.039   2.195
 7321SOL     OW22861   2.742   1.350   4.344
 7321SOL    HW122862   2.792   1.347   4.257
 7321SOL    HW222863   2.735   1.444   4.375
 7322SOL     OW22864   0.369   4.185   2.859
 7322SOL    HW122865   0.388   4.178   2.761
 7322SOL    HW222866   0.338   4.096   2.893
 7323SOL     OW22867   1.911   3.123   3.483
 7323SOL    HW122868   1.977   3.145   3.411
 7323SOL    HW222869   1.907   3.024   3.494
 7324SOL     OW22870   5.447   6.945   2.860
 7324SOL    HW122871   5.478   6.924   2.767
 7324SOL    HW222872   5.443   6.860   2.914
 7325SOL     OW22873   3.300   6.122   6.837
 7325SOL    HW122874   3.255   6.199   6.882
 7325SOL    HW222875   3.266   6.036   6.876
 7326SOL     OW22876   2.957   6.846   5.686
 7326SOL    HW122877   2.885   6.873   5.749
 7326SOL    HW222878   3.042   6.830   5.737
 7327SOL     OW22879   1.392   3.030   5.630
 7327SOL    HW122880   1.368   3.123   5.660
 7327SOL    HW222881   1.475   3.001   5.678
 7328SOL     OW22882   2.542   0.180   6.946
 7328SOL    HW122883   2.482   0.106   6.974
 7328SOL    HW222884   2.496   0.268   6.959
 7329SOL     OW22885   4.127   3.227   1.357
 7329SOL    HW122886   4.099   3.265   1.445
 7329SOL    HW222887   4.211   3.174   1.368
 7330SOL     OW22888   3.592   1.321   0.143
 7330SOL    HW122889   3.516   1.338   0.205
 7330SOL    HW222890   3.594   1.392   0.072
 7331SOL     OW22891   5.437   0.399   1.748
 7331SOL    HW122892   5.450   0.484   1.799
 7331SOL    HW222893   5.433   0.419   1.650
 7332SOL     OW22894   3.506   5.224   1.093
 7332SOL    HW122895   3.468   5.285   1.024
 7332SOL    HW222896   3.569   5.159   1.050
 7333SOL     OW22897   1.103   4.628   2.614
 7333SOL    HW122898   1.191   4.668   2.641
 7333SOL    HW222899   1.030   4.664   2.671
 7334SOL     OW22900   3.840   6.338   4.341
 7334SOL    HW122901   3.870   6.415   4.396
 7334SOL    HW222902   3.809   6.370   4.251
 7335SOL     OW22903   1.803   2.620   2.668
 7335SOL    HW122904   1.785   2.532   2.711
 7335SOL    HW222905   1.852   2.607   2.582
 7336SOL     OW22906   2.161   6.299   3.359
 7336SOL    HW122907   2.094   6.359   3.316
 7336SOL    HW222908   2.237   6.354   3.394
 7337SOL     OW22909   6.938   3.022   2.234
 7337SOL    HW122910   6.940   2.930   2.273
 7337SOL    HW222911   6.843   3.053   2.228
 7338SOL     OW22912   6.710   2.611   0.608
 7338SOL    HW122913   6.689   2.654   0.520
 7338SOL    HW222914   6.631   2.619   0.669
 7339SOL     OW22915   6.771   5.706   4.848
 7339SOL    HW122916   6.733   5.660   4.767
 7339SOL    HW222917   6.764   5.805   4.836
 7340SOL     OW22918   2.151   0.026   6.884
 7340SOL    HW122919   2.126   6.997   6.799
 7340SOL    HW222920   2.112   0.118   6.884
 7341SOL     OW22921   6.005   2.641   6.681
 7341SOL    HW122922   5.918   2.690   6.681
 7341SOL    HW222923   6.071   2.689   6.622
 7342SOL     OW22924   0.379   6.885   2.785
 7342SOL    HW122925   0.307   6.952   2.771
 7342SOL    HW222926   0.355   6.824   2.860
 7343SOL     OW22927   5.144   3.999   0.338
 7343SOL    HW122928   5.144   4.024   0.241
 7343SOL    HW222929   5.053   3.966   0.364
 7344SOL     OW22930   1.695   6.208   6.378
 7344SOL    HW122931   1.699   6.304   6.406
 7344SOL    HW222932   1.656   6.202   6.286
 7345SOL     OW22933   3.595   5.379   6.002
 7345SOL    HW122934   3.518   5.378   5.937
 7345SOL    HW222935   3.559   5.383   6.095
 7346SOL     OW22936   5.167   4.468   2.995
 7346SOL    HW122937   5.186   4.424   3.082
 7346SOL    HW222938   5.188   4.406   2.920
 7347SOL     OW22939   5.567   2.399   6.674
 7347SOL    HW122940   5.589   2.305   6.698
 7347SOL    HW222941   5.651   2.451   6.663
 7348SOL     OW22942   0.187   4.584   1.872
 7348SOL    HW122943   0.181   4.611   1.776
 7348SOL    HW222944   0.096   4.593   1.914
 7349SOL     OW22945   3.768   1.744   1.593
 7349SOL    HW122946   3.831   1.749   1.670
 7349SOL    HW222947   3.677   1.772   1.622
 7350SOL     OW22948   3.627   0.396   5.065
 7350SOL    HW122949   3.570   0.455   5.009
 7350SOL    HW222950   3.633   0.305   5.023
 7351SOL     OW22951   3.279   4.892   4.003
 7351SOL    HW122952   3.227   4.859   3.924
 7351SOL    HW222953   3.220   4.894   4.083
 7352SOL     OW22954   6.799   2.423   3.696
 7352SOL    HW122955   6.779   2.345   3.756
 7352SOL    HW222956   6.898   2.441   3.697
 7353SOL     OW22957   6.317   0.485   6.543
 7353SOL    HW122958   6.230   0.439   6.527
 7353SOL    HW222959   6.301   0.573   6.588
 7354SOL     OW22960   0.955   1.690   2.886
 7354SOL    HW122961   0.890   1.653   2.819
 7354SOL    HW222962   0.925   1.781   2.914
 7355SOL     OW22963   1.407   2.172   7.011
 7355SOL    HW122964   1.362   2.221   6.936
 7355SOL    HW222965   1.436   2.237   0.063
 7356SOL     OW22966   4.582   4.428   6.194
 7356SOL    HW122967   4.498   4.469   6.157
 7356SOL    HW222968   4.608   4.349   6.138
 7357SOL     OW22969   5.464   5.786   2.213
 7357SOL    HW122970   5.454   5.819   2.306
 7357SOL    HW222971   5.383   5.733   2.187
 7358SOL     OW22972   5.358   0.720   3.545
 7358SOL    HW122973   5.330   0.812   3.574
 7358SOL    HW222974   5.334   0.654   3.616
 7359SOL     OW22975   4.892   0.029   0.742
 7359SOL    HW122976   4.808   7.011   0.784
 7359SOL    HW222977   4.936   0.093   0.804
 7360SOL     OW22978   2.985   3.820   5.353
 7360SOL    HW122979   2.941   3.744   5.305
 7360SOL    HW222980   3.081   3.798   5.369
 7361SOL     OW22981   5.283   0.372   3.398
 7361SOL    HW122982   5.282   0.372   3.298
 7361SOL    HW222983   5.189   0.368   3.433
 7362SOL     OW22984   3.682   5.316   6.476
 7362SOL    HW122985   3.720   5.239   6.424
 7362SOL    HW222986   3.719   5.315   6.568
 7363SOL     OW22987   3.822   0.235   1.062
 7363SOL    HW122988   3.849   0.235   0.966
 7363SOL    HW222989   3.889   0.286   1.116
 7364SOL     OW22990   5.561   6.929   1.517
 7364SOL    HW122991   5.571   6.877   1.433
 7364SOL    HW222992   5.486   6.995   1.508
 7365SOL     OW22993   5.874   4.893   2.001
 7365SOL    HW122994   5.891   4.840   1.918
 7365SOL    HW222995   5.802   4.848   2.055
 7366SOL     OW22996   1.850   1.188   4.155
 7366SOL    HW122997   1.827   1.223   4.246
 7366SOL    HW222998   1.833   1.090   4.150
 7367SOL     OW22999   4.291   0.116   6.583
 7367SOL    HW123000   4.213   0.059   6.556
 7367SOL    HW223001   4.352   0.128   6.504
 7368SOL     OW23002   4.143   3.600   3.318
 7368SOL    HW123003   4.096   3.652   3.247
 7368SOL    HW223004   4.099   3.510   3.328
 7369SOL     OW23005   5.350   2.359   1.002
 7369SOL    HW123006   5.447   2.383   1.003
 7369SOL    HW223007   5.323   2.337   0.908
 7370SOL     OW23008   2.095   1.639   4.320
 7370SOL    HW123009   2.130   1.585   4.243
 7370SOL    HW223010   2.126   1.598   4.406
 7371SOL     OW23011   3.948   0.764   3.782
 7371SOL    HW123012   3.871   0.790   3.842
 7371SOL    HW223013   4.010   0.842   3.773
 7372SOL     OW23014   5.388   0.612   5.510
 7372SOL    HW123015   5.431   0.698   5.483
 7372SOL    HW223016   5.298   0.630   5.549
 7373SOL     OW23017   5.609   3.052   4.205
 7373SOL    HW123018   5.694   3.076   4.251
 7373SOL    HW223019   5.562   2.981   4.258
 7374SOL     OW23020   6.227   1.762   5.648
 7374SOL    HW123021   6.218   1.668   5.617
 7374SOL    HW223022   6.321   1.793   5.635
 7375SOL     OW23023   1.792   3.573   2.209
 7375SOL    HW123024   1.716   3.508   2.212
 7375SOL    HW223025   1.779   3.643   2.279
 7376SOL     OW23026   0.245   3.617   6.941
 7376SOL    HW123027   0.296   3.689   6.989
 7376SOL    HW223028   0.167   3.657   6.893
 7377SOL     OW23029   3.095   6.079   1.119
 7377SOL    HW123030   3.009   6.071   1.067
 7377SOL    HW223031   3.118   5.991   1.159
 7378SOL     OW23032   1.271   5.967   3.770
 7378SOL    HW123033   1.307   5.898   3.707
 7378SOL    HW223034   1.276   5.932   3.864
 7379SOL     OW23035   3.823   1.125   1.081
 7379SOL    HW123036   3.839   1.044   1.137
 7379SOL    HW223037   3.909   1.175   1.070
 7380SOL     OW23038   5.156   3.681   2.358
 7380SOL    HW123039   5.149   3.614   2.431
 7380SOL    HW223040   5.198   3.765   2.393
 7381SOL     OW23041   3.448   1.031   0.829
 7381SOL    HW123042   3.418   0.939   0.852
 7381SOL    HW223043   3.476   1.079   0.912
 7382SOL     OW23044   6.557   1.352   6.397
 7382SOL    HW123045   6.466   1.376   6.431
 7382SOL    HW223046   6.572   1.397   6.309
 7383SOL     OW23047   2.112   6.698   0.579
 7383SOL    HW123048   2.142   6.643   0.501
 7383SOL    HW223049   2.034   6.755   0.551
 7384SOL     OW23050   7.015   0.276   1.191
 7384SOL    HW123051   0.090   0.244   1.172
 7384SOL    HW223052   0.000   0.368   1.229
 7385SOL     OW23053   5.668   4.225   3.074
 7385SOL    HW123054   5.744   4.259   3.018
 7385SOL    HW223055   5.681   4.127   3.091
 7386SOL     OW23056   5.912   3.407   0.592
 7386SOL    HW123057   5.884   3.497   0.559
 7386SOL    HW223058   5.838   3.341   0.578
 7387SOL     OW23059   6.993   5.826   5.598
 7387SOL    HW123060   0.025   5.904   5.560
 7387SOL    HW223061   0.040   5.752   5.618
 7388SOL     OW23062   2.292   5.518   2.494
 7388SOL    HW123063   2.334   5.461   2.565
 7388SOL    HW223064   2.193   5.524   2.510
 7389SOL     OW23065   5.916   3.113   0.307
 7389SOL    HW123066   6.014   3.113   0.323
 7389SOL    HW223067   5.893   3.048   0.236
 7390SOL     OW23068   2.268   2.350   2.915
 7390SOL    HW123069   2.333   2.298   2.859
 7390SOL    HW223070   2.281   2.447   2.898
 7391SOL     OW23071   3.925   3.107   3.557
 7391SOL    HW123072   4.001   3.107   3.621
 7391SOL    HW223073   3.930   3.189   3.499
 7392SOL     OW23074   3.177   6.359   6.913
 7392SOL    HW123075   3.141   6.448   6.886
 7392SOL    HW223076   3.110   6.310   6.968
 7393SOL     OW23077   5.272   4.932   4.192
 7393SOL    HW123078   5.179   4.940   4.156
 7393SOL    HW223079   5.328   4.877   4.129
 7394SOL     OW23080   2.761   1.684   5.927
 7394SOL    HW123081   2.702   1.746   5.979
 7394SOL    HW223082   2.813   1.626   5.990
 7395SOL     OW23083   2.996   5.488   0.870
 7395SOL    HW123084   3.022   5.580   0.899
 7395SOL    HW223085   2.921   5.455   0.927
 7396SOL     OW23086   2.499   5.265   1.855
 7396SOL    HW123087   2.599   5.270   1.853
 7396SOL    HW223088   2.465   5.246   1.762
 7397SOL     OW23089   5.815   4.485   3.978
 7397SOL    HW123090   5.805   4.445   4.069
 7397SOL    HW223091   5.741   4.450   3.919
 7398SOL     OW23092   2.509   4.580   2.290
 7398SOL    HW123093   2.567   4.592   2.209
 7398SOL    HW223094   2.438   4.513   2.270
 7399SOL     OW23095   5.171   2.316   5.134
 7399SOL    HW123096   5.081   2.357   5.117
 7399SOL    HW223097   5.188   2.313   5.233
 7400SOL     OW23098   5.346   3.116   5.692
 7400SOL    HW123099   5.260   3.107   5.742
 7400SOL    HW223100   5.405   3.038   5.714
 7401SOL     OW23101   1.620   2.741   3.890
 7401SOL    HW123102   1.577   2.765   3.977
 7401SOL    HW223103   1.649   2.645   3.893
 7402SOL     OW23104   3.464   6.059   4.588
 7402SOL    HW123105   3.481   6.063   4.490
 7402SOL    HW223106   3.537   6.107   4.636
 7403SOL     OW23107   1.666   3.807   4.202
 7403SOL    HW123108   1.582   3.762   4.231
 7403SOL    HW223109   1.736   3.798   4.273
 7404SOL     OW23110   3.210   3.477   1.073
 7404SOL    HW123111   3.271   3.553   1.052
 7404SOL    HW223112   3.232   3.441   1.164
 7405SOL     OW23113   3.733   6.445   4.082
 7405SOL    HW123114   3.656   6.501   4.113
 7405SOL    HW223115   3.751   6.464   3.985
 7406SOL     OW23116   1.119   1.147   4.944
 7406SOL    HW123117   1.176   1.208   4.999
 7406SOL    HW223118   1.030   1.190   4.929
 7407SOL     OW23119   0.928   5.871   5.336
 7407SOL    HW123120   0.851   5.862   5.400
 7407SOL    HW223121   0.899   5.841   5.245
 7408SOL     OW23122   3.799   4.876   5.265
 7408SOL    HW123123   3.820   4.907   5.358
 7408SOL    HW223124   3.773   4.955   5.210
 7409SOL     OW23125   6.172   3.262   0.966
 7409SOL    HW123126   6.268   3.253   0.994
 7409SOL    HW223127   6.158   3.354   0.927
 7410SOL     OW23128   0.079   0.847   1.420
 7410SOL    HW123129   0.178   0.853   1.414
 7410SOL    HW223130   0.037   0.896   1.344
 7411SOL     OW23131   1.636   1.648   5.145
 7411SOL    HW123132   1.731   1.625   5.166
 7411SOL    HW223133   1.575   1.600   5.208
 7412SOL     OW23134   4.151   6.756   0.049
 7412SOL    HW123135   4.085   6.805   7.010
 7412SOL    HW223136   4.165   6.806   0.134
 7413SOL     OW23137   4.256   7.014   3.701
 7413SOL    HW123138   4.164   0.035   3.700
 7413SOL    HW223139   4.250   6.915   3.718
 7414SOL     OW23140   3.461   1.557   4.220
 7414SOL    HW123141   3.375   1.534   4.175
 7414SOL    HW223142   3.501   1.475   4.261
 7415SOL     OW23143   3.783   6.295   6.363
 7415SOL    HW123144   3.803   6.393   6.355
 7415SOL    HW223145   3.867   6.246   6.387
 7416SOL     OW23146   1.282   0.948   1.871
 7416SOL    HW123147   1.220   0.881   1.913
 7416SOL    HW223148   1.284   1.030   1.927
 7417SOL     OW23149   0.499   1.126   3.327
 7417SOL    HW123150   0.446   1.050   3.288
 7417SOL    HW223151   0.493   1.122   3.427
 7418SOL     OW23152   1.628   3.948   5.884
 7418SOL    HW123153   1.543   3.971   5.836
 7418SOL    HW223154   1.706   3.975   5.827
 7419SOL     OW23155   6.739   3.911   3.921
 7419SOL    HW123156   6.763   3.990   3.865
 7419SOL    HW223157   6.653   3.872   3.889
 7420SOL     OW23158   6.598   0.033   1.919
 7420SOL    HW123159   6.593   6.951   1.924
 7420SOL    HW223160   6.674   0.060   1.860
 7421SOL     OW23161   5.480   4.157   1.154
 7421SOL    HW123162   5.404   4.118   1.103
 7421SOL    HW223163   5.533   4.218   1.095
 7422SOL     OW23164   5.571   2.007   2.932
 7422SOL    HW123165   5.668   2.027   2.925
 7422SOL    HW223166   5.523   2.087   2.968
 7423SOL     OW23167   5.164   1.677   5.656
 7423SOL    HW123168   5.196   1.699   5.749
 7423SOL    HW223169   5.232   1.621   5.610
 7424SOL     OW23170   0.956   2.407   3.593
 7424SOL    HW123171   0.941   2.323   3.647
 7424SOL    HW223172   1.030   2.392   3.529
 7425SOL     OW23173   5.912   0.644   0.972
 7425SOL    HW123174   5.858   0.665   0.891
 7425SOL    HW223175   5.985   0.580   0.949
 7426SOL     OW23176   3.998   3.297   5.492
 7426SOL    HW123177   3.926   3.361   5.464
 7426SOL    HW223178   4.041   3.258   5.411
 7427SOL     OW23179   2.793   1.142   3.683
 7427SOL    HW123180   2.770   1.237   3.661
 7427SOL    HW223181   2.709   1.091   3.703
 7428SOL     OW23182   4.555   6.209   4.986
 7428SOL    HW123183   4.509   6.161   4.912
 7428SOL    HW223184   4.606   6.287   4.949
 7429SOL     OW23185   1.683   6.809   2.680
 7429SOL    HW123186   1.729   6.826   2.593
 7429SOL    HW223187   1.721   6.726   2.721
 7430SOL     OW23188   6.648   5.370   2.624
 7430SOL    HW123189   6.592   5.408   2.550
 7430SOL    HW223190   6.623   5.413   2.711
 7431SOL     OW23191   1.713   1.427   3.611
 7431SOL    HW123192   1.704   1.524   3.637
 7431SOL    HW223193   1.804   1.411   3.574
 7432SOL     OW23194   2.605   0.714   3.408
 7432SOL    HW123195   2.689   0.725   3.354
 7432SOL    HW223196   2.526   0.740   3.353
 7433SOL     OW23197   2.833   0.105   6.507
 7433SOL    HW123198   2.835   0.190   6.454
 7433SOL    HW223199   2.814   0.126   6.603
 7434SOL     OW23200   4.273   6.638   4.947
 7434SOL    HW123201   4.254   6.707   5.016
 7434SOL    HW223202   4.347   6.670   4.887
 7435SOL     OW23203   4.925   4.372   2.844
 7435SOL    HW123204   4.907   4.345   2.939
 7435SOL    HW223205   5.021   4.399   2.835
 7436SOL     OW23206   5.326   2.995   6.000
 7436SOL    HW123207   5.344   2.934   6.077
 7436SOL    HW223208   5.391   3.071   6.002
 7437SOL     OW23209   3.266   6.867   0.786
 7437SOL    HW123210   3.294   6.800   0.855
 7437SOL    HW223211   3.168   6.883   0.793
 7438SOL     OW23212   1.788   0.393   6.914
 7438SOL    HW123213   1.820   0.391   7.008
 7438SOL    HW223214   1.793   0.300   6.875
 7439SOL     OW23215   1.454   4.299   6.805
 7439SOL    HW123216   1.474   4.309   6.903
 7439SOL    HW223217   1.517   4.355   6.752
 7440SOL     OW23218   5.464   3.731   4.131
 7440SOL    HW123219   5.439   3.796   4.203
 7440SOL    HW223220   5.563   3.718   4.131
 7441SOL     OW23221   5.675   5.760   1.044
 7441SOL    HW123222   5.683   5.717   0.953
 7441SOL    HW223223   5.671   5.860   1.033
 7442SOL     OW23224   5.668   0.407   5.906
 7442SOL    HW123225   5.572   0.413   5.877
 7442SOL    HW223226   5.685   0.473   5.979
 7443SOL     OW23227   0.440   1.255   2.057
 7443SOL    HW123228   0.468   1.294   2.145
 7443SOL    HW223229   0.405   1.162   2.072
 7444SOL     OW23230   1.596   6.523   6.703
 7444SOL    HW123231   1.655   6.547   6.780
 7444SOL    HW223232   1.504   6.559   6.718
 7445SOL     OW23233   3.972   6.423   1.619
 7445SOL    HW123234   4.067   6.433   1.588
 7445SOL    HW223235   3.937   6.333   1.592
 7446SOL     OW23236   5.444   3.829   0.588
 7446SOL    HW123237   5.487   3.789   0.507
 7446SOL    HW223238   5.380   3.901   0.560
 7447SOL     OW23239   0.321   4.638   0.850
 7447SOL    HW123240   0.411   4.596   0.865
 7447SOL    HW223241   0.325   4.734   0.877
 7448SOL     OW23242   4.638   5.125   6.603
 7448SOL    HW123243   4.733   5.139   6.579
 7448SOL    HW223244   4.579   5.169   6.536
 7449SOL     OW23245   0.542   4.739   6.153
 7449SOL    HW123246   0.517   4.708   6.245
 7449SOL    HW223247   0.477   4.700   6.087
 7450SOL     OW23248   5.443   2.249   5.284
 7450SOL    HW123249   5.442   2.152   5.259
 7450SOL    HW223250   5.374   2.267   5.353
 7451SOL     OW23251   4.922   4.538   3.216
 7451SOL    HW123252   4.896   4.479   3.292
 7451SOL    HW223253   5.022   4.542   3.209
 7452SOL     OW23254   6.082   5.270   5.533
 7452SOL    HW123255   6.046   5.267   5.439
 7452SOL    HW223256   6.014   5.232   5.596
 7453SOL     OW23257   3.548   5.881   5.969
 7453SOL    HW123258   3.530   5.979   5.981
 7453SOL    HW223259   3.619   5.853   6.033
 7454SOL     OW23260   4.419   2.091   0.677
 7454SOL    HW123261   4.503   2.121   0.722
 7454SOL    HW223262   4.354   2.167   0.673
 7455SOL     OW23263   6.964   2.237   2.988
 7455SOL    HW123264   6.976   2.317   3.047
 7455SOL    HW223265   6.892   2.255   2.922
 7456SOL     OW23266   2.768   2.431   6.157
 7456SOL    HW123267   2.670   2.427   6.172
 7456SOL    HW223268   2.809   2.342   6.175
 7457SOL     OW23269   2.399   0.312   2.968
 7457SOL    HW123270   2.374   0.408   2.982
 7457SOL    HW223271   2.430   0.299   2.874
 7458SOL     OW23272   1.726   4.892   5.078
 7458SOL    HW123273   1.677   4.805   5.084
 7458SOL    HW223274   1.782   4.903   5.161
 7459SOL     OW23275   5.930   0.417   2.660
 7459SOL    HW123276   5.889   0.507   2.654
 7459SOL    HW223277   5.870   0.355   2.710
 7460SOL     OW23278   2.176   6.232   0.750
 7460SOL    HW123279   2.160   6.170   0.826
 7460SOL    HW223280   2.226   6.313   0.782
 7461SOL     OW23281   1.813   4.463   6.238
 7461SOL    HW123282   1.756   4.545   6.239
 7461SOL    HW223283   1.775   4.396   6.174
 7462SOL     OW23284   1.501   4.574   0.366
 7462SOL    HW123285   1.410   4.540   0.342
 7462SOL    HW223286   1.564   4.497   0.373
 7463SOL     OW23287   4.011   5.303   1.303
 7463SOL    HW123288   4.041   5.374   1.238
 7463SOL    HW223289   3.913   5.286   1.290
 7464SOL     OW23290   6.250   6.296   5.325
 7464SOL    HW123291   6.308   6.215   5.315
 7464SOL    HW223292   6.168   6.285   5.269
 7465SOL     OW23293   1.647   5.073   0.079
 7465SOL    HW123294   1.557   5.045   0.112
 7465SOL    HW223295   1.681   5.149   0.135
 7466SOL     OW23296   0.596   0.154   5.184
 7466SOL    HW123297   0.647   0.219   5.241
 7466SOL    HW223298   0.625   0.163   5.089
 7467SOL     OW23299   0.262   2.768   5.356
 7467SOL    HW123300   0.288   2.809   5.444
 7467SOL    HW223301   0.162   2.759   5.352
 7468SOL     OW23302   6.050   3.921   5.666
 7468SOL    HW123303   6.044   3.886   5.572
 7468SOL    HW223304   5.960   3.917   5.709
 7469SOL     OW23305   6.713   2.317   0.883
 7469SOL    HW123306   6.696   2.380   0.959
 7469SOL    HW223307   6.811   2.303   0.874
 7470SOL     OW23308   5.552   2.700   3.765
 7470SOL    HW123309   5.462   2.657   3.771
 7470SOL    HW223310   5.620   2.633   3.736
 7471SOL     OW23311   4.315   6.172   6.026
 7471SOL    HW123312   4.378   6.138   6.096
 7471SOL    HW223313   4.277   6.095   5.975
 7472SOL     OW23314   5.924   6.754   5.648
 7472SOL    HW123315   5.912   6.809   5.730
 7472SOL    HW223316   5.937   6.814   5.569
 7473SOL     OW23317   3.704   5.845   3.962
 7473SOL    HW123318   3.719   5.907   3.886
 7473SOL    HW223319   3.606   5.828   3.974
 7474SOL     OW23320   5.676   1.783   6.484
 7474SOL    HW123321   5.728   1.868   6.480
 7474SOL    HW223322   5.636   1.764   6.395
 7475SOL     OW23323   5.028   2.188   0.768
 7475SOL    HW123324   5.014   2.285   0.748
 7475SOL    HW223325   5.000   2.170   0.863
 7476SOL     OW23326   2.160   0.188   3.077
 7476SOL    HW123327   2.140   0.178   2.979
 7476SOL    HW223328   2.231   0.259   3.089
 7477SOL     OW23329   0.603   4.115   4.878
 7477SOL    HW123330   0.594   4.136   4.781
 7477SOL    HW223331   0.525   4.153   4.928
 7478SOL     OW23332   0.645   0.961   6.001
 7478SOL    HW123333   0.680   1.054   6.013
 7478SOL    HW223334   0.545   0.962   6.005
 7479SOL     OW23335   5.425   3.000   0.231
 7479SOL    HW123336   5.421   2.979   0.133
 7479SOL    HW223337   5.379   3.087   0.248
 7480SOL     OW23338   3.677   4.886   2.430
 7480SOL    HW123339   3.702   4.850   2.339
 7480SOL    HW223340   3.585   4.924   2.426
 7481SOL     OW23341   0.375   3.534   6.646
 7481SOL    HW123342   0.301   3.467   6.656
 7481SOL    HW223343   0.441   3.522   6.720
 7482SOL     OW23344   4.934   2.297   3.006
 7482SOL    HW123345   4.924   2.246   3.091
 7482SOL    HW223346   4.895   2.389   3.017
 7483SOL     OW23347   4.951   1.996   5.361
 7483SOL    HW123348   4.984   1.973   5.269
 7483SOL    HW223349   4.859   2.035   5.355
 7484SOL     OW23350   2.991   6.818   4.091
 7484SOL    HW123351   2.943   6.751   4.033
 7484SOL    HW223352   3.048   6.877   4.034
 7485SOL     OW23353   3.408   6.616   5.409
 7485SOL    HW123354   3.389   6.694   5.349
 7485SOL    HW223355   3.504   6.618   5.437
 7486SOL     OW23356   2.429   6.676   1.069
 7486SOL    HW123357   2.508   6.698   1.125
 7486SOL    HW223358   2.387   6.591   1.102
 7487SOL     OW23359   4.340   6.360   4.621
 7487SOL    HW123360   4.255   6.355   4.674
 7487SOL    HW223361   4.405   6.294   4.657
 7488SOL     OW23362   0.629   5.574   4.458
 7488SOL    HW123363   0.584   5.585   4.369
 7488SOL    HW223364   0.674   5.485   4.462
 7489SOL     OW23365   5.203   3.080   6.933
 7489SOL    HW123366   5.272   3.007   6.938
 7489SOL    HW223367   5.231   3.155   6.993
 7490SOL     OW23368   0.543   2.508   2.338
 7490SOL    HW123369   0.584   2.571   2.404
 7490SOL    HW223370   0.586   2.520   2.249
 7491SOL     OW23371   4.058   3.430   0.562
 7491SOL    HW123372   4.148   3.443   0.604
 7491SOL    HW223373   4.055   3.340   0.518
 7492SOL     OW23374   1.485   6.829   4.315
 7492SOL    HW123375   1.580   6.809   4.341
 7492SOL    HW223376   1.426   6.818   4.395
 7493SOL     OW23377   6.667   4.558   5.320
 7493SOL    HW123378   6.705   4.467   5.333
 7493SOL    HW223379   6.573   4.560   5.352
 7494SOL     OW23380   6.833   0.935   2.374
 7494SOL    HW123381   6.829   1.035   2.374
 7494SOL    HW223382   6.743   0.898   2.353
 7495SOL     OW23383   1.634   3.763   5.002
 7495SOL    HW123384   1.702   3.722   4.942
 7495SOL    HW223385   1.620   3.705   5.083
 7496SOL     OW23386   5.816   4.335   2.438
 7496SOL    HW123387   5.883   4.306   2.370
 7496SOL    HW223388   5.826   4.280   2.521
 7497SOL     OW23389   0.100   6.709   1.123
 7497SOL    HW123390   0.072   6.650   1.047
 7497SOL    HW223391   0.194   6.687   1.149
 7498SOL     OW23392   3.178   6.889   2.537
 7498SOL    HW123393   3.265   6.886   2.487
 7498SOL    HW223394   3.105   6.853   2.479
 7499SOL     OW23395   3.303   1.625   3.935
 7499SOL    HW123396   3.278   1.668   3.849
 7499SOL    HW223397   3.251   1.667   4.010
 7500SOL     OW23398   3.694   0.235   3.413
 7500SOL    HW123399   3.628   0.161   3.420
 7500SOL    HW223400   3.737   0.233   3.322
 7501SOL     OW23401   5.920   2.527   4.890
 7501SOL    HW123402   5.987   2.485   4.951
 7501SOL    HW223403   5.948   2.620   4.868
 7502SOL     OW23404   4.395   0.544   4.100
 7502SOL    HW123405   4.449   0.628   4.105
 7502SOL    HW223406   4.330   0.542   4.176
 7503SOL     OW23407   1.656   5.903   1.484
 7503SOL    HW123408   1.661   5.915   1.385
 7503SOL    HW223409   1.743   5.929   1.525
 7504SOL     OW23410   6.729   6.831   4.757
 7504SOL    HW123411   6.712   6.733   4.754
 7504SOL    HW223412   6.817   6.851   4.713
 7505SOL     OW23413   0.119   6.297   5.122
 7505SOL    HW123414   0.075   6.308   5.211
 7505SOL    HW223415   0.156   6.205   5.114
 7506SOL     OW23416   3.598   1.607   3.643
 7506SOL    HW123417   3.539   1.671   3.594
 7506SOL    HW223418   3.597   1.629   3.741
 7507SOL     OW23419   6.633   4.460   5.628
 7507SOL    HW123420   6.647   4.397   5.705
 7507SOL    HW223421   6.687   4.430   5.550
 7508SOL     OW23422   2.692   5.654   0.292
 7508SOL    HW123423   2.700   5.642   0.193
 7508SOL    HW223424   2.627   5.587   0.329
 7509SOL     OW23425   6.172   4.943   1.504
 7509SOL    HW123426   6.074   4.960   1.492
 7509SOL    HW223427   6.218   4.945   1.416
 7510SOL     OW23428   3.452   3.849   3.277
 7510SOL    HW123429   3.511   3.901   3.338
 7510SOL    HW223430   3.409   3.775   3.327
 7511SOL     OW23431   4.431   6.624   4.157
 7511SOL    HW123432   4.474   6.676   4.231
 7511SOL    HW223433   4.364   6.560   4.197
 7512SOL     OW23434   3.855   0.703   6.938
 7512SOL    HW123435   3.760   0.676   6.922
 7512SOL    HW223436   3.857   0.793   6.982
 7513SOL     OW23437   1.597   2.313   2.435
 7513SOL    HW123438   1.642   2.232   2.396
 7513SOL    HW223439   1.578   2.378   2.362
 7514SOL     OW23440   1.062   5.437   1.215
 7514SOL    HW123441   0.982   5.476   1.169
 7514SOL    HW223442   1.105   5.507   1.272
 7515SOL     OW23443   0.400   5.277   5.167
 7515SOL    HW123444   0.326   5.343   5.152
 7515SOL    HW223445   0.361   5.187   5.184
 7516SOL     OW23446   1.434   6.213   5.463
 7516SOL    HW123447   1.467   6.138   5.405
 7516SOL    HW223448   1.344   6.189   5.500
 7517SOL     OW23449   0.519   1.455   6.163
 7517SOL    HW123450   0.614   1.435   6.187
 7517SOL    HW223451   0.513   1.484   6.068
 7518SOL     OW23452   4.680   2.329   3.767
 7518SOL    HW123453   4.584   2.359   3.762
 7518SOL    HW223454   4.683   2.232   3.787
 7519SOL     OW23455   3.635   6.205   4.007
 7519SOL    HW123456   3.675   6.185   3.917
 7519SOL    HW223457   3.693   6.271   4.055
 7520SOL     OW23458   1.966   1.406   0.313
 7520SOL    HW123459   2.061   1.427   0.290
 7520SOL    HW223460   1.914   1.491   0.323
 7521SOL     OW23461   3.530   1.901   5.391
 7521SOL    HW123462   3.464   1.828   5.408
 7521SOL    HW223463   3.513   1.977   5.454
 7522SOL     OW23464   1.956   6.975   3.075
 7522SOL    HW123465   2.016   6.905   3.116
 7522SOL    HW223466   2.005   0.044   3.072
 7523SOL     OW23467   5.276   1.589   0.742
 7523SOL    HW123468   5.289   1.680   0.701
 7523SOL    HW223469   5.266   1.521   0.669
 7524SOL     OW23470   0.146   3.219   4.683
 7524SOL    HW123471   0.195   3.230   4.596
 7524SOL    HW223472   0.158   3.125   4.716
 7525SOL     OW23473   4.060   5.581   6.354
 7525SOL    HW123474   4.124   5.567   6.430
 7525SOL    HW223475   3.993   5.651   6.379
 7526SOL     OW23476   2.467   3.387   1.613
 7526SOL    HW123477   2.446   3.454   1.541
 7526SOL    HW223478   2.444   3.426   1.702
 7527SOL     OW23479   3.927   4.857   3.762
 7527SOL    HW123480   3.984   4.928   3.803
 7527SOL    HW223481   3.985   4.791   3.715
 7528SOL     OW23482   5.689   3.012   6.380
 7528SOL    HW123483   5.704   3.108   6.358
 7528SOL    HW223484   5.627   2.971   6.312
 7529SOL     OW23485   6.239   2.853   3.825
 7529SOL    HW123486   6.286   2.781   3.775
 7529SOL    HW223487   6.156   2.880   3.775
 7530SOL     OW23488   0.278   2.054   1.842
 7530SOL    HW123489   0.324   2.024   1.926
 7530SOL    HW223490   0.338   2.036   1.763
 7531SOL     OW23491   4.479   2.071   3.672
 7531SOL    HW123492   4.490   2.006   3.747
 7531SOL    HW223493   4.386   2.065   3.635
 7532SOL     OW23494   4.289   5.204   6.313
 7532SOL    HW123495   4.273   5.106   6.330
 7532SOL    HW223496   4.207   5.244   6.272
 7533SOL     OW23497   4.235   4.401   1.753
 7533SOL    HW123498   4.162   4.340   1.721
 7533SOL    HW223499   4.316   4.347   1.776
 7534SOL     OW23500   3.994   0.015   4.515
 7534SOL    HW123501   4.003   0.008   4.415
 7534SOL    HW223502   3.900   7.013   4.542
 7535SOL     OW23503   0.627   6.129   3.854
 7535SOL    HW123504   0.618   6.159   3.759
 7535SOL    HW223505   0.657   6.033   3.856
 7536SOL     OW23506   5.171   6.251   4.662
 7536SOL    HW123507   5.172   6.302   4.577
 7536SOL    HW223508   5.228   6.169   4.652
 7537SOL     OW23509   2.538   6.741   3.023
 7537SOL    HW123510   2.586   6.828   3.006
 7537SOL    HW223511   2.532   6.689   2.937
 7538SOL     OW23512   0.414   3.709   0.447
 7538SOL    HW123513   0.461   3.794   0.419
 7538SOL    HW223514   0.481   3.634   0.449
 7539SOL     OW23515   0.225   0.182   3.961
 7539SOL    HW123516   0.287   0.247   3.918
 7539SOL    HW223517   0.266   0.148   4.046
 7540SOL     OW23518   6.138   5.577   2.554
 7540SOL    HW123519   6.115   5.654   2.613
 7540SOL    HW223520   6.054   5.543   2.510
 7541SOL     OW23521   2.204   4.320   6.262
 7541SOL    HW123522   2.145   4.393   6.296
 7541SOL    HW223523   2.179   4.300   6.167
 7542SOL     OW23524   6.323   6.050   5.232
 7542SOL    HW123525   6.251   5.983   5.217
 7542SOL    HW223526   6.405   6.023   5.182
 7543SOL     OW23527   2.409   1.137   6.930
 7543SOL    HW123528   2.346   1.071   6.889
 7543SOL    HW223529   2.400   1.225   6.884
 7544SOL     OW23530   6.526   1.871   4.028
 7544SOL    HW123531   6.482   1.875   3.939
 7544SOL    HW223532   6.598   1.802   4.027
 7545SOL     OW23533   1.259   4.751   6.049
 7545SOL    HW123534   1.231   4.844   6.072
 7545SOL    HW223535   1.195   4.686   6.091
 7546SOL     OW23536   2.250   2.835   1.735
 7546SOL    HW123537   2.286   2.753   1.780
 7546SOL    HW223538   2.325   2.893   1.705
 7547SOL     OW23539   4.542   0.291   1.213
 7547SOL    HW123540   4.561   0.384   1.180
 7547SOL    HW223541   4.540   0.228   1.135
 7548SOL     OW23542   3.415   2.383   6.108
 7548SOL    HW123543   3.381   2.426   6.025
 7548SOL    HW223544   3.495   2.432   6.141
 7549SOL     OW23545   5.623   2.020   3.943
 7549SOL    HW123546   5.526   2.032   3.965
 7549SOL    HW223547   5.653   1.929   3.975
 7550SOL     OW23548   2.754   4.732   4.296
 7550SOL    HW123549   2.662   4.763   4.318
 7550SOL    HW223550   2.759   4.707   4.199
 7551SOL     OW23551   6.219   2.837   5.949
 7551SOL    HW123552   6.212   2.737   5.946
 7551SOL    HW223553   6.208   2.874   5.857
 7552SOL     OW23554   2.502   6.556   5.281
 7552SOL    HW123555   2.495   6.624   5.355
 7552SOL    HW223556   2.559   6.480   5.312
 7553SOL     OW23557   5.388   6.361   5.628
 7553SOL    HW123558   5.377   6.272   5.672
 7553SOL    HW223559   5.298   6.402   5.613
 7554SOL     OW23560   4.997   0.847   1.107
 7554SOL    HW123561   5.073   0.909   1.088
 7554SOL    HW223562   4.978   0.846   1.205
 7555SOL     OW23563   3.853   5.205   4.987
 7555SOL    HW123564   3.847   5.191   5.086
 7555SOL    HW223565   3.786   5.274   4.959
 7556SOL     OW23566   0.473   6.478   1.396
 7556SOL    HW123567   0.465   6.389   1.351
 7556SOL    HW223568   0.502   6.547   1.329
 7557SOL     OW23569   4.770   0.722   0.984
 7557SOL    HW123570   4.849   0.746   1.040
 7557SOL    HW223571   4.800   0.662   0.909
 7558SOL     OW23572   1.104   1.454   4.133
 7558SOL    HW123573   1.076   1.412   4.046
 7558SOL    HW223574   1.067   1.546   4.139
 7559SOL     OW23575   2.965   1.563   5.265
 7559SOL    HW123576   2.977   1.511   5.350
 7559SOL    HW223577   2.932   1.655   5.287
 7560SOL     OW23578   0.782   1.663   5.945
 7560SOL    HW123579   0.833   1.599   5.887
 7560SOL    HW223580   0.684   1.653   5.927
 7561SOL     OW23581   5.802   1.817   5.116
 7561SOL    HW123582   5.865   1.748   5.080
 7561SOL    HW223583   5.839   1.855   5.201
 7562SOL     OW23584   2.132   5.892   3.731
 7562SOL    HW123585   2.127   5.934   3.821
 7562SOL    HW223586   2.106   5.958   3.661
 7563SOL     OW23587   3.470   5.585   2.215
 7563SOL    HW123588   3.432   5.507   2.165
 7563SOL    HW223589   3.554   5.557   2.261
 7564SOL     OW23590   3.469   2.134   5.552
 7564SOL    HW123591   3.451   2.211   5.490
 7564SOL    HW223592   3.543   2.160   5.615
 7565SOL     OW23593   6.833   3.855   5.923
 7565SOL    HW123594   6.801   3.880   6.014
 7565SOL    HW223595   6.754   3.837   5.864
 7566SOL     OW23596   4.679   4.749   1.446
 7566SOL    HW123597   4.628   4.792   1.520
 7566SOL    HW223598   4.760   4.703   1.483
 7567SOL     OW23599   1.296   0.103   4.190
 7567SOL    HW123600   1.273   0.187   4.141
 7567SOL    HW223601   1.233   0.030   4.163
 7568SOL     OW23602   5.883   5.807   1.947
 7568SOL    HW123603   5.884   5.714   1.984
 7568SOL    HW223604   5.810   5.859   1.992
 7569SOL     OW23605   4.613   3.939   0.447
 7569SOL    HW123606   4.552   3.913   0.521
 7569SOL    HW223607   4.647   4.031   0.462
 7570SOL     OW23608   0.332   2.757   2.774
 7570SOL    HW123609   0.424   2.740   2.737
 7570SOL    HW223610   0.305   2.680   2.832
 7571SOL     OW23611   4.868   1.911   3.076
 7571SOL    HW123612   4.922   1.923   3.159
 7571SOL    HW223613   4.771   1.924   3.097
 7572SOL     OW23614   4.315   0.010   3.401
 7572SOL    HW123615   4.287   0.007   3.497
 7572SOL    HW223616   4.244   0.054   3.347
 7573SOL     OW23617   4.844   6.772   5.872
 7573SOL    HW123618   4.754   6.730   5.862
 7573SOL    HW223619   4.834   6.862   5.915
 7574SOL     OW23620   0.868   2.624   3.736
 7574SOL    HW123621   0.882   2.540   3.683
 7574SOL    HW223622   0.877   2.703   3.677
 7575SOL     OW23623   0.155   6.849   1.783
 7575SOL    HW123624   0.172   6.770   1.841
 7575SOL    HW223625   0.083   6.826   1.717
 7576SOL     OW23626   5.144   2.897   0.501
 7576SOL    HW123627   5.244   2.902   0.513
 7576SOL    HW223628   5.106   2.989   0.500
 7577SOL     OW23629   1.019   6.777   1.203
 7577SOL    HW123630   1.066   6.838   1.139
 7577SOL    HW223631   0.920   6.791   1.197
 7578SOL     OW23632   6.620   5.765   3.510
 7578SOL    HW123633   6.550   5.821   3.555
 7578SOL    HW223634   6.695   5.824   3.479
 7579SOL     OW23635   0.384   1.093   0.240
 7579SOL    HW123636   0.291   1.128   0.231
 7579SOL    HW223637   0.415   1.058   0.152
 7580SOL     OW23638   2.474   4.823   3.572
 7580SOL    HW123639   2.534   4.830   3.492
 7580SOL    HW223640   2.503   4.745   3.628
 7581SOL     OW23641   6.636   0.653   2.620
 7581SOL    HW123642   6.732   0.627   2.613
 7581SOL    HW223643   6.581   0.571   2.638
 7582SOL     OW23644   2.897   1.143   5.695
 7582SOL    HW123645   2.818   1.148   5.634
 7582SOL    HW223646   2.971   1.094   5.650
 7583SOL     OW23647   5.089   2.921   3.046
 7583SOL    HW123648   4.995   2.907   3.076
 7583SOL    HW223649   5.149   2.926   3.126
 7584SOL     OW23650   0.209   0.878   3.524
 7584SOL    HW123651   0.192   0.976   3.510
 7584SOL    HW223652   0.248   0.864   3.615
 7585SOL     OW23653   1.549   1.254   6.706
 7585SOL    HW123654   1.593   1.189   6.769
 7585SOL    HW223655   1.481   1.308   6.757
 7586SOL     OW23656   1.621   0.924   2.286
 7586SOL    HW123657   1.621   0.963   2.194
 7586SOL    HW223658   1.555   0.973   2.343
 7587SOL     OW23659   4.015   0.620   0.802
 7587SOL    HW123660   3.954   0.609   0.880
 7587SOL    HW223661   4.110   0.611   0.831
 7588SOL     OW23662   1.809   2.849   4.319
 7588SOL    HW123663   1.881   2.814   4.379
 7588SOL    HW223664   1.753   2.773   4.287
 7589SOL     OW23665   0.547   0.499   2.817
 7589SOL    HW123666   0.526   0.455   2.904
 7589SOL    HW223667   0.560   0.429   2.747
 7590SOL     OW23668   6.956   0.675   6.688
 7590SOL    HW123669   6.979   0.641   6.779
 7590SOL    HW223670   6.856   0.679   6.679
 7591SOL     OW23671   3.991   3.079   4.698
 7591SOL    HW123672   4.043   3.159   4.668
 7591SOL    HW223673   4.017   3.000   4.643
 7592SOL     OW23674   0.134   6.875   4.950
 7592SOL    HW123675   0.213   6.834   4.996
 7592SOL    HW223676   0.050   6.842   4.992
 7593SOL     OW23677   0.999   1.183   5.974
 7593SOL    HW123678   1.009   1.102   6.032
 7593SOL    HW223679   1.087   1.229   5.964
 7594SOL     OW23680   0.234   4.614   0.090
 7594SOL    HW123681   0.271   4.700   0.124
 7594SOL    HW223682   0.304   4.543   0.096
 7595SOL     OW23683   1.030   2.933   6.266
 7595SOL    HW123684   1.125   2.903   6.262
 7595SOL    HW223685   0.989   2.926   6.175
 7596SOL     OW23686   3.226   0.806   5.288
 7596SOL    HW123687   3.177   0.721   5.309
 7596SOL    HW223688   3.167   0.867   5.237
 7597SOL     OW23689   1.672   4.284   2.088
 7597SOL    HW123690   1.666   4.362   2.027
 7597SOL    HW223691   1.766   4.273   2.119
 7598SOL     OW23692   6.543   0.848   2.975
 7598SOL    HW123693   6.628   0.809   3.011
 7598SOL    HW223694   6.551   0.861   2.877
 7599SOL     OW23695   3.514   3.681   0.534
 7599SOL    HW123696   3.553   3.680   0.442
 7599SOL    HW223697   3.554   3.606   0.588
 7600SOL     OW23698   1.531   6.385   4.401
 7600SOL    HW123699   1.554   6.425   4.312
 7600SOL    HW223700   1.612   6.388   4.460
 7601SOL     OW23701   3.306   6.730   1.754
 7601SOL    HW123702   3.272   6.763   1.666
 7601SOL    HW223703   3.379   6.790   1.786
 7602SOL     OW23704   0.297   1.989   0.413
 7602SOL    HW123705   0.318   1.999   0.316
 7602SOL    HW223706   0.251   2.072   0.446
 7603SOL     OW23707   3.796   6.991   6.086
 7603SOL    HW123708   3.895   6.998   6.095
 7603SOL    HW223709   3.760   0.056   6.045
 7604SOL     OW23710   0.051   2.122   5.015
 7604SOL    HW123711   0.008   2.032   5.007
 7604SOL    HW223712   0.150   2.111   5.030
 7605SOL     OW23713   2.218   6.519   0.264
 7605SOL    HW123714   2.142   6.478   0.314
 7605SOL    HW223715   2.303   6.501   0.312
 7606SOL     OW23716   6.642   1.390   3.032
 7606SOL    HW123717   6.551   1.431   3.042
 7606SOL    HW223718   6.711   1.462   3.037
 7607SOL     OW23719   2.030   6.267   5.701
 7607SOL    HW123720   2.097   6.266   5.627
 7607SOL    HW223721   1.990   6.359   5.708
 7608SOL     OW23722   5.724   2.341   6.273
 7608SOL    HW123723   5.686   2.318   6.183
 7608SOL    HW223724   5.793   2.274   6.299
 7609SOL     OW23725   1.439   1.857   5.108
 7609SOL    HW123726   1.505   1.931   5.124
 7609SOL    HW223727   1.488   1.772   5.094
 7610SOL     OW23728   4.040   5.062   4.791
 7610SOL    HW123729   3.993   5.123   4.854
 7610SOL    HW223730   3.981   4.985   4.769
 7611SOL     OW23731   4.745   3.427   6.855
 7611SOL    HW123732   4.826   3.473   6.817
 7611SOL    HW223733   4.735   3.451   6.951
 7612SOL     OW23734   3.503   1.782   2.996
 7612SOL    HW123735   3.461   1.714   3.057
 7612SOL    HW223736   3.557   1.846   3.050
 7613SOL     OW23737   0.601   1.302   1.215
 7613SOL    HW123738   0.678   1.366   1.221
 7613SOL    HW223739   0.608   1.234   1.287
 7614SOL     OW23740   4.751   4.067   0.054
 7614SOL    HW123741   4.803   4.000   0.107
 7614SOL    HW223742   4.662   4.082   0.098
 7615SOL     OW23743   5.957   3.237   4.838
 7615SOL    HW123744   5.882   3.201   4.894
 7615SOL    HW223745   5.961   3.337   4.851
 7616SOL     OW23746   6.259   0.134   3.144
 7616SOL    HW123747   6.316   0.202   3.189
 7616SOL    HW223748   6.266   0.047   3.192
 7617SOL     OW23749   6.134   4.398   3.546
 7617SOL    HW123750   6.042   4.416   3.580
 7617SOL    HW223751   6.128   4.362   3.453
 7618SOL     OW23752   2.559   2.508   0.392
 7618SOL    HW123753   2.586   2.426   0.341
 7618SOL    HW223754   2.531   2.481   0.484
 7619SOL     OW23755   1.038   1.607   4.597
 7619SOL    HW123756   1.046   1.557   4.683
 7619SOL    HW223757   1.057   1.546   4.520
 7620SOL     OW23758   3.857   4.689   1.131
 7620SOL    HW123759   3.927   4.753   1.101
 7620SOL    HW223760   3.845   4.618   1.061
 7621SOL     OW23761   6.234   4.484   0.073
 7621SOL    HW123762   6.251   4.411   0.006
 7621SOL    HW223763   6.144   4.524   0.056
 7622SOL     OW23764   3.398   3.781   1.277
 7622SOL    HW123765   3.490   3.776   1.314
 7622SOL    HW223766   3.337   3.825   1.343
 7623SOL     OW23767   5.043   4.138   1.320
 7623SOL    HW123768   5.075   4.232   1.327
 7623SOL    HW223769   4.951   4.136   1.281
 7624SOL     OW23770   0.850   3.442   2.518
 7624SOL    HW123771   0.948   3.434   2.504
 7624SOL    HW223772   0.802   3.421   2.432
 7625SOL     OW23773   5.642   1.022   1.668
 7625SOL    HW123774   5.627   1.097   1.603
 7625SOL    HW223775   5.571   0.953   1.656
 7626SOL     OW23776   4.419   0.659   6.006
 7626SOL    HW123777   4.502   0.607   6.023
 7626SOL    HW223778   4.427   0.709   5.920
 7627SOL     OW23779   4.163   2.417   6.753
 7627SOL    HW123780   4.214   2.427   6.668
 7627SOL    HW223781   4.225   2.428   6.831
 7628SOL     OW23782   3.614   2.721   0.364
 7628SOL    HW123783   3.698   2.770   0.387
 7628SOL    HW223784   3.636   2.632   0.323
 7629SOL     OW23785   6.203   2.585   3.440
 7629SOL    HW123786   6.105   2.601   3.427
 7629SOL    HW223787   6.252   2.612   3.357
 7630SOL     OW23788   0.770   6.379   4.997
 7630SOL    HW123789   0.758   6.440   4.919
 7630SOL    HW223790   0.788   6.434   5.079
 7631SOL     OW23791   0.868   0.748   5.643
 7631SOL    HW123792   0.888   0.682   5.571
 7631SOL    HW223793   0.905   0.837   5.618
 7632SOL     OW23794   4.498   5.621   0.395
 7632SOL    HW123795   4.470   5.586   0.484
 7632SOL    HW223796   4.530   5.715   0.404
 7633SOL     OW23797   6.646   0.879   1.231
 7633SOL    HW123798   6.652   0.814   1.155
 7633SOL    HW223799   6.712   0.853   1.302
 7634SOL     OW23800   0.127   2.851   0.234
 7634SOL    HW123801   0.179   2.801   0.304
 7634SOL    HW223802   0.030   2.826   0.241
 7635SOL     OW23803   2.543   3.835   5.585
 7635SOL    HW123804   2.553   3.930   5.614
 7635SOL    HW223805   2.555   3.775   5.664
 7636SOL     OW23806   6.907   4.037   4.347
 7636SOL    HW123807   6.851   3.974   4.293
 7636SOL    HW223808   6.956   4.099   4.286
 7637SOL     OW23809   1.301   5.407   4.929
 7637SOL    HW123810   1.338   5.395   4.837
 7637SOL    HW223811   1.356   5.356   4.995
 7638SOL     OW23812   0.192   6.396   1.233
 7638SOL    HW123813   0.196   6.475   1.294
 7638SOL    HW223814   0.267   6.333   1.255
 7639SOL     OW23815   1.334   1.075   6.844
 7639SOL    HW123816   1.331   1.162   6.795
 7639SOL    HW223817   1.409   1.076   6.910
 7640SOL     OW23818   3.231   1.234   0.732
 7640SOL    HW123819   3.258   1.175   0.808
 7640SOL    HW223820   3.157   1.191   0.680
 7641SOL     OW23821   0.655   4.301   3.784
 7641SOL    HW123822   0.594   4.347   3.849
 7641SOL    HW223823   0.640   4.339   3.693
 7642SOL     OW23824   5.502   1.149   3.193
 7642SOL    HW123825   5.587   1.120   3.148
 7642SOL    HW223826   5.504   1.249   3.204
 7643SOL     OW23827   5.172   3.923   3.464
 7643SOL    HW123828   5.192   3.842   3.519
 7643SOL    HW223829   5.121   3.896   3.382
 7644SOL     OW23830   5.741   3.796   1.071
 7644SOL    HW123831   5.703   3.706   1.095
 7644SOL    HW223832   5.713   3.863   1.140
 7645SOL     OW23833   3.427   4.307   6.422
 7645SOL    HW123834   3.343   4.352   6.393
 7645SOL    HW223835   3.506   4.362   6.394
 7646SOL     OW23836   5.932   1.650   0.631
 7646SOL    HW123837   5.901   1.742   0.606
 7646SOL    HW223838   5.930   1.640   0.731
 7647SOL     OW23839   6.970   2.114   4.522
 7647SOL    HW123840   0.015   2.166   4.580
 7647SOL    HW223841   6.956   2.162   4.436
 7648SOL     OW23842   2.925   1.873   1.956
 7648SOL    HW123843   2.969   1.846   1.871
 7648SOL    HW223844   2.985   1.934   2.007
 7649SOL     OW23845   4.023   1.075   5.841
 7649SOL    HW123846   4.053   1.025   5.922
 7649SOL    HW223847   3.953   1.142   5.866
 7650SOL     OW23848   3.932   2.631   0.460
 7650SOL    HW123849   3.885   2.666   0.541
 7650SOL    HW223850   3.980   2.705   0.414
 7651SOL     OW23851   3.099   4.883   6.111
 7651SOL    HW123852   3.083   4.864   6.014
 7651SOL    HW223853   3.104   4.982   6.125
 7652SOL     OW23854   1.478   1.162   4.443
 7652SOL    HW123855   1.394   1.144   4.392
 7652SOL    HW223856   1.520   1.075   4.469
 7653SOL     OW23857   1.309   1.141   6.419
 7653SOL    HW123858   1.379   1.204   6.452
 7653SOL    HW223859   1.291   1.158   6.322
 7654SOL     OW23860   5.584   1.802   6.007
 7654SOL    HW123861   5.616   1.890   5.971
 7654SOL    HW223862   5.649   1.768   6.075
 7655SOL     OW23863   3.404   1.605   3.168
 7655SOL    HW123864   3.413   1.513   3.206
 7655SOL    HW223865   3.307   1.629   3.162
 7656SOL     OW23866   6.820   3.101   6.492
 7656SOL    HW123867   6.778   3.012   6.472
 7656SOL    HW223868   6.816   3.158   6.410
 7657SOL     OW23869   1.081   4.226   4.545
 7657SOL    HW123870   1.136   4.290   4.598
 7657SOL    HW223871   1.120   4.215   4.454
 7658SOL     OW23872   2.559   0.768   1.160
 7658SOL    HW123873   2.540   0.861   1.126
 7658SOL    HW223874   2.514   0.756   1.249
 7659SOL     OW23875   4.867   4.171   5.960
 7659SOL    HW123876   4.826   4.201   5.874
 7659SOL    HW223877   4.944   4.231   5.982
 7660SOL     OW23878   6.809   5.178   5.293
 7660SOL    HW123879   6.868   5.120   5.349
 7660SOL    HW223880   6.837   5.173   5.198
 7661SOL     OW23881   3.988   1.678   5.555
 7661SOL    HW123882   4.062   1.718   5.500
 7661SOL    HW223883   3.904   1.675   5.500
 7662SOL     OW23884   6.184   6.848   1.392
 7662SOL    HW123885   6.225   6.933   1.424
 7662SOL    HW223886   6.102   6.868   1.339
 7663SOL     OW23887   0.100   5.597   5.588
 7663SOL    HW123888   0.164   5.592   5.511
 7663SOL    HW223889   0.060   5.507   5.605
 7664SOL     OW23890   3.901   2.031   1.988
 7664SOL    HW123891   3.836   2.107   1.994
 7664SOL    HW223892   3.991   2.066   1.962
 7665SOL     OW23893   3.697   0.210   5.951
 7665SOL    HW123894   3.674   0.131   5.894
 7665SOL    HW223895   3.623   0.228   6.015
 7666SOL     OW23896   5.141   4.495   3.428
 7666SOL    HW123897   5.080   4.476   3.505
 7666SOL    HW223898   5.189   4.582   3.445
 7667SOL     OW23899   3.964   5.944   2.088
 7667SOL    HW123900   3.925   5.978   2.002
 7667SOL    HW223901   3.939   6.005   2.163
 7668SOL     OW23902   2.224   5.796   0.745
 7668SOL    HW123903   2.144   5.852   0.723
 7668SOL    HW223904   2.253   5.816   0.839
 7669SOL     OW23905   2.055   1.197   6.126
 7669SOL    HW123906   1.993   1.197   6.204
 7669SOL    HW223907   2.149   1.191   6.158
 7670SOL     OW23908   0.534   6.967   0.900
 7670SOL    HW123909   0.457   7.010   0.947
 7670SOL    HW223910   0.619   7.012   0.926
 7671SOL     OW23911   3.431   0.361   1.021
 7671SOL    HW123912   3.376   0.349   0.939
 7671SOL    HW223913   3.516   0.409   0.999
 7672SOL     OW23914   5.038   4.895   2.385
 7672SOL    HW123915   5.110   4.965   2.391
 7672SOL    HW223916   5.061   4.818   2.444
 7673SOL     OW23917   1.421   6.166   4.212
 7673SOL    HW123918   1.470   6.220   4.280
 7673SOL    HW223919   1.334   6.136   4.249
 7674SOL     OW23920   4.767   5.939   4.574
 7674SOL    HW123921   4.701   5.902   4.508
 7674SOL    HW223922   4.837   5.991   4.525
 7675SOL     OW23923   5.007   6.192   3.376
 7675SOL    HW123924   5.046   6.111   3.332
 7675SOL    HW223925   4.914   6.173   3.405
 7676SOL     OW23926   3.656   2.972   5.508
 7676SOL    HW123927   3.687   3.051   5.455
 7676SOL    HW223928   3.561   2.985   5.536
 7677SOL     OW23929   6.586   4.737   0.278
 7677SOL    HW123930   6.624   4.757   0.369
 7677SOL    HW223931   6.502   4.789   0.265
 7678SOL     OW23932   1.991   1.056   5.384
 7678SOL    HW123933   2.075   1.002   5.387
 7678SOL    HW223934   2.013   1.153   5.379
 7679SOL     OW23935   3.449   5.938   5.427
 7679SOL    HW123936   3.508   5.953   5.507
 7679SOL    HW223937   3.354   5.925   5.458
 7680SOL     OW23938   2.114   0.066   4.827
 7680SOL    HW123939   2.079   0.114   4.907
 7680SOL    HW223940   2.194   0.012   4.852
 7681SOL     OW23941   2.601   3.578   6.327
 7681SOL    HW123942   2.600   3.482   6.357
 7681SOL    HW223943   2.578   3.582   6.229
 7682SOL     OW23944   3.210   0.970   3.015
 7682SOL    HW123945   3.285   0.937   3.073
 7682SOL    HW223946   3.124   0.929   3.044
 7683SOL     OW23947   0.425   5.271   4.502
 7683SOL    HW123948   0.368   5.282   4.420
 7683SOL    HW223949   0.429   5.174   4.527
 7684SOL     OW23950   4.770   3.371   1.206
 7684SOL    HW123951   4.717   3.289   1.230
 7684SOL    HW223952   4.720   3.452   1.234
 7685SOL     OW23953   2.579   0.539   0.486
 7685SOL    HW123954   2.511   0.486   0.434
 7685SOL    HW223955   2.612   0.484   0.563
 7686SOL     OW23956   6.308   6.991   4.722
 7686SOL    HW123957   6.310   6.950   4.814
 7686SOL    HW223958   6.269   6.925   4.658
 7687SOL     OW23959   5.789   4.175   6.246
 7687SOL    HW123960   5.713   4.174   6.181
 7687SOL    HW223961   5.876   4.181   6.198
 7688SOL     OW23962   0.214   4.183   6.220
 7688SOL    HW123963   0.218   4.120   6.143
 7688SOL    HW223964   0.126   4.175   6.267
 7689SOL     OW23965   4.260   0.957   1.674
 7689SOL    HW123966   4.347   0.944   1.628
 7689SOL    HW223967   4.262   1.044   1.725
 7690SOL     OW23968   5.547   5.681   1.613
 7690SOL    HW123969   5.635   5.712   1.576
 7690SOL    HW223970   5.494   5.760   1.643
 7691SOL     OW23971   4.845   3.834   3.312
 7691SOL    HW123972   4.819   3.928   3.292
 7691SOL    HW223973   4.867   3.786   3.227
 7692SOL     OW23974   2.982   0.306   2.597
 7692SOL    HW123975   2.944   0.303   2.504
 7692SOL    HW223976   3.019   0.397   2.615
 7693SOL     OW23977   2.205   0.940   1.615
 7693SOL    HW123978   2.302   0.964   1.619
 7693SOL    HW223979   2.154   1.015   1.572
 7694SOL     OW23980   5.036   1.410   5.293
 7694SOL    HW123981   5.114   1.439   5.236
 7694SOL    HW223982   5.005   1.486   5.349
 7695SOL     OW23983   4.598   0.226   3.890
 7695SOL    HW123984   4.646   0.313   3.891
 7695SOL    HW223985   4.582   0.195   3.983
 7696SOL     OW23986   1.780   2.841   5.522
 7696SOL    HW123987   1.711   2.832   5.451
 7696SOL    HW223988   1.738   2.877   5.605
 7697SOL     OW23989   4.885   6.956   2.884
 7697SOL    HW123990   4.952   7.003   2.826
 7697SOL    HW223991   4.855   0.000   2.957
 7698SOL     OW23992   6.214   3.066   0.734
 7698SOL    HW123993   6.305   3.027   0.741
 7698SOL    HW223994   6.219   3.165   0.746
 7699SOL     OW23995   4.876   5.757   5.778
 7699SOL    HW123996   4.930   5.823   5.726
 7699SOL    HW223997   4.906   5.664   5.757
 7700SOL     OW23998   4.879   6.131   2.585
 7700SOL    HW123999   4.881   6.055   2.649
 7700SOL    HW224000   4.839   6.102   2.498
 7701SOL     OW24001   1.411   2.474   6.050
 7701SOL    HW124002   1.433   2.408   5.979
 7701SOL    HW224003   1.486   2.540   6.060
 7702SOL     OW24004   4.427   7.015   4.426
 7702SOL    HW124005   4.382   0.058   4.361
 7702SOL    HW224006   4.482   0.051   4.491
 7703SOL     OW24007   6.308   0.002   5.422
 7703SOL    HW124008   6.241   0.076   5.415
 7703SOL    HW224009   6.352   7.007   5.333
 7704SOL     OW24010   0.647   1.546   4.719
 7704SOL    HW124011   0.709   1.608   4.767
 7704SOL    HW224012   0.598   1.490   4.786
 7705SOL     OW24013   1.370   5.135   6.589
 7705SOL    HW124014   1.278   5.127   6.628
 7705SOL    HW224015   1.421   5.206   6.637
 7706SOL     OW24016   3.360   2.853   2.106
 7706SOL    HW124017   3.307   2.899   2.177
 7706SOL    HW224018   3.298   2.819   2.035
 7707SOL     OW24019   6.983   3.885   6.655
 7707SOL    HW124020   0.049   3.852   6.613
 7707SOL    HW224021   6.905   3.839   6.614
 7708SOL     OW24022   1.960   0.390   4.544
 7708SOL    HW124023   2.008   0.393   4.631
 7708SOL    HW224024   2.020   0.420   4.470
 7709SOL     OW24025   0.357   4.672   1.631
 7709SOL    HW124026   0.351   4.578   1.597
 7709SOL    HW224027   0.411   4.727   1.567
 7710SOL     OW24028   0.066   3.160   1.283
 7710SOL    HW124029   0.058   3.061   1.297
 7710SOL    HW224030   0.147   3.179   1.228
 7711SOL     OW24031   7.016   4.763   4.801
 7711SOL    HW124032   6.933   4.774   4.855
 7711SOL    HW224033   7.018   4.832   4.728
 7712SOL     OW24034   0.582   5.362   5.607
 7712SOL    HW124035   0.644   5.424   5.558
 7712SOL    HW224036   0.502   5.344   5.551
 7713SOL     OW24037   1.298   4.229   0.037
 7713SOL    HW124038   1.385   4.270   0.061
 7713SOL    HW224039   1.308   4.173   6.973
 7714SOL     OW24040   6.844   1.627   4.646
 7714SOL    HW124041   6.814   1.542   4.691
 7714SOL    HW224042   6.905   1.604   4.571
 7715SOL     OW24043   3.768   3.252   5.116
 7715SOL    HW124044   3.825   3.329   5.147
 7715SOL    HW224045   3.730   3.273   5.026
 7716SOL     OW24046   0.955   6.395   6.241
 7716SOL    HW124047   0.917   6.486   6.259
 7716SOL    HW224048   1.030   6.402   6.176
 7717SOL     OW24049   0.457   2.316   6.190
 7717SOL    HW124050   0.533   2.318   6.254
 7717SOL    HW224051   0.401   2.235   6.207
 7718SOL     OW24052   0.936   3.411   3.157
 7718SOL    HW124053   0.929   3.458   3.245
 7718SOL    HW224054   0.963   3.316   3.171
 7719SOL     OW24055   2.104   5.334   4.662
 7719SOL    HW124056   2.136   5.241   4.679
 7719SOL    HW224057   2.161   5.377   4.592
 7720SOL     OW24058   4.710   1.197   6.546
 7720SOL    HW124059   4.747   1.246   6.626
 7720SOL    HW224060   4.785   1.165   6.489
 7721SOL     OW24061   0.565   0.009   2.541
 7721SOL    HW124062   0.628   6.957   2.509
 7721SOL    HW224063   0.501   6.986   2.607
 7722SOL     OW24064   0.709   5.860   3.848
 7722SOL    HW124065   0.692   5.768   3.883
 7722SOL    HW224066   0.787   5.858   3.786
 7723SOL     OW24067   4.916   4.131   6.863
 7723SOL    HW124068   4.984   4.198   6.891
 7723SOL    HW224069   4.867   4.097   6.943
 7724SOL     OW24070   2.030   3.804   1.186
 7724SOL    HW124071   1.947   3.849   1.217
 7724SOL    HW224072   2.075   3.759   1.264
 7725SOL     OW24073   5.412   3.058   3.575
 7725SOL    HW124074   5.488   3.001   3.606
 7725SOL    HW224075   5.432   3.154   3.593
 7726SOL     OW24076   1.092   3.485   5.416
 7726SOL    HW124077   1.133   3.556   5.472
 7726SOL    HW224078   1.162   3.446   5.356
 7727SOL     OW24079   4.253   0.863   2.161
 7727SOL    HW124080   4.197   0.806   2.101
 7727SOL    HW224081   4.284   0.944   2.110
 7728SOL     OW24082   1.894   3.934   4.659
 7728SOL    HW124083   1.893   4.003   4.731
 7728SOL    HW224084   1.989   3.911   4.636
 7729SOL     OW24085   6.886   1.698   3.333
 7729SOL    HW124086   6.871   1.670   3.428
 7729SOL    HW224087   6.979   1.673   3.305
 7730SOL     OW24088   6.324   4.238   5.072
 7730SOL    HW124089   6.325   4.329   5.114
 7730SOL    HW224090   6.415   4.197   5.078
 7731SOL     OW24091   6.870   6.781   6.403
 7731SOL    HW124092   6.949   6.843   6.405
 7731SOL    HW224093   6.902   6.687   6.393
 7732SOL     OW24094   3.451   6.846   6.352
 7732SOL    HW124095   3.490   6.808   6.268
 7732SOL    HW224096   3.499   6.931   6.376
 7733SOL     OW24097   6.109   5.699   1.599
 7733SOL    HW124098   6.078   5.606   1.619
 7733SOL    HW224099   6.087   5.759   1.676
 7734SOL     OW24100   3.430   3.745   4.665
 7734SOL    HW124101   3.423   3.793   4.577
 7734SOL    HW224102   3.485   3.800   4.728
 7735SOL     OW24103   0.102   6.688   0.847
 7735SOL    HW124104   0.065   6.695   0.755
 7735SOL    HW224105   0.100   6.592   0.877
 7736SOL     OW24106   1.636   2.781   6.646
 7736SOL    HW124107   1.559   2.731   6.606
 7736SOL    HW224108   1.719   2.727   6.636
 7737SOL     OW24109   4.221   4.683   0.732
 7737SOL    HW124110   4.258   4.625   0.804
 7737SOL    HW224111   4.251   4.648   0.643
 7738SOL     OW24112   2.664   0.510   5.757
 7738SOL    HW124113   2.587   0.573   5.750
 7738SOL    HW224114   2.694   0.484   5.665
 7739SOL     OW24115   1.911   1.647   0.810
 7739SOL    HW124116   1.897   1.742   0.836
 7739SOL    HW224117   1.910   1.590   0.892
 7740SOL     OW24118   1.815   0.196   4.983
 7740SOL    HW124119   1.901   0.194   5.034
 7740SOL    HW224120   1.803   0.286   4.942
 7741SOL     OW24121   1.285   4.322   6.090
 7741SOL    HW124122   1.338   4.303   6.007
 7741SOL    HW224123   1.231   4.405   6.077
 7742SOL     OW24124   4.768   1.752   4.259
 7742SOL    HW124125   4.670   1.732   4.269
 7742SOL    HW224126   4.782   1.851   4.260
 7743SOL     OW24127   4.793   1.943   5.802
 7743SOL    HW124128   4.706   1.912   5.762
 7743SOL    HW224129   4.867   1.926   5.738
 7744SOL     OW24130   1.118   6.579   4.675
 7744SOL    HW124131   1.127   6.666   4.723
 7744SOL    HW224132   1.205   6.557   4.630
 7745SOL     OW24133   2.939   6.878   0.786
 7745SOL    HW124134   2.907   6.941   0.714
 7745SOL    HW224135   2.923   6.784   0.756
 7746SOL     OW24136   1.120   5.948   0.419
 7746SOL    HW124137   1.149   6.041   0.398
 7746SOL    HW224138   1.024   5.937   0.394
 7747SOL     OW24139   1.028   5.983   0.708
 7747SOL    HW124140   1.028   6.073   0.753
 7747SOL    HW224141   1.080   5.989   0.623
 7748SOL     OW24142   4.734   2.164   6.125
 7748SOL    HW124143   4.743   2.068   6.151
 7748SOL    HW224144   4.823   2.200   6.098
 7749SOL     OW24145   3.493   3.868   4.092
 7749SOL    HW124146   3.467   3.924   4.171
 7749SOL    HW224147   3.420   3.801   4.073
 7750SOL     OW24148   5.479   3.940   5.629
 7750SOL    HW124149   5.498   3.988   5.715
 7750SOL    HW224150   5.565   3.916   5.584
 7751SOL     OW24151   0.047   1.114   4.567
 7751SOL    HW124152   0.058   1.094   4.664
 7751SOL    HW224153   7.003   1.192   4.557
 7752SOL     OW24154   6.416   5.948   5.522
 7752SOL    HW124155   6.494   5.900   5.563
 7752SOL    HW224156   6.445   5.997   5.440
 7753SOL     OW24157   2.942   1.188   4.790
 7753SOL    HW124158   3.013   1.249   4.757
 7753SOL    HW224159   2.853   1.232   4.779
 7754SOL     OW24160   6.327   0.906   1.846
 7754SOL    HW124161   6.228   0.899   1.834
 7754SOL    HW224162   6.353   0.861   1.932
 7755SOL     OW24163   1.137   5.817   5.093
 7755SOL    HW124164   1.042   5.841   5.113
 7755SOL    HW224165   1.179   5.888   5.037
 7756SOL     OW24166   3.707   5.572   2.558
 7756SOL    HW124167   3.611   5.582   2.581
 7756SOL    HW224168   3.759   5.549   2.641
 7757SOL     OW24169   4.618   6.485   6.249
 7757SOL    HW124170   4.700   6.463   6.302
 7757SOL    HW224171   4.537   6.455   6.297
 7758SOL     OW24172   2.850   2.133   5.763
 7758SOL    HW124173   2.863   2.227   5.730
 7758SOL    HW224174   2.773   2.091   5.715
 7759SOL     OW24175   2.051   0.751   5.230
 7759SOL    HW124176   2.040   0.846   5.201
 7759SOL    HW224177   1.989   0.693   5.178
 7760SOL     OW24178   4.657   2.238   2.903
 7760SOL    HW124179   4.735   2.276   2.952
 7760SOL    HW224180   4.681   2.226   2.807
 7761SOL     OW24181   3.775   0.099   6.831
 7761SOL    HW124182   3.779   0.033   6.755
 7761SOL    HW224183   3.829   0.063   6.908
 7762SOL     OW24184   2.847   2.182   0.987
 7762SOL    HW124185   2.834   2.250   0.915
 7762SOL    HW224186   2.863   2.092   0.946
 7763SOL     OW24187   2.213   1.596   1.114
 7763SOL    HW124188   2.193   1.689   1.146
 7763SOL    HW224189   2.300   1.566   1.154
 7764SOL     OW24190   3.583   2.829   2.992
 7764SOL    HW124191   3.565   2.842   2.894
 7764SOL    HW224192   3.496   2.811   3.039
 7765SOL     OW24193   6.949   2.249   2.637
 7765SOL    HW124194   6.858   2.232   2.676
 7765SOL    HW224195   6.946   2.234   2.538
 7766SOL     OW24196   6.943   3.220   6.981
 7766SOL    HW124197   6.866   3.195   0.021
 7766SOL    HW224198   6.981   3.307   7.012
 7767SOL     OW24199   5.510   4.214   5.295
 7767SOL    HW124200   5.513   4.226   5.394
 7767SOL    HW224201   5.593   4.253   5.254
 7768SOL     OW24202   3.628   5.204   2.049
 7768SOL    HW124203   3.586   5.127   2.001
 7768SOL    HW224204   3.572   5.228   2.128
 7769SOL     OW24205   6.213   1.979   2.004
 7769SOL    HW124206   6.125   1.949   1.966
 7769SOL    HW224207   6.212   2.078   2.017
 7770SOL     OW24208   3.894   5.626   1.431
 7770SOL    HW124209   3.901   5.680   1.515
 7770SOL    HW224210   3.973   5.643   1.373
 7771SOL     OW24211   2.293   1.660   5.370
 7771SOL    HW124212   2.274   1.586   5.305
 7771SOL    HW224213   2.388   1.687   5.362
 7772SOL     OW24214   5.341   1.422   4.875
 7772SOL    HW124215   5.440   1.433   4.874
 7772SOL    HW224216   5.299   1.490   4.815
 7773SOL     OW24217   3.806   4.388   5.432
 7773SOL    HW124218   3.749   4.444   5.493
 7773SOL    HW224219   3.850   4.315   5.486
 7774SOL     OW24220   4.380   1.309   6.201
 7774SOL    HW124221   4.413   1.328   6.293
 7774SOL    HW224222   4.342   1.392   6.161
 7775SOL     OW24223   3.256   6.983   2.073
 7775SOL    HW124224   3.212   7.009   1.987
 7775SOL    HW224225   3.248   0.039   2.139
 7776SOL     OW24226   3.669   3.657   0.305
 7776SOL    HW124227   3.759   3.701   0.305
 7776SOL    HW224228   3.622   3.680   0.220
 7777SOL     OW24229   1.726   0.776   6.961
 7777SOL    HW124230   1.674   0.754   6.879
 7777SOL    HW224231   1.668   0.762   0.023
 7778SOL     OW24232   5.798   0.731   0.747
 7778SOL    HW124233   5.725   0.703   0.685
 7778SOL    HW224234   5.873   0.771   0.694
 7779SOL     OW24235   3.807   3.455   6.528
 7779SOL    HW124236   3.791   3.500   6.616
 7779SOL    HW224237   3.750   3.374   6.521
 7780SOL     OW24238   1.338   0.158   4.472
 7780SOL    HW124239   1.314   0.118   4.383
 7780SOL    HW224240   1.402   0.097   4.519
 7781SOL     OW24241   1.419   4.984   4.882
 7781SOL    HW124242   1.461   4.949   4.798
 7781SOL    HW224243   1.489   5.032   4.936
 7782SOL     OW24244   3.210   4.305   6.668
 7782SOL    HW124245   3.163   4.242   6.607
 7782SOL    HW224246   3.268   4.253   6.731
 7783SOL     OW24247   3.043   5.470   5.999
 7783SOL    HW124248   2.979   5.477   5.922
 7783SOL    HW224249   3.135   5.455   5.965
 7784SOL     OW24250   0.239   2.461   6.956
 7784SOL    HW124251   0.281   2.486   6.868
 7784SOL    HW224252   0.163   2.398   6.940
 7785SOL     OW24253   2.634   5.886   4.195
 7785SOL    HW124254   2.676   5.807   4.151
 7785SOL    HW224255   2.684   5.969   4.169
 7786SOL     OW24256   3.154   4.066   4.711
 7786SOL    HW124257   3.085   4.126   4.752
 7786SOL    HW224258   3.118   3.973   4.705
 7787SOL     OW24259   2.641   2.247   5.516
 7787SOL    HW124260   2.562   2.281   5.565
 7787SOL    HW224261   2.666   2.311   5.443
 7788SOL     OW24262   0.618   1.376   0.167
 7788SOL    HW124263   0.647   1.437   0.093
 7788SOL    HW224264   0.695   1.360   0.229
 7789SOL     OW24265   2.097   0.066   1.107
 7789SOL    HW124266   2.040   0.126   1.050
 7789SOL    HW224267   2.164   0.122   1.156
 7790SOL     OW24268   6.021   3.758   2.729
 7790SOL    HW124269   6.061   3.667   2.742
 7790SOL    HW224270   6.076   3.826   2.776
 7791SOL     OW24271   1.607   5.188   4.665
 7791SOL    HW124272   1.678   5.254   4.640
 7791SOL    HW224273   1.622   5.154   4.757
 7792SOL     OW24274   2.805   5.314   5.837
 7792SOL    HW124275   2.757   5.359   5.762
 7792SOL    HW224276   2.751   5.237   5.871
 7793SOL     OW24277   0.621   1.074   6.417
 7793SOL    HW124278   0.674   1.102   6.497
 7793SOL    HW224279   0.648   0.982   6.390
 7794SOL     OW24280   5.397   5.481   3.847
 7794SOL    HW124281   5.470   5.525   3.794
 7794SOL    HW224282   5.385   5.387   3.815
 7795SOL     OW24283   2.210   4.814   5.338
 7795SOL    HW124284   2.129   4.860   5.299
 7795SOL    HW224285   2.224   4.846   5.432
 7796SOL     OW24286   4.059   3.119   3.798
 7796SOL    HW124287   4.001   3.074   3.866
 7796SOL    HW224288   4.125   3.178   3.845
 7797SOL     OW24289   1.075   0.313   2.503
 7797SOL    HW124290   1.169   0.303   2.534
 7797SOL    HW224291   1.032   0.222   2.498
 7798SOL     OW24292   4.246   5.538   6.953
 7798SOL    HW124293   4.330   5.554   7.006
 7798SOL    HW224294   4.267   5.485   6.871
 7799SOL     OW24295   6.755   5.073   1.090
 7799SOL    HW124296   6.722   5.137   1.159
 7799SOL    HW224297   6.771   4.984   1.133
 7800SOL     OW24298   0.737   5.798   2.171
 7800SOL    HW124299   0.733   5.838   2.263
 7800SOL    HW224300   0.647   5.808   2.127
 7801SOL     OW24301   3.964   1.779   6.429
 7801SOL    HW124302   3.949   1.682   6.446
 7801SOL    HW224303   4.059   1.802   6.450
 7802SOL     OW24304   6.090   2.306   1.756
 7802SOL    HW124305   6.161   2.264   1.699
 7802SOL    HW224306   6.079   2.402   1.729
 7803SOL     OW24307   3.919   4.048   5.595
 7803SOL    HW124308   3.827   4.018   5.619
 7803SOL    HW224309   3.921   4.076   5.499
 7804SOL     OW24310   4.879   1.618   6.362
 7804SOL    HW124311   4.886   1.537   6.304
 7804SOL    HW224312   4.785   1.653   6.359
 7805SOL     OW24313   4.914   3.638   2.198
 7805SOL    HW124314   5.004   3.649   2.239
 7805SOL    HW224315   4.856   3.583   2.260
 7806SOL     OW24316   4.931   2.714   0.013
 7806SOL    HW124317   4.859   2.769   0.055
 7806SOL    HW224318   4.992   2.773   6.978
 7807SOL     OW24319   0.225   3.793   6.591
 7807SOL    HW124320   0.239   3.703   6.632
 7807SOL    HW224321   0.280   3.861   6.640
 7808SOL     OW24322   0.480   1.508   5.001
 7808SOL    HW124323   0.527   1.596   5.001
 7808SOL    HW224324   0.532   1.442   5.056
 7809SOL     OW24325   1.936   5.183   4.953
 7809SOL    HW124326   2.025   5.183   4.999
 7809SOL    HW224327   1.891   5.271   4.969
 7810SOL     OW24328   2.719   1.398   6.823
 7810SOL    HW124329   2.757   1.307   6.809
 7810SOL    HW224330   2.684   1.406   6.916
 7811SOL     OW24331   6.989   4.265   4.165
 7811SOL    HW124332   0.045   4.225   4.111
 7811SOL    HW224333   6.903   4.253   4.116
 7812SOL     OW24334   1.486   1.438   3.406
 7812SOL    HW124335   1.406   1.478   3.452
 7812SOL    HW224336   1.563   1.435   3.470
 7813SOL     OW24337   6.473   3.187   0.699
 7813SOL    HW124338   6.548   3.122   0.688
 7813SOL    HW224339   6.472   3.250   0.622
 7814SOL     OW24340   0.660   3.879   3.526
 7814SOL    HW124341   0.563   3.856   3.527
 7814SOL    HW224342   0.714   3.796   3.520
 7815SOL     OW24343   6.358   1.875   6.240
 7815SOL    HW124344   6.307   1.840   6.319
 7815SOL    HW224345   6.399   1.798   6.191
 7816SOL     OW24346   1.320   3.972   5.080
 7816SOL    HW124347   1.333   3.934   5.172
 7816SOL    HW224348   1.239   3.931   5.038
 7817SOL     OW24349   5.176   3.611   4.911
 7817SOL    HW124350   5.214   3.700   4.888
 7817SOL    HW224351   5.169   3.601   5.010
 7818SOL     OW24352   5.404   5.323   2.694
 7818SOL    HW124353   5.421   5.362   2.784
 7818SOL    HW224354   5.354   5.236   2.704
 7819SOL     OW24355   6.774   1.118   1.546
 7819SOL    HW124356   6.727   1.098   1.632
 7819SOL    HW224357   6.865   1.155   1.566
 7820SOL     OW24358   1.930   0.537   6.313
 7820SOL    HW124359   1.851   0.496   6.358
 7820SOL    HW224360   2.014   0.496   6.349
 7821SOL     OW24361   2.902   5.245   1.448
 7821SOL    HW124362   3.001   5.244   1.464
 7821SOL    HW224363   2.876   5.166   1.393
 7822SOL     OW24364   1.740   5.812   5.181
 7822SOL    HW124365   1.807   5.879   5.147
 7822SOL    HW224366   1.710   5.754   5.105
 7823SOL     OW24367   1.573   4.328   4.863
 7823SOL    HW124368   1.643   4.285   4.920
 7823SOL    HW224369   1.603   4.419   4.835
 7824SOL     OW24370   0.361   3.180   5.475
 7824SOL    HW124371   0.401   3.270   5.493
 7824SOL    HW224372   0.328   3.177   5.380
 7825SOL     OW24373   3.035   1.377   6.556
 7825SOL    HW124374   3.052   1.303   6.622
 7825SOL    HW224375   3.116   1.433   6.547
 7826SOL     OW24376   0.867   3.028   5.979
 7826SOL    HW124377   0.829   2.944   5.942
 7826SOL    HW224378   0.842   3.105   5.921
 7827SOL     OW24379   6.523   5.510   5.170
 7827SOL    HW124380   6.595   5.565   5.128
 7827SOL    HW224381   6.565   5.438   5.225
 7828SOL     OW24382   0.774   5.001   0.286
 7828SOL    HW124383   0.834   4.947   0.226
 7828SOL    HW224384   0.810   5.093   0.293
 7829SOL     OW24385   3.902   3.022   0.834
 7829SOL    HW124386   3.832   3.026   0.763
 7829SOL    HW224387   3.880   3.086   0.907
 7830SOL     OW24388   2.609   5.198   3.866
 7830SOL    HW124389   2.647   5.116   3.909
 7830SOL    HW224390   2.602   5.184   3.768
 7831SOL     OW24391   1.508   0.467   6.914
 7831SOL    HW124392   1.471   0.376   6.895
 7831SOL    HW224393   1.608   0.464   6.905
 7832SOL     OW24394   6.381   0.866   4.885
 7832SOL    HW124395   6.310   0.883   4.953
 7832SOL    HW224396   6.345   0.809   4.812
 7833SOL     OW24397   1.878   0.428   3.410
 7833SOL    HW124398   1.877   0.403   3.507
 7833SOL    HW224399   1.790   0.468   3.385
 7834SOL     OW24400   6.615   3.759   5.198
 7834SOL    HW124401   6.607   3.739   5.101
 7834SOL    HW224402   6.626   3.857   5.212
 7835SOL     OW24403   3.997   2.444   5.346
 7835SOL    HW124404   4.030   2.461   5.253
 7835SOL    HW224405   4.064   2.388   5.395
 7836SOL     OW24406   3.425   3.540   3.984
 7836SOL    HW124407   3.500   3.571   3.926
 7836SOL    HW224408   3.352   3.501   3.928
 7837SOL     OW24409   0.231   5.746   0.499
 7837SOL    HW124410   0.176   5.828   0.513
 7837SOL    HW224411   0.189   5.668   0.547
 7838SOL     OW24412   4.612   5.515   2.265
 7838SOL    HW124413   4.557   5.499   2.183
 7838SOL    HW224414   4.666   5.434   2.286
 7839SOL     OW24415   5.896   3.168   4.160
 7839SOL    HW124416   5.912   3.070   4.164
 7839SOL    HW224417   5.895   3.206   4.252
 7840SOL     OW24418   1.812   3.119   4.235
 7840SOL    HW124419   1.808   3.028   4.277
 7840SOL    HW224420   1.905   3.154   4.240
 7841SOL     OW24421   4.140   2.027   6.220
 7841SOL    HW124422   4.222   2.024   6.163
 7841SOL    HW224423   4.060   2.006   6.164
 7842SOL     OW24424   1.429   0.639   1.860
 7842SOL    HW124425   1.450   0.546   1.888
 7842SOL    HW224426   1.488   0.703   1.911
 7843SOL     OW24427   0.059   6.206   3.506
 7843SOL    HW124428   0.056   6.306   3.502
 7843SOL    HW224429   7.009   6.173   3.570
 7844SOL     OW24430   4.288   1.354   2.355
 7844SOL    HW124431   4.201   1.304   2.349
 7844SOL    HW224432   4.276   1.432   2.417
 7845SOL     OW24433   6.952   2.915   1.089
 7845SOL    HW124434   6.890   2.955   1.156
 7845SOL    HW224435   6.963   2.818   1.107
 7846SOL     OW24436   1.018   1.382   0.822
 7846SOL    HW124437   1.020   1.462   0.762
 7846SOL    HW224438   1.111   1.345   0.831
 7847SOL     OW24439   5.513   3.994   5.888
 7847SOL    HW124440   5.551   4.079   5.924
 7847SOL    HW224441   5.468   3.944   5.962
 7848SOL     OW24442   3.393   4.270   1.196
 7848SOL    HW124443   3.335   4.315   1.264
 7848SOL    HW224444   3.348   4.270   1.107
 7849SOL     OW24445   4.449   4.670   0.020
 7849SOL    HW124446   4.462   4.640   6.943
 7849SOL    HW224447   4.529   4.722   0.049
 7850SOL     OW24448   6.913   1.297   3.762
 7850SOL    HW124449   6.886   1.291   3.666
 7850SOL    HW224450   7.007   1.263   3.772
 7851SOL     OW24451   0.096   4.976   1.575
 7851SOL    HW124452   0.170   5.026   1.531
 7851SOL    HW224453   0.048   4.920   1.508
 7852SOL     OW24454   1.073   3.153   6.422
 7852SOL    HW124455   1.141   3.120   6.487
 7852SOL    HW224456   1.048   3.079   6.359
 7853SOL     OW24457   3.946   2.941   1.782
 7853SOL    HW124458   4.028   2.915   1.731
 7853SOL    HW224459   3.967   3.020   1.841
 7854SOL     OW24460   5.100   1.914   6.554
 7854SOL    HW124461   5.061   1.945   6.468
 7854SOL    HW224462   5.032   1.860   6.604
 7855SOL     OW24463   5.315   0.172   4.374
 7855SOL    HW124464   5.348   0.145   4.465
 7855SOL    HW224465   5.334   0.099   4.309
 7856SOL     OW24466   2.373   6.284   4.541
 7856SOL    HW124467   2.324   6.291   4.628
 7856SOL    HW224468   2.308   6.288   4.465
 7857SOL     OW24469   6.284   4.910   1.264
 7857SOL    HW124470   6.297   4.949   1.173
 7857SOL    HW224471   6.217   4.836   1.260
 7858SOL     OW24472   0.290   4.203   6.509
 7858SOL    HW124473   0.258   4.205   6.415
 7858SOL    HW224474   0.221   4.242   6.569
 7859SOL     OW24475   5.550   2.719   0.762
 7859SOL    HW124476   5.519   2.814   0.752
 7859SOL    HW224477   5.475   2.663   0.797
 7860SOL     OW24478   2.811   0.962   4.949
 7860SOL    HW124479   2.763   0.930   4.867
 7860SOL    HW224480   2.811   1.061   4.951
 7861SOL     OW24481   2.205   6.155   0.307
 7861SOL    HW124482   2.182   6.182   0.213
 7861SOL    HW224483   2.304   6.161   0.320
 7862SOL     OW24484   2.218   5.787   6.931
 7862SOL    HW124485   2.219   5.882   6.960
 7862SOL    HW224486   2.307   5.745   6.946
 7863SOL     OW24487   0.347   4.031   3.679
 7863SOL    HW124488   0.387   3.952   3.633
 7863SOL    HW224489   0.254   4.009   3.708
 7864SOL     OW24490   1.950   5.989   5.483
 7864SOL    HW124491   1.912   5.899   5.463
 7864SOL    HW224492   2.049   5.986   5.474
 7865SOL     OW24493   5.415   4.559   3.667
 7865SOL    HW124494   5.340   4.526   3.723
 7865SOL    HW224495   5.379   4.603   3.585
 7866SOL     OW24496   0.139   0.376   6.346
 7866SOL    HW124497   0.099   0.318   6.417
 7866SOL    HW224498   0.106   0.470   6.359
 7867SOL     OW24499   4.786   4.876   3.585
 7867SOL    HW124500   4.864   4.924   3.627
 7867SOL    HW224501   4.761   4.797   3.641
 7868SOL     OW24502   3.132   6.279   1.468
 7868SOL    HW124503   3.225   6.241   1.463
 7868SOL    HW224504   3.122   6.351   1.399
 7869SOL     OW24505   5.833   4.713   6.373
 7869SOL    HW124506   5.835   4.613   6.382
 7869SOL    HW224507   5.772   4.752   6.441
 7870SOL     OW24508   5.740   5.493   4.632
 7870SOL    HW124509   5.745   5.590   4.654
 7870SOL    HW224510   5.647   5.459   4.649
 7871SOL     OW24511   5.535   1.861   1.324
 7871SOL    HW124512   5.634   1.848   1.329
 7871SOL    HW224513   5.490   1.773   1.334
 7872SOL     OW24514   1.261   5.860   3.055
 7872SOL    HW124515   1.239   5.880   3.151
 7872SOL    HW224516   1.222   5.932   2.997
 7873SOL     OW24517   5.361   2.087   0.141
 7873SOL    HW124518   5.460   2.078   0.135
 7873SOL    HW224519   5.318   2.005   0.102
 7874SOL     OW24520   5.757   2.904   0.572
 7874SOL    HW124521   5.787   2.814   0.602
 7874SOL    HW224522   5.728   2.899   0.476
 7875SOL     OW24523   6.195   4.804   6.400
 7875SOL    HW124524   6.097   4.817   6.415
 7875SOL    HW224525   6.211   4.767   6.309
 7876SOL     OW24526   1.347   0.034   3.634
 7876SOL    HW124527   1.259   0.070   3.666
 7876SOL    HW224528   1.389   6.998   3.707
 7877SOL     OW24529   0.342   2.891   3.328
 7877SOL    HW124530   0.438   2.905   3.302
 7877SOL    HW224531   0.301   2.823   3.267
 7878SOL     OW24532   4.688   4.928   3.173
 7878SOL    HW124533   4.673   5.024   3.199
 7878SOL    HW224534   4.726   4.924   3.081
 7879SOL     OW24535   3.336   4.895   2.703
 7879SOL    HW124536   3.291   4.969   2.753
 7879SOL    HW224537   3.434   4.898   2.719
 7880SOL     OW24538   1.294   4.487   2.207
 7880SOL    HW124539   1.361   4.546   2.252
 7880SOL    HW224540   1.320   4.475   2.110
 7881SOL     OW24541   4.912   4.252   3.788
 7881SOL    HW124542   4.891   4.159   3.816
 7881SOL    HW224543   4.827   4.304   3.774
 7882SOL     OW24544   1.085   3.337   6.998
 7882SOL    HW124545   1.020   3.266   6.972
 7882SOL    HW224546   1.173   3.320   6.953
 7883SOL     OW24547   0.928   0.154   5.207
 7883SOL    HW124548   0.878   0.178   5.290
 7883SOL    HW224549   0.974   0.235   5.171
 7884SOL     OW24550   0.655   2.861   4.251
 7884SOL    HW124551   0.696   2.950   4.229
 7884SOL    HW224552   0.699   2.790   4.196
 7885SOL     OW24553   6.915   6.127   6.434
 7885SOL    HW124554   6.896   6.032   6.456
 7885SOL    HW224555   6.890   6.186   6.511
 7886SOL     OW24556   5.097   4.760   0.536
 7886SOL    HW124557   5.105   4.850   0.577
 7886SOL    HW224558   5.045   4.766   0.451
 7887SOL     OW24559   4.586   2.768   5.907
 7887SOL    HW124560   4.671   2.816   5.927
 7887SOL    HW224561   4.547   2.733   5.992
 7888SOL     OW24562   5.060   0.281   4.383
 7888SOL    HW124563   5.044   0.336   4.465
 7888SOL    HW224564   5.155   0.248   4.383
 7889SOL     OW24565   0.935   5.219   2.250
 7889SOL    HW124566   0.874   5.158   2.200
 7889SOL    HW224567   1.023   5.173   2.264
 7890SOL     OW24568   1.774   2.918   2.613
 7890SOL    HW124569   1.789   3.003   2.663
 7890SOL    HW224570   1.841   2.849   2.644
 7891SOL     OW24571   1.403   4.787   3.074
 7891SOL    HW124572   1.395   4.720   3.148
 7891SOL    HW224573   1.495   4.781   3.034
 7892SOL     OW24574   2.317   2.811   5.526
 7892SOL    HW124575   2.340   2.819   5.429
 7892SOL    HW224576   2.256   2.733   5.540
 7893SOL     OW24577   5.977   6.483   1.837
 7893SOL    HW124578   5.958   6.416   1.766
 7893SOL    HW224579   6.076   6.496   1.845
 7894SOL     OW24580   3.212   0.709   1.812
 7894SOL    HW124581   3.166   0.783   1.763
 7894SOL    HW224582   3.307   0.703   1.780
 7895SOL     OW24583   6.659   1.437   3.320
 7895SOL    HW124584   6.684   1.519   3.269
 7895SOL    HW224585   6.636   1.363   3.257
 7896SOL     OW24586   3.964   1.970   5.997
 7896SOL    HW124587   3.865   1.980   6.007
 7896SOL    HW224588   3.984   1.887   5.945
 7897SOL     OW24589   2.737   3.054   6.396
 7897SOL    HW124590   2.751   3.131   6.335
 7897SOL    HW224591   2.819   2.997   6.397
 7898SOL     OW24592   4.209   2.314   4.030
 7898SOL    HW124593   4.212   2.243   4.100
 7898SOL    HW224594   4.272   2.388   4.055
 7899SOL     OW24595   4.908   0.895   2.689
 7899SOL    HW124596   4.923   0.980   2.639
 7899SOL    HW224597   4.892   0.820   2.625
 7900SOL     OW24598   1.759   5.378   0.924
 7900SOL    HW124599   1.790   5.419   1.009
 7900SOL    HW224600   1.704   5.297   0.944
 7901SOL     OW24601   5.879   5.859   0.696
 7901SOL    HW124602   5.881   5.849   0.795
 7901SOL    HW224603   5.823   5.938   0.672
 7902SOL     OW24604   5.354   4.813   6.510
 7902SOL    HW124605   5.370   4.910   6.527
 7902SOL    HW224606   5.442   4.765   6.508
 7903SOL     OW24607   7.010   2.321   6.915
 7903SOL    HW124608   6.992   2.390   6.845
 7903SOL    HW224609   6.935   2.321   6.981
 7904SOL     OW24610   6.515   0.897   2.697
 7904SOL    HW124611   6.417   0.913   2.685
 7904SOL    HW224612   6.538   0.805   2.665
 7905SOL     OW24613   3.149   1.897   1.039
 7905SOL    HW124614   3.157   1.817   0.980
 7905SOL    HW224615   3.072   1.884   1.102
 7906SOL     OW24616   6.867   5.524   0.145
 7906SOL    HW124617   6.935   5.582   0.190
 7906SOL    HW224618   6.778   5.568   0.151
 7907SOL     OW24619   6.010   2.750   2.329
 7907SOL    HW124620   6.028   2.752   2.427
 7907SOL    HW224621   5.913   2.765   2.311
 7908SOL     OW24622   6.258   1.822   3.029
 7908SOL    HW124623   6.346   1.775   3.017
 7908SOL    HW224624   6.223   1.850   2.940
 7909SOL     OW24625   4.530   5.339   5.623
 7909SOL    HW124626   4.539   5.416   5.559
 7909SOL    HW224627   4.530   5.253   5.572
 7910SOL     OW24628   5.943   3.943   6.069
 7910SOL    HW124629   6.037   3.940   6.102
 7910SOL    HW224630   5.886   3.882   6.125
 7911SOL     OW24631   6.742   5.039   6.916
 7911SOL    HW124632   6.727   4.983   6.998
 7911SOL    HW224633   6.786   5.124   6.942
 7912SOL     OW24634   0.137   5.255   5.368
 7912SOL    HW124635   0.053   5.308   5.376
 7912SOL    HW224636   0.117   5.157   5.372
 7913SOL     OW24637   0.823   5.988   6.458
 7913SOL    HW124638   0.892   6.059   6.443
 7913SOL    HW224639   0.739   6.029   6.491
 7914SOL     OW24640   0.169   3.663   2.367
 7914SOL    HW124641   0.255   3.651   2.416
 7914SOL    HW224642   0.110   3.584   2.384
 7915SOL     OW24643   4.689   1.048   2.218
 7915SOL    HW124644   4.611   1.084   2.268
 7915SOL    HW224645   4.687   1.081   2.123
 7916SOL     OW24646   4.680   3.349   5.341
 7916SOL    HW124647   4.756   3.306   5.292
 7916SOL    HW224648   4.644   3.425   5.287
 7917SOL     OW24649   3.825   4.052   3.633
 7917SOL    HW124650   3.751   4.103   3.676
 7917SOL    HW224651   3.859   3.982   3.696
 7918SOL     OW24652   6.381   2.234   2.240
 7918SOL    HW124653   6.325   2.301   2.289
 7918SOL    HW224654   6.390   2.262   2.144
 7919SOL     OW24655   5.919   4.786   1.740
 7919SOL    HW124656   6.017   4.808   1.733
 7919SOL    HW224657   5.908   4.686   1.742
 7920SOL     OW24658   0.426   6.169   1.803
 7920SOL    HW124659   0.327   6.187   1.800
 7920SOL    HW224660   0.454   6.152   1.897
 7921SOL     OW24661   3.636   6.412   1.472
 7921SOL    HW124662   3.631   6.484   1.402
 7921SOL    HW224663   3.724   6.364   1.464
 7922SOL     OW24664   0.825   5.005   6.713
 7922SOL    HW124665   0.794   4.928   6.769
 7922SOL    HW224666   0.850   5.082   6.772
 7923SOL     OW24667   1.011   1.447   3.048
 7923SOL    HW124668   1.047   1.381   2.982
 7923SOL    HW224669   0.984   1.531   3.000
 7924SOL     OW24670   2.329   0.689   3.853
 7924SOL    HW124671   2.257   0.624   3.878
 7924SOL    HW224672   2.399   0.691   3.924
 7925SOL     OW24673   0.242   0.735   6.818
 7925SOL    HW124674   0.204   0.787   6.894
 7925SOL    HW224675   0.193   0.758   6.734
 7926SOL     OW24676   3.220   0.277   1.991
 7926SOL    HW124677   3.235   0.279   2.090
 7926SOL    HW224678   3.147   0.212   1.970
 7927SOL     OW24679   4.586   4.974   4.304
 7927SOL    HW124680   4.671   4.953   4.257
 7927SOL    HW224681   4.519   4.902   4.287
 7928SOL     OW24682   1.106   4.716   0.338
 7928SOL    HW124683   1.154   4.723   0.250
 7928SOL    HW224684   1.096   4.808   0.378
 7929SOL     OW24685   4.049   3.697   4.480
 7929SOL    HW124686   4.053   3.729   4.386
 7929SOL    HW224687   3.980   3.625   4.488
 7930SOL     OW24688   5.506   5.793   4.431
 7930SOL    HW124689   5.544   5.841   4.352
 7930SOL    HW224690   5.511   5.694   4.416
 7931SOL     OW24691   1.654   3.376   0.574
 7931SOL    HW124692   1.569   3.342   0.613
 7931SOL    HW224693   1.718   3.300   0.562
 7932SOL     OW24694   2.914   6.906   1.072
 7932SOL    HW124695   2.903   6.941   0.979
 7932SOL    HW224696   3.010   6.887   1.089
 7933SOL     OW24697   1.043   0.786   6.329
 7933SOL    HW124698   1.025   0.709   6.391
 7933SOL    HW224699   0.962   0.803   6.273
 7934SOL     OW24700   4.067   3.102   5.666
 7934SOL    HW124701   4.160   3.078   5.639
 7934SOL    HW224702   4.027   3.162   5.597
 7935SOL     OW24703   4.225   6.136   1.551
 7935SOL    HW124704   4.251   6.197   1.626
 7935SOL    HW224705   4.256   6.174   1.464
 7936SOL     OW24706   4.705   5.486   3.192
 7936SOL    HW124707   4.662   5.572   3.221
 7936SOL    HW224708   4.692   5.417   3.263
 7937SOL     OW24709   6.357   6.812   5.900
 7937SOL    HW124710   6.428   6.834   5.966
 7937SOL    HW224711   6.352   6.884   5.831
 7938SOL     OW24712   5.700   4.522   4.523
 7938SOL    HW124713   5.787   4.497   4.565
 7938SOL    HW224714   5.683   4.620   4.536
 7939SOL     OW24715   0.704   6.968   4.686
 7939SOL    HW124716   0.760   6.977   4.604
 7939SOL    HW224717   0.633   6.899   4.672
 7940SOL     OW24718   1.595   5.805   0.858
 7940SOL    HW124719   1.624   5.865   0.933
 7940SOL    HW224720   1.495   5.804   0.854
 7941SOL     OW24721   0.445   0.481   0.223
 7941SOL    HW124722   0.541   0.468   0.248
 7941SOL    HW224723   0.427   0.579   0.208
 7942SOL     OW24724   1.505   1.479   1.181
 7942SOL    HW124725   1.502   1.394   1.128
 7942SOL    HW224726   1.434   1.541   1.149
 7943SOL     OW24727   5.736   2.263   0.590
 7943SOL    HW124728   5.683   2.231   0.669
 7943SOL    HW224729   5.798   2.336   0.619
 7944SOL     OW24730   0.350   4.202   2.074
 7944SOL    HW124731   0.348   4.116   2.023
 7944SOL    HW224732   0.441   4.242   2.067
 7945SOL     OW24733   5.039   6.479   1.803
 7945SOL    HW124734   5.078   6.441   1.887
 7945SOL    HW224735   5.065   6.421   1.725
 7946SOL     OW24736   1.720   1.843   5.759
 7946SOL    HW124737   1.628   1.825   5.724
 7946SOL    HW224738   1.717   1.853   5.858
 7947SOL     OW24739   4.072   4.787   6.283
 7947SOL    HW124740   4.020   4.766   6.200
 7947SOL    HW224741   4.162   4.823   6.258
 7948SOL     OW24742   1.185   5.011   6.914
 7948SOL    HW124743   1.232   5.028   7.001
 7948SOL    HW224744   1.214   5.079   6.847
 7949SOL     OW24745   6.603   4.408   4.440
 7949SOL    HW124746   6.669   4.335   4.459
 7949SOL    HW224747   6.576   4.451   4.526
 7950SOL     OW24748   3.125   4.886   4.231
 7950SOL    HW124749   3.146   4.982   4.251
 7950SOL    HW224750   3.086   4.843   4.313
 7951SOL     OW24751   2.788   3.430   0.840
 7951SOL    HW124752   2.746   3.340   0.830
 7951SOL    HW224753   2.883   3.419   0.870
 7952SOL     OW24754   4.918   4.527   0.111
 7952SOL    HW124755   4.834   4.475   0.093
 7952SOL    HW224756   4.997   4.467   0.102
 7953SOL     OW24757   2.407   2.659   3.159
 7953SOL    HW124758   2.367   2.727   3.220
 7953SOL    HW224759   2.459   2.592   3.213
 7954SOL     OW24760   4.800   5.381   5.382
 7954SOL    HW124761   4.888   5.397   5.336
 7954SOL    HW224762   4.817   5.338   5.470
 7955SOL     OW24763   1.457   6.956   6.259
 7955SOL    HW124764   1.454   6.931   6.162
 7955SOL    HW224765   1.364   6.957   6.296
 7956SOL     OW24766   6.135   0.020   4.183
 7956SOL    HW124767   6.162   0.110   4.149
 7956SOL    HW224768   6.199   6.969   4.148
 7957SOL     OW24769   1.050   2.375   1.332
 7957SOL    HW124770   1.021   2.461   1.374
 7957SOL    HW224771   1.141   2.351   1.364
 7958SOL     OW24772   2.155   5.438   3.047
 7958SOL    HW124773   2.108   5.508   2.993
 7958SOL    HW224774   2.252   5.458   3.050
 7959SOL     OW24775   5.016   5.395   0.875
 7959SOL    HW124776   5.095   5.417   0.933
 7959SOL    HW224777   5.040   5.406   0.779
 7960SOL     OW24778   2.284   2.479   0.670
 7960SOL    HW124779   2.234   2.460   0.586
 7960SOL    HW224780   2.285   2.578   0.687
 7961SOL     OW24781   1.932   5.659   6.806
 7961SOL    HW124782   1.998   5.592   6.841
 7961SOL    HW224783   1.916   5.729   6.875
 7962SOL     OW24784   1.214   0.219   2.057
 7962SOL    HW124785   1.182   0.128   2.081
 7962SOL    HW224786   1.146   0.287   2.082
 7963SOL     OW24787   1.194   6.512   4.386
 7963SOL    HW124788   1.199   6.439   4.455
 7963SOL    HW224789   1.264   6.496   4.316
 7964SOL     OW24790   6.151   5.852   3.428
 7964SOL    HW124791   6.140   5.952   3.427
 7964SOL    HW224792   6.220   5.825   3.362
 7965SOL     OW24793   5.728   1.979   0.797
 7965SOL    HW124794   5.765   1.898   0.842
 7965SOL    HW224795   5.700   2.046   0.867
 7966SOL     OW24796   6.798   6.261   3.696
 7966SOL    HW124797   6.818   6.165   3.714
 7966SOL    HW224798   6.708   6.268   3.653
 7967SOL     OW24799   3.160   6.190   2.480
 7967SOL    HW124800   3.178   6.204   2.383
 7967SOL    HW224801   3.107   6.105   2.492
 7968SOL     OW24802   1.701   1.253   1.622
 7968SOL    HW124803   1.651   1.316   1.562
 7968SOL    HW224804   1.706   1.163   1.578
 7969SOL     OW24805   3.143   2.142   3.470
 7969SOL    HW124806   3.236   2.152   3.436
 7969SOL    HW224807   3.098   2.065   3.424
 7970SOL     OW24808   0.437   5.214   3.380
 7970SOL    HW124809   0.438   5.123   3.338
 7970SOL    HW224810   0.369   5.217   3.453
 7971SOL     OW24811   2.375   1.656   2.326
 7971SOL    HW124812   2.447   1.689   2.388
 7971SOL    HW224813   2.384   1.557   2.314
 7972SOL     OW24814   0.825   4.985   2.137
 7972SOL    HW124815   0.910   4.977   2.085
 7972SOL    HW224816   0.760   4.916   2.106
 7973SOL     OW24817   4.684   2.174   2.325
 7973SOL    HW124818   4.595   2.140   2.354
 7973SOL    HW224819   4.752   2.101   2.333
 7974SOL     OW24820   5.507   6.748   4.070
 7974SOL    HW124821   5.421   6.780   4.031
 7974SOL    HW224822   5.568   6.718   3.997
 7975SOL     OW24823   2.585   1.003   3.305
 7975SOL    HW124824   2.493   1.041   3.307
 7975SOL    HW224825   2.605   0.959   3.392
 7976SOL     OW24826   0.493   6.883   6.242
 7976SOL    HW124827   0.440   6.962   6.210
 7976SOL    HW224828   0.533   6.836   6.164
 7977SOL     OW24829   4.863   6.670   1.799
 7977SOL    HW124830   4.934   6.599   1.804
 7977SOL    HW224831   4.888   6.746   1.859
 7978SOL     OW24832   3.874   2.380   6.344
 7978SOL    HW124833   3.876   2.365   6.245
 7978SOL    HW224834   3.968   2.394   6.377
 7979SOL     OW24835   4.310   0.067   4.154
 7979SOL    HW124836   4.235   0.113   4.106
 7979SOL    HW224837   4.336   7.003   4.103
 7980SOL     OW24838   2.676   0.520   2.176
 7980SOL    HW124839   2.693   0.422   2.184
 7980SOL    HW224840   2.578   0.537   2.169
 7981SOL     OW24841   1.162   6.121   2.946
 7981SOL    HW124842   1.173   6.153   3.040
 7981SOL    HW224843   1.092   6.177   2.901
 7982SOL     OW24844   0.181   3.003   0.955
 7982SOL    HW124845   0.162   3.013   0.858
 7982SOL    HW224846   0.123   2.930   0.993
 7983SOL     OW24847   4.663   2.557   2.001
 7983SOL    HW124848   4.673   2.630   2.067
 7983SOL    HW224849   4.608   2.483   2.040
 7984SOL     OW24850   0.160   0.421   0.683
 7984SOL    HW124851   0.125   0.430   0.590
 7984SOL    HW224852   0.213   0.503   0.707
 7985SOL     OW24853   0.722   1.165   0.996
 7985SOL    HW124854   0.691   1.200   1.085
 7985SOL    HW224855   0.652   1.105   0.958
 7986SOL     OW24856   4.196   2.553   0.539
 7986SOL    HW124857   4.222   2.634   0.591
 7986SOL    HW224858   4.112   2.572   0.486
 7987SOL     OW24859   0.189   2.457   4.811
 7987SOL    HW124860   0.125   2.529   4.786
 7987SOL    HW224861   0.281   2.483   4.782
 7988SOL     OW24862   2.757   1.526   5.516
 7988SOL    HW124863   2.688   1.454   5.514
 7988SOL    HW224864   2.727   1.599   5.578
 7989SOL     OW24865   3.376   3.345   5.218
 7989SOL    HW124866   3.461   3.382   5.255
 7989SOL    HW224867   3.398   3.278   5.147
 7990SOL     OW24868   2.281   2.394   4.737
 7990SOL    HW124869   2.347   2.446   4.792
 7990SOL    HW224870   2.261   2.307   4.782
 7991SOL     OW24871   0.192   3.429   4.862
 7991SOL    HW124872   0.169   3.367   4.786
 7991SOL    HW224873   0.159   3.521   4.842
 7992SOL     OW24874   2.502   0.780   0.563
 7992SOL    HW124875   2.407   0.785   0.534
 7992SOL    HW224876   2.536   0.687   0.548
 7993SOL     OW24877   2.380   6.771   6.509
 7993SOL    HW124878   2.297   6.723   6.479
 7993SOL    HW224879   2.376   6.866   6.478
 7994SOL     OW24880   5.953   0.385   3.916
 7994SOL    HW124881   5.853   0.386   3.920
 7994SOL    HW224882   5.983   0.334   3.835
 7995SOL     OW24883   4.220   4.914   3.110
 7995SOL    HW124884   4.216   5.006   3.071
 7995SOL    HW224885   4.303   4.905   3.166
 7996SOL     OW24886   3.719   0.787   5.228
 7996SOL    HW124887   3.717   0.728   5.309
 7996SOL    HW224888   3.814   0.805   5.203
 7997SOL     OW24889   5.792   2.635   2.499
 7997SOL    HW124890   5.773   2.687   2.417
 7997SOL    HW224891   5.729   2.557   2.505
 7998SOL     OW24892   6.140   5.369   6.962
 7998SOL    HW124893   6.168   5.357   0.039
 7998SOL    HW224894   6.209   5.329   6.901
 7999SOL     OW24895   1.706   0.558   5.644
 7999SOL    HW124896   1.774   0.556   5.571
 7999SOL    HW224897   1.694   0.466   5.681
 8000SOL     OW24898   5.770   0.104   5.903
 8000SOL    HW124899   5.746   0.197   5.877
 8000SOL    HW224900   5.688   0.055   5.932
 8001SOL     OW24901   2.055   6.782   1.136
 8001SOL    HW124902   2.063   6.766   1.235
 8001SOL    HW224903   2.072   6.879   1.117
 8002SOL     OW24904   5.583   3.346   5.662
 8002SOL    HW124905   5.508   3.411   5.651
 8002SOL    HW224906   5.624   3.356   5.753
 8003SOL     OW24907   3.914   4.953   3.273
 8003SOL    HW124908   3.824   4.926   3.240
 8003SOL    HW224909   3.910   4.970   3.372
 8004SOL     OW24910   1.672   3.797   2.414
 8004SOL    HW124911   1.738   3.753   2.475
 8004SOL    HW224912   1.589   3.741   2.410
 8005SOL     OW24913   2.739   1.072   1.788
 8005SOL    HW124914   2.807   1.060   1.716
 8005SOL    HW224915   2.751   1.161   1.832
 8006SOL     OW24916   3.118   6.320   0.892
 8006SOL    HW124917   3.098   6.266   0.973
 8006SOL    HW224918   3.139   6.414   0.918
 8007SOL     OW24919   0.801   0.782   4.131
 8007SOL    HW124920   0.821   0.745   4.040
 8007SOL    HW224921   0.704   0.768   4.151
 8008SOL     OW24922   6.317   5.934   0.461
 8008SOL    HW124923   6.241   5.881   0.499
 8008SOL    HW224924   6.317   5.925   0.361
 8009SOL     OW24925   0.060   0.093   3.764
 8009SOL    HW124926   0.114   0.117   3.845
 8009SOL    HW224927   0.099   0.011   3.721
 8010SOL     OW24928   2.568   2.578   6.609
 8010SOL    HW124929   2.654   2.611   6.571
 8010SOL    HW224930   2.580   2.558   6.706
 8011SOL     OW24931   2.161   2.095   1.018
 8011SOL    HW124932   2.096   2.124   0.948
 8011SOL    HW224933   2.247   2.146   1.007
 8012SOL     OW24934   3.247   6.557   2.940
 8012SOL    HW124935   3.180   6.484   2.956
 8012SOL    HW224936   3.217   6.613   2.862
 8013SOL     OW24937   6.603   4.904   5.128
 8013SOL    HW124938   6.612   4.996   5.092
 8013SOL    HW224939   6.647   4.899   5.218
 8014SOL     OW24940   1.831   0.137   6.803
 8014SOL    HW124941   1.825   0.061   6.867
 8014SOL    HW224942   1.866   0.104   6.715
 8015SOL     OW24943   1.584   1.882   6.718
 8015SOL    HW124944   1.672   1.922   6.692
 8015SOL    HW224945   1.517   1.900   6.646
 8016SOL     OW24946   3.696   6.564   1.043
 8016SOL    HW124947   3.640   6.518   0.974
 8016SOL    HW224948   3.636   6.613   1.107
 8017SOL     OW24949   5.914   4.427   4.928
 8017SOL    HW124950   5.837   4.365   4.946
 8017SOL    HW224951   5.980   4.381   4.868
 8018SOL     OW24952   5.375   2.716   4.603
 8018SOL    HW124953   5.324   2.708   4.689
 8018SOL    HW224954   5.456   2.657   4.608
 8019SOL     OW24955   2.669   5.008   1.551
 8019SOL    HW124956   2.768   4.996   1.560
 8019SOL    HW224957   2.622   4.951   1.618
 8020SOL     OW24958   6.044   6.345   6.375
 8020SOL    HW124959   6.078   6.310   6.288
 8020SOL    HW224960   6.027   6.269   6.438
 8021SOL     OW24961   0.887   0.936   0.996
 8021SOL    HW124962   0.965   0.986   0.961
 8021SOL    HW224963   0.820   1.000   1.033
 8022SOL     OW24964   4.100   5.669   3.218
 8022SOL    HW124965   4.179   5.682   3.158
 8022SOL    HW224966   4.128   5.685   3.313
 8023SOL     OW24967   5.919   6.505   3.656
 8023SOL    HW124968   5.960   6.510   3.748
 8023SOL    HW224969   5.820   6.509   3.664
 8024SOL     OW24970   4.857   5.174   4.500
 8024SOL    HW124971   4.842   5.118   4.582
 8024SOL    HW224972   4.778   5.234   4.487
 8025SOL     OW24973   3.301   5.984   0.142
 8025SOL    HW124974   3.245   5.963   0.062
 8025SOL    HW224975   3.348   6.071   0.127
 8026SOL     OW24976   1.758   2.804   0.934
 8026SOL    HW124977   1.702   2.886   0.926
 8026SOL    HW224978   1.830   2.819   1.002
 8027SOL     OW24979   5.306   3.389   5.741
 8027SOL    HW124980   5.344   3.300   5.716
 8027SOL    HW224981   5.303   3.396   5.841
 8028SOL     OW24982   5.639   4.802   6.946
 8028SOL    HW124983   5.720   4.838   6.990
 8028SOL    HW224984   5.557   4.844   6.986
 8029SOL     OW24985   2.933   4.788   0.515
 8029SOL    HW124986   2.847   4.803   0.565
 8029SOL    HW224987   2.937   4.851   0.437
 8030SOL     OW24988   5.981   4.066   6.954
 8030SOL    HW124989   5.954   4.016   6.872
 8030SOL    HW224990   6.057   4.018   6.999
 8031SOL     OW24991   3.830   6.197   1.542
 8031SOL    HW124992   3.748   6.193   1.599
 8031SOL    HW224993   3.834   6.117   1.483
 8032SOL     OW24994   5.443   5.108   6.214
 8032SOL    HW124995   5.513   5.047   6.175
 8032SOL    HW224996   5.454   5.110   6.314
 8033SOL     OW24997   5.959   2.681   0.104
 8033SOL    HW124998   5.908   2.648   0.184
 8033SOL    HW224999   5.937   2.624   0.025
 8034SOL     OW25000   6.137   1.106   5.395
 8034SOL    HW125001   6.147   1.043   5.319
 8034SOL    HW225002   6.222   1.157   5.408
 8035SOL     OW25003   5.483   6.333   0.033
 8035SOL    HW125004   5.512   6.395   0.106
 8035SOL    HW225005   5.545   6.343   6.973
 8036SOL     OW25006   1.702   3.929   1.503
 8036SOL    HW125007   1.609   3.963   1.521
 8036SOL    HW225008   1.748   3.911   1.589
 8037SOL     OW25009   1.619   3.241   1.022
 8037SOL    HW125010   1.613   3.335   0.989
 8037SOL    HW225011   1.696   3.233   1.086
 8038SOL     OW25012   6.753   1.562   4.206
 8038SOL    HW125013   6.784   1.598   4.118
 8038SOL    HW225014   6.667   1.606   4.232
 8039SOL     OW25015   2.483   6.519   4.571
 8039SOL    HW125016   2.465   6.423   4.547
 8039SOL    HW225017   2.401   6.558   4.613
 8040SOL     OW25018   6.759   5.479   0.930
 8040SOL    HW125019   6.686   5.435   0.984
 8040SOL    HW225020   6.728   5.490   0.836
 8041SOL     OW25021   4.037   2.037   0.224
 8041SOL    HW125022   4.069   2.126   0.257
 8041SOL    HW225023   3.990   1.990   0.299
 8042SOL     OW25024   2.526   3.389   1.121
 8042SOL    HW125025   2.599   3.328   1.151
 8042SOL    HW225026   2.521   3.468   1.182
 8043SOL     OW25027   2.328   0.331   1.753
 8043SOL    HW125028   2.257   0.358   1.817
 8043SOL    HW225029   2.289   0.272   1.682
 8044SOL     OW25030   3.331   4.099   1.872
 8044SOL    HW125031   3.299   4.009   1.901
 8044SOL    HW225032   3.410   4.126   1.927
 8045SOL     OW25033   6.458   2.872   3.245
 8045SOL    HW125034   6.423   2.901   3.157
 8045SOL    HW225035   6.554   2.844   3.236
 8046SOL     OW25036   0.058   5.418   5.934
 8046SOL    HW125037   0.122   5.451   5.865
 8046SOL    HW225038   6.985   5.409   5.893
 8047SOL     OW25039   3.434   5.772   3.994
 8047SOL    HW125040   3.407   5.841   3.928
 8047SOL    HW225041   3.399   5.797   4.085
 8048SOL     OW25042   6.314   0.462   5.771
 8048SOL    HW125043   6.377   0.384   5.779
 8048SOL    HW225044   6.325   0.522   5.850
 8049SOL     OW25045   1.680   5.164   0.426
 8049SOL    HW125046   1.635   5.248   0.395
 8049SOL    HW225047   1.619   5.114   0.486
 8050SOL     OW25048   1.243   2.885   1.477
 8050SOL    HW125049   1.214   2.887   1.573
 8050SOL    HW225050   1.342   2.872   1.473
 8051SOL     OW25051   3.747   1.326   3.374
 8051SOL    HW125052   3.807   1.285   3.305
 8051SOL    HW225053   3.784   1.416   3.400
 8052SOL     OW25054   3.307   2.112   3.010
 8052SOL    HW125055   3.219   2.092   2.966
 8052SOL    HW225056   3.291   2.136   3.106
 8053SOL     OW25057   3.848   3.356   2.110
 8053SOL    HW125058   3.857   3.455   2.113
 8053SOL    HW225059   3.867   3.318   2.201
 8054SOL     OW25060   4.094   6.257   4.754
 8054SOL    HW125061   4.098   6.343   4.805
 8054SOL    HW225062   4.096   6.180   4.818
 8055SOL     OW25063   1.380   6.882   5.419
 8055SOL    HW125064   1.410   6.847   5.331
 8055SOL    HW225065   1.298   6.939   5.407
 8056SOL     OW25066   4.130   1.869   2.835
 8056SOL    HW125067   4.098   1.804   2.904
 8056SOL    HW225068   4.074   1.951   2.838
 8057SOL     OW25069   4.038   6.402   3.884
 8057SOL    HW125070   4.012   6.451   3.967
 8057SOL    HW225071   4.060   6.307   3.907
 8058SOL     OW25072   2.078   0.580   3.243
 8058SOL    HW125073   2.045   0.529   3.164
 8058SOL    HW225074   2.032   0.548   3.326
 8059SOL     OW25075   2.597   1.628   4.174
 8059SOL    HW125076   2.515   1.572   4.157
 8059SOL    HW225077   2.668   1.603   4.109
 8060SOL     OW25078   0.914   1.321   4.972
 8060SOL    HW125079   0.827   1.305   4.924
 8060SOL    HW225080   0.943   1.416   4.957
 8061SOL     OW25081   0.102   5.744   1.546
 8061SOL    HW125082   0.138   5.685   1.618
 8061SOL    HW225083   0.159   5.826   1.539
 8062SOL     OW25084   2.122   3.825   2.371
 8062SOL    HW125085   2.139   3.747   2.432
 8062SOL    HW225086   2.105   3.791   2.278
 8063SOL     OW25087   3.073   2.835   0.040
 8063SOL    HW125088   2.984   2.798   0.067
 8063SOL    HW225089   3.122   2.867   0.121
 8064SOL     OW25090   6.524   3.275   6.905
 8064SOL    HW125091   6.582   3.252   6.826
 8064SOL    HW225092   6.499   3.371   6.901
 8065SOL     OW25093   4.385   0.238   6.127
 8065SOL    HW125094   4.483   0.245   6.110
 8065SOL    HW225095   4.336   0.230   6.040
 8066SOL     OW25096   2.077   0.307   1.419
 8066SOL    HW125097   1.986   0.277   1.389
 8066SOL    HW225098   2.067   0.388   1.478
 8067SOL     OW25099   5.072   2.166   1.616
 8067SOL    HW125100   5.141   2.167   1.544
 8067SOL    HW225101   5.014   2.247   1.608
 8068SOL     OW25102   0.533   4.619   4.198
 8068SOL    HW125103   0.572   4.586   4.285
 8068SOL    HW225104   0.606   4.625   4.130
 8069SOL     OW25105   1.924   6.288   2.117
 8069SOL    HW125106   2.010   6.300   2.067
 8069SOL    HW225107   1.899   6.376   2.159
 8070SOL     OW25108   4.077   0.113   2.173
 8070SOL    HW125109   3.997   0.173   2.177
 8070SOL    HW225110   4.089   0.068   2.262
 8071SOL     OW25111   3.736   6.368   6.964
 8071SOL    HW125112   3.776   6.316   6.889
 8071SOL    HW225113   3.682   6.308   0.004
 8072SOL     OW25114   5.500   0.662   1.894
 8072SOL    HW125115   5.568   0.735   1.888
 8072SOL    HW225116   5.408   0.702   1.891
 8073SOL     OW25117   3.664   6.184   5.695
 8073SOL    HW125118   3.617   6.261   5.739
 8073SOL    HW225119   3.682   6.208   5.599
 8074SOL     OW25120   3.190   3.778   0.028
 8074SOL    HW125121   3.120   3.727   0.079
 8074SOL    HW225122   3.186   3.754   6.950
 8075SOL     OW25123   6.118   1.155   2.595
 8075SOL    HW125124   6.024   1.137   2.566
 8075SOL    HW225125   6.164   1.211   2.527
 8076SOL     OW25126   5.443   2.772   6.597
 8076SOL    HW125127   5.451   2.855   6.652
 8076SOL    HW225128   5.361   2.722   6.625
 8077SOL     OW25129   1.333   1.258   0.470
 8077SOL    HW125130   1.331   1.308   0.384
 8077SOL    HW225131   1.242   1.219   0.488
 8078SOL     OW25132   6.105   3.538   0.360
 8078SOL    HW125133   6.181   3.591   0.324
 8078SOL    HW225134   6.140   3.470   0.425
 8079SOL     OW25135   6.861   1.716   1.991
 8079SOL    HW125136   6.952   1.718   2.031
 8079SOL    HW225137   6.846   1.798   1.936
 8080SOL     OW25138   4.006   5.011   0.387
 8080SOL    HW125139   4.027   5.108   0.379
 8080SOL    HW225140   3.909   4.996   0.368
 8081SOL     OW25141   5.648   0.611   5.669
 8081SOL    HW125142   5.571   0.673   5.686
 8081SOL    HW225143   5.644   0.535   5.733
 8082SOL     OW25144   6.188   3.239   4.192
 8082SOL    HW125145   6.173   3.292   4.276
 8082SOL    HW225146   6.105   3.240   4.137
 8083SOL     OW25147   5.209   2.698   4.382
 8083SOL    HW125148   5.170   2.606   4.383
 8083SOL    HW225149   5.270   2.710   4.460
 8084SOL     OW25150   6.808   0.211   1.789
 8084SOL    HW125151   6.827   0.113   1.787
 8084SOL    HW225152   6.843   0.254   1.706
 8085SOL     OW25153   6.424   1.865   1.139
 8085SOL    HW125154   6.409   1.963   1.127
 8085SOL    HW225155   6.340   1.822   1.171
 8086SOL     OW25156   3.171   6.825   5.839
 8086SOL    HW125157   3.122   6.866   5.916
 8086SOL    HW225158   3.213   6.739   5.868
 8087SOL     OW25159   2.591   3.155   1.460
 8087SOL    HW125160   2.539   3.236   1.486
 8087SOL    HW225161   2.613   3.160   1.362
 8088SOL     OW25162   4.345   0.246   2.814
 8088SOL    HW125163   4.259   0.263   2.768
 8088SOL    HW225164   4.338   0.274   2.910
 8089SOL     OW25165   6.005   3.033   0.904
 8089SOL    HW125166   6.062   3.030   0.822
 8089SOL    HW225167   6.042   3.101   0.967
 8090SOL     OW25168   4.680   2.205   4.859
 8090SOL    HW125169   4.596   2.167   4.897
 8090SOL    HW225170   4.756   2.142   4.875
 8091SOL     OW25171   3.254   5.178   5.779
 8091SOL    HW125172   3.332   5.135   5.734
 8091SOL    HW225173   3.169   5.147   5.735
 8092SOL     OW25174   0.599   1.679   4.117
 8092SOL    HW125175   0.590   1.778   4.130
 8092SOL    HW225176   0.565   1.655   4.026
 8093SOL     OW25177   5.630   6.030   1.118
 8093SOL    HW125178   5.649   6.047   1.215
 8093SOL    HW225179   5.531   6.034   1.102
 8094SOL     OW25180   1.324   3.769   4.481
 8094SOL    HW125181   1.276   3.796   4.564
 8094SOL    HW225182   1.408   3.720   4.505
 8095SOL     OW25183   5.854   3.687   4.732
 8095SOL    HW125184   5.824   3.766   4.678
 8095SOL    HW225185   5.774   3.637   4.765
 8096SOL     OW25186   3.818   6.972   1.157
 8096SOL    HW125187   3.794   0.047   1.132
 8096SOL    HW225188   3.862   6.971   1.247
 8097SOL     OW25189   4.620   1.039   4.774
 8097SOL    HW125190   4.606   1.088   4.860
 8097SOL    HW225191   4.572   1.087   4.701
 8098SOL     OW25192   2.743   6.974   4.174
 8098SOL    HW125193   2.723   6.954   4.078
 8098SOL    HW225194   2.836   6.943   4.196
 8099SOL     OW25195   5.360   6.560   5.100
 8099SOL    HW125196   5.318   6.596   5.183
 8099SOL    HW225197   5.301   6.578   5.021
 8100SOL     OW25198   1.072   6.230   1.261
 8100SOL    HW125199   1.009   6.305   1.240
 8100SOL    HW225200   1.162   6.267   1.286
 8101SOL     OW25201   0.790   5.658   2.823
 8101SOL    HW125202   0.814   5.578   2.878
 8101SOL    HW225203   0.851   5.664   2.744
 8102SOL     OW25204   0.249   0.054   6.509
 8102SOL    HW125205   0.235   6.994   6.570
 8102SOL    HW225206   0.193   0.131   6.541
 8103SOL     OW25207   2.641   1.867   2.515
 8103SOL    HW125208   2.669   1.918   2.433
 8103SOL    HW225209   2.543   1.880   2.530
 8104SOL     OW25210   2.454   6.444   5.853
 8104SOL    HW125211   2.406   6.528   5.876
 8104SOL    HW225212   2.471   6.392   5.937
 8105SOL     OW25213   1.853   2.675   2.358
 8105SOL    HW125214   1.915   2.753   2.360
 8105SOL    HW225215   1.763   2.703   2.391
 8106SOL     OW25216   0.562   3.986   4.354
 8106SOL    HW125217   0.467   3.956   4.368
 8106SOL    HW225218   0.617   3.961   4.434
 8107SOL     OW25219   1.659   6.059   6.106
 8107SOL    HW125220   1.632   6.031   6.014
 8107SOL    HW225221   1.639   6.156   6.118
 8108SOL     OW25222   2.167   3.388   4.245
 8108SOL    HW125223   2.164   3.442   4.329
 8108SOL    HW225224   2.169   3.450   4.166
 8109SOL     OW25225   1.122   5.209   5.473
 8109SOL    HW125226   1.174   5.214   5.388
 8109SOL    HW225227   1.134   5.118   5.514
 8110SOL     OW25228   1.657   4.311   0.756
 8110SOL    HW125229   1.682   4.380   0.824
 8110SOL    HW225230   1.584   4.253   0.792
 8111SOL     OW25231   2.681   5.629   4.441
 8111SOL    HW125232   2.669   5.588   4.351
 8111SOL    HW225233   2.779   5.639   4.460
 8112SOL     OW25234   4.001   0.826   4.847
 8112SOL    HW125235   4.002   0.883   4.764
 8112SOL    HW225236   4.078   0.762   4.844
 8113SOL     OW25237   3.688   3.044   5.870
 8113SOL    HW125238   3.777   3.081   5.894
 8113SOL    HW225239   3.633   3.031   5.952
 8114SOL     OW25240   2.935   4.097   1.613
 8114SOL    HW125241   2.971   4.005   1.625
 8114SOL    HW225242   3.008   4.156   1.577
 8115SOL     OW25243   3.857   2.231   1.152
 8115SOL    HW125244   3.913   2.202   1.230
 8115SOL    HW225245   3.783   2.165   1.138
 8116SOL     OW25246   5.237   0.716   5.836
 8116SOL    HW125247   5.180   0.782   5.884
 8116SOL    HW225248   5.314   0.763   5.794
 8117SOL     OW25249   2.541   1.801   5.396
 8117SOL    HW125250   2.513   1.882   5.345
 8117SOL    HW225251   2.570   1.828   5.488
 8118SOL     OW25252   0.987   2.863   4.337
 8118SOL    HW125253   0.988   2.831   4.243
 8118SOL    HW225254   0.924   2.941   4.345
 8119SOL     OW25255   1.182   5.823   2.318
 8119SOL    HW125256   1.138   5.907   2.285
 8119SOL    HW225257   1.281   5.829   2.301
 8120SOL     OW25258   4.390   4.367   1.480
 8120SOL    HW125259   4.443   4.413   1.409
 8120SOL    HW225260   4.437   4.375   1.568
 8121SOL     OW25261   6.651   6.591   3.227
 8121SOL    HW125262   6.635   6.600   3.325
 8121SOL    HW225263   6.739   6.546   3.211
 8122SOL     OW25264   0.755   6.138   1.518
 8122SOL    HW125265   0.683   6.192   1.561
 8122SOL    HW225266   0.832   6.197   1.496
 8123SOL     OW25267   0.811   5.818   0.097
 8123SOL    HW125268   0.727   5.770   0.069
 8123SOL    HW225269   0.855   5.859   0.017
 8124SOL     OW25270   0.527   5.964   2.703
 8124SOL    HW125271   0.448   6.003   2.751
 8124SOL    HW225272   0.611   6.009   2.736
 8125SOL     OW25273   5.706   5.286   2.873
 8125SOL    HW125274   5.698   5.386   2.863
 8125SOL    HW225275   5.735   5.247   2.786
 8126SOL     OW25276   6.164   4.944   2.105
 8126SOL    HW125277   6.074   4.923   2.067
 8126SOL    HW225278   6.173   5.042   2.119
 8127SOL     OW25279   3.181   4.504   1.080
 8127SOL    HW125280   3.180   4.470   1.174
 8127SOL    HW225281   3.145   4.433   1.019
 8128SOL     OW25282   3.956   2.624   5.568
 8128SOL    HW125283   4.046   2.641   5.607
 8128SOL    HW225284   3.963   2.554   5.497
 8129SOL     OW25285   4.835   6.546   6.791
 8129SOL    HW125286   4.850   6.576   6.885
 8129SOL    HW225287   4.919   6.505   6.755
 8130SOL     OW25288   1.031   0.150   1.077
 8130SOL    HW125289   0.977   0.234   1.079
 8130SOL    HW225290   1.109   0.162   1.016
 8131SOL     OW25291   1.243   1.628   0.014
 8131SOL    HW125292   1.199   1.676   0.089
 8131SOL    HW225293   1.335   1.601   0.042
 8132SOL     OW25294   6.081   4.538   3.012
 8132SOL    HW125295   6.108   4.627   2.975
 8132SOL    HW225296   6.037   4.551   3.101
 8133SOL     OW25297   0.935   5.558   1.736
 8133SOL    HW125298   0.874   5.617   1.684
 8133SOL    HW225299   0.912   5.561   1.833
 8134SOL     OW25300   2.333   2.549   1.781
 8134SOL    HW125301   2.245   2.508   1.756
 8134SOL    HW225302   2.403   2.478   1.784
 8135SOL     OW25303   3.835   6.058   2.293
 8135SOL    HW125304   3.761   6.117   2.262
 8135SOL    HW225305   3.797   5.971   2.324
 8136SOL     OW25306   3.391   5.787   1.242
 8136SOL    HW125307   3.302   5.816   1.279
 8136SOL    HW225308   3.379   5.702   1.191
 8137SOL     OW25309   2.838   3.983   5.189
 8137SOL    HW125310   2.746   3.943   5.192
 8137SOL    HW225311   2.899   3.929   5.247
 8138SOL     OW25312   5.124   0.831   3.818
 8138SOL    HW125313   5.067   0.900   3.863
 8138SOL    HW225314   5.183   0.875   3.751
 8139SOL     OW25315   1.328   2.859   4.349
 8139SOL    HW125316   1.301   2.949   4.381
 8139SOL    HW225317   1.257   2.792   4.373
 8140SOL     OW25318   4.739   0.893   1.476
 8140SOL    HW125319   4.678   0.957   1.429
 8140SOL    HW225320   4.734   0.909   1.574
 8141SOL     OW25321   5.812   0.961   5.341
 8141SOL    HW125322   5.837   0.916   5.427
 8141SOL    HW225323   5.855   0.913   5.265
 8142SOL     OW25324   2.201   5.330   1.592
 8142SOL    HW125325   2.117   5.326   1.538
 8142SOL    HW225326   2.192   5.271   1.672
 8143SOL     OW25327   6.083   5.196   0.820
 8143SOL    HW125328   6.043   5.281   0.854
 8143SOL    HW225329   6.024   5.158   0.749
 8144SOL     OW25330   0.168   5.099   0.273
 8144SOL    HW125331   0.261   5.109   0.236
 8144SOL    HW225332   0.121   5.025   0.225
 8145SOL     OW25333   5.170   5.539   0.015
 8145SOL    HW125334   5.098   5.606   0.000
 8145SOL    HW225335   5.259   5.579   7.011
 8146SOL     OW25336   6.094   0.283   4.646
 8146SOL    HW125337   6.147   0.362   4.614
 8146SOL    HW225338   6.035   0.251   4.573
 8147SOL     OW25339   1.709   0.494   6.509
 8147SOL    HW125340   1.669   0.425   6.570
 8147SOL    HW225341   1.675   0.584   6.534
 8148SOL     OW25342   4.615   4.485   0.464
 8148SOL    HW125343   4.683   4.556   0.480
 8148SOL    HW225344   4.544   4.521   0.403
 8149SOL     OW25345   0.630   0.427   4.944
 8149SOL    HW125346   0.640   0.336   4.903
 8149SOL    HW225347   0.661   0.496   4.879
 8150SOL     OW25348   0.561   3.964   0.587
 8150SOL    HW125349   0.517   3.973   0.497
 8150SOL    HW225350   0.534   4.040   0.646
 8151SOL     OW25351   6.555   6.127   3.304
 8151SOL    HW125352   6.520   6.171   3.221
 8151SOL    HW225353   6.652   6.149   3.315
 8152SOL     OW25354   4.790   1.231   2.953
 8152SOL    HW125355   4.740   1.213   2.868
 8152SOL    HW225356   4.735   1.290   3.013
 8153SOL     OW25357   0.077   1.819   1.797
 8153SOL    HW125358   0.054   1.723   1.782
 8153SOL    HW225359   0.111   1.832   1.890
 8154SOL     OW25360   2.352   0.689   2.680
 8154SOL    HW125361   2.266   0.666   2.634
 8154SOL    HW225362   2.334   0.711   2.775
 8155SOL     OW25363   1.774   5.302   3.370
 8155SOL    HW125364   1.856   5.305   3.313
 8155SOL    HW225365   1.741   5.395   3.387
 8156SOL     OW25366   0.709   4.689   0.949
 8156SOL    HW125367   0.733   4.648   0.861
 8156SOL    HW225368   0.784   4.676   1.013
 8157SOL     OW25369   6.794   4.254   4.892
 8157SOL    HW125370   6.880   4.250   4.840
 8157SOL    HW225371   6.732   4.319   4.849
 8158SOL     OW25372   6.074   5.476   6.400
 8158SOL    HW125373   6.144   5.450   6.334
 8158SOL    HW225374   6.113   5.480   6.491
 8159SOL     OW25375   2.841   6.814   4.910
 8159SOL    HW125376   2.749   6.824   4.874
 8159SOL    HW225377   2.908   6.825   4.837
 8160SOL     OW25378   5.876   1.548   1.899
 8160SOL    HW125379   5.958   1.527   1.952
 8160SOL    HW225380   5.836   1.464   1.864
 8161SOL     OW25381   5.856   3.248   1.644
 8161SOL    HW125382   5.898   3.163   1.612
 8161SOL    HW225383   5.819   3.234   1.736
 8162SOL     OW25384   0.343   5.419   5.464
 8162SOL    HW125385   0.283   5.339   5.464
 8162SOL    HW225386   0.342   5.461   5.373
 8163SOL     OW25387   4.244   4.447   5.554
 8163SOL    HW125388   4.183   4.386   5.606
 8163SOL    HW225389   4.278   4.518   5.615
 8164SOL     OW25390   5.407   2.069   1.156
 8164SOL    HW125391   5.425   1.998   1.224
 8164SOL    HW225392   5.338   2.036   1.091
 8165SOL     OW25393   0.134   1.222   0.209
 8165SOL    HW125394   0.111   1.298   0.269
 8165SOL    HW225395   0.066   1.149   0.219
 8166SOL     OW25396   1.431   1.711   5.872
 8166SOL    HW125397   1.340   1.751   5.867
 8166SOL    HW225398   1.470   1.706   5.780
 8167SOL     OW25399   1.736   3.156   3.876
 8167SOL    HW125400   1.660   3.196   3.927
 8167SOL    HW225401   1.800   3.112   3.939
 8168SOL     OW25402   1.484   0.659   2.231
 8168SOL    HW125403   1.540   0.729   2.275
 8168SOL    HW225404   1.391   0.661   2.268
 8169SOL     OW25405   4.999   3.134   0.542
 8169SOL    HW125406   5.009   3.228   0.510
 8169SOL    HW225407   4.963   3.134   0.636
 8170SOL     OW25408   6.896   5.006   2.413
 8170SOL    HW125409   6.845   5.092   2.419
 8170SOL    HW225410   6.879   4.952   2.496
 8171SOL     OW25411   2.393   1.369   0.402
 8171SOL    HW125412   2.330   1.373   0.479
 8171SOL    HW225413   2.474   1.424   0.421
 8172SOL     OW25414   1.147   2.816   0.297
 8172SOL    HW125415   1.205   2.791   0.374
 8172SOL    HW225416   1.188   2.785   0.212
 8173SOL     OW25417   5.827   1.216   1.501
 8173SOL    HW125418   5.767   1.296   1.498
 8173SOL    HW225419   5.824   1.169   1.413
 8174SOL     OW25420   2.893   6.028   3.039
 8174SOL    HW125421   2.868   5.933   3.023
 8174SOL    HW225422   2.837   6.066   3.113
 8175SOL     OW25423   0.333   1.474   5.630
 8175SOL    HW125424   0.270   1.411   5.585
 8175SOL    HW225425   0.281   1.536   5.689
 8176SOL     OW25426   2.361   4.517   0.434
 8176SOL    HW125427   2.292   4.487   0.499
 8176SOL    HW225428   2.339   4.481   0.343
 8177SOL     OW25429   3.133   1.102   4.209
 8177SOL    HW125430   3.045   1.075   4.171
 8177SOL    HW225431   3.136   1.202   4.220
 8178SOL     OW25432   3.020   6.708   1.531
 8178SOL    HW125433   3.056   6.628   1.579
 8178SOL    HW225434   2.940   6.682   1.478
 8179SOL     OW25435   5.341   0.623   3.207
 8179SOL    HW125436   5.434   0.607   3.174
 8179SOL    HW225437   5.334   0.597   3.303
 8180SOL     OW25438   4.841   6.603   0.045
 8180SOL    HW125439   4.743   6.623   0.050
 8180SOL    HW225440   4.861   6.522   0.099
 8181SOL     OW25441   0.070   0.468   0.402
 8181SOL    HW125442   0.063   0.556   0.448
 8181SOL    HW225443   0.050   0.479   0.305
 8182SOL     OW25444   3.094   3.582   4.380
 8182SOL    HW125445   3.039   3.652   4.426
 8182SOL    HW225446   3.052   3.492   4.396
 8183SOL     OW25447   6.757   0.683   5.373
 8183SOL    HW125448   6.824   0.640   5.433
 8183SOL    HW225449   6.695   0.613   5.336
 8184SOL     OW25450   0.566   5.637   6.782
 8184SOL    HW125451   0.506   5.557   6.783
 8184SOL    HW225452   0.545   5.692   6.701
 8185SOL     OW25453   0.646   6.581   6.128
 8185SOL    HW125454   0.595   6.541   6.205
 8185SOL    HW225455   0.582   6.617   6.060
 8186SOL     OW25456   1.974   5.413   6.592
 8186SOL    HW125457   2.054   5.465   6.622
 8186SOL    HW225458   2.004   5.342   6.528
 8187SOL     OW25459   1.189   1.006   5.785
 8187SOL    HW125460   1.176   0.969   5.877
 8187SOL    HW225461   1.114   1.069   5.765
 8188SOL     OW25462   1.527   2.877   2.739
 8188SOL    HW125463   1.620   2.866   2.705
 8188SOL    HW225464   1.528   2.920   2.829
 8189SOL     OW25465   5.612   4.897   3.860
 8189SOL    HW125466   5.576   4.982   3.898
 8189SOL    HW225467   5.640   4.912   3.765
 8190SOL     OW25468   6.944   4.092   2.900
 8190SOL    HW125469   6.925   4.166   2.965
 8190SOL    HW225470   7.005   4.126   2.829
 8191SOL     OW25471   4.166   5.373   0.788
 8191SOL    HW125472   4.231   5.382   0.862
 8191SOL    HW225473   4.116   5.287   0.796
 8192SOL     OW25474   0.346   6.147   3.627
 8192SOL    HW125475   0.276   6.123   3.694
 8192SOL    HW225476   0.343   6.082   3.551
 8193SOL     OW25477   0.687   4.813   4.465
 8193SOL    HW125478   0.701   4.837   4.369
 8193SOL    HW225479   0.623   4.878   4.506
 8194SOL     OW25480   4.465   6.605   1.940
 8194SOL    HW125481   4.496   6.573   1.850
 8194SOL    HW225482   4.403   6.683   1.928
 8195SOL     OW25483   5.954   6.248   3.553
 8195SOL    HW125484   5.905   6.256   3.467
 8195SOL    HW225485   5.942   6.333   3.606
 8196SOL     OW25486   5.184   1.352   1.672
 8196SOL    HW125487   5.231   1.425   1.622
 8196SOL    HW225488   5.251   1.284   1.701
 8197SOL     OW25489   3.706   2.154   2.754
 8197SOL    HW125490   3.721   2.063   2.716
 8197SOL    HW225491   3.608   2.172   2.762
 8198SOL     OW25492   1.483   6.391   1.645
 8198SOL    HW125493   1.391   6.421   1.670
 8198SOL    HW225494   1.489   6.292   1.651
 8199SOL     OW25495   5.661   2.824   6.921
 8199SOL    HW125496   5.733   2.868   6.867
 8199SOL    HW225497   5.679   2.726   6.927
 8200SOL     OW25498   4.244   3.196   0.966
 8200SOL    HW125499   4.195   3.189   0.879
 8200SOL    HW225500   4.224   3.116   1.022
 8201SOL     OW25501   5.944   6.960   5.267
 8201SOL    HW125502   6.020   6.895   5.272
 8201SOL    HW225503   5.953   7.015   5.184
 8202SOL     OW25504   0.809   6.588   1.962
 8202SOL    HW125505   0.879   6.649   2.000
 8202SOL    HW225506   0.846   6.541   1.882
 8203SOL     OW25507   1.623   3.350   1.355
 8203SOL    HW125508   1.672   3.322   1.437
 8203SOL    HW225509   1.688   3.386   1.288
 8204SOL     OW25510   3.242   2.974   1.170
 8204SOL    HW125511   3.186   3.024   1.105
 8204SOL    HW225512   3.333   2.959   1.131
 8205SOL     OW25513   1.277   3.753   6.907
 8205SOL    HW125514   1.245   3.764   6.813
 8205SOL    HW225515   1.206   3.711   6.962
 8206SOL     OW25516   2.954   0.367   0.670
 8206SOL    HW125517   3.041   0.360   0.719
 8206SOL    HW225518   2.930   0.464   0.657
 8207SOL     OW25519   3.851   4.072   4.789
 8207SOL    HW125520   3.929   4.009   4.788
 8207SOL    HW225521   3.845   4.120   4.702
 8208SOL     OW25522   2.273   0.702   0.184
 8208SOL    HW125523   2.327   0.618   0.173
 8208SOL    HW225524   2.204   0.706   0.112
 8209SOL     OW25525   6.214   1.510   4.788
 8209SOL    HW125526   6.208   1.606   4.818
 8209SOL    HW225527   6.140   1.490   4.725
 8210SOL     OW25528   2.235   2.335   6.439
 8210SOL    HW125529   2.174   2.389   6.498
 8210SOL    HW225530   2.276   2.394   6.370
 8211SOL     OW25531   3.687   4.752   1.636
 8211SOL    HW125532   3.755   4.681   1.613
 8211SOL    HW225533   3.630   4.720   1.711
 8212SOL     OW25534   1.613   2.830   3.395
 8212SOL    HW125535   1.570   2.779   3.321
 8212SOL    HW225536   1.581   2.794   3.483
 8213SOL     OW25537   6.630   5.230   1.289
 8213SOL    HW125538   6.557   5.163   1.302
 8213SOL    HW225539   6.690   5.230   1.369
 8214SOL     OW25540   5.840   3.821   3.541
 8214SOL    HW125541   5.815   3.910   3.577
 8214SOL    HW225542   5.807   3.812   3.447
 8215SOL     OW25543   3.318   5.181   3.234
 8215SOL    HW125544   3.330   5.232   3.320
 8215SOL    HW225545   3.221   5.174   3.213
 8216SOL     OW25546   5.516   3.646   3.795
 8216SOL    HW125547   5.480   3.708   3.726
 8216SOL    HW225548   5.463   3.656   3.879
 8217SOL     OW25549   2.131   6.046   6.987
 8217SOL    HW125550   2.109   6.116   0.037
 8217SOL    HW225551   2.053   5.983   6.978
 8218SOL     OW25552   6.631   2.886   0.052
 8218SOL    HW125553   6.654   2.981   0.073
 8218SOL    HW225554   6.535   2.870   0.071
 8219SOL     OW25555   5.918   1.777   6.943
 8219SOL    HW125556   5.915   1.844   7.017
 8219SOL    HW225557   5.957   1.819   6.861
 8220SOL     OW25558   3.883   3.634   2.088
 8220SOL    HW125559   3.910   3.704   2.154
 8220SOL    HW225560   3.946   3.636   2.010
 8221SOL     OW25561   5.159   6.119   3.704
 8221SOL    HW125562   5.065   6.086   3.689
 8221SOL    HW225563   5.195   6.078   3.788
 8222SOL     OW25564   6.429   2.343   1.598
 8222SOL    HW125565   6.529   2.343   1.597
 8222SOL    HW225566   6.396   2.248   1.603
 8223SOL     OW25567   0.611   5.188   5.802
 8223SOL    HW125568   0.627   5.259   5.734
 8223SOL    HW225569   0.673   5.111   5.785
 8224SOL     OW25570   1.354   3.429   3.967
 8224SOL    HW125571   1.383   3.380   3.885
 8224SOL    HW225572   1.431   3.434   4.031
 8225SOL     OW25573   4.905   1.776   0.298
 8225SOL    HW125574   4.995   1.820   0.300
 8225SOL    HW225575   4.838   1.839   0.258
 8226SOL     OW25576   5.165   0.695   0.539
 8226SOL    HW125577   5.211   0.681   0.452
 8226SOL    HW225578   5.229   0.680   0.614
 8227SOL     OW25579   6.520   3.566   3.011
 8227SOL    HW125580   6.515   3.478   3.058
 8227SOL    HW225581   6.580   3.557   2.932
 8228SOL     OW25582   6.370   2.680   5.169
 8228SOL    HW125583   6.334   2.688   5.076
 8228SOL    HW225584   6.416   2.591   5.179
 8229SOL     OW25585   3.708   5.045   0.681
 8229SOL    HW125586   3.654   5.030   0.763
 8229SOL    HW225587   3.657   5.014   0.601
 8230SOL     OW25588   5.019   0.074   4.203
 8230SOL    HW125589   5.039   0.166   4.237
 8230SOL    HW225590   4.932   0.075   4.153
 8231SOL     OW25591   4.362   6.156   0.743
 8231SOL    HW125592   4.280   6.204   0.775
 8231SOL    HW225593   4.335   6.067   0.705
 8232SOL     OW25594   2.989   2.819   6.121
 8232SOL    HW125595   2.976   2.721   6.142
 8232SOL    HW225596   3.007   2.830   6.024
 8233SOL     OW25597   0.358   5.251   0.041
 8233SOL    HW125598   0.421   5.203   0.102
 8233SOL    HW225599   0.338   5.193   6.980
 8234SOL     OW25600   3.658   2.041   6.789
 8234SOL    HW125601   3.681   2.102   6.865
 8234SOL    HW225602   3.668   2.090   6.703
 8235SOL     OW25603   4.906   2.610   0.743
 8235SOL    HW125604   4.829   2.552   0.769
 8235SOL    HW225605   4.958   2.564   0.670
 8236SOL     OW25606   5.406   3.438   0.437
 8236SOL    HW125607   5.460   3.375   0.492
 8236SOL    HW225608   5.465   3.484   0.371
 8237SOL     OW25609   4.132   6.403   5.732
 8237SOL    HW125610   4.143   6.495   5.694
 8237SOL    HW225611   4.066   6.351   5.678
 8238SOL     OW25612   1.860   1.505   6.469
 8238SOL    HW125613   1.937   1.447   6.445
 8238SOL    HW225614   1.840   1.494   6.567
 8239SOL     OW25615   6.790   1.834   6.361
 8239SOL    HW125616   6.759   1.921   6.398
 8239SOL    HW225617   6.792   1.839   6.261
 8240SOL     OW25618   3.968   3.835   3.737
 8240SOL    HW125619   4.021   3.832   3.652
 8240SOL    HW225620   4.007   3.771   3.803
 8241SOL     OW25621   4.371   6.847   0.665
 8241SOL    HW125622   4.342   6.934   0.626
 8241SOL    HW225623   4.384   6.780   0.591
 8242SOL     OW25624   0.979   4.269   5.340
 8242SOL    HW125625   0.998   4.203   5.267
 8242SOL    HW225626   1.053   4.336   5.344
 8243SOL     OW25627   0.736   3.683   4.821
 8243SOL    HW125628   0.708   3.681   4.725
 8243SOL    HW225629   0.667   3.639   4.877
 8244SOL     OW25630   0.486   6.564   4.452
 8244SOL    HW125631   0.408   6.504   4.432
 8244SOL    HW225632   0.567   6.530   4.404
 8245SOL     OW25633   3.762   2.736   0.663
 8245SOL    HW125634   3.689   2.668   0.660
 8245SOL    HW225635   3.727   2.825   0.634
 8246SOL     OW25636   5.246   3.870   5.936
 8246SOL    HW125637   5.272   3.819   5.853
 8246SOL    HW225638   5.308   3.846   6.010
 8247SOL     OW25639   0.940   0.357   1.489
 8247SOL    HW125640   0.871   0.331   1.557
 8247SOL    HW225641   0.985   0.442   1.517
 8248SOL     OW25642   6.391   3.895   3.429
 8248SOL    HW125643   6.454   3.889   3.352
 8248SOL    HW225644   6.298   3.908   3.395
 8249SOL     OW25645   2.177   5.128   3.258
 8249SOL    HW125646   2.137   5.121   3.167
 8249SOL    HW225647   2.260   5.183   3.254
 8250SOL     OW25648   4.070   3.807   2.652
 8250SOL    HW125649   4.105   3.724   2.609
 8250SOL    HW225650   4.061   3.791   2.751
 8251SOL     OW25651   5.705   1.695   4.703
 8251SOL    HW125652   5.756   1.772   4.741
 8251SOL    HW225653   5.737   1.677   4.610
 8252SOL     OW25654   1.517   3.055   4.638
 8252SOL    HW125655   1.548   2.961   4.622
 8252SOL    HW225656   1.591   3.118   4.618
 8253SOL     OW25657   3.212   3.253   5.414
 8253SOL    HW125658   3.247   3.288   5.327
 8253SOL    HW225659   3.201   3.328   5.479
 8254SOL     OW25660   3.724   5.505   3.662
 8254SOL    HW125661   3.742   5.417   3.618
 8254SOL    HW225662   3.628   5.530   3.648
 8255SOL     OW25663   4.389   4.969   3.931
 8255SOL    HW125664   4.400   5.067   3.946
 8255SOL    HW225665   4.478   4.924   3.937
 8256SOL     OW25666   0.097   1.655   3.980
 8256SOL    HW125667   0.064   1.750   3.978
 8256SOL    HW225668   0.019   1.593   3.980
 8257SOL     OW25669   6.737   4.215   4.057
 8257SOL    HW125670   6.767   4.168   3.974
 8257SOL    HW225671   6.668   4.284   4.033
 8258SOL     OW25672   4.461   1.476   6.877
 8258SOL    HW125673   4.443   1.411   6.951
 8258SOL    HW225674   4.510   1.555   6.914
 8259SOL     OW25675   3.443   1.838   1.927
 8259SOL    HW125676   3.536   1.854   1.961
 8259SOL    HW225677   3.447   1.810   1.831
 8260SOL     OW25678   2.317   5.714   0.493
 8260SOL    HW125679   2.233   5.716   0.439
 8260SOL    HW225680   2.304   5.767   0.577
 8261SOL     OW25681   5.976   1.642   1.537
 8261SOL    HW125682   5.934   1.619   1.625
 8261SOL    HW225683   6.068   1.604   1.534
 8262SOL     OW25684   1.029   2.304   1.076
 8262SOL    HW125685   1.034   2.324   1.174
 8262SOL    HW225686   0.978   2.220   1.062
 8263SOL     OW25687   6.495   1.460   0.677
 8263SOL    HW125688   6.436   1.387   0.712
 8263SOL    HW225689   6.439   1.537   0.649
 8264SOL     OW25690   1.984   4.908   2.881
 8264SOL    HW125691   1.987   4.835   2.812
 8264SOL    HW225692   1.904   4.966   2.865
 8265SOL     OW25693   1.713   1.005   1.549
 8265SOL    HW125694   1.772   0.930   1.520
 8265SOL    HW225695   1.636   0.968   1.601
 8266SOL     OW25696   3.215   0.138   2.969
 8266SOL    HW125697   3.193   0.109   2.875
 8266SOL    HW225698   3.280   0.074   3.009
 8267SOL     OW25699   0.735   3.662   1.096
 8267SOL    HW125700   0.705   3.606   1.173
 8267SOL    HW225701   0.731   3.608   1.012
 8268SOL     OW25702   2.901   6.705   5.461
 8268SOL    HW125703   2.919   6.771   5.533
 8268SOL    HW225704   2.895   6.752   5.373
 8269SOL     OW25705   5.964   1.995   1.493
 8269SOL    HW125706   5.900   2.061   1.453
 8269SOL    HW225707   6.043   1.984   1.433
 8270SOL     OW25708   3.676   5.824   3.390
 8270SOL    HW125709   3.638   5.910   3.424
 8270SOL    HW225710   3.722   5.840   3.303
 8271SOL     OW25711   6.751   1.941   2.424
 8271SOL    HW125712   6.673   1.885   2.452
 8271SOL    HW225713   6.816   1.884   2.374
 8272SOL     OW25714   3.505   1.356   3.664
 8272SOL    HW125715   3.487   1.325   3.571
 8272SOL    HW225716   3.563   1.438   3.661
 8273SOL     OW25717   2.436   6.219   0.909
 8273SOL    HW125718   2.404   6.313   0.895
 8273SOL    HW225719   2.359   6.161   0.934
 8274SOL     OW25720   5.142   5.362   3.307
 8274SOL    HW125721   5.133   5.461   3.304
 8274SOL    HW225722   5.143   5.332   3.402
 8275SOL     OW25723   5.160   2.517   5.952
 8275SOL    HW125724   5.088   2.535   6.019
 8275SOL    HW225725   5.133   2.555   5.863
 8276SOL     OW25726   1.134   1.608   3.473
 8276SOL    HW125727   1.206   1.670   3.503
 8276SOL    HW225728   1.132   1.605   3.373
 8277SOL     OW25729   6.535   0.377   6.680
 8277SOL    HW125730   6.489   0.458   6.643
 8277SOL    HW225731   6.515   0.299   6.622
 8278SOL     OW25732   2.128   2.452   0.436
 8278SOL    HW125733   2.208   2.508   0.414
 8278SOL    HW225734   2.067   2.450   0.357
 8279SOL     OW25735   0.004   6.299   3.854
 8279SOL    HW125736   6.934   6.295   3.807
 8279SOL    HW225737   0.004   6.375   3.919
 8280SOL     OW25738   2.941   2.992   5.785
 8280SOL    HW125739   2.977   2.903   5.756
 8280SOL    HW225740   2.906   3.041   5.705
 8281SOL     OW25741   6.550   5.705   1.995
 8281SOL    HW125742   6.591   5.728   2.083
 8281SOL    HW225743   6.457   5.741   1.991
 8282SOL     OW25744   5.221   2.302   5.427
 8282SOL    HW125745   5.205   2.225   5.488
 8282SOL    HW225746   5.163   2.379   5.454
 8283SOL     OW25747   1.824   3.928   5.639
 8283SOL    HW125748   1.919   3.936   5.672
 8283SOL    HW225749   1.805   4.002   5.575
 8284SOL     OW25750   6.654   4.705   2.259
 8284SOL    HW125751   6.728   4.712   2.193
 8284SOL    HW225752   6.690   4.719   2.351
 8285SOL     OW25753   3.582   3.542   4.871
 8285SOL    HW125754   3.599   3.628   4.920
 8285SOL    HW225755   3.665   3.517   4.820
 8286SOL     OW25756   6.421   1.988   5.926
 8286SOL    HW125757   6.435   1.978   5.828
 8286SOL    HW225758   6.323   1.987   5.946
 8287SOL     OW25759   1.640   5.462   4.471
 8287SOL    HW125760   1.553   5.415   4.458
 8287SOL    HW225761   1.633   5.525   4.548
 8288SOL     OW25762   2.569   2.490   2.843
 8288SOL    HW125763   2.601   2.553   2.913
 8288SOL    HW225764   2.623   2.406   2.845
 8289SOL     OW25765   0.199   6.483   6.774
 8289SOL    HW125766   0.290   6.443   6.777
 8289SOL    HW225767   0.172   6.512   6.867
 8290SOL     OW25768   6.744   2.708   1.198
 8290SOL    HW125769   6.719   2.802   1.224
 8290SOL    HW225770   6.765   2.655   1.280
 8291SOL     OW25771   4.607   0.402   0.420
 8291SOL    HW125772   4.677   0.337   0.391
 8291SOL    HW225773   4.648   0.493   0.429
 8292SOL     OW25774   3.084   6.974   6.707
 8292SOL    HW125775   3.172   7.005   6.672
 8292SOL    HW225776   3.095   6.939   6.800
 8293SOL     OW25777   5.356   6.041   6.028
 8293SOL    HW125778   5.410   6.112   6.073
 8293SOL    HW225779   5.284   6.009   6.090
 8294SOL     OW25780   5.600   2.425   0.420
 8294SOL    HW125781   5.506   2.391   0.416
 8294SOL    HW225782   5.655   2.366   0.478
 8295SOL     OW25783   4.761   3.903   1.123
 8295SOL    HW125784   4.820   3.823   1.133
 8295SOL    HW225785   4.708   3.895   1.039
 8296SOL     OW25786   1.841   5.398   6.894
 8296SOL    HW125787   1.808   5.312   6.856
 8296SOL    HW225788   1.918   5.380   6.955
 8297SOL     OW25789   0.086   2.696   3.025
 8297SOL    HW125790   0.045   2.786   3.008
 8297SOL    HW225791   0.115   2.656   2.938
 8298SOL     OW25792   4.531   1.069   1.677
 8298SOL    HW125793   4.570   1.011   1.749
 8298SOL    HW225794   4.604   1.106   1.620
 8299SOL     OW25795   6.503   2.577   1.761
 8299SOL    HW125796   6.461   2.531   1.682
 8299SOL    HW225797   6.602   2.564   1.758
 8300SOL     OW25798   0.785   4.863   3.372
 8300SOL    HW125799   0.814   4.957   3.351
 8300SOL    HW225800   0.863   4.813   3.410
 8301SOL     OW25801   3.979   3.046   6.654
 8301SOL    HW125802   4.001   2.949   6.653
 8301SOL    HW225803   3.881   3.059   6.639
 8302SOL     OW25804   5.941   6.173   6.585
 8302SOL    HW125805   5.845   6.154   6.567
 8302SOL    HW225806   5.950   6.228   6.669
 8303SOL     OW25807   0.480   0.643   5.192
 8303SOL    HW125808   0.391   0.599   5.178
 8303SOL    HW225809   0.540   0.624   5.115
 8304SOL     OW25810   1.098   4.073   6.508
 8304SOL    HW125811   1.093   4.075   6.408
 8304SOL    HW225812   1.173   4.133   6.538
 8305SOL     OW25813   3.462   5.793   3.075
 8305SOL    HW125814   3.476   5.724   3.145
 8305SOL    HW225815   3.377   5.773   3.026
 8306SOL     OW25816   0.738   3.319   4.335
 8306SOL    HW125817   0.698   3.411   4.333
 8306SOL    HW225818   0.831   3.324   4.372
 8307SOL     OW25819   3.723   5.563   1.196
 8307SOL    HW125820   3.745   5.541   1.291
 8307SOL    HW225821   3.794   5.624   1.160
 8308SOL     OW25822   3.808   6.554   2.320
 8308SOL    HW125823   3.739   6.564   2.249
 8308SOL    HW225824   3.764   6.559   2.410
 8309SOL     OW25825   4.983   5.931   1.800
 8309SOL    HW125826   4.925   5.863   1.844
 8309SOL    HW225827   4.959   6.022   1.834
 8310SOL     OW25828   0.214   4.583   0.396
 8310SOL    HW125829   0.145   4.525   0.352
 8310SOL    HW225830   0.170   4.636   0.469
 8311SOL     OW25831   6.491   0.690   0.173
 8311SOL    HW125832   6.402   0.645   0.167
 8311SOL    HW225833   6.520   0.695   0.268
 8312SOL     OW25834   5.569   6.589   1.696
 8312SOL    HW125835   5.482   6.540   1.710
 8312SOL    HW225836   5.640   6.547   1.753
 8313SOL     OW25837   3.541   1.390   2.465
 8313SOL    HW125838   3.617   1.447   2.498
 8313SOL    HW225839   3.514   1.421   2.374
 8314SOL     OW25840   6.710   0.231   2.977
 8314SOL    HW125841   6.804   0.205   3.000
 8314SOL    HW225842   6.709   0.327   2.948
 8315SOL     OW25843   5.227   3.925   6.872
 8315SOL    HW125844   5.243   3.981   6.791
 8315SOL    HW225845   5.221   3.984   6.953
 8316SOL     OW25846   2.293   4.008   6.680
 8316SOL    HW125847   2.310   3.942   6.754
 8316SOL    HW225848   2.283   4.099   6.719
 8317SOL     OW25849   2.088   4.447   1.930
 8317SOL    HW125850   2.143   4.440   1.847
 8317SOL    HW225851   2.048   4.538   1.935
 8318SOL     OW25852   3.908   1.828   5.190
 8318SOL    HW125853   3.913   1.905   5.254
 8318SOL    HW225854   3.813   1.811   5.165
 8319SOL     OW25855   3.445   1.263   5.196
 8319SOL    HW125856   3.427   1.165   5.193
 8319SOL    HW225857   3.447   1.293   5.292
 8320SOL     OW25858   3.331   4.421   1.583
 8320SOL    HW125859   3.392   4.392   1.657
 8320SOL    HW225860   3.373   4.497   1.533
 8321SOL     OW25861   0.659   0.493   1.451
 8321SOL    HW125862   0.603   0.575   1.458
 8321SOL    HW225863   0.680   0.474   1.355
 8322SOL     OW25864   6.327   6.479   0.004
 8322SOL    HW125865   6.315   6.539   0.084
 8322SOL    HW225866   6.240   6.472   6.973
 8323SOL     OW25867   0.763   1.772   2.002
 8323SOL    HW125868   0.766   1.757   1.903
 8323SOL    HW225869   0.826   1.846   2.027
 8324SOL     OW25870   6.165   1.111   2.272
 8324SOL    HW125871   6.080   1.072   2.307
 8324SOL    HW225872   6.237   1.042   2.277
 8325SOL     OW25873   3.183   3.306   3.864
 8325SOL    HW125874   3.260   3.247   3.888
 8325SOL    HW225875   3.197   3.397   3.901
 8326SOL     OW25876   3.826   3.466   5.821
 8326SOL    HW125877   3.915   3.425   5.843
 8326SOL    HW225878   3.758   3.394   5.807
 8327SOL     OW25879   5.467   2.227   5.805
 8327SOL    HW125880   5.513   2.308   5.840
 8327SOL    HW225881   5.496   2.210   5.711
 8328SOL     OW25882   2.325   2.110   5.563
 8328SOL    HW125883   2.249   2.174   5.574
 8328SOL    HW225884   2.397   2.133   5.629
 8329SOL     OW25885   6.888   3.252   5.519
 8329SOL    HW125886   6.950   3.318   5.562
 8329SOL    HW225887   6.940   3.175   5.483
 8330SOL     OW25888   2.603   6.377   0.174
 8330SOL    HW125889   2.642   6.422   0.254
 8330SOL    HW225890   2.645   6.413   0.091
 8331SOL     OW25891   2.372   6.653   0.694
 8331SOL    HW125892   2.323   6.735   0.666
 8331SOL    HW225893   2.371   6.586   0.619
 8332SOL     OW25894   5.035   5.494   2.580
 8332SOL    HW125895   4.943   5.457   2.592
 8332SOL    HW225896   5.070   5.527   2.667
 8333SOL     OW25897   0.622   5.636   0.043
 8333SOL    HW125898   0.528   5.614   0.070
 8333SOL    HW225899   0.620   5.686   6.975
 8334SOL     OW25900   6.220   1.968   3.779
 8334SOL    HW125901   6.165   1.950   3.861
 8334SOL    HW225902   6.258   2.061   3.785
 8335SOL     OW25903   5.458   6.683   6.074
 8335SOL    HW125904   5.513   6.625   6.134
 8335SOL    HW225905   5.473   6.656   5.979
 8336SOL     OW25906   0.076   1.752   2.100
 8336SOL    HW125907   0.096   1.839   2.145
 8336SOL    HW225908   0.161   1.700   2.090
 8337SOL     OW25909   0.758   6.533   2.612
 8337SOL    HW125910   0.670   6.502   2.575
 8337SOL    HW225911   0.830   6.516   2.545
 8338SOL     OW25912   1.692   4.668   1.493
 8338SOL    HW125913   1.725   4.575   1.479
 8338SOL    HW225914   1.592   4.669   1.483
 8339SOL     OW25915   5.425   1.457   2.573
 8339SOL    HW125916   5.417   1.539   2.517
 8339SOL    HW225917   5.434   1.377   2.514
 8340SOL     OW25918   4.933   3.691   1.222
 8340SOL    HW125919   5.016   3.741   1.246
 8340SOL    HW225920   4.879   3.675   1.305
 8341SOL     OW25921   2.629   6.021   0.863
 8341SOL    HW125922   2.559   6.090   0.883
 8341SOL    HW225923   2.655   6.027   0.767
 8342SOL     OW25924   4.101   0.861   0.646
 8342SOL    HW125925   4.057   0.788   0.698
 8342SOL    HW225926   4.131   0.933   0.709
 8343SOL     OW25927   1.302   5.522   6.373
 8343SOL    HW125928   1.334   5.439   6.326
 8343SOL    HW225929   1.205   5.514   6.393
 8344SOL     OW25930   4.373   6.372   5.860
 8344SOL    HW125931   4.282   6.376   5.817
 8344SOL    HW225932   4.379   6.291   5.917
 8345SOL     OW25933   6.242   0.919   2.697
 8345SOL    HW125934   6.238   0.889   2.793
 8345SOL    HW225935   6.181   0.997   2.684
 8346SOL     OW25936   3.194   5.428   1.237
 8346SOL    HW125937   3.287   5.449   1.209
 8346SOL    HW225938   3.160   5.350   1.185
 8347SOL     OW25939   3.174   6.359   5.340
 8347SOL    HW125940   3.165   6.407   5.427
 8347SOL    HW225941   3.271   6.352   5.316
 8348SOL     OW25942   1.300   0.889   0.290
 8348SOL    HW125943   1.209   0.863   0.322
 8348SOL    HW225944   1.322   0.838   0.206
 8349SOL     OW25945   5.239   5.039   1.468
 8349SOL    HW125946   5.318   5.034   1.528
 8349SOL    HW225947   5.156   5.014   1.519
 8350SOL     OW25948   6.030   0.989   4.750
 8350SOL    HW125949   6.069   0.976   4.841
 8350SOL    HW225950   6.088   0.944   4.682
 8351SOL     OW25951   3.523   6.037   3.386
 8351SOL    HW125952   3.534   6.050   3.287
 8351SOL    HW225953   3.574   6.107   3.435
 8352SOL     OW25954   6.706   6.011   2.086
 8352SOL    HW125955   6.709   6.105   2.119
 8352SOL    HW225956   6.749   6.006   1.996
 8353SOL     OW25957   0.407   3.774   2.273
 8353SOL    HW125958   0.307   3.763   2.273
 8353SOL    HW225959   0.430   3.871   2.274
 8354SOL     OW25960   2.413   1.366   6.794
 8354SOL    HW125961   2.372   1.358   6.703
 8354SOL    HW225962   2.512   1.377   6.786
 8355SOL     OW25963   2.908   0.629   0.558
 8355SOL    HW125964   2.947   0.657   0.470
 8355SOL    HW225965   2.818   0.671   0.570
 8356SOL     OW25966   2.137   5.478   6.921
 8356SOL    HW125967   2.178   5.531   6.996
 8356SOL    HW225968   2.184   5.500   6.835
 8357SOL     OW25969   4.649   5.630   4.952
 8357SOL    HW125970   4.701   5.684   4.886
 8357SOL    HW225971   4.585   5.571   4.904
 8358SOL     OW25972   1.989   2.885   5.363
 8358SOL    HW125973   2.037   2.801   5.336
 8358SOL    HW225974   1.905   2.862   5.412
 8359SOL     OW25975   4.265   5.495   4.444
 8359SOL    HW125976   4.344   5.446   4.481
 8359SOL    HW225977   4.188   5.487   4.508
 8360SOL     OW25978   5.110   0.059   3.210
 8360SOL    HW125979   5.135   0.151   3.178
 8360SOL    HW225980   5.014   0.059   3.238
 8361SOL     OW25981   1.958   0.358   2.635
 8361SOL    HW125982   1.873   0.324   2.676
 8361SOL    HW225983   1.977   0.309   2.550
 8362SOL     OW25984   2.915   2.341   0.316
 8362SOL    HW125985   2.834   2.287   0.340
 8362SOL    HW225986   2.995   2.302   0.361
 8363SOL     OW25987   0.213   3.235   0.712
 8363SOL    HW125988   0.228   3.255   0.616
 8363SOL    HW225989   0.161   3.310   0.754
 8364SOL     OW25990   6.466   3.907   3.877
 8364SOL    HW125991   6.410   3.843   3.929
 8364SOL    HW225992   6.480   3.990   3.930
 8365SOL     OW25993   2.313   3.494   5.590
 8365SOL    HW125994   2.368   3.553   5.650
 8365SOL    HW225995   2.247   3.550   5.541
 8366SOL     OW25996   2.902   6.148   2.802
 8366SOL    HW125997   2.900   6.093   2.886
 8366SOL    HW225998   2.814   6.194   2.791
 8367SOL     OW25999   5.650   5.984   3.806
 8367SOL    HW126000   5.605   5.950   3.723
 8367SOL    HW226001   5.644   5.915   3.878
 8368SOL     OW26002   3.219   5.163   6.067
 8368SOL    HW126003   3.230   5.161   5.967
 8368SOL    HW226004   3.161   5.241   6.092
 8369SOL     OW26005   1.931   1.388   0.628
 8369SOL    HW126006   1.857   1.333   0.668
 8369SOL    HW226007   1.922   1.389   0.529
 8370SOL     OW26008   1.309   1.746   6.286
 8370SOL    HW126009   1.362   1.830   6.271
 8370SOL    HW226010   1.299   1.697   6.199
 8371SOL     OW26011   1.895   3.210   0.557
 8371SOL    HW126012   1.879   3.200   0.656
 8371SOL    HW226013   1.992   3.228   0.541
 8372SOL     OW26014   6.963   0.936   2.779
 8372SOL    HW126015   6.871   0.944   2.741
 8372SOL    HW226016   6.985   1.017   2.833
 8373SOL     OW26017   1.658   6.187   5.101
 8373SOL    HW126018   1.719   6.110   5.118
 8373SOL    HW226019   1.604   6.169   5.018
 8374SOL     OW26020   6.545   6.927   6.779
 8374SOL    HW126021   6.641   6.928   6.753
 8374SOL    HW226022   6.505   6.837   6.760
 8375SOL     OW26023   3.093   0.271   6.517
 8375SOL    HW126024   3.163   0.297   6.584
 8375SOL    HW226025   3.041   0.193   6.553
 8376SOL     OW26026   3.035   0.558   4.420
 8376SOL    HW126027   3.040   0.458   4.421
 8376SOL    HW226028   3.117   0.594   4.375
 8377SOL     OW26029   5.661   4.516   1.516
 8377SOL    HW126030   5.632   4.554   1.604
 8377SOL    HW226031   5.710   4.431   1.532
 8378SOL     OW26032   4.813   2.863   3.079
 8378SOL    HW126033   4.805   2.819   3.168
 8378SOL    HW226034   4.743   2.934   3.071
 8379SOL     OW26035   6.256   2.555   2.507
 8379SOL    HW126036   6.217   2.634   2.554
 8379SOL    HW226037   6.349   2.539   2.541
 8380SOL     OW26038   4.564   1.734   3.389
 8380SOL    HW126039   4.545   1.740   3.487
 8380SOL    HW226040   4.554   1.824   3.347
 8381SOL     OW26041   1.894   5.784   4.578
 8381SOL    HW126042   1.980   5.751   4.617
 8381SOL    HW226043   1.902   5.785   4.478
 8382SOL     OW26044   1.143   2.979   2.143
 8382SOL    HW126045   1.237   2.998   2.113
 8382SOL    HW226046   1.079   3.000   2.069
 8383SOL     OW26047   3.000   2.541   6.226
 8383SOL    HW126048   2.903   2.516   6.225
 8383SOL    HW226049   3.056   2.458   6.220
 8384SOL     OW26050   0.438   0.128   2.046
 8384SOL    HW126051   0.529   0.169   2.049
 8384SOL    HW226052   0.408   0.121   1.951
 8385SOL     OW26053   4.923   2.013   1.409
 8385SOL    HW126054   5.005   2.058   1.443
 8385SOL    HW226055   4.842   2.058   1.447
 8386SOL     OW26056   1.075   4.477   2.398
 8386SOL    HW126057   1.099   4.539   2.472
 8386SOL    HW226058   1.153   4.466   2.336
 8387SOL     OW26059   0.556   2.562   1.346
 8387SOL    HW126060   0.601   2.475   1.365
 8387SOL    HW226061   0.616   2.637   1.374
 8388SOL     OW26062   1.669   0.493   2.356
 8388SOL    HW126063   1.733   0.493   2.279
 8388SOL    HW226064   1.580   0.527   2.326
 8389SOL     OW26065   5.295   2.596   2.518
 8389SOL    HW126066   5.210   2.568   2.562
 8389SOL    HW226067   5.274   2.639   2.430
 8390SOL     OW26068   5.365   1.551   5.489
 8390SOL    HW126069   5.381   1.568   5.392
 8390SOL    HW226070   5.444   1.505   5.528
 8391SOL     OW26071   6.407   0.029   1.094
 8391SOL    HW126072   6.363   0.081   1.167
 8391SOL    HW226073   6.491   0.075   1.066
 8392SOL     OW26074   5.092   3.188   4.845
 8392SOL    HW126075   5.168   3.148   4.795
 8392SOL    HW226076   5.006   3.169   4.797
 8393SOL     OW26077   5.083   0.152   1.491
 8393SOL    HW126078   5.020   0.208   1.437
 8393SOL    HW226079   5.082   0.058   1.456
 8394SOL     OW26080   6.080   3.382   1.712
 8394SOL    HW126081   6.134   3.349   1.635
 8394SOL    HW226082   5.984   3.358   1.697
 8395SOL     OW26083   1.642   1.325   4.675
 8395SOL    HW126084   1.670   1.409   4.628
 8395SOL    HW226085   1.589   1.350   4.756
 8396SOL     OW26086   4.227   5.787   4.360
 8396SOL    HW126087   4.186   5.710   4.311
 8396SOL    HW226088   4.233   5.765   4.457
 8397SOL     OW26089   6.281   0.877   2.974
 8397SOL    HW126090   6.377   0.849   2.968
 8397SOL    HW226091   6.266   0.924   3.061
 8398SOL     OW26092   4.534   2.231   5.946
 8398SOL    HW126093   4.529   2.325   5.911
 8398SOL    HW226094   4.599   2.227   6.021
 8399SOL     OW26095   6.866   5.058   0.858
 8399SOL    HW126096   6.840   5.051   0.955
 8399SOL    HW226097   6.923   5.140   0.845
 8400SOL     OW26098   1.399   2.561   4.711
 8400SOL    HW126099   1.453   2.573   4.629
 8400SOL    HW226100   1.453   2.514   4.781
 8401SOL     OW26101   3.064   0.227   6.188
 8401SOL    HW126102   3.074   0.310   6.132
 8401SOL    HW226103   3.012   0.159   6.137
 8402SOL     OW26104   3.481   0.517   6.018
 8402SOL    HW126105   3.431   0.444   6.065
 8402SOL    HW226106   3.573   0.525   6.058
 8403SOL     OW26107   5.970   4.898   4.539
 8403SOL    HW126108   5.929   4.873   4.452
 8403SOL    HW226109   5.978   4.818   4.598
 8404SOL     OW26110   1.780   2.005   6.529
 8404SOL    HW126111   1.822   2.081   6.478
 8404SOL    HW226112   1.681   2.006   6.513
 8405SOL     OW26113   3.922   0.651   5.738
 8405SOL    HW126114   3.872   0.737   5.739
 8405SOL    HW226115   3.886   0.590   5.808
 8406SOL     OW26116   5.027   0.491   5.967
 8406SOL    HW126117   4.969   0.571   5.951
 8406SOL    HW226118   5.123   0.517   5.954
 8407SOL     OW26119   3.457   6.862   4.029
 8407SOL    HW126120   3.393   6.836   4.101
 8407SOL    HW226121   3.548   6.826   4.050
 8408SOL     OW26122   3.921   1.281   1.764
 8408SOL    HW126123   3.834   1.321   1.734
 8408SOL    HW226124   3.997   1.332   1.724
 8409SOL     OW26125   4.046   2.209   2.206
 8409SOL    HW126126   3.956   2.245   2.231
 8409SOL    HW226127   4.103   2.284   2.173
 8410SOL     OW26128   6.749   1.981   1.467
 8410SOL    HW126129   6.848   1.979   1.455
 8410SOL    HW226130   6.705   1.992   1.378
 8411SOL     OW26131   1.931   5.485   0.729
 8411SOL    HW126132   1.866   5.443   0.792
 8411SOL    HW226133   1.916   5.448   0.637
 8412SOL     OW26134   2.163   2.681   6.040
 8412SOL    HW126135   2.253   2.717   6.016
 8412SOL    HW226136   2.108   2.753   6.084
 8413SOL     OW26137   4.247   5.604   4.874
 8413SOL    HW126138   4.335   5.568   4.843
 8413SOL    HW226139   4.228   5.572   4.966
 8414SOL     OW26140   1.091   0.974   1.669
 8414SOL    HW126141   1.032   0.895   1.654
 8414SOL    HW226142   1.157   0.952   1.741
 8415SOL     OW26143   2.289   1.050   5.495
 8415SOL    HW126144   2.387   1.054   5.514
 8415SOL    HW226145   2.240   1.023   5.578
 8416SOL     OW26146   6.661   1.332   5.307
 8416SOL    HW126147   6.705   1.306   5.393
 8416SOL    HW226148   6.653   1.432   5.302
 8417SOL     OW26149   1.226   3.821   5.287
 8417SOL    HW126150   1.207   3.800   5.383
 8417SOL    HW226151   1.169   3.763   5.228
 8418SOL     OW26152   0.538   6.113   2.094
 8418SOL    HW126153   0.528   6.197   2.147
 8418SOL    HW226154   0.483   6.040   2.136
 8419SOL     OW26155   4.012   1.895   4.365
 8419SOL    HW126156   3.940   1.964   4.374
 8419SOL    HW226157   4.096   1.930   4.407
 8420SOL     OW26158   3.349   0.159   2.528
 8420SOL    HW126159   3.293   0.166   2.611
 8420SOL    HW226160   3.443   0.186   2.549
 8421SOL     OW26161   4.819   6.148   6.224
 8421SOL    HW126162   4.810   6.051   6.242
 8421SOL    HW226163   4.771   6.171   6.139
 8422SOL     OW26164   4.379   2.368   3.237
 8422SOL    HW126165   4.404   2.423   3.157
 8422SOL    HW226166   4.341   2.280   3.206
 8423SOL     OW26167   6.989   5.261   6.540
 8423SOL    HW126168   0.036   5.231   6.471
 8423SOL    HW226169   6.947   5.347   6.512
 8424SOL     OW26170   2.438   6.956   3.874
 8424SOL    HW126171   2.493   0.008   3.829
 8424SOL    HW226172   2.386   6.905   3.806
 8425SOL     OW26173   3.789   3.971   2.937
 8425SOL    HW126174   3.743   4.036   2.876
 8425SOL    HW226175   3.780   3.879   2.901
 8426SOL     OW26176   3.676   2.934   1.716
 8426SOL    HW126177   3.775   2.928   1.721
 8426SOL    HW226178   3.637   2.931   1.808
 8427SOL     OW26179   3.669   3.874   3.894
 8427SOL    HW126180   3.608   3.903   3.968
 8427SOL    HW226181   3.618   3.817   3.829
 8428SOL     OW26182   6.445   7.004   0.345
 8428SOL    HW126183   6.392   7.017   0.428
 8428SOL    HW226184   6.460   0.074   0.300
 8429SOL     OW26185   2.491   5.557   5.685
 8429SOL    HW126186   2.488   5.495   5.763
 8429SOL    HW226187   2.575   5.542   5.633
 8430SOL     OW26188   4.325   6.585   5.272
 8430SOL    HW126189   4.388   6.528   5.219
 8430SOL    HW226190   4.234   6.544   5.271
 8431SOL     OW26191   2.874   3.594   6.410
 8431SOL    HW126192   2.932   3.519   6.378
 8431SOL    HW226193   2.783   3.586   6.368
 8432SOL     OW26194   6.519   5.059   6.165
 8432SOL    HW126195   6.553   5.084   6.256
 8432SOL    HW226196   6.482   4.966   6.167
 8433SOL     OW26197   5.608   2.469   0.974
 8433SOL    HW126198   5.675   2.397   0.990
 8433SOL    HW226199   5.653   2.558   0.983
 8434SOL     OW26200   2.219   6.348   5.483
 8434SOL    HW126201   2.305   6.338   5.532
 8434SOL    HW226202   2.195   6.445   5.478
 8435SOL     OW26203   4.416   0.989   2.995
 8435SOL    HW126204   4.367   0.910   2.956
 8435SOL    HW226205   4.510   0.990   2.959
 8436SOL     OW26206   2.500   5.845   2.593
 8436SOL    HW126207   2.547   5.787   2.527
 8436SOL    HW226208   2.564   5.873   2.665
 8437SOL     OW26209   1.466   4.149   1.960
 8437SOL    HW126210   1.488   4.054   1.982
 8437SOL    HW226211   1.526   4.210   2.012
 8438SOL     OW26212   0.908   4.382   2.198
 8438SOL    HW126213   0.829   4.331   2.232
 8438SOL    HW226214   0.973   4.396   2.273
 8439SOL     OW26215   5.968   5.092   3.492
 8439SOL    HW126216   5.907   5.119   3.416
 8439SOL    HW226217   5.933   5.131   3.577
 8440SOL     OW26218   2.086   1.708   3.053
 8440SOL    HW126219   2.145   1.648   2.998
 8440SOL    HW226220   2.005   1.657   3.082
 8441SOL     OW26221   6.371   1.326   4.626
 8441SOL    HW126222   6.345   1.398   4.690
 8441SOL    HW226223   6.462   1.291   4.649
 8442SOL     OW26224   3.580   1.031   6.038
 8442SOL    HW126225   3.524   1.019   6.119
 8442SOL    HW226226   3.592   0.942   5.993
 8443SOL     OW26227   0.927   4.047   3.231
 8443SOL    HW126228   0.877   3.962   3.213
 8443SOL    HW226229   0.865   4.116   3.268
 8444SOL     OW26230   5.220   5.167   4.563
 8444SOL    HW126231   5.145   5.233   4.565
 8444SOL    HW226232   5.260   5.158   4.654
 8445SOL     OW26233   4.615   5.743   6.732
 8445SOL    HW126234   4.519   5.749   6.760
 8445SOL    HW226235   4.636   5.817   6.668
 8446SOL     OW26236   6.767   5.494   5.004
 8446SOL    HW126237   6.854   5.445   4.995
 8446SOL    HW226238   6.750   5.548   4.922
 8447SOL     OW26239   3.950   1.933   3.152
 8447SOL    HW126240   3.884   1.964   3.220
 8447SOL    HW226241   3.911   1.943   3.060
 8448SOL     OW26242   3.724   6.317   3.082
 8448SOL    HW126243   3.628   6.325   3.110
 8448SOL    HW226244   3.753   6.221   3.090
 8449SOL     OW26245   2.127   2.540   3.264
 8449SOL    HW126246   2.191   2.464   3.259
 8449SOL    HW226247   2.103   2.570   3.171
 8450SOL     OW26248   6.894   0.860   6.993
 8450SOL    HW126249   6.812   0.807   6.973
 8450SOL    HW226250   6.868   0.949   0.011
 8451SOL     OW26251   4.572   2.590   1.026
 8451SOL    HW126252   4.609   2.672   1.070
 8451SOL    HW226253   4.491   2.614   0.972
 8452SOL     OW26254   5.126   2.134   5.633
 8452SOL    HW126255   5.058   2.204   5.654
 8452SOL    HW226256   5.082   2.057   5.588
 8453SOL     OW26257   0.700   6.048   1.206
 8453SOL    HW126258   0.660   5.959   1.186
 8453SOL    HW226259   0.798   6.039   1.220
 8454SOL     OW26260   6.462   4.280   7.017
 8454SOL    HW126261   6.487   4.376   7.018
 8454SOL    HW226262   6.523   4.230   6.956
 8455SOL     OW26263   0.065   0.822   3.285
 8455SOL    HW126264   0.116   0.845   3.368
 8455SOL    HW226265   6.987   0.808   3.308
 8456SOL     OW26266   5.961   0.729   3.605
 8456SOL    HW126267   5.870   0.708   3.642
 8456SOL    HW226268   6.027   0.732   3.680
 8457SOL     OW26269   6.637   6.794   5.084
 8457SOL    HW126270   6.701   6.843   5.026
 8457SOL    HW226271   6.603   6.714   5.036
 8458SOL     OW26272   6.923   6.025   0.042
 8458SOL    HW126273   6.897   5.956   6.994
 8458SOL    HW226274   6.915   6.116   0.001
 8459SOL     OW26275   1.486   5.640   3.090
 8459SOL    HW126276   1.441   5.551   3.099
 8459SOL    HW226277   1.421   5.713   3.112
 8460SOL     OW26278   3.633   4.177   3.791
 8460SOL    HW126279   3.669   4.269   3.809
 8460SOL    HW226280   3.557   4.158   3.853
 8461SOL     OW26281   6.315   3.726   4.020
 8461SOL    HW126282   6.326   3.668   4.100
 8461SOL    HW226283   6.246   3.796   4.039
 8462SOL     OW26284   2.175   2.971   1.983
 8462SOL    HW126285   2.155   2.898   2.049
 8462SOL    HW226286   2.210   2.932   1.898
 8463SOL     OW26287   5.214   1.356   2.095
 8463SOL    HW126288   5.184   1.277   2.043
 8463SOL    HW226289   5.278   1.328   2.166
 8464SOL     OW26290   6.452   2.153   4.412
 8464SOL    HW126291   6.420   2.066   4.376
 8464SOL    HW226292   6.539   2.140   4.459
 8465SOL     OW26293   1.462   2.313   0.217
 8465SOL    HW126294   1.549   2.360   0.200
 8465SOL    HW226295   1.392   2.380   0.240
 8466SOL     OW26296   0.866   6.664   3.979
 8466SOL    HW126297   0.871   6.706   3.889
 8466SOL    HW226298   0.776   6.681   4.019
 8467SOL     OW26299   2.782   5.426   0.500
 8467SOL    HW126300   2.699   5.429   0.444
 8467SOL    HW226301   2.782   5.501   0.565
 8468SOL     OW26302   4.496   1.750   0.314
 8468SOL    HW126303   4.430   1.817   0.348
 8468SOL    HW226304   4.565   1.795   0.258
 8469SOL     OW26305   3.725   2.280   6.981
 8469SOL    HW126306   3.632   2.300   6.950
 8469SOL    HW226307   3.789   2.342   6.936
 8470SOL     OW26308   2.267   2.560   6.278
 8470SOL    HW126309   2.217   2.618   6.215
 8470SOL    HW226310   2.273   2.604   6.367
 8471SOL     OW26311   4.065   1.031   3.798
 8471SOL    HW126312   4.005   1.105   3.831
 8471SOL    HW226313   4.138   1.015   3.865
 8472SOL     OW26314   1.625   5.935   3.215
 8472SOL    HW126315   1.679   5.966   3.137
 8472SOL    HW226316   1.661   5.847   3.247
 8473SOL     OW26317   6.651   5.920   0.025
 8473SOL    HW126318   6.613   5.873   0.105
 8473SOL    HW226319   6.725   5.865   7.005
 8474SOL     OW26320   4.328   4.500   0.940
 8474SOL    HW126321   4.383   4.419   0.966
 8474SOL    HW226322   4.268   4.524   1.016
 8475SOL     OW26323   4.421   1.065   3.245
 8475SOL    HW126324   4.409   1.048   3.148
 8475SOL    HW226325   4.465   0.986   3.288
 8476SOL     OW26326   4.510   0.068   2.658
 8476SOL    HW126327   4.528   0.144   2.721
 8476SOL    HW226328   4.578   7.014   2.674
 8477SOL     OW26329   2.878   1.253   1.989
 8477SOL    HW126330   2.840   1.235   2.080
 8477SOL    HW226331   2.940   1.178   1.964
 8478SOL     OW26332   1.966   0.279   5.861
 8478SOL    HW126333   2.022   0.357   5.891
 8478SOL    HW226334   1.940   0.292   5.765
 8479SOL     OW26335   4.900   0.981   1.800
 8479SOL    HW126336   4.816   0.933   1.822
 8479SOL    HW226337   4.882   1.079   1.794
 8480SOL     OW26338   1.584   1.433   1.442
 8480SOL    HW126339   1.626   1.502   1.500
 8480SOL    HW226340   1.567   1.471   1.351
 8481SOL     OW26341   4.024   6.972   4.245
 8481SOL    HW126342   3.969   0.018   4.191
 8481SOL    HW226343   4.121   6.999   4.239
 8482SOL     OW26344   0.883   0.602   2.181
 8482SOL    HW126345   0.860   0.617   2.085
 8482SOL    HW226346   0.810   0.637   2.239
 8483SOL     OW26347   4.226   6.014   1.989
 8483SOL    HW126348   4.149   6.003   2.051
 8483SOL    HW226349   4.192   6.028   1.896
 8484SOL     OW26350   0.441   5.007   4.599
 8484SOL    HW126351   0.395   5.041   4.681
 8484SOL    HW226352   0.405   4.917   4.575
 8485SOL     OW26353   3.269   3.297   5.953
 8485SOL    HW126354   3.211   3.378   5.956
 8485SOL    HW226355   3.352   3.316   5.901
 8486SOL     OW26356   4.528   0.787   2.387
 8486SOL    HW126357   4.435   0.782   2.423
 8486SOL    HW226358   4.526   0.816   2.292
 8487SOL     OW26359   4.333   6.963   0.901
 8487SOL    HW126360   4.364   6.913   0.820
 8487SOL    HW226361   4.239   6.939   0.921
 8488SOL     OW26362   4.891   3.259   4.643
 8488SOL    HW126363   4.915   3.261   4.546
 8488SOL    HW226364   4.874   3.353   4.675
 8489SOL     OW26365   4.289   4.923   2.754
 8489SOL    HW126366   4.207   4.886   2.711
 8489SOL    HW226367   4.269   5.013   2.794
 8490SOL     OW26368   3.669   5.603   2.886
 8490SOL    HW126369   3.602   5.636   2.953
 8490SOL    HW226370   3.758   5.591   2.930
 8491SOL     OW26371   2.242   1.023   2.259
 8491SOL    HW126372   2.270   0.931   2.231
 8491SOL    HW226373   2.303   1.056   2.330
 8492SOL     OW26374   5.685   3.736   4.509
 8492SOL    HW126375   5.598   3.736   4.558
 8492SOL    HW226376   5.679   3.672   4.432
 8493SOL     OW26377   3.582   2.321   0.981
 8493SOL    HW126378   3.564   2.278   0.892
 8493SOL    HW226379   3.677   2.304   1.008
 8494SOL     OW26380   3.275   5.276   0.056
 8494SOL    HW126381   3.353   5.265   7.012
 8494SOL    HW226382   3.225   5.359   0.031
 8495SOL     OW26383   0.269   2.695   0.408
 8495SOL    HW126384   0.351   2.723   0.359
 8495SOL    HW226385   0.286   2.697   0.507
 8496SOL     OW26386   6.921   3.083   3.336
 8496SOL    HW126387   0.001   3.099   3.340
 8496SOL    HW226388   6.888   3.059   3.428
 8497SOL     OW26389   6.058   5.416   3.303
 8497SOL    HW126390   6.073   5.365   3.218
 8497SOL    HW226391   6.139   5.470   3.324
 8498SOL     OW26392   0.223   0.972   0.895
 8498SOL    HW126393   0.125   0.955   0.907
 8498SOL    HW226394   0.241   0.999   0.801
 8499SOL     OW26395   3.401   3.902   6.701
 8499SOL    HW126396   3.303   3.913   6.717
 8499SOL    HW226397   3.417   3.829   6.635
 8500SOL     OW26398   2.919   1.042   6.424
 8500SOL    HW126399   3.008   1.012   6.459
 8500SOL    HW226400   2.919   1.141   6.413
 8501SOL     OW26401   2.002   4.304   6.009
 8501SOL    HW126402   1.921   4.275   6.061
 8501SOL    HW226403   1.977   4.319   5.914
 8502SOL     OW26404   0.288   0.373   2.580
 8502SOL    HW126405   0.386   0.364   2.596
 8502SOL    HW226406   0.269   0.358   2.483
 8503SOL     OW26407   2.873   5.356   2.984
 8503SOL    HW126408   2.872   5.262   3.020
 8503SOL    HW226409   2.866   5.421   3.059
 8504SOL     OW26410   0.799   5.743   3.440
 8504SOL    HW126411   0.854   5.724   3.358
 8504SOL    HW226412   0.715   5.688   3.437
 8505SOL     OW26413   4.948   2.945   3.494
 8505SOL    HW126414   4.898   2.898   3.565
 8505SOL    HW226415   4.966   3.039   3.522
 8506SOL     OW26416   1.035   6.458   0.538
 8506SOL    HW126417   1.088   6.419   0.614
 8506SOL    HW226418   1.053   6.556   0.531
 8507SOL     OW26419   1.983   1.002   5.037
 8507SOL    HW126420   1.944   0.935   4.974
 8507SOL    HW226421   1.922   1.011   5.116
 8508SOL     OW26422   1.215   2.677   6.035
 8508SOL    HW126423   1.231   2.746   5.965
 8508SOL    HW226424   1.273   2.597   6.017
 8509SOL     OW26425   6.155   1.801   4.592
 8509SOL    HW126426   6.122   1.715   4.629
 8509SOL    HW226427   6.088   1.873   4.608
 8510SOL     OW26428   5.127   0.048   2.686
 8510SOL    HW126429   5.224   0.041   2.708
 8510SOL    HW226430   5.085   0.118   2.742
 8511SOL     OW26431   6.825   4.775   1.994
 8511SOL    HW126432   6.738   4.819   2.013
 8511SOL    HW226433   6.816   4.716   1.914
 8512SOL     OW26434   4.343   1.960   0.412
 8512SOL    HW126435   4.262   2.004   0.450
 8512SOL    HW226436   4.425   1.999   0.452
 8513SOL     OW26437   6.894   4.076   1.009
 8513SOL    HW126438   6.878   4.040   1.101
 8513SOL    HW226439   6.972   4.138   1.010
 8514SOL     OW26440   2.821   2.515   5.669
 8514SOL    HW126441   2.869   2.478   5.589
 8514SOL    HW226442   2.729   2.543   5.642
 8515SOL     OW26443   0.958   0.393   1.203
 8515SOL    HW126444   0.980   0.374   1.298
 8515SOL    HW226445   0.863   0.425   1.197
 8516SOL     OW26446   5.620   2.177   3.381
 8516SOL    HW126447   5.602   2.090   3.425
 8516SOL    HW226448   5.717   2.201   3.394
 8517SOL     OW26449   1.948   2.075   5.177
 8517SOL    HW126450   1.904   2.056   5.264
 8517SOL    HW226451   2.039   2.035   5.175
 8518SOL     OW26452   5.355   4.780   0.363
 8518SOL    HW126453   5.266   4.776   0.409
 8518SOL    HW226454   5.341   4.793   0.265
 8519SOL     OW26455   1.068   3.458   0.901
 8519SOL    HW126456   1.122   3.459   0.817
 8519SOL    HW226457   1.085   3.373   0.951
 8520SOL     OW26458   4.097   4.104   6.109
 8520SOL    HW126459   4.013   4.053   6.091
 8520SOL    HW226460   4.075   4.201   6.121
 8521SOL     OW26461   1.962   6.532   5.683
 8521SOL    HW126462   1.883   6.545   5.624
 8521SOL    HW226463   1.962   6.604   5.753
 8522SOL     OW26464   0.789   6.629   0.461
 8522SOL    HW126465   0.706   6.594   0.418
 8522SOL    HW226466   0.776   6.633   0.561
 8523SOL     OW26467   2.905   1.563   6.972
 8523SOL    HW126468   2.985   1.505   6.983
 8523SOL    HW226469   2.827   1.508   6.941
 8524SOL     OW26470   2.256   5.668   4.404
 8524SOL    HW126471   2.330   5.605   4.427
 8524SOL    HW226472   2.186   5.666   4.476
 8525SOL     OW26473   6.463   5.058   1.421
 8525SOL    HW126474   6.466   5.033   1.517
 8525SOL    HW226475   6.391   5.007   1.375
 8526SOL     OW26476   1.319   5.756   0.604
 8526SOL    HW126477   1.418   5.742   0.601
 8526SOL    HW226478   1.293   5.825   0.537
 8527SOL     OW26479   2.993   0.795   5.496
 8527SOL    HW126480   2.915   0.779   5.435
 8527SOL    HW226481   3.064   0.727   5.479
 8528SOL     OW26482   5.094   1.836   0.782
 8528SOL    HW126483   5.002   1.808   0.755
 8528SOL    HW226484   5.116   1.923   0.738
 8529SOL     OW26485   0.983   6.218   6.458
 8529SOL    HW126486   1.049   6.238   6.530
 8529SOL    HW226487   0.983   6.292   6.390
 8530SOL     OW26488   3.197   4.084   4.189
 8530SOL    HW126489   3.224   4.131   4.273
 8530SOL    HW226490   3.119   4.024   4.208
 8531SOL     OW26491   6.536   5.345   4.168
 8531SOL    HW126492   6.628   5.385   4.173
 8531SOL    HW226493   6.542   5.246   4.182
 8532SOL     OW26494   2.510   5.364   4.953
 8532SOL    HW126495   2.519   5.442   5.015
 8532SOL    HW226496   2.550   5.387   4.864
 8533SOL     OW26497   2.076   5.690   5.304
 8533SOL    HW126498   2.003   5.622   5.300
 8533SOL    HW226499   2.159   5.647   5.338
 8534SOL     OW26500   2.703   2.385   4.083
 8534SOL    HW126501   2.768   2.342   4.020
 8534SOL    HW226502   2.698   2.332   4.168
 8535SOL     OW26503   6.245   0.370   2.917
 8535SOL    HW126504   6.232   0.290   2.975
 8535SOL    HW226505   6.212   0.451   2.964
 8536SOL     OW26506   0.678   1.191   4.784
 8536SOL    HW126507   0.689   1.132   4.704
 8536SOL    HW226508   0.630   1.274   4.757
 8537SOL     OW26509   6.644   1.124   2.625
 8537SOL    HW126510   6.581   1.061   2.670
 8537SOL    HW226511   6.683   1.187   2.692
 8538SOL     OW26512   1.267   2.486   0.296
 8538SOL    HW126513   1.181   2.442   0.321
 8538SOL    HW226514   1.259   2.527   0.205
 8539SOL     OW26515   5.925   2.594   3.372
 8539SOL    HW126516   5.827   2.611   3.359
 8539SOL    HW226517   5.978   2.661   3.321
 8540SOL     OW26518   3.909   0.207   0.803
 8540SOL    HW126519   3.859   0.277   0.753
 8540SOL    HW226520   3.854   0.123   0.807
 8541SOL     OW26521   2.017   2.749   4.498
 8541SOL    HW126522   1.961   2.780   4.574
 8541SOL    HW226523   2.110   2.785   4.507
 8542SOL     OW26524   3.432   4.749   0.469
 8542SOL    HW126525   3.372   4.743   0.390
 8542SOL    HW226526   3.412   4.833   0.520
 8543SOL     OW26527   2.496   2.363   6.196
 8543SOL    HW126528   2.467   2.301   6.269
 8543SOL    HW226529   2.435   2.442   6.193
 8544SOL     OW26530   6.418   3.217   3.092
 8544SOL    HW126531   6.402   3.119   3.082
 8544SOL    HW226532   6.481   3.234   3.167
 8545SOL     OW26533   4.982   6.613   5.058
 8545SOL    HW126534   5.027   6.560   4.987
 8545SOL    HW226535   5.051   6.655   5.117
 8546SOL     OW26536   4.229   1.912   5.715
 8546SOL    HW126537   4.143   1.949   5.750
 8546SOL    HW226538   4.225   1.907   5.615
 8547SOL     OW26539   0.993   4.620   3.116
 8547SOL    HW126540   0.971   4.560   3.194
 8547SOL    HW226541   0.909   4.663   3.084
 8548SOL     OW26542   6.214   1.324   5.791
 8548SOL    HW126543   6.172   1.330   5.881
 8548SOL    HW226544   6.162   1.259   5.734
 8549SOL     OW26545   5.684   3.443   5.089
 8549SOL    HW126546   5.616   3.374   5.062
 8549SOL    HW226547   5.756   3.399   5.142
 8550SOL     OW26548   1.042   4.302   6.762
 8550SOL    HW126549   0.956   4.254   6.746
 8550SOL    HW226550   1.112   4.268   6.699
 8551SOL     OW26551   3.380   3.979   0.219
 8551SOL    HW126552   3.351   3.891   0.255
 8551SOL    HW226553   3.480   3.980   0.209
 8552SOL     OW26554   3.072   6.350   3.884
 8552SOL    HW126555   3.137   6.275   3.894
 8552SOL    HW226556   2.992   6.317   3.833
 8553SOL     OW26557   5.499   6.163   0.405
 8553SOL    HW126558   5.496   6.250   0.358
 8553SOL    HW226559   5.592   6.126   0.402
 8554SOL     OW26560   6.602   4.549   0.077
 8554SOL    HW126561   6.686   4.523   0.029
 8554SOL    HW226562   6.625   4.604   0.158
 8555SOL     OW26563   1.008   0.034   4.071
 8555SOL    HW126564   1.002   0.094   4.150
 8555SOL    HW226565   0.947   6.974   4.083
 8556SOL     OW26566   6.424   0.289   3.608
 8556SOL    HW126567   6.523   0.291   3.596
 8556SOL    HW226568   6.397   0.204   3.652
 8557SOL     OW26569   0.202   0.767   1.083
 8557SOL    HW126570   0.105   0.746   1.096
 8557SOL    HW226571   0.212   0.842   1.018
 8558SOL     OW26572   1.221   5.162   1.923
 8558SOL    HW126573   1.160   5.098   1.970
 8558SOL    HW226574   1.235   5.132   1.829
 8559SOL     OW26575   0.416   1.218   6.284
 8559SOL    HW126576   0.492   1.187   6.342
 8559SOL    HW226577   0.440   1.305   6.241
 8560SOL     OW26578   6.182   2.808   6.518
 8560SOL    HW126579   6.108   2.872   6.498
 8560SOL    HW226580   6.225   2.778   6.433
 8561SOL     OW26581   4.821   6.420   4.322
 8561SOL    HW126582   4.806   6.331   4.279
 8561SOL    HW226583   4.737   6.450   4.366
 8562SOL     OW26584   3.686   6.757   4.597
 8562SOL    HW126585   3.754   6.722   4.533
 8562SOL    HW226586   3.677   6.693   4.673
 8563SOL     OW26587   2.565   2.892   5.929
 8563SOL    HW126588   2.552   2.939   5.842
 8563SOL    HW226589   2.654   2.917   5.967
 8564SOL     OW26590   0.526   0.067   3.803
 8564SOL    HW126591   0.488   6.996   3.781
 8564SOL    HW226592   0.494   0.134   3.735
 8565SOL     OW26593   4.347   0.293   1.586
 8565SOL    HW126594   4.381   0.337   1.669
 8565SOL    HW226595   4.286   0.217   1.611
 8566SOL     OW26596   2.135   3.345   3.477
 8566SOL    HW126597   2.157   3.308   3.567
 8566SOL    HW226598   2.130   3.270   3.411
 8567SOL     OW26599   5.409   6.922   0.838
 8567SOL    HW126600   5.349   6.842   0.846
 8567SOL    HW226601   5.504   6.893   0.829
 8568SOL     OW26602   5.192   1.109   0.179
 8568SOL    HW126603   5.247   1.167   0.119
 8568SOL    HW226604   5.248   1.077   0.256
 8569SOL     OW26605   4.162   1.268   4.759
 8569SOL    HW126606   4.245   1.306   4.718
 8569SOL    HW226607   4.186   1.209   4.836
 8570SOL     OW26608   0.962   4.586   6.891
 8570SOL    HW126609   0.946   4.615   6.985
 8570SOL    HW226610   1.051   4.543   6.884
 8571SOL     OW26611   0.132   4.537   5.046
 8571SOL    HW126612   0.166   4.520   4.954
 8571SOL    HW226613   0.032   4.534   5.046
 8572SOL     OW26614   2.845   5.111   5.371
 8572SOL    HW126615   2.798   5.038   5.320
 8572SOL    HW226616   2.794   5.196   5.363
 8573SOL     OW26617   3.942   5.793   4.907
 8573SOL    HW126618   3.933   5.695   4.928
 8573SOL    HW226619   3.918   5.808   4.811
 8574SOL     OW26620   0.501   3.817   4.682
 8574SOL    HW126621   0.468   3.836   4.775
 8574SOL    HW226622   0.526   3.721   4.675
 8575SOL     OW26623   3.326   3.094   6.854
 8575SOL    HW126624   3.386   3.159   6.899
 8575SOL    HW226625   3.233   3.104   6.889
 8576SOL     OW26626   1.666   0.115   1.881
 8576SOL    HW126627   1.590   0.061   1.915
 8576SOL    HW226628   1.699   0.076   1.795
 8577SOL     OW26629   6.528   5.464   3.253
 8577SOL    HW126630   6.619   5.463   3.212
 8577SOL    HW226631   6.536   5.463   3.352
 8578SOL     OW26632   4.419   6.600   3.710
 8578SOL    HW126633   4.407   6.539   3.788
 8578SOL    HW226634   4.456   6.688   3.742
 8579SOL     OW26635   0.589   6.037   3.210
 8579SOL    HW126636   0.641   6.123   3.210
 8579SOL    HW226637   0.591   5.998   3.302
 8580SOL     OW26638   2.751   4.274   6.556
 8580SOL    HW126639   2.841   4.231   6.564
 8580SOL    HW226640   2.690   4.237   6.626
 8581SOL     OW26641   3.148   2.750   1.343
 8581SOL    HW126642   3.186   2.660   1.323
 8581SOL    HW226643   3.213   2.820   1.313
 8582SOL     OW26644   4.497   4.342   1.076
 8582SOL    HW126645   4.591   4.308   1.064
 8582SOL    HW226646   4.494   4.403   1.156
 8583SOL     OW26647   5.749   7.012   6.278
 8583SOL    HW126648   5.789   6.924   6.300
 8583SOL    HW226649   5.683   7.002   6.204
 8584SOL     OW26650   0.140   5.206   6.330
 8584SOL    HW126651   0.214   5.185   6.394
 8584SOL    HW226652   0.169   5.280   6.269
 8585SOL     OW26653   0.846   1.575   0.964
 8585SOL    HW126654   0.877   1.486   0.931
 8585SOL    HW226655   0.814   1.566   1.058
 8586SOL     OW26656   4.271   5.239   4.054
 8586SOL    HW126657   4.174   5.224   4.071
 8586SOL    HW226658   4.290   5.235   3.956
 8587SOL     OW26659   0.091   1.428   1.120
 8587SOL    HW126660   0.024   1.480   1.171
 8587SOL    HW226661   0.045   1.366   1.056
 8588SOL     OW26662   4.471   1.990   0.075
 8588SOL    HW126663   4.389   1.931   0.079
 8588SOL    HW226664   4.447   2.077   0.033
 8589SOL     OW26665   2.650   1.848   4.598
 8589SOL    HW126666   2.582   1.921   4.593
 8589SOL    HW226667   2.702   1.858   4.683
 8590SOL     OW26668   6.336   5.305   5.674
 8590SOL    HW126669   6.238   5.315   5.653
 8590SOL    HW226670   6.359   5.208   5.678
 8591SOL     OW26671   0.950   3.088   7.015
 8591SOL    HW126672   0.853   3.073   6.997
 8591SOL    HW226673   1.002   3.006   6.992
 8592SOL     OW26674   6.229   5.496   6.184
 8592SOL    HW126675   6.268   5.471   6.095
 8592SOL    HW226676   6.248   5.592   6.202
 8593SOL     OW26677   0.924   0.443   2.898
 8593SOL    HW126678   0.873   0.419   2.815
 8593SOL    HW226679   0.891   0.530   2.934
 8594SOL     OW26680   3.410   3.536   3.685
 8594SOL    HW126681   3.499   3.581   3.691
 8594SOL    HW226682   3.353   3.583   3.618
 8595SOL     OW26683   1.858   2.593   1.618
 8595SOL    HW126684   1.843   2.577   1.520
 8595SOL    HW226685   1.881   2.690   1.633
 8596SOL     OW26686   6.405   4.899   2.284
 8596SOL    HW126687   6.322   4.867   2.240
 8596SOL    HW226688   6.483   4.889   2.221
 8597SOL     OW26689   1.580   1.559   0.768
 8597SOL    HW126690   1.643   1.608   0.707
 8597SOL    HW226691   1.497   1.536   0.718
 8598SOL     OW26692   5.319   4.506   0.647
 8598SOL    HW126693   5.387   4.578   0.664
 8598SOL    HW226694   5.356   4.418   0.676
 8599SOL     OW26695   1.150   3.349   2.720
 8599SOL    HW126696   1.129   3.398   2.805
 8599SOL    HW226697   1.165   3.414   2.646
 8600SOL     OW26698   6.045   3.893   6.443
 8600SOL    HW126699   5.961   3.906   6.390
 8600SOL    HW226700   6.107   3.832   6.392
 8601SOL     OW26701   0.058   0.293   4.212
 8601SOL    HW126702   0.021   0.292   4.119
 8601SOL    HW226703   7.018   0.238   4.272
 8602SOL     OW26704   3.333   6.638   2.048
 8602SOL    HW126705   3.420   6.589   2.055
 8602SOL    HW226706   3.311   6.654   1.952
 8603SOL     OW26707   4.302   3.533   1.163
 8603SOL    HW126708   4.277   3.580   1.079
 8603SOL    HW226709   4.336   3.441   1.141
 8604SOL     OW26710   5.445   2.421   2.890
 8604SOL    HW126711   5.467   2.368   2.809
 8604SOL    HW226712   5.500   2.389   2.967
 8605SOL     OW26713   2.976   6.776   1.854
 8605SOL    HW126714   2.981   6.728   1.941
 8605SOL    HW226715   3.058   6.755   1.800
 8606SOL     OW26716   4.137   4.751   5.882
 8606SOL    HW126717   4.113   4.830   5.826
 8606SOL    HW226718   4.063   4.732   5.946
 8607SOL     OW26719   3.617   6.139   1.705
 8607SOL    HW126720   3.616   6.219   1.765
 8607SOL    HW226721   3.528   6.128   1.662
 8608SOL     OW26722   4.595   6.071   2.773
 8608SOL    HW126723   4.559   5.991   2.821
 8608SOL    HW226724   4.574   6.064   2.675
 8609SOL     OW26725   3.806   0.298   5.629
 8609SOL    HW126726   3.786   0.309   5.532
 8609SOL    HW226727   3.739   0.350   5.683
 8610SOL     OW26728   6.972   6.846   4.394
 8610SOL    HW126729   7.005   6.858   4.487
 8610SOL    HW226730   0.014   6.783   4.345
 8611SOL     OW26731   1.559   1.690   3.291
 8611SOL    HW126732   1.522   1.599   3.276
 8611SOL    HW226733   1.553   1.742   3.206
 8612SOL     OW26734   4.417   2.870   5.265
 8612SOL    HW126735   4.475   2.828   5.195
 8612SOL    HW226736   4.330   2.821   5.270
 8613SOL     OW26737   1.415   1.688   0.462
 8613SOL    HW126738   1.360   1.649   0.536
 8613SOL    HW226739   1.466   1.615   0.416
 8614SOL     OW26740   1.051   1.345   3.558
 8614SOL    HW126741   1.135   1.294   3.577
 8614SOL    HW226742   1.073   1.440   3.538
 8615SOL     OW26743   4.653   2.382   5.271
 8615SOL    HW126744   4.586   2.423   5.211
 8615SOL    HW226745   4.720   2.331   5.217
 8616SOL     OW26746   1.664   3.439   6.632
 8616SOL    HW126747   1.675   3.343   6.657
 8616SOL    HW226748   1.745   3.490   6.659
 8617SOL     OW26749   5.917   3.235   1.140
 8617SOL    HW126750   5.848   3.230   1.067
 8617SOL    HW226751   6.002   3.273   1.103
 8618SOL     OW26752   4.758   0.532   4.031
 8618SOL    HW126753   4.678   0.554   3.976
 8618SOL    HW226754   4.809   0.616   4.052
 8619SOL     OW26755   4.479   5.741   0.719
 8619SOL    HW126756   4.472   5.646   0.687
 8619SOL    HW226757   4.531   5.743   0.804
 8620SOL     OW26758   6.038   6.445   3.169
 8620SOL    HW126759   6.009   6.539   3.151
 8620SOL    HW226760   5.968   6.398   3.223
 8621SOL     OW26761   5.766   0.903   3.144
 8621SOL    HW126762   5.751   0.968   3.070
 8621SOL    HW226763   5.708   0.926   3.221
 8622SOL     OW26764   5.476   4.982   0.039
 8622SOL    HW126765   5.482   5.012   0.134
 8622SOL    HW226766   5.381   4.985   0.009
 8623SOL     OW26767   6.609   2.811   2.668
 8623SOL    HW126768   6.702   2.812   2.704
 8623SOL    HW226769   6.612   2.814   2.568
 8624SOL     OW26770   0.641   5.084   3.865
 8624SOL    HW126771   0.704   5.150   3.906
 8624SOL    HW226772   0.601   5.123   3.782
 8625SOL     OW26773   4.165   0.792   5.695
 8625SOL    HW126774   4.068   0.768   5.697
 8625SOL    HW226775   4.180   0.864   5.628
 8626SOL     OW26776   2.951   3.431   2.748
 8626SOL    HW126777   2.998   3.490   2.814
 8626SOL    HW226778   2.977   3.336   2.764
 8627SOL     OW26779   2.481   0.177   6.622
 8627SOL    HW126780   2.405   0.241   6.633
 8627SOL    HW226781   2.512   0.147   6.713
 8628SOL     OW26782   6.128   1.286   0.320
 8628SOL    HW126783   6.165   1.378   0.304
 8628SOL    HW226784   6.167   1.249   0.405
 8629SOL     OW26785   1.135   5.148   3.841
 8629SOL    HW126786   1.214   5.137   3.781
 8629SOL    HW226787   1.054   5.167   3.785
 8630SOL     OW26788   5.490   4.302   4.221
 8630SOL    HW126789   5.516   4.274   4.129
 8630SOL    HW226790   5.543   4.250   4.288
 8631SOL     OW26791   3.876   5.827   4.162
 8631SOL    HW126792   3.901   5.915   4.201
 8631SOL    HW226793   3.808   5.840   4.090
 8632SOL     OW26794   4.858   0.379   3.627
 8632SOL    HW126795   4.934   0.326   3.588
 8632SOL    HW226796   4.887   0.417   3.715
 8633SOL     OW26797   6.361   0.566   3.950
 8633SOL    HW126798   6.333   0.477   3.986
 8633SOL    HW226799   6.387   0.626   4.025
 8634SOL     OW26800   6.424   5.380   1.772
 8634SOL    HW126801   6.446   5.290   1.736
 8634SOL    HW226802   6.389   5.438   1.698
 8635SOL     OW26803   6.441   4.359   5.372
 8635SOL    HW126804   6.443   4.427   5.446
 8635SOL    HW226805   6.494   4.393   5.294
 8636SOL     OW26806   5.267   5.928   0.270
 8636SOL    HW126807   5.301   5.981   0.192
 8636SOL    HW226808   5.342   5.873   0.308
 8637SOL     OW26809   1.556   0.464   1.534
 8637SOL    HW126810   1.619   0.517   1.476
 8637SOL    HW226811   1.572   0.487   1.630
 8638SOL     OW26812   4.242   5.222   0.466
 8638SOL    HW126813   4.155   5.270   0.458
 8638SOL    HW226814   4.230   5.140   0.522
 8639SOL     OW26815   0.199   3.030   2.467
 8639SOL    HW126816   0.124   3.066   2.523
 8639SOL    HW226817   0.226   2.940   2.503
 8640SOL     OW26818   5.371   6.424   1.159
 8640SOL    HW126819   5.444   6.440   1.093
 8640SOL    HW226820   5.319   6.343   1.131
 8641SOL     OW26821   5.630   4.664   3.470
 8641SOL    HW126822   5.720   4.708   3.473
 8641SOL    HW226823   5.626   4.602   3.392
 8642SOL     OW26824   4.839   1.719   1.461
 8642SOL    HW126825   4.889   1.666   1.528
 8642SOL    HW226826   4.880   1.810   1.453
 8643SOL     OW26827   4.770   1.115   6.027
 8643SOL    HW126828   4.788   1.202   6.073
 8643SOL    HW226829   4.676   1.086   6.047
 8644SOL     OW26830   6.434   3.114   5.087
 8644SOL    HW126831   6.349   3.080   5.048
 8644SOL    HW226832   6.459   3.058   5.166
 8645SOL     OW26833   5.885   4.515   1.733
 8645SOL    HW126834   5.964   4.482   1.785
 8645SOL    HW226835   5.801   4.473   1.769
 8646SOL     OW26836   5.347   1.012   0.392
 8646SOL    HW126837   5.437   1.031   0.431
 8646SOL    HW226838   5.277   1.022   0.463
 8647SOL     OW26839   4.384   5.210   1.782
 8647SOL    HW126840   4.405   5.274   1.856
 8647SOL    HW226841   4.293   5.229   1.746
 8648SOL     OW26842   5.399   2.009   4.474
 8648SOL    HW126843   5.467   1.989   4.404
 8648SOL    HW226844   5.445   2.037   4.559
 8649SOL     OW26845   0.026   4.755   5.774
 8649SOL    HW126846   0.124   4.750   5.794
 8649SOL    HW226847   7.010   4.665   5.749
 8650SOL     OW26848   1.539   4.712   2.489
 8650SOL    HW126849   1.578   4.621   2.477
 8650SOL    HW226850   1.491   4.739   2.406
 8651SOL     OW26851   3.149   1.689   1.334
 8651SOL    HW126852   3.082   1.706   1.407
 8651SOL    HW226853   3.151   1.591   1.314
 8652SOL     OW26854   1.494   3.690   3.835
 8652SOL    HW126855   1.549   3.630   3.776
 8652SOL    HW226856   1.397   3.671   3.821
 8653SOL     OW26857   6.569   3.343   6.405
 8653SOL    HW126858   6.535   3.416   6.464
 8653SOL    HW226859   6.664   3.362   6.379
 8654SOL     OW26860   0.499   0.052   3.091
 8654SOL    HW126861   0.527   6.987   3.043
 8654SOL    HW226862   0.447   0.110   3.030
 8655SOL     OW26863   5.891   6.056   4.195
 8655SOL    HW126864   5.924   6.134   4.249
 8655SOL    HW226865   5.959   5.983   4.197
 8656SOL     OW26866   6.016   2.594   1.699
 8656SOL    HW126867   5.956   2.618   1.623
 8656SOL    HW226868   6.090   2.661   1.706
 8657SOL     OW26869   3.358   4.234   0.158
 8657SOL    HW126870   3.406   4.282   0.232
 8657SOL    HW226871   3.335   4.142   0.188
 8658SOL     OW26872   6.853   5.604   0.511
 8658SOL    HW126873   6.785   5.631   0.442
 8658SOL    HW226874   6.927   5.671   0.511
 8659SOL     OW26875   5.190   0.680   4.382
 8659SOL    HW126876   5.167   0.689   4.285
 8659SOL    HW226877   5.287   0.659   4.392
 8660SOL     OW26878   5.915   4.687   1.439
 8660SOL    HW126879   5.822   4.723   1.437
 8660SOL    HW226880   5.921   4.613   1.507
 8661SOL     OW26881   6.262   3.739   1.607
 8661SOL    HW126882   6.200   3.706   1.678
 8661SOL    HW226883   6.215   3.809   1.552
 8662SOL     OW26884   0.041   0.014   0.806
 8662SOL    HW126885   0.040   6.985   0.895
 8662SOL    HW226886   0.103   0.092   0.811
 8663SOL     OW26887   2.501   5.483   0.462
 8663SOL    HW126888   2.411   5.512   0.428
 8663SOL    HW226889   2.491   5.443   0.553
 8664SOL     OW26890   4.242   5.262   1.094
 8664SOL    HW126891   4.240   5.178   1.039
 8664SOL    HW226892   4.275   5.240   1.186
 8665SOL     OW26893   5.049   5.680   5.500
 8665SOL    HW126894   4.985   5.694   5.424
 8665SOL    HW226895   5.093   5.591   5.492
 8666SOL     OW26896   5.426   3.566   4.381
 8666SOL    HW126897   5.357   3.529   4.445
 8666SOL    HW226898   5.409   3.663   4.367
 8667SOL     OW26899   5.073   1.411   3.709
 8667SOL    HW126900   5.141   1.388   3.640
 8667SOL    HW226901   4.984   1.427   3.666
 8668SOL     OW26902   3.349   1.938   4.169
 8668SOL    HW126903   3.405   1.952   4.087
 8668SOL    HW226904   3.406   1.897   4.241
 8669SOL     OW26905   4.128   0.948   6.075
 8669SOL    HW126906   4.104   0.851   6.070
 8669SOL    HW226907   4.148   0.973   6.169
 8670SOL     OW26908   3.712   4.912   4.421
 8670SOL    HW126909   3.625   4.917   4.371
 8670SOL    HW226910   3.707   4.972   4.501
 8671SOL     OW26911   5.701   6.382   2.935
 8671SOL    HW126912   5.627   6.439   2.971
 8671SOL    HW226913   5.780   6.440   2.914
 8672SOL     OW26914   2.976   4.851   4.800
 8672SOL    HW126915   2.987   4.861   4.899
 8672SOL    HW226916   2.881   4.826   4.779
 8673SOL     OW26917   5.797   2.000   1.181
 8673SOL    HW126918   5.834   2.091   1.166
 8673SOL    HW226919   5.699   2.000   1.161
 8674SOL     OW26920   0.845   0.448   2.596
 8674SOL    HW126921   0.773   0.379   2.599
 8674SOL    HW226922   0.931   0.404   2.568
 8675SOL     OW26923   2.215   1.529   2.881
 8675SOL    HW126924   2.295   1.472   2.865
 8675SOL    HW226925   2.152   1.482   2.942
 8676SOL     OW26926   4.388   0.229   3.700
 8676SOL    HW126927   4.448   0.227   3.780
 8676SOL    HW226928   4.346   0.139   3.688
 8677SOL     OW26929   2.537   4.322   5.533
 8677SOL    HW126930   2.469   4.394   5.514
 8677SOL    HW226931   2.585   4.299   5.448
 8678SOL     OW26932   1.098   0.296   6.749
 8678SOL    HW126933   1.005   0.332   6.756
 8678SOL    HW226934   1.144   0.337   6.670
 8679SOL     OW26935   7.017   2.424   4.449
 8679SOL    HW126936   6.973   2.349   4.400
 8679SOL    HW226937   6.946   2.487   4.483
 8680SOL     OW26938   1.535   3.245   0.126
 8680SOL    HW126939   1.627   3.212   0.106
 8680SOL    HW226940   1.481   3.169   0.164
 8681SOL     OW26941   4.024   3.781   0.736
 8681SOL    HW126942   3.972   3.808   0.656
 8681SOL    HW226943   4.051   3.862   0.787
 8682SOL     OW26944   2.089   6.069   2.708
 8682SOL    HW126945   2.028   6.111   2.641
 8682SOL    HW226946   2.083   5.970   2.700
 8683SOL     OW26947   6.791   3.275   6.720
 8683SOL    HW126948   6.845   3.266   6.804
 8683SOL    HW226949   6.813   3.200   6.658
 8684SOL     OW26950   6.621   2.726   3.895
 8684SOL    HW126951   6.646   2.641   3.941
 8684SOL    HW226952   6.570   2.785   3.957
 8685SOL     OW26953   0.916   2.156   5.638
 8685SOL    HW126954   0.921   2.198   5.729
 8685SOL    HW226955   0.865   2.070   5.644
 8686SOL     OW26956   6.256   2.295   3.408
 8686SOL    HW126957   6.247   2.393   3.428
 8686SOL    HW226958   6.166   2.252   3.412
 8687SOL     OW26959   3.944   0.055   3.203
 8687SOL    HW126960   3.892   6.993   3.174
 8687SOL    HW226961   3.893   0.138   3.180
 8688SOL     OW26962   1.819   0.388   2.126
 8688SOL    HW126963   1.912   0.416   2.150
 8688SOL    HW226964   1.821   0.299   2.080
 8689SOL     OW26965   4.265   5.875   0.635
 8689SOL    HW126966   4.216   5.806   0.583
 8689SOL    HW226967   4.356   5.841   0.659
 8690SOL     OW26968   0.538   1.662   2.828
 8690SOL    HW126969   0.516   1.596   2.899
 8690SOL    HW226970   0.607   1.624   2.767
 8691SOL     OW26971   5.504   2.265   0.760
 8691SOL    HW126972   5.457   2.261   0.672
 8691SOL    HW226973   5.522   2.360   0.784
 8692SOL     OW26974   2.088   1.346   4.173
 8692SOL    HW126975   2.008   1.288   4.159
 8692SOL    HW226976   2.126   1.329   4.264
 8693SOL     OW26977   5.594   2.163   1.005
 8693SOL    HW126978   5.554   2.196   0.919
 8693SOL    HW226979   5.522   2.131   1.065
 8694SOL     OW26980   4.552   6.822   6.043
 8694SOL    HW126981   4.560   6.786   5.950
 8694SOL    HW226982   4.632   6.878   6.065
 8695SOL     OW26983   3.966   4.469   5.718
 8695SOL    HW126984   4.005   4.379   5.700
 8695SOL    HW226985   3.894   4.461   5.788
 8696SOL     OW26986   1.949   5.333   1.465
 8696SOL    HW126987   1.874   5.286   1.512
 8696SOL    HW226988   1.940   5.320   1.367
 8697SOL     OW26989   6.141   4.687   1.268
 8697SOL    HW126990   6.057   4.688   1.323
 8697SOL    HW226991   6.205   4.621   1.307
 8698SOL     OW26992   5.489   5.348   4.794
 8698SOL    HW126993   5.459   5.391   4.709
 8698SOL    HW226994   5.439   5.263   4.809
 8699SOL     OW26995   1.196   1.489   5.189
 8699SOL    HW126996   1.207   1.478   5.090
 8699SOL    HW226997   1.251   1.421   5.237
 8700SOL     OW26998   2.755   1.070   5.304
 8700SOL    HW126999   2.820   1.142   5.331
 8700SOL    HW227000   2.708   1.097   5.220
 8701SOL     OW27001   1.093   1.513   4.856
 8701SOL    HW127002   1.157   1.437   4.873
 8701SOL    HW227003   1.128   1.596   4.900
 8702SOL     OW27004   4.483   6.001   6.840
 8702SOL    HW127005   4.454   6.026   6.748
 8702SOL    HW227006   4.474   6.081   6.900
 8703SOL     OW27007   2.853   5.640   0.649
 8703SOL    HW127008   2.801   5.666   0.730
 8703SOL    HW227009   2.933   5.587   0.676
 8704SOL     OW27010   0.374   4.142   1.487
 8704SOL    HW127011   0.318   4.074   1.533
 8704SOL    HW227012   0.381   4.224   1.545
 8705SOL     OW27013   4.776   0.184   5.764
 8705SOL    HW127014   4.797   0.208   5.669
 8705SOL    HW227015   4.727   0.097   5.766
 8706SOL     OW27016   5.209   1.929   1.016
 8706SOL    HW127017   5.130   1.923   1.077
 8706SOL    HW227018   5.180   1.910   0.922
 8707SOL     OW27019   4.756   2.979   5.852
 8707SOL    HW127020   4.736   2.984   5.949
 8707SOL    HW227021   4.747   3.070   5.811
 8708SOL     OW27022   3.984   1.576   1.251
 8708SOL    HW127023   3.925   1.630   1.191
 8708SOL    HW227024   4.039   1.638   1.307
 8709SOL     OW27025   0.148   3.725   0.939
 8709SOL    HW127026   0.165   3.642   0.885
 8709SOL    HW227027   0.060   3.717   0.986
 8710SOL     OW27028   1.395   3.339   2.994
 8710SOL    HW127029   1.443   3.297   3.071
 8710SOL    HW227030   1.314   3.386   3.026
 8711SOL     OW27031   0.651   1.257   3.981
 8711SOL    HW127032   0.682   1.175   4.028
 8711SOL    HW227033   0.551   1.260   3.983
 8712SOL     OW27034   3.605   1.556   5.847
 8712SOL    HW127035   3.526   1.514   5.803
 8712SOL    HW227036   3.689   1.518   5.808
 8713SOL     OW27037   6.816   4.438   3.462
 8713SOL    HW127038   6.839   4.435   3.364
 8713SOL    HW227039   6.717   4.429   3.473
 8714SOL     OW27040   1.430   1.611   4.773
 8714SOL    HW127041   1.390   1.699   4.794
 8714SOL    HW227042   1.474   1.615   4.683
 8715SOL     OW27043   6.163   1.762   1.288
 8715SOL    HW127044   6.120   1.678   1.320
 8715SOL    HW227045   6.234   1.790   1.354
 8716SOL     OW27046   1.649   2.056   1.422
 8716SOL    HW127047   1.711   2.117   1.372
 8716SOL    HW227048   1.555   2.087   1.408
 8717SOL     OW27049   2.926   3.362   1.158
 8717SOL    HW127050   3.021   3.341   1.178
 8717SOL    HW227051   2.915   3.461   1.150
 8718SOL     OW27052   5.992   3.124   5.243
 8718SOL    HW127053   6.069   3.133   5.305
 8718SOL    HW227054   5.937   3.208   5.245
 8719SOL     OW27055   6.805   0.575   6.414
 8719SOL    HW127056   6.778   0.560   6.318
 8719SOL    HW227057   6.903   0.560   6.423
 8720SOL     OW27058   4.942   3.924   6.425
 8720SOL    HW127059   4.936   3.842   6.369
 8720SOL    HW227060   4.955   4.004   6.366
 8721SOL     OW27061   0.104   2.652   4.034
 8721SOL    HW127062   0.114   2.555   4.011
 8721SOL    HW227063   0.156   2.672   4.117
 8722SOL     OW27064   3.673   2.505   0.183
 8722SOL    HW127065   3.602   2.552   0.130
 8722SOL    HW227066   3.648   2.408   0.193
 8723SOL     OW27067   6.877   3.942   1.246
 8723SOL    HW127068   6.891   3.992   1.332
 8723SOL    HW227069   6.945   3.869   1.239
 8724SOL     OW27070   4.985   6.965   6.488
 8724SOL    HW127071   4.897   6.923   6.470
 8724SOL    HW227072   5.046   6.899   6.531
 8725SOL     OW27073   3.199   5.620   0.561
 8725SOL    HW127074   3.190   5.720   0.554
 8725SOL    HW227075   3.268   5.598   0.630
 8726SOL     OW27076   5.487   0.382   1.443
 8726SOL    HW127077   5.477   0.437   1.360
 8726SOL    HW227078   5.580   0.390   1.477
 8727SOL     OW27079   6.316   6.191   1.334
 8727SOL    HW127080   6.334   6.131   1.256
 8727SOL    HW227081   6.257   6.266   1.307
 8728SOL     OW27082   2.414   0.171   4.752
 8728SOL    HW127083   2.394   0.088   4.804
 8728SOL    HW227084   2.429   0.148   4.656
 8729SOL     OW27085   5.665   6.251   4.679
 8729SOL    HW127086   5.699   6.165   4.641
 8729SOL    HW227087   5.742   6.308   4.707
 8730SOL     OW27088   0.025   6.359   1.633
 8730SOL    HW127089   6.970   6.317   1.578
 8730SOL    HW227090   0.067   6.433   1.581
 8731SOL     OW27091   0.819   1.571   2.658
 8731SOL    HW127092   0.906   1.529   2.632
 8731SOL    HW227093   0.799   1.648   2.597
 8732SOL     OW27094   5.128   4.743   1.302
 8732SOL    HW127095   5.068   4.744   1.382
 8732SOL    HW227096   5.072   4.737   1.219
 8733SOL     OW27097   0.847   6.419   1.707
 8733SOL    HW127098   0.754   6.383   1.699
 8733SOL    HW227099   0.905   6.376   1.638
 8734SOL     OW27100   6.335   5.502   0.904
 8734SOL    HW127101   6.409   5.435   0.898
 8734SOL    HW227102   6.280   5.485   0.986
 8735SOL     OW27103   6.687   2.449   6.523
 8735SOL    HW127104   6.615   2.390   6.485
 8735SOL    HW227105   6.646   2.522   6.577
 8736SOL     OW27106   0.673   4.609   6.548
 8736SOL    HW127107   0.771   4.589   6.552
 8736SOL    HW227108   0.622   4.523   6.539
 8737SOL     OW27109   3.602   5.757   6.339
 8737SOL    HW127110   3.672   5.779   6.271
 8737SOL    HW227111   3.522   5.815   6.323
 8738SOL     OW27112   1.105   3.798   4.325
 8738SOL    HW127113   1.107   3.877   4.264
 8738SOL    HW227114   1.181   3.804   4.389
 8739SOL     OW27115   1.056   3.038   5.151
 8739SOL    HW127116   0.984   3.043   5.220
 8739SOL    HW227117   1.143   3.067   5.191
 8740SOL     OW27118   1.883   6.341   1.162
 8740SOL    HW127119   1.959   6.278   1.174
 8740SOL    HW227120   1.817   6.328   1.236
 8741SOL     OW27121   1.617   3.352   2.314
 8741SOL    HW127122   1.678   3.407   2.371
 8741SOL    HW227123   1.622   3.256   2.342
 8742SOL     OW27124   4.879   6.910   1.916
 8742SOL    HW127125   4.910   7.002   1.891
 8742SOL    HW227126   4.894   6.895   2.013
 8743SOL     OW27127   2.625   4.788   2.762
 8743SOL    HW127128   2.592   4.880   2.785
 8743SOL    HW227129   2.606   4.768   2.666
 8744SOL     OW27130   3.295   2.711   5.639
 8744SOL    HW127131   3.300   2.626   5.586
 8744SOL    HW227132   3.200   2.741   5.645
 8745SOL     OW27133   6.192   2.440   6.171
 8745SOL    HW127134   6.215   2.343   6.175
 8745SOL    HW227135   6.238   2.488   6.246
 8746SOL     OW27136   5.146   4.537   5.524
 8746SOL    HW127137   5.193   4.453   5.554
 8746SOL    HW227138   5.053   4.514   5.496
 8747SOL     OW27139   1.860   2.531   4.055
 8747SOL    HW127140   1.925   2.596   4.014
 8747SOL    HW227141   1.814   2.480   3.983
 8748SOL     OW27142   2.113   0.331   6.915
 8748SOL    HW127143   2.064   0.323   7.002
 8748SOL    HW227144   2.046   0.330   6.840
 8749SOL     OW27145   4.163   0.894   3.553
 8749SOL    HW127146   4.143   0.936   3.641
 8749SOL    HW227147   4.124   0.949   3.480
 8750SOL     OW27148   2.340   1.082   5.241
 8750SOL    HW127149   2.316   1.008   5.179
 8750SOL    HW227150   2.306   1.062   5.333
 8751SOL     OW27151   2.183   0.105   2.802
 8751SOL    HW127152   2.199   0.136   2.708
 8751SOL    HW227153   2.244   0.028   2.823
 8752SOL     OW27154   1.692   2.241   6.109
 8752SOL    HW127155   1.599   2.209   6.128
 8752SOL    HW227156   1.754   2.162   6.103
 8753SOL     OW27157   5.364   0.957   5.129
 8753SOL    HW127158   5.463   0.974   5.127
 8753SOL    HW227159   5.317   1.028   5.077
 8754SOL     OW27160   1.199   1.283   5.695
 8754SOL    HW127161   1.185   1.326   5.784
 8754SOL    HW227162   1.238   1.191   5.707
 8755SOL     OW27163   2.117   1.832   1.106
 8755SOL    HW127164   2.024   1.796   1.102
 8755SOL    HW227165   2.117   1.928   1.080
 8756SOL     OW27166   2.226   3.033   4.445
 8756SOL    HW127167   2.310   3.060   4.399
 8756SOL    HW227168   2.240   2.945   4.490
 8757SOL     OW27169   4.944   5.959   4.971
 8757SOL    HW127170   5.017   5.892   4.954
 8757SOL    HW227171   4.984   6.041   5.011
 8758SOL     OW27172   6.151   6.389   2.063
 8758SOL    HW127173   6.187   6.296   2.059
 8758SOL    HW227174   6.052   6.387   2.075
 8759SOL     OW27175   5.096   0.938   5.943
 8759SOL    HW127176   5.098   0.973   6.037
 8759SOL    HW227177   5.017   0.977   5.895
 8760SOL     OW27178   2.233   2.468   3.636
 8760SOL    HW127179   2.268   2.537   3.700
 8760SOL    HW227180   2.156   2.506   3.586
 8761SOL     OW27181   4.420   6.642   0.468
 8761SOL    HW127182   4.450   6.569   0.529
 8761SOL    HW227183   4.486   6.653   0.394
 8762SOL     OW27184   0.647   4.133   0.972
 8762SOL    HW127185   0.667   4.202   1.041
 8762SOL    HW227186   0.621   4.177   0.886
 8763SOL     OW27187   0.350   6.504   6.118
 8763SOL    HW127188   0.402   6.443   6.177
 8763SOL    HW227189   0.278   6.453   6.072
 8764SOL     OW27190   3.751   1.883   4.934
 8764SOL    HW127191   3.695   1.908   4.855
 8764SOL    HW227192   3.692   1.852   5.008
 8765SOL     OW27193   0.079   0.427   4.499
 8765SOL    HW127194   0.109   0.371   4.421
 8765SOL    HW227195   0.079   0.523   4.472
 8766SOL     OW27196   2.047   4.397   2.288
 8766SOL    HW127197   2.143   4.381   2.269
 8766SOL    HW227198   2.019   4.485   2.250
 8767SOL     OW27199   5.003   1.692   4.371
 8767SOL    HW127200   5.016   1.727   4.464
 8767SOL    HW227201   4.928   1.743   4.327
 8768SOL     OW27202   1.712   3.210   6.762
 8768SOL    HW127203   1.657   3.135   6.799
 8768SOL    HW227204   1.770   3.247   6.834
 8769SOL     OW27205   1.969   0.270   5.572
 8769SOL    HW127206   2.044   0.206   5.587
 8769SOL    HW227207   2.007   0.358   5.542
 8770SOL     OW27208   5.589   2.352   2.322
 8770SOL    HW127209   5.639   2.350   2.235
 8770SOL    HW227210   5.604   2.266   2.371
 8771SOL     OW27211   1.500   1.992   6.470
 8771SOL    HW127212   1.412   2.032   6.495
 8771SOL    HW227213   1.497   1.961   6.375
 8772SOL     OW27214   5.636   0.390   0.127
 8772SOL    HW127215   5.698   0.462   0.157
 8772SOL    HW227216   5.552   0.393   0.182
 8773SOL     OW27217   2.669   2.156   3.233
 8773SOL    HW127218   2.679   2.255   3.225
 8773SOL    HW227219   2.572   2.133   3.241
 8774SOL     OW27220   1.070   0.961   6.914
 8774SOL    HW127221   1.002   0.956   6.840
 8774SOL    HW227222   1.146   1.020   6.885
 8775SOL     OW27223   6.173   0.251   4.041
 8775SOL    HW127224   6.248   0.310   4.071
 8775SOL    HW227225   6.096   0.307   4.011
 8776SOL     OW27226   3.273   3.243   4.666
 8776SOL    HW127227   3.215   3.168   4.697
 8776SOL    HW227228   3.217   3.323   4.647
 8777SOL     OW27229   6.376   5.588   1.593
 8777SOL    HW127230   6.417   5.676   1.617
 8777SOL    HW227231   6.278   5.591   1.613
 8778SOL     OW27232   0.935   2.509   3.035
 8778SOL    HW127233   0.888   2.555   2.960
 8778SOL    HW227234   0.879   2.515   3.118
 8779SOL     OW27235   1.642   4.298   0.468
 8779SOL    HW127236   1.672   4.291   0.563
 8779SOL    HW227237   1.565   4.235   0.452
 8780SOL     OW27238   1.676   5.768   3.760
 8780SOL    HW127239   1.687   5.725   3.850
 8780SOL    HW227240   1.758   5.753   3.705
 8781SOL     OW27241   0.501   1.844   1.993
 8781SOL    HW127242   0.597   1.816   1.982
 8781SOL    HW227243   0.482   1.860   2.090
 8782SOL     OW27244   4.516   1.467   2.588
 8782SOL    HW127245   4.581   1.524   2.639
 8782SOL    HW227246   4.424   1.480   2.624
 8783SOL     OW27247   5.371   3.442   5.192
 8783SOL    HW127248   5.342   3.536   5.210
 8783SOL    HW227249   5.296   3.392   5.148
 8784SOL     OW27250   5.496   4.015   5.061
 8784SOL    HW127251   5.442   4.060   4.990
 8784SOL    HW227252   5.502   4.074   5.141
 8785SOL     OW27253   5.923   4.761   6.872
 8785SOL    HW127254   5.963   4.672   6.892
 8785SOL    HW227255   5.829   4.749   6.841
 8786SOL     OW27256   1.730   6.006   0.159
 8786SOL    HW127257   1.751   6.027   0.254
 8786SOL    HW227258   1.704   6.089   0.111
 8787SOL     OW27259   0.882   3.173   0.268
 8787SOL    HW127260   0.909   3.155   0.173
 8787SOL    HW227261   0.783   3.166   0.276
 8788SOL     OW27262   1.080   1.899   5.664
 8788SOL    HW127263   1.130   1.924   5.581
 8788SOL    HW227264   1.122   1.943   5.744
 8789SOL     OW27265   0.026   0.221   6.540
 8789SOL    HW127266   0.036   0.263   6.630
 8789SOL    HW227267   6.948   0.222   6.513
 8790SOL     OW27268   5.683   1.727   0.328
 8790SOL    HW127269   5.717   1.799   0.267
 8790SOL    HW227270   5.678   1.762   0.422
 8791SOL     OW27271   4.865   6.524   5.648
 8791SOL    HW127272   4.844   6.429   5.670
 8791SOL    HW227273   4.783   6.580   5.660
 8792SOL     OW27274   5.078   0.235   2.502
 8792SOL    HW127275   4.991   0.283   2.515
 8792SOL    HW227276   5.086   0.162   2.569
 8793SOL     OW27277   1.117   5.390   4.525
 8793SOL    HW127278   1.077   5.427   4.609
 8793SOL    HW227279   1.056   5.321   4.486
 8794SOL     OW27280   2.748   6.752   2.463
 8794SOL    HW127281   2.814   6.810   2.414
 8794SOL    HW227282   2.661   6.751   2.413
 8795SOL     OW27283   1.659   6.360   5.308
 8795SOL    HW127284   1.677   6.294   5.234
 8795SOL    HW227285   1.571   6.337   5.351
 8796SOL     OW27286   5.309   2.790   4.946
 8796SOL    HW127287   5.365   2.798   5.029
 8796SOL    HW227288   5.273   2.880   4.921
 8797SOL     OW27289   0.473   6.647   6.930
 8797SOL    HW127290   0.448   6.611   6.840
 8797SOL    HW227291   0.462   6.747   6.930
 8798SOL     OW27292   4.739   3.945   6.046
 8798SOL    HW127293   4.758   4.036   6.009
 8798SOL    HW227294   4.819   3.886   6.033
 8799SOL     OW27295   3.822   6.058   2.926
 8799SOL    HW127296   3.876   5.974   2.927
 8799SOL    HW227297   3.773   6.065   2.840
 8800SOL     OW27298   4.323   5.051   6.726
 8800SOL    HW127299   4.391   4.988   6.762
 8800SOL    HW227300   4.313   5.036   6.627
 8801SOL     OW27301   2.609   0.017   5.008
 8801SOL    HW127302   2.705   0.043   5.001
 8801SOL    HW227303   2.590   7.003   5.101
 8802SOL     OW27304   3.047   0.362   2.234
 8802SOL    HW127305   3.069   0.418   2.154
 8802SOL    HW227306   2.981   0.409   2.291
 8803SOL     OW27307   3.592   6.146   0.421
 8803SOL    HW127308   3.536   6.063   0.415
 8803SOL    HW227309   3.671   6.128   0.479
 8804SOL     OW27310   4.281   0.521   0.768
 8804SOL    HW127311   4.320   0.469   0.692
 8804SOL    HW227312   4.354   0.552   0.829
 8805SOL     OW27313   0.295   0.264   2.904
 8805SOL    HW127314   0.208   0.308   2.926
 8805SOL    HW227315   0.370   0.315   2.948
 8806SOL     OW27316   2.154   4.965   6.647
 8806SOL    HW127317   2.143   4.931   6.554
 8806SOL    HW227318   2.172   5.064   6.644
 8807SOL     OW27319   1.654   5.908   6.323
 8807SOL    HW127320   1.709   5.982   6.284
 8807SOL    HW227321   1.614   5.854   6.250
 8808SOL     OW27322   5.882   1.295   0.902
 8808SOL    HW127323   5.859   1.348   0.983
 8808SOL    HW227324   5.929   1.354   0.836
 8809SOL     OW27325   5.906   4.076   1.071
 8809SOL    HW127326   5.983   4.021   1.104
 8809SOL    HW227327   5.837   4.016   1.030
 8810SOL     OW27328   4.951   1.296   3.969
 8810SOL    HW127329   4.992   1.328   4.054
 8810SOL    HW227330   4.992   1.346   3.892
 8811SOL     OW27331   1.321   1.468   3.892
 8811SOL    HW127332   1.239   1.519   3.869
 8811SOL    HW227333   1.327   1.386   3.835
 8812SOL     OW27334   1.554   0.606   0.873
 8812SOL    HW127335   1.654   0.600   0.875
 8812SOL    HW227336   1.519   0.620   0.965
 8813SOL     OW27337   1.587   5.068   1.435
 8813SOL    HW127338   1.666   5.083   1.375
 8813SOL    HW227339   1.517   5.017   1.386
 8814SOL     OW27340   5.402   0.389   6.911
 8814SOL    HW127341   5.480   0.381   6.973
 8814SOL    HW227342   5.373   0.484   6.906
 8815SOL     OW27343   0.294   6.073   2.767
 8815SOL    HW127344   0.247   6.037   2.848
 8815SOL    HW227345   0.305   6.172   2.776
 8816SOL     OW27346   1.094   5.825   1.669
 8816SOL    HW127347   1.012   5.844   1.615
 8816SOL    HW227348   1.152   5.760   1.620
 8817SOL     OW27349   2.511   5.167   5.220
 8817SOL    HW127350   2.528   5.074   5.254
 8817SOL    HW227351   2.435   5.208   5.270
 8818SOL     OW27352   6.747   5.535   4.113
 8818SOL    HW127353   6.706   5.626   4.109
 8818SOL    HW227354   6.831   5.535   4.059
 8819SOL     OW27355   5.398   0.186   4.668
 8819SOL    HW127356   5.493   0.198   4.639
 8819SOL    HW227357   5.342   0.259   4.627
 8820SOL     OW27358   1.487   2.830   4.119
 8820SOL    HW127359   1.452   2.820   4.212
 8820SOL    HW227360   1.432   2.896   4.069
 8821SOL     OW27361   1.790   0.958   6.256
 8821SOL    HW127362   1.818   0.959   6.160
 8821SOL    HW227363   1.858   0.908   6.310
 8822SOL     OW27364   0.315   2.418   3.613
 8822SOL    HW127365   0.335   2.328   3.574
 8822SOL    HW227366   0.366   2.429   3.699
 8823SOL     OW27367   2.476   5.845   2.055
 8823SOL    HW127368   2.568   5.884   2.061
 8823SOL    HW227369   2.480   5.747   2.073
 8824SOL     OW27370   4.199   3.676   0.923
 8824SOL    HW127371   4.128   3.704   0.858
 8824SOL    HW227372   4.282   3.729   0.906
 8825SOL     OW27373   1.373   1.752   1.442
 8825SOL    HW127374   1.305   1.695   1.488
 8825SOL    HW227375   1.376   1.729   1.345
 8826SOL     OW27376   5.818   1.348   0.004
 8826SOL    HW127377   5.741   1.293   6.989
 8826SOL    HW227378   5.882   1.289   0.053
 8827SOL     OW27379   1.290   1.234   3.726
 8827SOL    HW127380   1.365   1.199   3.670
 8827SOL    HW227381   1.222   1.163   3.740
 8828SOL     OW27382   2.065   6.463   2.410
 8828SOL    HW127383   2.117   6.388   2.368
 8828SOL    HW227384   1.995   6.494   2.347
 8829SOL     OW27385   0.409   1.707   0.124
 8829SOL    HW127386   0.502   1.716   0.158
 8829SOL    HW227387   0.409   1.709   0.024
 8830SOL     OW27388   0.699   2.178   0.701
 8830SOL    HW127389   0.666   2.087   0.728
 8830SOL    HW227390   0.775   2.205   0.760
 8831SOL     OW27391   6.824   0.786   2.992
 8831SOL    HW127392   6.818   0.863   3.055
 8831SOL    HW227393   6.864   0.816   2.906
 8832SOL     OW27394   0.258   0.955   2.526
 8832SOL    HW127395   0.305   0.993   2.605
 8832SOL    HW227396   0.190   0.889   2.557
 8833SOL     OW27397   2.032   4.729   3.519
 8833SOL    HW127398   1.986   4.727   3.608
 8833SOL    HW227399   1.969   4.766   3.450
 8834SOL     OW27400   5.743   4.230   4.933
 8834SOL    HW127401   5.818   4.165   4.943
 8834SOL    HW227402   5.665   4.185   4.890
 8835SOL     OW27403   0.269   6.887   6.705
 8835SOL    HW127404   0.316   6.915   6.788
 8835SOL    HW227405   0.314   6.806   6.667
 8836SOL     OW27406   4.741   2.152   0.672
 8836SOL    HW127407   4.831   2.141   0.714
 8836SOL    HW227408   4.733   2.243   0.633
 8837SOL     OW27409   0.606   1.420   1.944
 8837SOL    HW127410   0.558   1.342   1.983
 8837SOL    HW227411   0.690   1.437   1.994
 8838SOL     OW27412   2.325   5.694   3.690
 8838SOL    HW127413   2.269   5.776   3.699
 8838SOL    HW227414   2.384   5.685   3.771
 8839SOL     OW27415   6.546   6.749   4.130
 8839SOL    HW127416   6.547   6.700   4.043
 8839SOL    HW227417   6.622   6.717   4.187
 8840SOL     OW27418   5.698   1.829   1.977
 8840SOL    HW127419   5.727   1.853   2.070
 8840SOL    HW227420   5.633   1.898   1.944
 8841SOL     OW27421   1.801   0.586   4.663
 8841SOL    HW127422   1.834   0.675   4.697
 8841SOL    HW227423   1.874   0.541   4.612
 8842SOL     OW27424   2.184   3.216   2.482
 8842SOL    HW127425   2.283   3.223   2.486
 8842SOL    HW227426   2.156   3.176   2.395
 8843SOL     OW27427   0.456   3.269   4.487
 8843SOL    HW127428   0.520   3.271   4.410
 8843SOL    HW227429   0.507   3.253   4.571
 8844SOL     OW27430   6.153   1.526   6.575
 8844SOL    HW127431   6.083   1.483   6.631
 8844SOL    HW227432   6.240   1.528   6.625
 8845SOL     OW27433   5.836   4.055   0.285
 8845SOL    HW127434   5.863   4.036   0.379
 8845SOL    HW227435   5.900   4.121   0.245
 8846SOL     OW27436   2.360   4.904   2.969
 8846SOL    HW127437   2.367   4.945   2.878
 8846SOL    HW227438   2.320   4.970   3.033
 8847SOL     OW27439   2.745   0.997   2.601
 8847SOL    HW127440   2.736   0.986   2.502
 8847SOL    HW227441   2.655   0.985   2.644
 8848SOL     OW27442   1.684   0.221   2.725
 8848SOL    HW127443   1.598   0.229   2.775
 8848SOL    HW227444   1.725   0.131   2.743
 8849SOL     OW27445   2.688   6.611   1.565
 8849SOL    HW127446   2.756   6.683   1.580
 8849SOL    HW227447   2.618   6.617   1.636
 8850SOL     OW27448   3.243   2.570   6.781
 8850SOL    HW127449   3.285   2.657   6.809
 8850SOL    HW227450   3.154   2.588   6.738
 8851SOL     OW27451   1.416   3.349   2.605
 8851SOL    HW127452   1.443   3.262   2.564
 8851SOL    HW227453   1.351   3.333   2.679
 8852SOL     OW27454   0.981   2.052   6.059
 8852SOL    HW127455   1.034   2.034   5.977
 8852SOL    HW227456   0.967   1.967   6.110
 8853SOL     OW27457   5.514   1.258   1.504
 8853SOL    HW127458   5.419   1.270   1.474
 8853SOL    HW227459   5.542   1.338   1.557
 8854SOL     OW27460   0.873   1.980   4.889
 8854SOL    HW127461   0.964   2.020   4.904
 8854SOL    HW227462   0.819   1.989   4.972
 8855SOL     OW27463   5.372   5.252   0.878
 8855SOL    HW127464   5.315   5.326   0.914
 8855SOL    HW227465   5.333   5.164   0.906
 8856SOL     OW27466   6.698   0.503   5.753
 8856SOL    HW127467   6.655   0.438   5.691
 8856SOL    HW227468   6.676   0.478   5.848
 8857SOL     OW27469   6.206   1.936   6.476
 8857SOL    HW127470   6.287   1.945   6.534
 8857SOL    HW227471   6.146   2.014   6.490
 8858SOL     OW27472   6.357   6.235   4.676
 8858SOL    HW127473   6.315   6.237   4.585
 8858SOL    HW227474   6.306   6.297   4.737
 8859SOL     OW27475   0.619   6.237   3.598
 8859SOL    HW127476   0.520   6.227   3.603
 8859SOL    HW227477   0.642   6.323   3.553
 8860SOL     OW27478   0.527   4.324   3.049
 8860SOL    HW127479   0.570   4.243   3.089
 8860SOL    HW227480   0.453   4.295   2.988
 8861SOL     OW27481   4.183   2.941   1.023
 8861SOL    HW127482   4.092   2.905   1.040
 8861SOL    HW227483   4.248   2.865   1.013
 8862SOL     OW27484   4.805   4.660   4.934
 8862SOL    HW127485   4.723   4.611   4.902
 8862SOL    HW227486   4.881   4.641   4.872
 8863SOL     OW27487   2.107   3.852   3.309
 8863SOL    HW127488   2.103   3.843   3.409
 8863SOL    HW227489   2.058   3.935   3.281
 8864SOL     OW27490   6.207   1.741   5.132
 8864SOL    HW127491   6.140   1.758   5.060
 8864SOL    HW227492   6.285   1.692   5.094
 8865SOL     OW27493   2.707   1.320   0.644
 8865SOL    HW127494   2.650   1.332   0.725
 8865SOL    HW227495   2.798   1.358   0.662
 8866SOL     OW27496   6.011   6.888   2.216
 8866SOL    HW127497   5.962   6.805   2.244
 8866SOL    HW227498   6.038   6.939   2.298
 8867SOL     OW27499   6.657   3.511   2.778
 8867SOL    HW127500   6.738   3.483   2.726
 8867SOL    HW227501   6.579   3.518   2.717
 8868SOL     OW27502   6.637   3.144   3.271
 8868SOL    HW127503   6.591   3.124   3.358
 8868SOL    HW227504   6.735   3.123   3.281
 8869SOL     OW27505   3.923   6.822   3.407
 8869SOL    HW127506   3.910   6.882   3.328
 8869SOL    HW227507   3.971   6.872   3.480
 8870SOL     OW27508   1.615   0.622   2.927
 8870SOL    HW127509   1.611   0.722   2.928
 8870SOL    HW227510   1.620   0.589   2.833
 8871SOL     OW27511   6.726   0.103   2.620
 8871SOL    HW127512   6.678   0.174   2.568
 8871SOL    HW227513   6.723   0.017   2.570
 8872SOL     OW27514   6.559   3.871   3.628
 8872SOL    HW127515   6.503   3.889   3.708
 8872SOL    HW227516   6.502   3.871   3.546
 8873SOL     OW27517   2.153   2.228   2.658
 8873SOL    HW127518   2.246   2.264   2.668
 8873SOL    HW227519   2.113   2.262   2.573
 8874SOL     OW27520   2.951   6.323   1.174
 8874SOL    HW127521   2.966   6.229   1.204
 8874SOL    HW227522   3.038   6.370   1.166
 8875SOL     OW27523   6.515   3.209   4.534
 8875SOL    HW127524   6.568   3.290   4.507
 8875SOL    HW227525   6.423   3.238   4.560
 8876SOL     OW27526   4.545   0.425   6.583
 8876SOL    HW127527   4.465   0.405   6.640
 8876SOL    HW227528   4.622   0.451   6.642
 8877SOL     OW27529   0.691   4.322   1.178
 8877SOL    HW127530   0.777   4.309   1.227
 8877SOL    HW227531   0.622   4.359   1.240
 8878SOL     OW27532   4.752   4.229   1.096
 8878SOL    HW127533   4.740   4.163   1.170
 8878SOL    HW227534   4.737   4.182   1.008
 8879SOL     OW27535   6.807   4.489   2.938
 8879SOL    HW127536   6.776   4.394   2.950
 8879SOL    HW227537   6.866   4.494   2.857
 8880SOL     OW27538   4.140   1.452   3.164
 8880SOL    HW127539   4.119   1.397   3.244
 8880SOL    HW227540   4.123   1.398   3.081
 8881SOL     OW27541   4.116   4.823   4.218
 8881SOL    HW127542   4.022   4.826   4.184
 8881SOL    HW227543   4.116   4.803   4.316
 8882SOL     OW27544   4.151   1.087   0.822
 8882SOL    HW127545   4.206   1.153   0.771
 8882SOL    HW227546   4.095   1.136   0.889
 8883SOL     OW27547   0.185   6.684   4.534
 8883SOL    HW127548   0.147   6.654   4.622
 8883SOL    HW227549   0.243   6.765   4.548
 8884SOL     OW27550   4.781   3.486   5.613
 8884SOL    HW127551   4.707   3.539   5.654
 8884SOL    HW227552   4.748   3.442   5.529
 8885SOL     OW27553   5.862   6.079   0.961
 8885SOL    HW127554   5.921   5.999   0.969
 8885SOL    HW227555   5.784   6.069   1.022
 8886SOL     OW27556   3.904   5.996   6.374
 8886SOL    HW127557   3.809   6.003   6.345
 8886SOL    HW227558   3.964   6.017   6.297
 8887SOL     OW27559   4.657   7.016   1.783
 8887SOL    HW127560   4.669   0.093   1.810
 8887SOL    HW227561   4.705   6.957   1.848
 8888SOL     OW27562   3.182   2.189   2.623
 8888SOL    HW127563   3.124   2.186   2.704
 8888SOL    HW227564   3.278   2.189   2.651
 8889SOL     OW27565   1.452   5.289   6.330
 8889SOL    HW127566   1.436   5.253   6.422
 8889SOL    HW227567   1.378   5.261   6.270
 8890SOL     OW27568   0.575   6.273   0.565
 8890SOL    HW127569   0.661   6.298   0.608
 8890SOL    HW227570   0.499   6.296   0.626
 8891SOL     OW27571   6.584   3.821   5.839
 8891SOL    HW127572   6.531   3.882   5.899
 8891SOL    HW227573   6.546   3.729   5.842
 8892SOL     OW27574   3.090   5.221   4.531
 8892SOL    HW127575   3.116   5.245   4.438
 8892SOL    HW227576   3.076   5.122   4.537
 8893SOL     OW27577   0.997   5.193   5.107
 8893SOL    HW127578   1.066   5.155   5.045
 8893SOL    HW227579   1.027   5.281   5.141
 8894SOL     OW27580   4.570   1.879   1.046
 8894SOL    HW127581   4.615   1.820   1.113
 8894SOL    HW227582   4.540   1.823   0.968
 8895SOL     OW27583   6.808   3.488   0.449
 8895SOL    HW127584   6.887   3.469   0.507
 8895SOL    HW227585   6.774   3.580   0.469
 8896SOL     OW27586   0.573   2.183   3.933
 8896SOL    HW127587   0.504   2.114   3.952
 8896SOL    HW227588   0.623   2.159   3.849
 8897SOL     OW27589   1.703   4.955   4.070
 8897SOL    HW127590   1.695   4.903   4.156
 8897SOL    HW227591   1.738   5.046   4.090
 8898SOL     OW27592   4.671   4.201   2.426
 8898SOL    HW127593   4.651   4.106   2.403
 8898SOL    HW227594   4.711   4.206   2.518
 8899SOL     OW27595   1.664   3.602   3.412
 8899SOL    HW127596   1.694   3.697   3.404
 8899SOL    HW227597   1.611   3.592   3.497
 8900SOL     OW27598   5.039   2.079   4.272
 8900SOL    HW127599   5.103   2.008   4.244
 8900SOL    HW227600   5.068   2.167   4.234
 8901SOL     OW27601   1.424   4.178   4.425
 8901SOL    HW127602   1.332   4.152   4.395
 8901SOL    HW227603   1.417   4.248   4.496
 8902SOL     OW27604   0.569   4.341   0.469
 8902SOL    HW127605   0.471   4.326   0.481
 8902SOL    HW227606   0.619   4.258   0.496
 8903SOL     OW27607   0.846   6.933   5.097
 8903SOL    HW127608   0.891   6.987   5.168
 8903SOL    HW227609   0.881   6.961   5.007
 8904SOL     OW27610   0.209   1.150   3.512
 8904SOL    HW127611   0.230   1.180   3.419
 8904SOL    HW227612   0.178   1.228   3.566
 8905SOL     OW27613   0.981   3.795   2.767
 8905SOL    HW127614   1.067   3.814   2.815
 8905SOL    HW227615   0.931   3.724   2.816
 8906SOL     OW27616   5.773   6.993   0.181
 8906SOL    HW127617   5.801   6.909   0.133
 8906SOL    HW227618   5.852   0.018   0.223
 8907SOL     OW27619   2.845   3.616   5.229
 8907SOL    HW127620   2.858   3.526   5.269
 8907SOL    HW227621   2.844   3.608   5.129
 8908SOL     OW27622   1.553   4.328   0.061
 8908SOL    HW127623   1.625   4.335   0.130
 8908SOL    HW227624   1.559   4.406   7.017
 8909SOL     OW27625   1.796   6.702   1.478
 8909SOL    HW127626   1.854   6.782   1.489
 8909SOL    HW227627   1.703   6.724   1.506
 8910SOL     OW27628   1.928   0.393   3.710
 8910SOL    HW127629   2.002   0.419   3.772
 8910SOL    HW227630   1.930   0.294   3.695
 8911SOL     OW27631   4.173   2.275   4.742
 8911SOL    HW127632   4.179   2.334   4.823
 8911SOL    HW227633   4.082   2.236   4.735
 8912SOL     OW27634   3.759   3.512   3.927
 8912SOL    HW127635   3.786   3.436   3.867
 8912SOL    HW227636   3.787   3.492   4.021
 8913SOL     OW27637   5.268   6.355   6.832
 8913SOL    HW127638   5.193   6.315   6.885
 8913SOL    HW227639   5.350   6.361   6.889
 8914SOL     OW27640   4.917   5.088   6.524
 8914SOL    HW127641   4.923   5.112   6.427
 8914SOL    HW227642   4.953   4.996   6.538
 8915SOL     OW27643   1.463   0.798   3.256
 8915SOL    HW127644   1.461   0.844   3.345
 8915SOL    HW227645   1.391   0.835   3.198
 8916SOL     OW27646   5.180   1.054   1.093
 8916SOL    HW127647   5.278   1.062   1.112
 8916SOL    HW227648   5.146   1.141   1.057
 8917SOL     OW27649   5.854   2.093   0.393
 8917SOL    HW127650   5.913   2.164   0.357
 8917SOL    HW227651   5.801   2.129   0.470
 8918SOL     OW27652   0.519   3.714   2.894
 8918SOL    HW127653   0.511   3.662   2.979
 8918SOL    HW227654   0.460   3.673   2.824
 8919SOL     OW27655   6.278   3.526   1.431
 8919SOL    HW127656   6.272   3.599   1.498
 8919SOL    HW227657   6.374   3.501   1.417
 8920SOL     OW27658   6.405   1.108   0.105
 8920SOL    HW127659   6.498   1.072   0.111
 8920SOL    HW227660   6.356   1.061   0.031
 8921SOL     OW27661   1.970   3.329   2.601
 8921SOL    HW127662   2.039   3.297   2.536
 8921SOL    HW227663   2.016   3.370   2.680
 8922SOL     OW27664   4.211   5.558   4.188
 8922SOL    HW127665   4.130   5.505   4.163
 8922SOL    HW227666   4.246   5.528   4.276
 8923SOL     OW27667   1.942   1.233   4.503
 8923SOL    HW127668   1.919   1.234   4.601
 8923SOL    HW227669   1.873   1.285   4.453
 8924SOL     OW27670   6.341   5.147   5.408
 8924SOL    HW127671   6.345   5.105   5.499
 8924SOL    HW227672   6.257   5.202   5.401
 8925SOL     OW27673   0.943   6.467   2.444
 8925SOL    HW127674   0.915   6.400   2.375
 8925SOL    HW227675   1.037   6.497   2.426
 8926SOL     OW27676   5.743   1.439   6.074
 8926SOL    HW127677   5.700   1.352   6.094
 8926SOL    HW227678   5.723   1.465   5.979
 8927SOL     OW27679   1.467   1.139   5.697
 8927SOL    HW127680   1.519   1.125   5.612
 8927SOL    HW227681   1.448   1.050   5.739
 8928SOL     OW27682   0.536   6.645   5.258
 8928SOL    HW127683   0.437   6.650   5.240
 8928SOL    HW227684   0.565   6.726   5.308
 8929SOL     OW27685   0.528   1.849   3.737
 8929SOL    HW127686   0.454   1.813   3.681
 8929SOL    HW227687   0.605   1.785   3.737
 8930SOL     OW27688   2.264   4.809   3.316
 8930SOL    HW127689   2.286   4.907   3.321
 8930SOL    HW227690   2.199   4.785   3.388
 8931SOL     OW27691   4.296   2.986   0.390
 8931SOL    HW127692   4.363   3.023   0.454
 8931SOL    HW227693   4.344   2.937   0.317
 8932SOL     OW27694   0.582   3.443   3.504
 8932SOL    HW127695   0.557   3.508   3.575
 8932SOL    HW227696   0.533   3.465   3.420
 8933SOL     OW27697   3.777   2.113   5.069
 8933SOL    HW127698   3.766   2.038   5.003
 8933SOL    HW227699   3.872   2.145   5.067
 8934SOL     OW27700   2.775   5.772   2.928
 8934SOL    HW127701   2.705   5.832   2.889
 8934SOL    HW227702   2.824   5.726   2.855
 8935SOL     OW27703   0.148   4.519   1.042
 8935SOL    HW127704   0.191   4.541   0.954
 8935SOL    HW227705   0.117   4.424   1.041
 8936SOL     OW27706   3.236   2.903   0.847
 8936SOL    HW127707   3.315   2.894   0.908
 8936SOL    HW227708   3.161   2.846   0.882
 8937SOL     OW27709   0.486   6.374   6.285
 8937SOL    HW127710   0.412   6.364   6.352
 8937SOL    HW227711   0.541   6.291   6.284
 8938SOL     OW27712   5.231   6.090   1.840
 8938SOL    HW127713   5.192   5.998   1.841
 8938SOL    HW227714   5.176   6.148   1.780
 8939SOL     OW27715   4.351   2.050   4.796
 8939SOL    HW127716   4.366   2.113   4.872
 8939SOL    HW227717   4.269   2.078   4.745
 8940SOL     OW27718   5.714   0.914   2.586
 8940SOL    HW127719   5.680   0.820   2.580
 8940SOL    HW227720   5.656   0.967   2.648
 8941SOL     OW27721   4.980   1.723   5.916
 8941SOL    HW127722   4.996   1.743   5.819
 8941SOL    HW227723   5.051   1.766   5.972
 8942SOL     OW27724   0.841   3.149   5.337
 8942SOL    HW127725   0.795   3.073   5.291
 8942SOL    HW227726   0.778   3.227   5.343
 8943SOL     OW27727   5.162   3.510   1.059
 8943SOL    HW127728   5.107   3.428   1.074
 8943SOL    HW227729   5.250   3.500   1.104
 8944SOL     OW27730   4.446   5.493   0.610
 8944SOL    HW127731   4.516   5.425   0.632
 8944SOL    HW227732   4.356   5.458   0.636
 8945SOL     OW27733   2.062   1.014   4.353
 8945SOL    HW127734   2.028   0.977   4.266
 8945SOL    HW227735   1.989   1.063   4.400
 8946SOL     OW27736   3.807   1.593   4.256
 8946SOL    HW127737   3.729   1.592   4.319
 8946SOL    HW227738   3.791   1.529   4.181
 8947SOL     OW27739   3.909   3.855   5.111
 8947SOL    HW127740   3.942   3.949   5.120
 8947SOL    HW227741   3.976   3.801   5.060
 8948SOL     OW27742   6.605   5.149   2.770
 8948SOL    HW127743   6.694   5.105   2.784
 8948SOL    HW227744   6.617   5.234   2.718
 8949SOL     OW27745   2.104   5.845   0.363
 8949SOL    HW127746   2.140   5.935   0.338
 8949SOL    HW227747   2.061   5.850   0.454
 8950SOL     OW27748   4.557   2.530   4.511
 8950SOL    HW127749   4.495   2.463   4.553
 8950SOL    HW227750   4.650   2.494   4.510
 8951SOL     OW27751   2.544   2.449   5.886
 8951SOL    HW127752   2.595   2.515   5.940
 8951SOL    HW227753   2.446   2.470   5.892
 8952SOL     OW27754   6.751   0.396   3.249
 8952SOL    HW127755   6.726   0.426   3.157
 8952SOL    HW227756   6.849   0.377   3.253
 8953SOL     OW27757   1.969   4.141   6.651
 8953SOL    HW127758   1.994   4.077   6.579
 8953SOL    HW227759   2.040   4.142   6.721
 8954SOL     OW27760   1.591   6.047   5.819
 8954SOL    HW127761   1.534   6.127   5.802
 8954SOL    HW227762   1.681   6.062   5.779
 8955SOL     OW27763   5.880   3.699   3.285
 8955SOL    HW127764   5.972   3.725   3.315
 8955SOL    HW227765   5.861   3.605   3.312
 8956SOL     OW27766   1.199   0.884   5.551
 8956SOL    HW127767   1.112   0.927   5.530
 8956SOL    HW227768   1.231   0.914   5.641
 8957SOL     OW27769   2.734   5.022   1.999
 8957SOL    HW127770   2.780   5.029   2.087
 8957SOL    HW227771   2.713   5.114   1.965
 8958SOL     OW27772   2.274   0.202   4.148
 8958SOL    HW127773   2.293   0.120   4.093
 8958SOL    HW227774   2.312   0.282   4.103
 8959SOL     OW27775   2.449   4.307   1.298
 8959SOL    HW127776   2.466   4.404   1.315
 8959SOL    HW227777   2.394   4.269   1.372
 8960SOL     OW27778   3.826   5.961   1.407
 8960SOL    HW127779   3.869   5.904   1.337
 8960SOL    HW227780   3.738   5.920   1.434
 8961SOL     OW27781   1.483   2.140   3.726
 8961SOL    HW127782   1.396   2.183   3.703
 8961SOL    HW227783   1.556   2.208   3.716
 8962SOL     OW27784   5.087   6.959   3.940
 8962SOL    HW127785   5.060   0.035   3.921
 8962SOL    HW227786   5.080   6.942   4.038
 8963SOL     OW27787   0.174   0.815   3.940
 8963SOL    HW127788   0.136   0.859   4.021
 8963SOL    HW227789   0.100   0.776   3.886
 8964SOL     OW27790   6.166   4.773   2.863
 8964SOL    HW127791   6.165   4.797   2.766
 8964SOL    HW227792   6.256   4.796   2.902
 8965SOL     OW27793   1.022   5.187   1.132
 8965SOL    HW127794   1.024   5.282   1.161
 8965SOL    HW227795   1.062   5.179   1.041
 8966SOL     OW27796   2.745   2.789   5.376
 8966SOL    HW127797   2.731   2.864   5.312
 8966SOL    HW227798   2.841   2.783   5.400
 8967SOL     OW27799   4.314   0.414   0.425
 8967SOL    HW127800   4.280   0.506   0.447
 8967SOL    HW227801   4.414   0.417   0.419
 8968SOL     OW27802   5.607   5.299   2.538
 8968SOL    HW127803   5.538   5.327   2.604
 8968SOL    HW227804   5.562   5.260   2.458
 8969SOL     OW27805   6.169   0.758   4.369
 8969SOL    HW127806   6.169   0.659   4.382
 8969SOL    HW227807   6.075   0.789   4.353
 8970SOL     OW27808   3.690   2.283   1.494
 8970SOL    HW127809   3.707   2.206   1.555
 8970SOL    HW227810   3.644   2.356   1.545
 8971SOL     OW27811   4.045   5.662   2.519
 8971SOL    HW127812   4.070   5.730   2.450
 8971SOL    HW227813   4.030   5.707   2.606
 8972SOL     OW27814   5.685   0.778   4.493
 8972SOL    HW127815   5.689   0.836   4.575
 8972SOL    HW227816   5.770   0.789   4.441
 8973SOL     OW27817   1.274   5.047   0.157
 8973SOL    HW127818   1.253   5.134   0.201
 8973SOL    HW227819   1.336   4.994   0.216
 8974SOL     OW27820   0.267   3.187   4.313
 8974SOL    HW127821   0.336   3.241   4.361
 8974SOL    HW227822   0.311   3.106   4.272
 8975SOL     OW27823   2.271   6.918   0.658
 8975SOL    HW127824   2.203   6.845   0.649
 8975SOL    HW227825   2.279   6.944   0.754
 8976SOL     OW27826   0.190   5.528   4.667
 8976SOL    HW127827   0.140   5.592   4.726
 8976SOL    HW227828   0.146   5.526   4.577
 8977SOL     OW27829   6.058   1.380   6.019
 8977SOL    HW127830   6.119   1.385   6.099
 8977SOL    HW227831   6.006   1.465   6.011
 8978SOL     OW27832   5.624   6.385   0.687
 8978SOL    HW127833   5.567   6.305   0.670
 8978SOL    HW227834   5.689   6.365   0.760
 8979SOL     OW27835   1.957   5.072   4.508
 8979SOL    HW127836   1.996   4.995   4.458
 8979SOL    HW227837   1.985   5.068   4.603
 8980SOL     OW27838   3.735   3.001   4.218
 8980SOL    HW127839   3.706   3.073   4.281
 8980SOL    HW227840   3.687   2.916   4.238
 8981SOL     OW27841   3.336   1.720   5.439
 8981SOL    HW127842   3.368   1.653   5.505
 8981SOL    HW227843   3.237   1.730   5.447
 8982SOL     OW27844   3.373   4.669   0.942
 8982SOL    HW127845   3.393   4.747   1.002
 8982SOL    HW227846   3.327   4.598   0.995
 8983SOL     OW27847   5.047   5.062   0.442
 8983SOL    HW127848   5.076   5.091   0.351
 8983SOL    HW227849   5.121   5.077   0.507
 8984SOL     OW27850   1.998   5.330   3.221
 8984SOL    HW127851   2.047   5.256   3.267
 8984SOL    HW227852   2.059   5.375   3.156
 8985SOL     OW27853   3.500   2.976   6.076
 8985SOL    HW127854   3.561   3.030   6.135
 8985SOL    HW227855   3.457   2.904   6.129
 8986SOL     OW27856   3.671   6.111   2.660
 8986SOL    HW127857   3.577   6.139   2.682
 8986SOL    HW227858   3.713   6.180   2.601
 8987SOL     OW27859   5.443   6.146   2.000
 8987SOL    HW127860   5.506   6.070   2.017
 8987SOL    HW227861   5.374   6.117   1.933
 8988SOL     OW27862   0.423   5.548   4.940
 8988SOL    HW127863   0.329   5.519   4.923
 8988SOL    HW227864   0.481   5.523   4.862
 8989SOL     OW27865   3.719   3.056   6.644
 8989SOL    HW127866   3.657   3.133   6.627
 8989SOL    HW227867   3.691   2.978   6.589
 8990SOL     OW27868   0.544   6.055   4.324
 8990SOL    HW127869   0.571   6.150   4.311
 8990SOL    HW227870   0.548   6.007   4.236
 8991SOL     OW27871   0.860   2.184   5.361
 8991SOL    HW127872   0.774   2.231   5.340
 8991SOL    HW227873   0.885   2.200   5.457
 8992SOL     OW27874   6.040   2.175   6.798
 8992SOL    HW127875   6.134   2.206   6.785
 8992SOL    HW227876   5.998   2.225   6.873
 8993SOL     OW27877   4.713   2.249   0.069
 8993SOL    HW127878   4.739   2.176   0.006
 8993SOL    HW227879   4.631   2.295   0.035
 8994SOL     OW27880   1.780   5.588   3.946
 8994SOL    HW127881   1.787   5.577   4.045
 8994SOL    HW227882   1.808   5.502   3.902
 8995SOL     OW27883   6.987   1.449   0.713
 8995SOL    HW127884   0.063   1.417   0.705
 8995SOL    HW227885   6.978   1.505   0.795
 8996SOL     OW27886   4.713   5.029   5.935
 8996SOL    HW127887   4.694   4.931   5.942
 8996SOL    HW227888   4.809   5.043   5.910
 8997SOL     OW27889   5.715   0.657   4.953
 8997SOL    HW127890   5.656   0.590   4.997
 8997SOL    HW227891   5.770   0.613   4.882
 8998SOL     OW27892   6.160   3.374   4.427
 8998SOL    HW127893   6.202   3.363   4.517
 8998SOL    HW227894   6.067   3.337   4.429
 8999SOL     OW27895   4.116   0.037   6.030
 8999SOL    HW127896   4.192   0.008   6.088
 8999SOL    HW227897   4.142   0.119   5.979
 9000SOL     OW27898   1.427   3.988   1.514
 9000SOL    HW127899   1.345   3.957   1.562
 9000SOL    HW227900   1.416   4.085   1.490
 9001SOL     OW27901   1.198   5.303   2.551
 9001SOL    HW127902   1.129   5.346   2.609
 9001SOL    HW227903   1.217   5.362   2.473
 9002SOL     OW27904   0.922   4.391   0.152
 9002SOL    HW127905   0.997   4.352   0.205
 9002SOL    HW227906   0.920   4.490   0.166
 9003SOL     OW27907   5.515   0.804   1.066
 9003SOL    HW127908   5.549   0.875   1.005
 9003SOL    HW227909   5.441   0.840   1.121
 9004SOL     OW27910   4.002   4.749   0.870
 9004SOL    HW127911   4.087   4.751   0.817
 9004SOL    HW227912   3.964   4.657   0.867
 9005SOL     OW27913   5.191   1.494   5.091
 9005SOL    HW127914   5.240   1.431   5.030
 9005SOL    HW227915   5.136   1.557   5.037
 9006SOL     OW27916   3.432   5.891   0.381
 9006SOL    HW127917   3.357   5.876   0.446
 9006SOL    HW227918   3.395   5.897   0.288
 9007SOL     OW27919   2.904   1.115   2.802
 9007SOL    HW127920   2.999   1.123   2.772
 9007SOL    HW227921   2.849   1.076   2.727
 9008SOL     OW27922   0.158   5.547   2.897
 9008SOL    HW127923   0.076   5.604   2.890
 9008SOL    HW227924   0.210   5.575   2.978
 9009SOL     OW27925   3.932   5.638   1.016
 9009SOL    HW127926   4.000   5.567   0.998
 9009SOL    HW227927   3.889   5.666   0.930
 9010SOL     OW27928   1.862   6.211   4.251
 9010SOL    HW127929   1.810   6.199   4.335
 9010SOL    HW227930   1.851   6.305   4.219
 9011SOL     OW27931   2.911   1.651   2.313
 9011SOL    HW127932   2.921   1.750   2.314
 9011SOL    HW227933   2.815   1.627   2.322
 9012SOL     OW27934   1.409   6.323   6.608
 9012SOL    HW127935   1.478   6.389   6.637
 9012SOL    HW227936   1.383   6.342   6.513
 9013SOL     OW27937   1.745   6.413   3.935
 9013SOL    HW127938   1.709   6.496   3.892
 9013SOL    HW227939   1.812   6.370   3.875
 9014SOL     OW27940   5.543   2.734   3.132
 9014SOL    HW127941   5.495   2.770   3.212
 9014SOL    HW227942   5.530   2.636   3.126
 9015SOL     OW27943   5.307   1.664   6.923
 9015SOL    HW127944   5.393   1.614   6.936
 9015SOL    HW227945   5.267   1.637   6.835
 9016SOL     OW27946   5.817   5.450   6.483
 9016SOL    HW127947   5.914   5.468   6.467
 9016SOL    HW227948   5.762   5.526   6.449
 9017SOL     OW27949   3.992   0.616   4.439
 9017SOL    HW127950   3.927   0.689   4.464
 9017SOL    HW227951   4.000   0.552   4.516
 9018SOL     OW27952   4.243   3.866   6.208
 9018SOL    HW127953   4.294   3.890   6.126
 9018SOL    HW227954   4.166   3.929   6.219
 9019SOL     OW27955   0.475   3.603   3.771
 9019SOL    HW127956   0.414   3.528   3.795
 9019SOL    HW227957   0.529   3.628   3.850
 9020SOL     OW27958   5.881   6.652   2.290
 9020SOL    HW127959   5.793   6.630   2.332
 9020SOL    HW227960   5.889   6.605   2.203
 9021SOL     OW27961   0.382   0.584   4.281
 9021SOL    HW127962   0.349   0.551   4.193
 9021SOL    HW227963   0.304   0.617   4.335
 9022SOL     OW27964   4.266   2.768   6.248
 9022SOL    HW127965   4.257   2.716   6.163
 9022SOL    HW227966   4.246   2.709   6.326
 9023SOL     OW27967   5.413   4.169   0.698
 9023SOL    HW127968   5.502   4.128   0.677
 9023SOL    HW227969   5.353   4.159   0.619
 9024SOL     OW27970   1.698   5.237   6.114
 9024SOL    HW127971   1.600   5.216   6.108
 9024SOL    HW227972   1.712   5.311   6.179
 9025SOL     OW27973   0.691   5.752   0.863
 9025SOL    HW127974   0.755   5.829   0.870
 9025SOL    HW227975   0.625   5.757   0.938
 9026SOL     OW27976   4.366   1.477   0.219
 9026SOL    HW127977   4.448   1.509   0.267
 9026SOL    HW227978   4.391   1.402   0.157
 9027SOL     OW27979   0.451   4.119   3.434
 9027SOL    HW127980   0.402   4.077   3.511
 9027SOL    HW227981   0.413   4.084   3.348
 9028SOL     OW27982   3.615   4.425   5.643
 9028SOL    HW127983   3.578   4.418   5.735
 9028SOL    HW227984   3.571   4.358   5.583
 9029SOL     OW27985   4.077   6.473   4.898
 9029SOL    HW127986   4.144   6.541   4.929
 9029SOL    HW227987   4.011   6.456   4.972
 9030SOL     OW27988   2.571   1.711   2.790
 9030SOL    HW127989   2.485   1.715   2.738
 9030SOL    HW227990   2.577   1.792   2.849
 9031SOL     OW27991   4.245   6.912   4.726
 9031SOL    HW127992   4.320   6.893   4.789
 9031SOL    HW227993   4.261   7.001   4.682
 9032SOL     OW27994   4.803   4.003   1.834
 9032SOL    HW127995   4.903   3.997   1.830
 9032SOL    HW227996   4.775   4.028   1.926
 9033SOL     OW27997   0.752   6.281   3.241
 9033SOL    HW127998   0.784   6.323   3.156
 9033SOL    HW227999   0.725   6.352   3.306
 9034SOL     OW28000   4.059   6.148   3.995
 9034SOL    HW128001   4.109   6.079   3.942
 9034SOL    HW228002   4.060   6.123   4.091
 9035SOL     OW28003   1.485   4.733   6.732
 9035SOL    HW128004   1.400   4.774   6.699
 9035SOL    HW228005   1.495   4.641   6.693
 9036SOL     OW28006   1.459   3.871   5.390
 9036SOL    HW128007   1.386   3.827   5.337
 9036SOL    HW228008   1.548   3.850   5.348
 9037SOL     OW28009   1.169   1.929   2.630
 9037SOL    HW128010   1.074   1.952   2.651
 9037SOL    HW228011   1.208   1.998   2.569
 9038SOL     OW28012   4.227   3.720   5.194
 9038SOL    HW128013   4.211   3.725   5.095
 9038SOL    HW228014   4.220   3.812   5.233
 9039SOL     OW28015   4.234   5.596   6.568
 9039SOL    HW128016   4.180   5.647   6.635
 9039SOL    HW228017   4.301   5.539   6.616
 9040SOL     OW28018   2.473   1.529   1.146
 9040SOL    HW128019   2.529   1.447   1.158
 9040SOL    HW228020   2.519   1.608   1.186
 9041SOL     OW28021   0.045   2.127   1.667
 9041SOL    HW128022   7.002   2.177   1.729
 9041SOL    HW228023   0.122   2.090   1.720
 9042SOL     OW28024   3.612   6.038   6.943
 9042SOL    HW128025   3.603   6.072   6.849
 9042SOL    HW228026   3.709   6.034   6.968
 9043SOL     OW28027   3.010   2.002   0.153
 9043SOL    HW128028   2.937   1.989   0.085
 9043SOL    HW228029   2.984   1.956   0.239
 9044SOL     OW28030   0.648   1.097   0.092
 9044SOL    HW128031   0.739   1.100   0.135
 9044SOL    HW228032   0.596   1.178   0.119
 9045SOL     OW28033   4.019   1.418   3.646
 9045SOL    HW128034   4.064   1.345   3.594
 9045SOL    HW228035   3.957   1.468   3.587
 9046SOL     OW28036   3.439   3.845   2.706
 9046SOL    HW128037   3.521   3.812   2.659
 9046SOL    HW228038   3.454   3.842   2.805
 9047SOL     OW28039   1.463   3.565   5.819
 9047SOL    HW128040   1.536   3.596   5.880
 9047SOL    HW228041   1.446   3.635   5.750
 9048SOL     OW28042   6.386   2.149   6.204
 9048SOL    HW128043   6.357   2.059   6.237
 9048SOL    HW228044   6.393   2.148   6.105
 9049SOL     OW28045   3.190   6.846   6.260
 9049SOL    HW128046   3.123   6.814   6.327
 9049SOL    HW228047   3.279   6.804   6.280
 9050SOL     OW28048   0.529   5.120   0.205
 9050SOL    HW128049   0.533   5.130   0.305
 9050SOL    HW228050   0.616   5.083   0.172
 9051SOL     OW28051   2.383   0.987   1.083
 9051SOL    HW128052   2.412   0.992   0.988
 9051SOL    HW228053   2.380   1.079   1.122
 9052SOL     OW28054   1.669   2.409   5.558
 9052SOL    HW128055   1.690   2.397   5.655
 9052SOL    HW228056   1.748   2.451   5.512
 9053SOL     OW28057   1.975   0.870   0.319
 9053SOL    HW128058   1.988   0.949   0.259
 9053SOL    HW228059   1.964   0.901   0.413
 9054SOL     OW28060   2.413   5.624   3.115
 9054SOL    HW128061   2.390   5.596   3.208
 9054SOL    HW228062   2.346   5.691   3.083
 9055SOL     OW28063   0.055   3.808   4.450
 9055SOL    HW128064   0.038   3.903   4.477
 9055SOL    HW228065   7.001   3.778   4.387
 9056SOL     OW28066   6.199   2.559   2.879
 9056SOL    HW128067   6.126   2.602   2.933
 9056SOL    HW228068   6.246   2.628   2.825
 9057SOL     OW28069   3.787   1.863   4.166
 9057SOL    HW128070   3.695   1.883   4.200
 9057SOL    HW228071   3.825   1.784   4.215
 9058SOL     OW28072   2.134   0.954   5.716
 9058SOL    HW128073   2.052   1.002   5.687
 9058SOL    HW228074   2.183   1.009   5.784
 9059SOL     OW28075   0.987   1.899   3.062
 9059SOL    HW128076   1.044   1.868   3.139
 9059SOL    HW228077   1.043   1.948   2.996
 9060SOL     OW28078   5.464   2.591   5.365
 9060SOL    HW128079   5.420   2.512   5.323
 9060SOL    HW228080   5.407   2.625   5.439
 9061SOL     OW28081   3.617   6.029   3.099
 9061SOL    HW128082   3.560   5.948   3.088
 9061SOL    HW228083   3.680   6.036   3.021
 9062SOL     OW28084   1.780   5.430   1.245
 9062SOL    HW128085   1.830   5.490   1.182
 9062SOL    HW228086   1.738   5.485   1.317
 9063SOL     OW28087   2.985   1.377   2.312
 9063SOL    HW128088   2.941   1.466   2.300
 9063SOL    HW228089   2.937   1.325   2.382
 9064SOL     OW28090   5.602   3.548   0.262
 9064SOL    HW128091   5.636   3.485   0.192
 9064SOL    HW228092   5.550   3.622   0.219
 9065SOL     OW28093   2.616   1.415   0.051
 9065SOL    HW128094   2.567   1.346   0.104
 9065SOL    HW228095   2.634   1.494   0.109
 9066SOL     OW28096   4.834   6.847   0.373
 9066SOL    HW128097   4.841   6.847   0.273
 9066SOL    HW228098   4.833   6.942   0.406
 9067SOL     OW28099   1.394   6.601   2.658
 9067SOL    HW128100   1.335   6.525   2.684
 9067SOL    HW228101   1.453   6.624   2.736
 9068SOL     OW28102   1.425   5.982   6.773
 9068SOL    HW128103   1.467   5.996   6.683
 9068SOL    HW228104   1.326   5.976   6.763
 9069SOL     OW28105   1.456   2.403   6.648
 9069SOL    HW128106   1.521   2.371   6.579
 9069SOL    HW228107   1.429   2.497   6.627
 9070SOL     OW28108   1.344   4.089   3.286
 9070SOL    HW128109   1.269   4.105   3.351
 9070SOL    HW228110   1.430   4.084   3.337
 9071SOL     OW28111   4.946   6.411   0.243
 9071SOL    HW128112   4.966   6.478   0.315
 9071SOL    HW228113   4.869   6.354   0.271
 9072SOL     OW28114   5.288   5.440   6.795
 9072SOL    HW128115   5.239   5.420   6.880
 9072SOL    HW228116   5.224   5.433   6.718
 9073SOL     OW28117   1.981   0.543   1.762
 9073SOL    HW128118   1.997   0.549   1.664
 9073SOL    HW228119   1.883   0.539   1.780
 9074SOL     OW28120   1.019   0.017   3.311
 9074SOL    HW128121   0.970   0.070   3.380
 9074SOL    HW228122   1.117   0.029   3.323
 9075SOL     OW28123   0.889   0.857   2.721
 9075SOL    HW128124   0.934   0.889   2.638
 9075SOL    HW228125   0.811   0.798   2.696
 9076SOL     OW28126   6.637   1.590   5.262
 9076SOL    HW128127   6.697   1.643   5.203
 9076SOL    HW228128   6.618   1.641   5.346
 9077SOL     OW28129   5.809   6.544   2.036
 9077SOL    HW128130   5.780   6.450   2.055
 9077SOL    HW228131   5.861   6.546   1.950
 9078SOL     OW28132   3.317   2.877   4.898
 9078SOL    HW128133   3.408   2.885   4.937
 9078SOL    HW228134   3.275   2.791   4.928
 9079SOL     OW28135   3.586   0.767   5.901
 9079SOL    HW128136   3.665   0.785   5.844
 9079SOL    HW228137   3.535   0.690   5.864
 9080SOL     OW28138   5.001   1.564   0.839
 9080SOL    HW128139   4.945   1.604   0.767
 9080SOL    HW228140   5.097   1.585   0.823
 9081SOL     OW28141   5.478   0.093   2.391
 9081SOL    HW128142   5.563   0.135   2.361
 9081SOL    HW228143   5.443   0.032   2.320
 9082SOL     OW28144   3.257   0.816   3.401
 9082SOL    HW128145   3.277   0.900   3.452
 9082SOL    HW228146   3.330   0.800   3.335
 9083SOL     OW28147   4.613   4.827   4.709
 9083SOL    HW128148   4.558   4.791   4.785
 9083SOL    HW228149   4.654   4.750   4.659
 9084SOL     OW28150   3.607   3.118   3.026
 9084SOL    HW128151   3.567   3.124   2.934
 9084SOL    HW228152   3.600   3.025   3.060
 9085SOL     OW28153   1.567   2.001   0.871
 9085SOL    HW128154   1.579   2.056   0.954
 9085SOL    HW228155   1.655   1.991   0.824
 9086SOL     OW28156   0.423   3.990   0.351
 9086SOL    HW128157   0.469   4.038   0.276
 9086SOL    HW228158   0.325   4.013   0.350
 9087SOL     OW28159   4.970   3.749   1.944
 9087SOL    HW128160   4.949   3.708   2.033
 9087SOL    HW228161   4.896   3.730   1.880
 9088SOL     OW28162   5.292   6.674   0.834
 9088SOL    HW128163   5.236   6.622   0.899
 9088SOL    HW228164   5.277   6.638   0.741
 9089SOL     OW28165   4.199   0.275   5.871
 9089SOL    HW128166   4.209   0.238   5.778
 9089SOL    HW228167   4.167   0.370   5.865
 9090SOL     OW28168   5.711   1.440   3.375
 9090SOL    HW128169   5.746   1.423   3.467
 9090SOL    HW228170   5.611   1.442   3.376
 9091SOL     OW28171   3.015   2.691   6.714
 9091SOL    HW128172   2.949   2.662   6.645
 9091SOL    HW228173   3.011   2.790   6.724
 9092SOL     OW28174   0.012   2.845   6.264
 9092SOL    HW128175   0.025   2.746   6.254
 9092SOL    HW228176   0.086   2.882   6.321
 9093SOL     OW28177   1.995   6.246   5.324
 9093SOL    HW128178   2.073   6.266   5.384
 9093SOL    HW228179   1.970   6.150   5.332
 9094SOL     OW28180   0.760   3.721   1.568
 9094SOL    HW128181   0.804   3.784   1.504
 9094SOL    HW228182   0.661   3.725   1.557
 9095SOL     OW28183   6.700   6.478   5.562
 9095SOL    HW128184   6.672   6.392   5.520
 9095SOL    HW228185   6.691   6.552   5.496
 9096SOL     OW28186   6.609   5.254   3.932
 9096SOL    HW128187   6.671   5.328   3.906
 9096SOL    HW228188   6.573   5.273   4.024
 9097SOL     OW28189   1.213   2.172   6.282
 9097SOL    HW128190   1.182   2.136   6.370
 9097SOL    HW228191   1.135   2.177   6.219
 9098SOL     OW28192   2.133   4.394   3.873
 9098SOL    HW128193   2.191   4.387   3.954
 9098SOL    HW228194   2.187   4.430   3.797
 9099SOL     OW28195   2.149   2.177   0.182
 9099SOL    HW128196   2.121   2.262   0.139
 9099SOL    HW228197   2.190   2.196   0.271
 9100SOL     OW28198   1.286   4.396   3.421
 9100SOL    HW128199   1.258   4.300   3.427
 9100SOL    HW228200   1.297   4.434   3.513
 9101SOL     OW28201   0.885   2.802   0.328
 9101SOL    HW128202   0.831   2.793   0.244
 9101SOL    HW228203   0.981   2.812   0.305
 9102SOL     OW28204   4.072   6.823   2.936
 9102SOL    HW128205   4.111   6.756   2.873
 9102SOL    HW228206   4.143   6.889   2.962
 9103SOL     OW28207   6.387   0.877   1.096
 9103SOL    HW128208   6.445   0.863   1.015
 9103SOL    HW228209   6.442   0.862   1.179
 9104SOL     OW28210   5.755   1.707   6.178
 9104SOL    HW128211   5.829   1.759   6.221
 9104SOL    HW228212   5.769   1.610   6.196
 9105SOL     OW28213   2.179   1.300   5.428
 9105SOL    HW128214   2.235   1.226   5.467
 9105SOL    HW228215   2.123   1.341   5.500
 9106SOL     OW28216   1.381   3.419   6.691
 9106SOL    HW128217   1.312   3.485   6.661
 9106SOL    HW228218   1.459   3.423   6.629
 9107SOL     OW28219   3.043   1.927   0.415
 9107SOL    HW128220   3.121   1.892   0.363
 9107SOL    HW228221   3.065   2.018   0.450
 9108SOL     OW28222   5.908   5.374   6.089
 9108SOL    HW128223   5.949   5.404   6.175
 9108SOL    HW228224   5.829   5.431   6.067
 9109SOL     OW28225   5.739   3.797   2.603
 9109SOL    HW128226   5.803   3.820   2.676
 9109SOL    HW228227   5.670   3.734   2.638
 9110SOL     OW28228   1.872   6.144   3.352
 9110SOL    HW128229   1.778   6.161   3.381
 9110SOL    HW228230   1.917   6.232   3.333
 9111SOL     OW28231   4.343   2.311   6.228
 9111SOL    HW128232   4.346   2.216   6.196
 9111SOL    HW228233   4.425   2.329   6.283
 9112SOL     OW28234   0.998   4.923   1.232
 9112SOL    HW128235   1.014   5.021   1.241
 9112SOL    HW228236   1.049   4.875   1.303
 9113SOL     OW28237   5.897   0.832   4.312
 9113SOL    HW128238   5.923   0.927   4.293
 9113SOL    HW228239   5.850   0.794   4.232
 9114SOL     OW28240   1.368   6.212   5.847
 9114SOL    HW128241   1.276   6.182   5.873
 9114SOL    HW228242   1.376   6.311   5.860
 9115SOL     OW28243   4.807   4.252   4.842
 9115SOL    HW128244   4.804   4.168   4.788
 9115SOL    HW228245   4.719   4.298   4.837
 9116SOL     OW28246   1.850   0.490   3.065
 9116SOL    HW128247   1.761   0.537   3.065
 9116SOL    HW228248   1.844   0.409   3.122
 9117SOL     OW28249   2.484   6.138   0.276
 9117SOL    HW128250   2.528   6.217   0.235
 9117SOL    HW228251   2.541   6.102   0.350
 9118SOL     OW28252   6.500   3.818   2.419
 9118SOL    HW128253   6.504   3.888   2.490
 9118SOL    HW228254   6.571   3.836   2.350
 9119SOL     OW28255   3.240   0.486   0.211
 9119SOL    HW128256   3.251   0.388   0.194
 9119SOL    HW228257   3.324   0.522   0.252
 9120SOL     OW28258   6.598   3.739   4.948
 9120SOL    HW128259   6.512   3.719   4.900
 9120SOL    HW228260   6.615   3.838   4.945
 9121SOL     OW28261   4.036   0.420   4.620
 9121SOL    HW128262   3.947   0.384   4.645
 9121SOL    HW228263   4.100   0.344   4.607
 9122SOL     OW28264   1.163   3.433   1.613
 9122SOL    HW128265   1.198   3.516   1.655
 9122SOL    HW228266   1.234   3.362   1.614
 9123SOL     OW28267   6.758   6.670   4.260
 9123SOL    HW128268   6.839   6.723   4.287
 9123SOL    HW228269   6.775   6.573   4.275
 9124SOL     OW28270   2.688   5.054   0.373
 9124SOL    HW128271   2.629   5.131   0.348
 9124SOL    HW228272   2.661   5.017   0.461
 9125SOL     OW28273   5.359   6.427   1.703
 9125SOL    HW128274   5.339   6.347   1.760
 9125SOL    HW228275   5.306   6.422   1.619
 9126SOL     OW28276   4.403   4.785   0.969
 9126SOL    HW128277   4.455   4.728   0.905
 9126SOL    HW228278   4.370   4.729   1.044
 9127SOL     OW28279   6.594   4.912   5.421
 9127SOL    HW128280   6.668   4.924   5.488
 9127SOL    HW228281   6.528   4.986   5.430
 9128SOL     OW28282   5.796   4.248   5.688
 9128SOL    HW128283   5.744   4.304   5.752
 9128SOL    HW228284   5.789   4.152   5.714
 9129SOL     OW28285   1.255   2.683   0.799
 9129SOL    HW128286   1.261   2.750   0.874
 9129SOL    HW228287   1.302   2.719   0.719
 9130SOL     OW28288   2.918   3.553   4.954
 9130SOL    HW128289   2.875   3.528   4.867
 9130SOL    HW228290   2.997   3.495   4.971
 9131SOL     OW28291   4.630   2.921   0.336
 9131SOL    HW128292   4.632   2.867   0.252
 9131SOL    HW228293   4.618   2.860   0.415
 9132SOL     OW28294   0.847   3.766   3.830
 9132SOL    HW128295   0.817   3.861   3.836
 9132SOL    HW228296   0.773   3.706   3.860
 9133SOL     OW28297   5.719   0.311   1.290
 9133SOL    HW128298   5.692   0.400   1.252
 9133SOL    HW228299   5.761   0.325   1.380
 9134SOL     OW28300   4.831   4.941   0.885
 9134SOL    HW128301   4.796   5.035   0.894
 9134SOL    HW228302   4.930   4.943   0.874
 9135SOL     OW28303   6.287   6.451   3.274
 9135SOL    HW128304   6.196   6.449   3.232
 9135SOL    HW228305   6.351   6.401   3.215
 9136SOL     OW28306   6.913   4.608   0.460
 9136SOL    HW128307   6.944   4.609   0.554
 9136SOL    HW228308   6.836   4.545   0.451
 9137SOL     OW28309   5.174   6.683   5.273
 9137SOL    HW128310   5.083   6.685   5.313
 9137SOL    HW228311   5.238   6.732   5.333
 9138SOL     OW28312   1.951   3.552   6.674
 9138SOL    HW128313   1.939   3.531   6.771
 9138SOL    HW228314   1.971   3.650   6.663
 9139SOL     OW28315   6.625   0.102   1.391
 9139SOL    HW128316   6.692   0.175   1.402
 9139SOL    HW228317   6.533   0.137   1.409
 9140SOL     OW28318   2.129   3.674   2.594
 9140SOL    HW128319   2.206   3.729   2.625
 9140SOL    HW228320   2.107   3.605   2.663
 9141SOL     OW28321   0.016   5.681   4.797
 9141SOL    HW128322   6.943   5.702   4.832
 9141SOL    HW228323   0.040   5.748   4.727
 9142SOL     OW28324   0.755   4.890   4.221
 9142SOL    HW128325   0.841   4.941   4.222
 9142SOL    HW228326   0.760   4.818   4.152
 9143SOL     OW28327   6.402   4.083   2.862
 9143SOL    HW128328   6.498   4.081   2.892
 9143SOL    HW228329   6.356   4.162   2.903
 9144SOL     OW28330   3.080   4.438   5.318
 9144SOL    HW128331   3.018   4.497   5.267
 9144SOL    HW228332   3.069   4.343   5.286
 9145SOL     OW28333   1.342   5.945   5.803
 9145SOL    HW128334   1.434   5.979   5.822
 9145SOL    HW228335   1.344   5.889   5.720
 9146SOL     OW28336   5.705   2.820   3.371
 9146SOL    HW128337   5.672   2.725   3.367
 9146SOL    HW228338   5.657   2.869   3.443
 9147SOL     OW28339   4.050   0.307   5.516
 9147SOL    HW128340   3.968   0.296   5.572
 9147SOL    HW228341   4.025   0.306   5.420
 9148SOL     OW28342   5.352   5.867   1.378
 9148SOL    HW128343   5.280   5.874   1.446
 9148SOL    HW228344   5.403   5.782   1.391
 9149SOL     OW28345   0.253   3.760   0.661
 9149SOL    HW128346   0.308   3.728   0.584
 9149SOL    HW228347   0.279   3.709   0.744
 9150SOL     OW28348   2.770   3.268   0.141
 9150SOL    HW128349   2.762   3.358   0.098
 9150SOL    HW228350   2.790   3.200   0.071
 9151SOL     OW28351   1.588   2.942   3.735
 9151SOL    HW128352   1.584   2.874   3.808
 9151SOL    HW228353   1.635   3.024   3.768
 9152SOL     OW28354   2.120   3.991   2.644
 9152SOL    HW128355   2.030   4.028   2.664
 9152SOL    HW228356   2.119   3.949   2.553
 9153SOL     OW28357   0.389   2.697   6.025
 9153SOL    HW128358   0.311   2.634   6.027
 9153SOL    HW228359   0.357   2.790   6.042
 9154SOL     OW28360   5.481   4.861   3.352
 9154SOL    HW128361   5.522   4.785   3.403
 9154SOL    HW228362   5.518   4.948   3.384
 9155SOL     OW28363   1.119   6.185   2.580
 9155SOL    HW128364   1.146   6.165   2.486
 9155SOL    HW228365   1.201   6.190   2.637
 9156SOL     OW28366   6.895   3.548   6.076
 9156SOL    HW128367   6.935   3.535   6.167
 9156SOL    HW228368   6.953   3.609   6.023
 9157SOL     OW28369   1.550   4.833   5.556
 9157SOL    HW128370   1.634   4.810   5.508
 9157SOL    HW228371   1.486   4.756   5.550
 9158SOL     OW28372   6.703   3.783   4.645
 9158SOL    HW128373   6.672   3.814   4.555
 9158SOL    HW228374   6.626   3.779   4.708
 9159SOL     OW28375   2.410   1.423   3.841
 9159SOL    HW128376   2.354   1.351   3.800
 9159SOL    HW228377   2.375   1.512   3.813
 9160SOL     OW28378   1.361   3.272   6.928
 9160SOL    HW128379   1.426   3.281   7.004
 9160SOL    HW228380   1.393   3.327   6.851
 9161SOL     OW28381   6.442   3.557   2.533
 9161SOL    HW128382   6.347   3.554   2.563
 9161SOL    HW228383   6.461   3.645   2.490
 9162SOL     OW28384   3.923   2.323   1.782
 9162SOL    HW128385   3.978   2.261   1.837
 9162SOL    HW228386   3.827   2.316   1.810
 9163SOL     OW28387   2.589   2.235   4.267
 9163SOL    HW128388   2.501   2.218   4.222
 9163SOL    HW228389   2.573   2.266   4.361
 9164SOL     OW28390   2.149   0.188   6.335
 9164SOL    HW128391   2.067   0.143   6.300
 9164SOL    HW228392   2.129   0.284   6.357
 9165SOL     OW28393   5.362   1.769   5.886
 9165SOL    HW128394   5.336   1.846   5.828
 9165SOL    HW228395   5.449   1.788   5.930
 9166SOL     OW28396   4.340   6.298   1.785
 9166SOL    HW128397   4.414   6.248   1.831
 9166SOL    HW228398   4.288   6.349   1.854
 9167SOL     OW28399   1.509   1.522   4.280
 9167SOL    HW128400   1.480   1.445   4.222
 9167SOL    HW228401   1.453   1.602   4.260
 9168SOL     OW28402   6.792   6.229   4.915
 9168SOL    HW128403   6.839   6.316   4.929
 9168SOL    HW228404   6.693   6.244   4.916
 9169SOL     OW28405   6.738   5.764   0.919
 9169SOL    HW128406   6.678   5.713   0.981
 9169SOL    HW228407   6.827   5.779   0.964
 9170SOL     OW28408   1.637   1.124   5.460
 9170SOL    HW128409   1.657   1.221   5.449
 9170SOL    HW228410   1.579   1.093   5.385
 9171SOL     OW28411   3.416   5.158   6.483
 9171SOL    HW128412   3.500   5.210   6.470
 9171SOL    HW228413   3.425   5.103   6.567
 9172SOL     OW28414   4.620   1.708   5.428
 9172SOL    HW128415   4.604   1.641   5.500
 9172SOL    HW228416   4.549   1.701   5.358
 9173SOL     OW28417   5.542   3.780   4.871
 9173SOL    HW128418   5.513   3.787   4.966
 9173SOL    HW228419   5.565   3.685   4.850
 9174SOL     OW28420   6.532   4.761   1.540
 9174SOL    HW128421   6.519   4.843   1.596
 9174SOL    HW228422   6.497   4.777   1.448
 9175SOL     OW28423   2.273   6.937   0.928
 9175SOL    HW128424   2.342   6.872   0.959
 9175SOL    HW228425   2.238   6.988   1.007
 9176SOL     OW28426   1.673   0.725   2.044
 9176SOL    HW128427   1.648   0.821   2.049
 9176SOL    HW228428   1.609   0.671   2.099
 9177SOL     OW28429   0.483   6.820   3.851
 9177SOL    HW128430   0.576   6.814   3.886
 9177SOL    HW228431   0.466   6.747   3.786
 9178SOL     OW28432   0.838   4.595   1.179
 9178SOL    HW128433   0.838   4.498   1.203
 9178SOL    HW228434   0.870   4.649   1.257
 9179SOL     OW28435   3.806   5.203   3.883
 9179SOL    HW128436   3.814   5.124   3.944
 9179SOL    HW228437   3.896   5.230   3.851
 9180SOL     OW28438   0.151   1.314   5.337
 9180SOL    HW128439   0.251   1.308   5.328
 9180SOL    HW228440   0.125   1.297   5.432
 9181SOL     OW28441   2.618   2.442   3.826
 9181SOL    HW128442   2.616   2.409   3.920
 9181SOL    HW228443   2.627   2.542   3.826
 9182SOL     OW28444   0.508   2.117   2.424
 9182SOL    HW128445   0.490   2.198   2.480
 9182SOL    HW228446   0.539   2.042   2.483
 9183SOL     OW28447   1.627   1.407   6.168
 9183SOL    HW128448   1.582   1.338   6.224
 9183SOL    HW228449   1.712   1.436   6.213
 9184SOL     OW28450   3.411   3.723   0.994
 9184SOL    HW128451   3.407   3.750   1.090
 9184SOL    HW228452   3.336   3.766   0.943
 9185SOL     OW28453   1.453   0.365   5.956
 9185SOL    HW128454   1.438   0.273   5.992
 9185SOL    HW228455   1.494   0.423   6.026
 9186SOL     OW28456   4.484   0.083   6.788
 9186SOL    HW128457   4.385   0.096   6.775
 9186SOL    HW228458   4.521   0.161   6.838
 9187SOL     OW28459   5.810   2.660   0.703
 9187SOL    HW128460   5.866   2.685   0.782
 9187SOL    HW228461   5.714   2.664   0.728
 9188SOL     OW28462   1.830   0.252   1.379
 9188SOL    HW128463   1.824   0.351   1.368
 9188SOL    HW228464   1.745   0.216   1.417
 9189SOL     OW28465   3.486   0.488   5.726
 9189SOL    HW128466   3.393   0.452   5.715
 9189SOL    HW228467   3.507   0.495   5.823
 9190SOL     OW28468   4.623   1.206   4.974
 9190SOL    HW128469   4.537   1.240   5.014
 9190SOL    HW228470   4.670   1.281   4.928
 9191SOL     OW28471   5.530   6.909   1.854
 9191SOL    HW128472   5.568   7.002   1.850
 9191SOL    HW228473   5.601   6.847   1.888
 9192SOL     OW28474   4.881   3.562   4.247
 9192SOL    HW128475   4.880   3.579   4.346
 9192SOL    HW228476   4.972   3.530   4.219
 9193SOL     OW28477   3.991   3.143   3.223
 9193SOL    HW128478   4.013   3.180   3.133
 9193SOL    HW228479   3.943   3.056   3.213
 9194SOL     OW28480   3.763   4.893   2.923
 9194SOL    HW128481   3.695   4.884   2.849
 9194SOL    HW228482   3.716   4.890   3.011
 9195SOL     OW28483   0.651   2.758   2.906
 9195SOL    HW128484   0.635   2.731   2.812
 9195SOL    HW228485   0.617   2.687   2.968
 9196SOL     OW28486   5.206   6.707   4.309
 9196SOL    HW128487   5.236   6.697   4.404
 9196SOL    HW228488   5.266   6.654   4.250
 9197SOL     OW28489   4.275   1.670   6.169
 9197SOL    HW128490   4.314   1.733   6.101
 9197SOL    HW228491   4.343   1.651   6.239
 9198SOL     OW28492   6.145   2.425   5.045
 9198SOL    HW128493   6.184   2.360   4.980
 9198SOL    HW228494   6.156   2.389   5.138
 9199SOL     OW28495   1.249   3.310   5.875
 9199SOL    HW128496   1.344   3.311   5.846
 9199SOL    HW228497   1.241   3.354   5.965
 9200SOL     OW28498   5.033   6.075   0.676
 9200SOL    HW128499   5.077   6.165   0.665
 9200SOL    HW228500   5.093   6.004   0.641
 9201SOL     OW28501   0.527   4.168   2.579
 9201SOL    HW128502   0.572   4.235   2.638
 9201SOL    HW228503   0.560   4.076   2.601
 9202SOL     OW28504   2.415   5.901   3.931
 9202SOL    HW128505   2.343   5.970   3.925
 9202SOL    HW228506   2.502   5.941   3.901
 9203SOL     OW28507   4.932   1.001   0.255
 9203SOL    HW128508   4.938   0.987   0.354
 9203SOL    HW228509   5.024   1.012   0.217
 9204SOL     OW28510   5.220   4.271   2.802
 9204SOL    HW128511   5.298   4.249   2.862
 9204SOL    HW228512   5.168   4.189   2.782
 9205SOL     OW28513   4.609   2.495   1.597
 9205SOL    HW128514   4.643   2.502   1.691
 9205SOL    HW228515   4.605   2.586   1.556
 9206SOL     OW28516   6.271   6.169   4.367
 9206SOL    HW128517   6.312   6.206   4.284
 9206SOL    HW228518   6.342   6.135   4.428
 9207SOL     OW28519   3.831   6.164   6.769
 9207SOL    HW128520   3.757   6.141   6.706
 9207SOL    HW228521   3.847   6.087   6.830
 9208SOL     OW28522   4.317   4.093   1.651
 9208SOL    HW128523   4.362   4.122   1.735
 9208SOL    HW228524   4.227   4.136   1.644
 9209SOL     OW28525   3.886   0.333   2.759
 9209SOL    HW128526   3.904   0.235   2.768
 9209SOL    HW228527   3.908   0.379   2.845
 9210SOL     OW28528   1.169   6.825   0.623
 9210SOL    HW128529   1.086   6.854   0.670
 9210SOL    HW228530   1.186   6.886   0.546
 9211SOL     OW28531   4.845   1.350   6.185
 9211SOL    HW128532   4.800   1.409   6.118
 9211SOL    HW228533   4.944   1.351   6.169
 9212SOL     OW28534   5.598   4.356   5.520
 9212SOL    HW128535   5.620   4.444   5.477
 9212SOL    HW228536   5.673   4.329   5.581
 9213SOL     OW28537   6.710   6.275   2.206
 9213SOL    HW128538   6.679   6.328   2.127
 9213SOL    HW228539   6.631   6.241   2.256
 9214SOL     OW28540   2.201   1.860   5.667
 9214SOL    HW128541   2.185   1.800   5.589
 9214SOL    HW228542   2.243   1.945   5.635
 9215SOL     OW28543   0.273   3.716   3.335
 9215SOL    HW128544   0.314   3.795   3.288
 9215SOL    HW228545   0.234   3.654   3.268
 9216SOL     OW28546   2.319   6.077   3.121
 9216SOL    HW128547   2.267   5.993   3.134
 9216SOL    HW228548   2.291   6.145   3.189
 9217SOL     OW28549   3.981   1.316   6.840
 9217SOL    HW128550   3.991   1.415   6.827
 9217SOL    HW228551   3.916   1.280   6.774
 9218SOL     OW28552   5.537   5.573   6.700
 9218SOL    HW128553   5.459   5.511   6.708
 9218SOL    HW228554   5.550   5.621   6.787
 9219SOL     OW28555   2.979   2.732   5.694
 9219SOL    HW128556   2.962   2.761   5.600
 9219SOL    HW228557   2.926   2.649   5.714
 9220SOL     OW28558   0.418   6.459   3.356
 9220SOL    HW128559   0.362   6.380   3.331
 9220SOL    HW228560   0.514   6.432   3.363
 9221SOL     OW28561   2.906   1.521   1.012
 9221SOL    HW128562   2.822   1.492   0.966
 9221SOL    HW228563   2.962   1.441   1.032
 9222SOL     OW28564   1.193   4.929   4.072
 9222SOL    HW128565   1.185   4.919   3.973
 9222SOL    HW228566   1.246   4.853   4.109
 9223SOL     OW28567   6.653   2.996   4.688
 9223SOL    HW128568   6.628   3.089   4.659
 9223SOL    HW228569   6.592   2.930   4.643
 9224SOL     OW28570   2.030   4.690   2.685
 9224SOL    HW128571   2.093   4.687   2.763
 9224SOL    HW228572   2.017   4.598   2.649
 9225SOL     OW28573   6.324   5.447   5.941
 9225SOL    HW128574   6.242   5.390   5.936
 9225SOL    HW228575   6.309   5.532   5.890
 9226SOL     OW28576   1.177   0.274   6.110
 9226SOL    HW128577   1.112   0.199   6.097
 9226SOL    HW228578   1.139   0.340   6.175
 9227SOL     OW28579   3.027   4.217   0.576
 9227SOL    HW128580   2.962   4.156   0.621
 9227SOL    HW228581   3.096   4.163   0.527
 9228SOL     OW28582   3.563   2.868   4.666
 9228SOL    HW128583   3.597   2.816   4.745
 9228SOL    HW228584   3.464   2.881   4.676
 9229SOL     OW28585   7.004   5.289   0.776
 9229SOL    HW128586   6.996   5.381   0.815
 9229SOL    HW228587   0.014   5.296   0.680
 9230SOL     OW28588   4.620   0.985   5.141
 9230SOL    HW128589   4.613   1.066   5.082
 9230SOL    HW228590   4.623   0.903   5.085
 9231SOL     OW28591   6.082   5.902   1.796
 9231SOL    HW128592   6.015   5.862   1.858
 9231SOL    HW228593   6.067   6.000   1.789
 9232SOL     OW28594   1.229   5.041   1.632
 9232SOL    HW128595   1.145   5.013   1.681
 9232SOL    HW228596   1.205   5.107   1.561
 9233SOL     OW28597   1.403   6.492   5.898
 9233SOL    HW128598   1.374   6.587   5.914
 9233SOL    HW228599   1.499   6.491   5.872
 9234SOL     OW28600   2.596   4.129   5.963
 9234SOL    HW128601   2.682   4.102   5.920
 9234SOL    HW228602   2.606   4.125   6.063
 9235SOL     OW28603   2.033   1.975   2.982
 9235SOL    HW128604   2.084   1.895   2.952
 9235SOL    HW228605   1.993   1.957   3.072
 9236SOL     OW28606   1.459   3.311   5.709
 9236SOL    HW128607   1.473   3.321   5.611
 9236SOL    HW228608   1.463   3.401   5.753
 9237SOL     OW28609   6.412   5.403   3.003
 9237SOL    HW128610   6.483   5.418   2.934
 9237SOL    HW228611   6.452   5.412   3.094
 9238SOL     OW28612   1.726   2.559   4.717
 9238SOL    HW128613   1.823   2.539   4.706
 9238SOL    HW228614   1.676   2.534   4.634
 9239SOL     OW28615   0.983   4.775   5.807
 9239SOL    HW128616   1.031   4.858   5.836
 9239SOL    HW228617   1.018   4.697   5.859
 9240SOL     OW28618   4.039   1.801   3.492
 9240SOL    HW128619   3.999   1.888   3.463
 9240SOL    HW228620   4.115   1.778   3.432
 9241SOL     OW28621   5.608   6.524   0.160
 9241SOL    HW128622   5.601   6.596   0.092
 9241SOL    HW228623   5.607   6.565   0.252
 9242SOL     OW28624   1.677   2.299   0.814
 9242SOL    HW128625   1.582   2.269   0.827
 9242SOL    HW228626   1.697   2.374   0.877
 9243SOL     OW28627   1.578   0.124   0.053
 9243SOL    HW128628   1.646   0.064   0.013
 9243SOL    HW228629   1.622   0.207   0.087
 9244SOL     OW28630   2.759   6.257   6.406
 9244SOL    HW128631   2.764   6.287   6.502
 9244SOL    HW228632   2.694   6.314   6.357
 9245SOL     OW28633   1.377   5.075   2.939
 9245SOL    HW128634   1.338   5.154   2.892
 9245SOL    HW228635   1.472   5.094   2.963
 9246SOL     OW28636   4.810   6.377   6.407
 9246SOL    HW128637   4.902   6.414   6.421
 9246SOL    HW228638   4.816   6.293   6.353
 9247SOL     OW28639   3.787   6.444   2.826
 9247SOL    HW128640   3.805   6.375   2.896
 9247SOL    HW228641   3.808   6.405   2.736
 9248SOL     OW28642   2.551   0.814   6.829
 9248SOL    HW128643   2.598   0.867   6.899
 9248SOL    HW228644   2.458   0.849   6.818
 9249SOL     OW28645   2.368   6.977   0.008
 9249SOL    HW128646   2.396   6.882   7.014
 9249SOL    HW228647   2.288   6.996   6.971
 9250SOL     OW28648   0.258   2.981   3.653
 9250SOL    HW128649   0.241   2.887   3.682
 9250SOL    HW228650   0.171   3.028   3.638
 9251SOL     OW28651   3.408   1.766   1.259
 9251SOL    HW128652   3.318   1.729   1.279
 9251SOL    HW228653   3.410   1.864   1.281
 9252SOL     OW28654   5.968   1.283   4.604
 9252SOL    HW128655   5.942   1.248   4.694
 9252SOL    HW228656   5.922   1.231   4.533
 9253SOL     OW28657   1.683   5.650   4.703
 9253SOL    HW128658   1.606   5.707   4.675
 9253SOL    HW228659   1.767   5.685   4.663
 9254SOL     OW28660   0.376   5.235   2.546
 9254SOL    HW128661   0.303   5.172   2.523
 9254SOL    HW228662   0.341   5.307   2.606
 9255SOL     OW28663   6.677   4.188   0.839
 9255SOL    HW128664   6.633   4.278   0.843
 9255SOL    HW228665   6.723   4.171   0.927
 9256SOL     OW28666   2.770   6.489   1.032
 9256SOL    HW128667   2.844   6.448   1.086
 9256SOL    HW228668   2.762   6.441   0.945
 9257SOL     OW28669   5.867   5.736   4.654
 9257SOL    HW128670   5.964   5.742   4.629
 9257SOL    HW228671   5.858   5.726   4.753
 9258SOL     OW28672   4.135   5.564   1.862
 9258SOL    HW128673   4.107   5.510   1.942
 9258SOL    HW228674   4.226   5.602   1.878
 9259SOL     OW28675   0.616   2.313   6.401
 9259SOL    HW128676   0.579   2.364   6.478
 9259SOL    HW228677   0.704   2.273   6.426
 9260SOL     OW28678   4.845   4.014   4.708
 9260SOL    HW128679   4.828   3.971   4.619
 9260SOL    HW228680   4.879   3.946   4.773
 9261SOL     OW28681   1.973   2.192   1.730
 9261SOL    HW128682   1.898   2.127   1.718
 9261SOL    HW228683   2.060   2.148   1.706
 9262SOL     OW28684   6.569   6.788   6.155
 9262SOL    HW128685   6.656   6.769   6.110
 9262SOL    HW228686   6.509   6.708   6.146
 9263SOL     OW28687   2.098   4.667   3.101
 9263SOL    HW128688   2.132   4.681   3.008
 9263SOL    HW228689   2.171   4.687   3.167
 9264SOL     OW28690   5.729   3.688   6.489
 9264SOL    HW128691   5.822   3.654   6.486
 9264SOL    HW228692   5.697   3.689   6.583
 9265SOL     OW28693   4.996   0.856   1.382
 9265SOL    HW128694   5.046   0.873   1.466
 9265SOL    HW228695   4.898   0.848   1.402
 9266SOL     OW28696   1.842   4.033   0.544
 9266SOL    HW128697   1.877   3.955   0.595
 9266SOL    HW228698   1.754   4.008   0.502
 9267SOL     OW28699   0.747   1.058   4.154
 9267SOL    HW128700   0.719   1.072   4.249
 9267SOL    HW228701   0.746   0.960   4.133
 9268SOL     OW28702   0.334   0.856   1.577
 9268SOL    HW128703   0.323   0.775   1.635
 9268SOL    HW228704   0.430   0.862   1.547
 9269SOL     OW28705   4.148   0.781   0.229
 9269SOL    HW128706   4.121   0.750   0.138
 9269SOL    HW228707   4.070   0.821   0.276
 9270SOL     OW28708   2.786   0.799   6.239
 9270SOL    HW128709   2.859   0.868   6.242
 9270SOL    HW228710   2.698   0.845   6.232
 9271SOL     OW28711   1.309   4.665   5.581
 9271SOL    HW128712   1.261   4.727   5.518
 9271SOL    HW228713   1.353   4.593   5.528
 9272SOL     OW28714   6.338   6.312   6.065
 9272SOL    HW128715   6.388   6.336   5.981
 9272SOL    HW228716   6.388   6.241   6.114
 9273SOL     OW28717   5.828   3.406   3.639
 9273SOL    HW128718   5.805   3.480   3.703
 9273SOL    HW228719   5.761   3.332   3.649
 9274SOL     OW28720   0.636   3.312   1.012
 9274SOL    HW128721   0.708   3.363   0.964
 9274SOL    HW228722   0.678   3.238   1.064
 9275SOL     OW28723   5.669   0.955   0.823
 9275SOL    HW128724   5.718   1.034   0.787
 9275SOL    HW228725   5.713   0.871   0.792
 9276SOL     OW28726   2.655   4.957   6.979
 9276SOL    HW128727   2.655   4.911   6.890
 9276SOL    HW228728   2.699   5.046   6.970
 9277SOL     OW28729   4.804   5.009   2.375
 9277SOL    HW128730   4.883   4.962   2.414
 9277SOL    HW228731   4.755   4.947   2.315
 9278SOL     OW28732   0.442   0.024   5.865
 9278SOL    HW128733   0.499   0.034   5.783
 9278SOL    HW228734   0.350   7.015   5.838
 9279SOL     OW28735   3.132   6.455   1.701
 9279SOL    HW128736   3.228   6.471   1.676
 9279SOL    HW228737   3.099   6.372   1.656
 9280SOL     OW28738   1.176   5.496   2.937
 9280SOL    HW128739   1.169   5.419   3.000
 9280SOL    HW228740   1.207   5.577   2.986
 9281SOL     OW28741   1.478   5.049   0.575
 9281SOL    HW128742   1.379   5.063   0.569
 9281SOL    HW228743   1.502   5.022   0.668
 9282SOL     OW28744   2.721   6.503   4.719
 9282SOL    HW128745   2.634   6.504   4.671
 9282SOL    HW228746   2.793   6.540   4.659
 9283SOL     OW28747   4.427   6.400   1.022
 9283SOL    HW128748   4.507   6.343   1.038
 9283SOL    HW228749   4.350   6.343   0.991
 9284SOL     OW28750   3.871   4.843   6.479
 9284SOL    HW128751   3.784   4.803   6.451
 9284SOL    HW228752   3.938   4.834   6.404
 9285SOL     OW28753   0.358   6.213   3.188
 9285SOL    HW128754   0.292   6.178   3.254
 9285SOL    HW228755   0.424   6.142   3.166
 9286SOL     OW28756   4.375   0.044   1.823
 9286SOL    HW128757   4.466   0.052   1.784
 9286SOL    HW228758   4.340   6.970   1.810
 9287SOL     OW28759   4.439   3.920   5.978
 9287SOL    HW128760   4.534   3.924   6.009
 9287SOL    HW228761   4.429   3.845   5.912
 9288SOL     OW28762   3.360   1.820   2.352
 9288SOL    HW128763   3.340   1.769   2.268
 9288SOL    HW228764   3.417   1.899   2.330
 9289SOL     OW28765   4.945   6.580   1.055
 9289SOL    HW128766   4.909   6.619   0.970
 9289SOL    HW228767   4.880   6.513   1.091
 9290SOL     OW28768   6.109   1.116   3.695
 9290SOL    HW128769   6.134   1.033   3.744
 9290SOL    HW228770   6.180   1.138   3.628
 9291SOL     OW28771   0.533   3.840   5.713
 9291SOL    HW128772   0.556   3.938   5.712
 9291SOL    HW228773   0.602   3.790   5.766
 9292SOL     OW28774   0.203   1.363   6.400
 9292SOL    HW128775   0.151   1.311   6.468
 9292SOL    HW228776   0.264   1.301   6.351
 9293SOL     OW28777   4.817   1.755   4.779
 9293SOL    HW128778   4.795   1.713   4.691
 9293SOL    HW228779   4.734   1.790   4.821
 9294SOL     OW28780   4.597   0.022   6.543
 9294SOL    HW128781   4.556   0.027   6.634
 9294SOL    HW228782   4.560   0.095   6.485
 9295SOL     OW28783   5.992   1.105   4.373
 9295SOL    HW128784   6.066   1.097   4.440
 9295SOL    HW228785   6.025   1.154   4.293
 9296SOL     OW28786   2.013   4.927   5.739
 9296SOL    HW128787   2.097   4.924   5.686
 9296SOL    HW228788   2.034   4.928   5.837
 9297SOL     OW28789   6.738   5.209   2.376
 9297SOL    HW128790   6.660   5.156   2.409
 9297SOL    HW228791   6.724   5.306   2.395
 9298SOL     OW28792   1.291   3.690   6.398
 9298SOL    HW128793   1.344   3.755   6.344
 9298SOL    HW228794   1.222   3.647   6.339
 9299SOL     OW28795   2.673   2.440   4.809
 9299SOL    HW128796   2.756   2.495   4.820
 9299SOL    HW228797   2.603   2.473   4.873
 9300SOL     OW28798   2.174   6.320   4.366
 9300SOL    HW128799   2.210   6.251   4.302
 9300SOL    HW228800   2.140   6.399   4.315
 9301SOL     OW28801   0.617   4.535   4.458
 9301SOL    HW128802   0.635   4.631   4.479
 9301SOL    HW228803   0.704   4.486   4.449
 9302SOL     OW28804   1.884   4.614   4.528
 9302SOL    HW128805   1.978   4.585   4.544
 9302SOL    HW228806   1.834   4.541   4.483
 9303SOL     OW28807   2.177   4.512   6.981
 9303SOL    HW128808   2.180   4.564   6.895
 9303SOL    HW228809   2.114   4.435   6.971
 9304SOL     OW28810   5.248   5.243   6.488
 9304SOL    HW128811   5.332   5.189   6.490
 9304SOL    HW228812   5.260   5.321   6.427
 9305SOL     OW28813   1.780   1.796   1.371
 9305SOL    HW128814   1.763   1.788   1.273
 9305SOL    HW228815   1.762   1.890   1.400
 9306SOL     OW28816   0.134   6.583   4.798
 9306SOL    HW128817   0.107   6.537   4.883
 9306SOL    HW228818   0.231   6.605   4.801
 9307SOL     OW28819   1.599   3.763   1.159
 9307SOL    HW128820   1.607   3.859   1.133
 9307SOL    HW228821   1.531   3.754   1.233
 9308SOL     OW28822   2.230   3.224   1.812
 9308SOL    HW128823   2.279   3.311   1.813
 9308SOL    HW228824   2.243   3.178   1.901
 9309SOL     OW28825   5.140   5.535   6.513
 9309SOL    HW128826   5.181   5.501   6.427
 9309SOL    HW228827   5.083   5.463   6.552
 9310SOL     OW28828   5.847   5.963   5.944
 9310SOL    HW128829   5.774   5.940   5.879
 9310SOL    HW228830   5.873   5.881   5.995
 9311SOL     OW28831   4.756   4.212   0.476
 9311SOL    HW128832   4.825   4.186   0.544
 9311SOL    HW228833   4.734   4.309   0.487
 9312SOL     OW28834   0.271   2.727   3.520
 9312SOL    HW128835   0.340   2.690   3.582
 9312SOL    HW228836   0.312   2.797   3.461
 9313SOL     OW28837   0.703   0.682   2.627
 9313SOL    HW128838   0.760   0.603   2.610
 9313SOL    HW228839   0.623   0.655   2.681
 9314SOL     OW28840   5.273   5.027   1.012
 9314SOL    HW128841   5.320   4.962   1.073
 9314SOL    HW228842   5.206   5.079   1.065
 9315SOL     OW28843   5.573   6.106   6.278
 9315SOL    HW128844   5.663   6.125   6.237
 9315SOL    HW228845   5.504   6.165   6.235
 9316SOL     OW28846   4.814   0.094   0.492
 9316SOL    HW128847   4.852   0.067   0.580
 9316SOL    HW228848   4.859   0.177   0.460
 9317SOL     OW28849   2.854   5.932   3.359
 9317SOL    HW128850   2.772   5.985   3.335
 9317SOL    HW228851   2.834   5.835   3.351
 9318SOL     OW28852   3.755   6.974   1.923
 9318SOL    HW128853   3.668   6.943   1.884
 9318SOL    HW228854   3.739   0.038   1.977
 9319SOL     OW28855   4.545   1.691   0.002
 9319SOL    HW128856   4.480   1.750   0.051
 9319SOL    HW228857   4.628   1.743   7.000
 9320SOL     OW28858   6.696   6.676   6.883
 9320SOL    HW128859   6.779   6.696   6.935
 9320SOL    HW228860   6.615   6.701   6.937
 9321SOL     OW28861   0.675   3.625   4.362
 9321SOL    HW128862   0.637   3.687   4.293
 9321SOL    HW228863   0.753   3.669   4.406
 9322SOL     OW28864   5.084   3.666   0.099
 9322SOL    HW128865   5.021   3.714   0.038
 9322SOL    HW228866   5.164   3.637   0.047
 9323SOL     OW28867   0.847   2.257   5.893
 9323SOL    HW128868   0.833   2.344   5.940
 9323SOL    HW228869   0.848   2.182   5.959
 9324SOL     OW28870   0.338   4.297   1.709
 9324SOL    HW128871   0.420   4.252   1.745
 9324SOL    HW228872   0.280   4.325   1.785
 9325SOL     OW28873   0.738   4.548   3.266
 9325SOL    HW128874   0.659   4.488   3.280
 9325SOL    HW228875   0.819   4.507   3.308
 9326SOL     OW28876   4.743   4.055   0.868
 9326SOL    HW128877   4.667   4.045   0.804
 9326SOL    HW228878   4.805   3.976   0.859
 9327SOL     OW28879   3.126   1.434   3.387
 9327SOL    HW128880   3.138   1.449   3.485
 9327SOL    HW228881   3.215   1.413   3.346
 9328SOL     OW28882   1.847   0.732   3.367
 9328SOL    HW128883   1.927   0.676   3.347
 9328SOL    HW228884   1.764   0.676   3.357
 9329SOL     OW28885   0.746   5.385   6.648
 9329SOL    HW128886   0.755   5.409   6.551
 9329SOL    HW228887   0.814   5.436   6.701
 9330SOL     OW28888   0.265   6.735   0.421
 9330SOL    HW128889   0.219   6.807   0.473
 9330SOL    HW228890   0.198   6.663   0.398
 9331SOL     OW28891   2.118   3.844   3.950
 9331SOL    HW128892   2.162   3.933   3.958
 9331SOL    HW228893   2.105   3.822   3.853
 9332SOL     OW28894   6.322   5.280   0.579
 9332SOL    HW128895   6.340   5.277   0.678
 9332SOL    HW228896   6.406   5.298   0.530
 9333SOL     OW28897   3.298   3.948   1.474
 9333SOL    HW128898   3.249   4.025   1.515
 9333SOL    HW228899   3.368   3.982   1.411
 9334SOL     OW28900   6.732   5.768   6.243
 9334SOL    HW128901   6.758   5.702   6.173
 9334SOL    HW228902   6.634   5.759   6.262
 9335SOL     OW28903   0.497   3.753   1.491
 9335SOL    HW128904   0.414   3.739   1.546
 9335SOL    HW228905   0.473   3.753   1.394
 9336SOL     OW28906   5.401   6.904   6.386
 9336SOL    HW128907   5.354   6.986   6.416
 9336SOL    HW228908   5.337   6.827   6.383
 9337SOL     OW28909   2.556   1.344   5.470
 9337SOL    HW128910   2.554   1.246   5.489
 9337SOL    HW228911   2.507   1.362   5.385
 9338SOL     OW28912   5.367   6.445   0.332
 9338SOL    HW128913   5.323   6.493   0.257
 9338SOL    HW228914   5.308   6.371   0.364
 9339SOL     OW28915   0.053   4.312   5.227
 9339SOL    HW128916   0.092   4.224   5.200
 9339SOL    HW228917   0.046   4.371   5.146
 9340SOL     OW28918   2.480   4.889   1.957
 9340SOL    HW128919   2.575   4.921   1.958
 9340SOL    HW228920   2.431   4.927   2.036
 9341SOL     OW28921   5.571   5.364   6.414
 9341SOL    HW128922   5.655   5.407   6.447
 9341SOL    HW228923   5.511   5.435   6.376
 9342SOL     OW28924   2.955   0.168   4.768
 9342SOL    HW128925   2.901   0.230   4.711
 9342SOL    HW228926   3.051   0.194   4.764
 9343SOL     OW28927   4.752   3.459   0.114
 9343SOL    HW128928   4.791   3.551   0.115
 9343SOL    HW228929   4.702   3.442   0.199
 9344SOL     OW28930   5.523   0.845   5.426
 9344SOL    HW128931   5.448   0.911   5.426
 9344SOL    HW228932   5.608   0.892   5.402
 9345SOL     OW28933   0.484   4.615   0.420
 9345SOL    HW128934   0.533   4.539   0.462
 9345SOL    HW228935   0.388   4.590   0.409
 9346SOL     OW28936   5.368   7.005   2.080
 9346SOL    HW128937   5.428   6.959   2.145
 9346SOL    HW228938   5.408   7.000   1.988
 9347SOL     OW28939   4.014   6.388   1.156
 9347SOL    HW128940   4.005   6.293   1.185
 9347SOL    HW228941   3.990   6.395   1.059
 9348SOL     OW28942   1.998   5.601   1.496
 9348SOL    HW128943   1.999   5.502   1.506
 9348SOL    HW228944   2.044   5.627   1.411
 9349SOL     OW28945   6.819   6.150   1.571
 9349SOL    HW128946   6.770   6.208   1.505
 9349SOL    HW228947   6.873   6.082   1.521
 9350SOL     OW28948   6.724   0.600   0.107
 9350SOL    HW128949   6.648   0.635   0.162
 9350SOL    HW228950   6.730   0.501   0.117
 9351SOL     OW28951   4.310   2.977   5.630
 9351SOL    HW128952   4.321   2.998   5.727
 9351SOL    HW228953   4.327   2.880   5.615
 9352SOL     OW28954   3.347   2.784   6.535
 9352SOL    HW128955   3.285   2.822   6.603
 9352SOL    HW228956   3.415   2.726   6.579
 9353SOL     OW28957   0.307   3.330   1.659
 9353SOL    HW128958   0.246   3.359   1.585
 9353SOL    HW228959   0.402   3.341   1.630
 9354SOL     OW28960   5.281   1.650   1.705
 9354SOL    HW128961   5.356   1.589   1.680
 9354SOL    HW228962   5.263   1.714   1.630
 9355SOL     OW28963   6.297   1.325   2.445
 9355SOL    HW128964   6.364   1.352   2.377
 9355SOL    HW228965   6.340   1.326   2.536
 9356SOL     OW28966   5.293   3.157   2.488
 9356SOL    HW128967   5.212   3.183   2.541
 9356SOL    HW228968   5.265   3.131   2.396
 9357SOL     OW28969   3.353   3.914   0.602
 9357SOL    HW128970   3.431   3.974   0.615
 9357SOL    HW228971   3.385   3.820   0.586
 9358SOL     OW28972   4.905   4.296   1.894
 9358SOL    HW128973   4.847   4.240   1.953
 9358SOL    HW228974   4.863   4.304   1.804
 9359SOL     OW28975   5.529   4.673   6.185
 9359SOL    HW128976   5.569   4.599   6.239
 9359SOL    HW228977   5.441   4.644   6.148
 9360SOL     OW28978   1.240   0.508   5.268
 9360SOL    HW128979   1.217   0.475   5.177
 9360SOL    HW228980   1.266   0.431   5.327
 9361SOL     OW28981   2.225   1.339   2.429
 9361SOL    HW128982   2.170   1.397   2.488
 9361SOL    HW228983   2.249   1.255   2.477
 9362SOL     OW28984   1.375   1.535   3.037
 9362SOL    HW128985   1.410   1.441   3.046
 9362SOL    HW228986   1.444   1.592   2.994
 9363SOL     OW28987   2.306   6.593   1.619
 9363SOL    HW128988   2.356   6.528   1.562
 9363SOL    HW228989   2.365   6.624   1.694
 9364SOL     OW28990   5.700   5.045   1.132
 9364SOL    HW128991   5.620   5.021   1.186
 9364SOL    HW228992   5.781   5.000   1.169
 9365SOL     OW28993   2.218   1.440   5.210
 9365SOL    HW128994   2.203   1.381   5.289
 9365SOL    HW228995   2.136   1.440   5.152
 9366SOL     OW28996   3.126   1.364   1.950
 9366SOL    HW128997   3.121   1.295   2.021
 9366SOL    HW228998   3.209   1.349   1.895
 9367SOL     OW28999   6.628   6.395   4.037
 9367SOL    HW129000   6.562   6.429   3.969
 9367SOL    HW229001   6.580   6.373   4.122
 9368SOL     OW29002   4.749   2.894   1.412
 9368SOL    HW129003   4.772   2.798   1.430
 9368SOL    HW229004   4.736   2.942   1.499
 9369SOL     OW29005   6.592   2.190   5.596
 9369SOL    HW129006   6.599   2.283   5.563
 9369SOL    HW229007   6.684   2.152   5.611
 9370SOL     OW29008   6.048   6.910   3.350
 9370SOL    HW129009   5.996   6.994   3.335
 9370SOL    HW229010   6.143   6.924   3.323
 9371SOL     OW29011   1.005   6.681   0.300
 9371SOL    HW129012   0.968   6.722   0.216
 9371SOL    HW229013   0.930   6.652   0.359
 9372SOL     OW29014   6.195   6.299   6.671
 9372SOL    HW129015   6.149   6.231   6.615
 9372SOL    HW229016   6.238   6.253   6.750
 9373SOL     OW29017   4.403   2.398   4.269
 9373SOL    HW129018   4.467   2.470   4.241
 9373SOL    HW229019   4.384   2.407   4.367
 9374SOL     OW29020   5.379   4.147   0.422
 9374SOL    HW129021   5.306   4.106   0.368
 9374SOL    HW229022   5.425   4.217   0.368
 9375SOL     OW29023   0.903   1.348   3.899
 9375SOL    HW129024   0.807   1.344   3.926
 9375SOL    HW229025   0.923   1.439   3.861
 9376SOL     OW29026   1.958   2.959   2.401
 9376SOL    HW129027   2.044   2.929   2.443
 9376SOL    HW229028   1.976   3.030   2.333
 9377SOL     OW29029   5.750   4.971   2.922
 9377SOL    HW129030   5.721   5.066   2.907
 9377SOL    HW229031   5.760   4.955   3.021
 9378SOL     OW29032   3.754   6.129   1.008
 9378SOL    HW129033   3.706   6.203   0.962
 9378SOL    HW229034   3.698   6.046   1.006
 9379SOL     OW29035   5.230   4.783   5.682
 9379SOL    HW129036   5.307   4.820   5.630
 9379SOL    HW229037   5.204   4.694   5.645
 9380SOL     OW29038   6.310   6.007   6.365
 9380SOL    HW129039   6.272   5.975   6.278
 9380SOL    HW229040   6.242   5.995   6.438
 9381SOL     OW29041   2.439   0.912   0.174
 9381SOL    HW129042   2.535   0.887   0.164
 9381SOL    HW229043   2.386   0.831   0.200
 9382SOL     OW29044   5.625   2.160   2.499
 9382SOL    HW129045   5.643   2.222   2.575
 9382SOL    HW229046   5.694   2.088   2.498
 9383SOL     OW29047   5.724   5.917   5.454
 9383SOL    HW129048   5.823   5.931   5.465
 9383SOL    HW229049   5.676   6.002   5.473
 9384SOL     OW29050   4.391   6.200   2.107
 9384SOL    HW129051   4.333   6.282   2.113
 9384SOL    HW229052   4.343   6.130   2.054
 9385SOL     OW29053   4.029   1.275   4.007
 9385SOL    HW129054   4.117   1.321   4.003
 9385SOL    HW229055   3.955   1.342   4.003
 9386SOL     OW29056   4.186   0.197   4.594
 9386SOL    HW129057   4.125   0.119   4.583
 9386SOL    HW229058   4.247   0.204   4.515
 9387SOL     OW29059   3.959   6.691   0.512
 9387SOL    HW129060   3.905   6.612   0.481
 9387SOL    HW229061   4.048   6.690   0.466
 9388SOL     OW29062   6.979   6.798   2.479
 9388SOL    HW129063   6.886   6.834   2.484
 9388SOL    HW229064   0.012   6.847   2.408
 9389SOL     OW29065   3.108   1.390   6.967
 9389SOL    HW129066   3.172   1.466   6.978
 9389SOL    HW229067   3.144   1.308   7.012
 9390SOL     OW29068   2.806   6.965   1.758
 9390SOL    HW129069   2.840   7.007   1.674
 9390SOL    HW229070   2.863   6.886   1.781
 9391SOL     OW29071   0.684   0.929   5.447
 9391SOL    HW129072   0.772   0.966   5.475
 9391SOL    HW229073   0.695   0.837   5.411
 9392SOL     OW29074   1.514   6.226   3.976
 9392SOL    HW129075   1.601   6.264   4.006
 9392SOL    HW229076   1.453   6.218   4.055
 9393SOL     OW29077   3.720   2.426   5.377
 9393SOL    HW129078   3.668   2.344   5.351
 9393SOL    HW229079   3.818   2.407   5.369
 9394SOL     OW29080   5.744   1.883   2.255
 9394SOL    HW129081   5.677   1.845   2.318
 9394SOL    HW229082   5.835   1.877   2.296
 9395SOL     OW29083   1.849   2.199   6.736
 9395SOL    HW129084   1.916   2.138   6.694
 9395SOL    HW229085   1.760   2.184   6.693
 9396SOL     OW29086   6.276   0.174   6.721
 9396SOL    HW129087   6.301   0.268   6.743
 9396SOL    HW229088   6.320   0.147   6.635
 9397SOL     OW29089   2.680   1.153   0.917
 9397SOL    HW129090   2.647   1.219   0.983
 9397SOL    HW229091   2.602   1.112   0.869
 9398SOL     OW29092   2.069   1.739   6.881
 9398SOL    HW129093   1.977   1.777   6.873
 9398SOL    HW229094   2.111   1.735   6.791
 9399SOL     OW29095   6.625   0.923   5.385
 9399SOL    HW129096   6.672   0.964   5.307
 9399SOL    HW229097   6.666   0.834   5.406
 9400SOL     OW29098   4.628   2.088   3.429
 9400SOL    HW129099   4.570   2.086   3.509
 9400SOL    HW229100   4.701   2.020   3.439
 9401SOL     OW29101   3.822   0.284   3.157
 9401SOL    HW129102   3.892   0.330   3.102
 9401SOL    HW229103   3.732   0.323   3.135
 9402SOL     OW29104   2.299   5.154   6.973
 9402SOL    HW129105   2.300   5.092   6.895
 9402SOL    HW229106   2.209   5.149   7.018
 9403SOL     OW29107   5.664   1.374   4.526
 9403SOL    HW129108   5.577   1.324   4.528
 9403SOL    HW229109   5.712   1.360   4.612
 9404SOL     OW29110   0.618   4.122   5.742
 9404SOL    HW129111   0.718   4.132   5.740
 9404SOL    HW229112   0.576   4.199   5.694
 9405SOL     OW29113   6.325   0.033   0.608
 9405SOL    HW129114   6.337   0.132   0.594
 9405SOL    HW229115   6.314   0.015   0.706
 9406SOL     OW29116   0.131   1.046   5.849
 9406SOL    HW129117   0.210   0.991   5.823
 9406SOL    HW229118   0.063   1.044   5.776
 9407SOL     OW29119   3.389   5.814   2.709
 9407SOL    HW129120   3.310   5.862   2.673
 9407SOL    HW229121   3.470   5.872   2.702
 9408SOL     OW29122   3.706   1.895   6.364
 9408SOL    HW129123   3.648   1.817   6.343
 9408SOL    HW229124   3.795   1.863   6.397
 9409SOL     OW29125   5.469   3.630   3.206
 9409SOL    HW129126   5.378   3.611   3.244
 9409SOL    HW229127   5.528   3.665   3.279
 9410SOL     OW29128   4.870   6.604   2.494
 9410SOL    HW129129   4.862   6.547   2.576
 9410SOL    HW229130   4.884   6.700   2.521
 9411SOL     OW29131   4.622   5.693   1.243
 9411SOL    HW129132   4.659   5.627   1.177
 9411SOL    HW229133   4.535   5.729   1.208
 9412SOL     OW29134   6.300   3.029   1.376
 9412SOL    HW129135   6.267   3.017   1.283
 9412SOL    HW229136   6.384   2.975   1.389
 9413SOL     OW29137   3.640   5.751   5.073
 9413SOL    HW129138   3.646   5.766   5.172
 9413SOL    HW229139   3.667   5.834   5.025
 9414SOL     OW29140   2.542   1.415   2.195
 9414SOL    HW129141   2.590   1.338   2.236
 9414SOL    HW229142   2.575   1.430   2.102
 9415SOL     OW29143   3.207   0.927   2.085
 9415SOL    HW129144   3.272   0.942   2.010
 9415SOL    HW229145   3.167   1.014   2.113
 9416SOL     OW29146   0.681   2.306   1.133
 9416SOL    HW129147   0.707   2.402   1.125
 9416SOL    HW229148   0.669   2.283   1.230
 9417SOL     OW29149   2.207   6.625   4.577
 9417SOL    HW129150   2.161   6.713   4.586
 9417SOL    HW229151   2.145   6.551   4.603
 9418SOL     OW29152   3.639   4.305   1.095
 9418SOL    HW129153   3.682   4.229   1.144
 9418SOL    HW229154   3.543   4.312   1.124
 9419SOL     OW29155   3.799   6.001   5.347
 9419SOL    HW129156   3.854   5.965   5.271
 9419SOL    HW229157   3.847   5.984   5.433
 9420SOL     OW29158   0.965   1.303   4.430
 9420SOL    HW129159   1.038   1.370   4.431
 9420SOL    HW229160   0.904   1.321   4.353
 9421SOL     OW29161   1.767   4.832   4.716
 9421SOL    HW129162   1.669   4.813   4.720
 9421SOL    HW229163   1.797   4.834   4.621
 9422SOL     OW29164   3.988   1.777   1.957
 9422SOL    HW129165   4.025   1.741   2.043
 9422SOL    HW229166   3.947   1.867   1.972
 9423SOL     OW29167   4.590   0.740   4.722
 9423SOL    HW129168   4.636   0.699   4.801
 9423SOL    HW229169   4.582   0.838   4.736
 9424SOL     OW29170   3.114   6.173   4.453
 9424SOL    HW129171   3.021   6.137   4.452
 9424SOL    HW229172   3.115   6.260   4.503
 9425SOL     OW29173   1.361   4.189   3.976
 9425SOL    HW129174   1.264   4.170   3.959
 9425SOL    HW229175   1.408   4.104   3.998
 9426SOL     OW29176   3.290   6.512   0.141
 9426SOL    HW129177   3.302   6.467   0.053
 9426SOL    HW229178   3.205   6.563   0.142
 9427SOL     OW29179   2.976   4.823   4.011
 9427SOL    HW129180   2.895   4.774   4.042
 9427SOL    HW229181   3.043   4.827   4.084
 9428SOL     OW29182   4.496   6.162   2.490
 9428SOL    HW129183   4.434   6.118   2.555
 9428SOL    HW229184   4.511   6.101   2.412
 9429SOL     OW29185   0.278   4.028   2.535
 9429SOL    HW129186   0.293   3.929   2.533
 9429SOL    HW229187   0.353   4.074   2.488
 9430SOL     OW29188   6.434   6.995   2.356
 9430SOL    HW129189   6.371   6.918   2.367
 9430SOL    HW229190   6.411   0.049   2.422
 9431SOL     OW29191   6.420   4.624   2.168
 9431SOL    HW129192   6.434   4.627   2.069
 9431SOL    HW229193   6.505   4.646   2.215
 9432SOL     OW29194   6.598   6.987   4.425
 9432SOL    HW129195   6.573   7.016   4.518
 9432SOL    HW229196   6.661   6.910   4.430
 9433SOL     OW29197   2.560   4.603   5.069
 9433SOL    HW129198   2.526   4.696   5.073
 9433SOL    HW229199   2.654   4.603   5.035
 9434SOL     OW29200   5.501   5.180   3.091
 9434SOL    HW129201   5.410   5.207   3.060
 9434SOL    HW229202   5.570   5.217   3.029
 9435SOL     OW29203   1.406   0.839   4.556
 9435SOL    HW129204   1.480   0.790   4.509
 9435SOL    HW229205   1.320   0.822   4.510
 9436SOL     OW29206   1.789   2.585   6.524
 9436SOL    HW129207   1.726   2.508   6.509
 9436SOL    HW229208   1.871   2.552   6.571
 9437SOL     OW29209   0.601   5.305   4.233
 9437SOL    HW129210   0.658   5.293   4.315
 9437SOL    HW229211   0.652   5.273   4.153
 9438SOL     OW29212   1.315   6.364   2.160
 9438SOL    HW129213   1.413   6.343   2.166
 9438SOL    HW229214   1.283   6.399   2.248
 9439SOL     OW29215   0.759   2.767   1.447
 9439SOL    HW129216   0.707   2.850   1.468
 9439SOL    HW229217   0.843   2.791   1.400
 9440SOL     OW29218   4.610   6.050   5.508
 9440SOL    HW129219   4.580   5.957   5.530
 9440SOL    HW229220   4.634   6.054   5.411
 9441SOL     OW29221   1.515   4.782   4.698
 9441SOL    HW129222   1.445   4.747   4.760
 9441SOL    HW229223   1.536   4.713   4.629
 9442SOL     OW29224   0.755   3.477   1.353
 9442SOL    HW129225   0.816   3.505   1.426
 9442SOL    HW229226   0.805   3.421   1.287
 9443SOL     OW29227   1.744   3.231   1.580
 9443SOL    HW129228   1.664   3.185   1.620
 9443SOL    HW229229   1.820   3.225   1.645
 9444SOL     OW29230   0.077   3.454   6.289
 9444SOL    HW129231   0.147   3.386   6.310
 9444SOL    HW229232   0.119   3.545   6.282
 9445SOL     OW29233   6.104   3.893   1.163
 9445SOL    HW129234   6.049   3.827   1.215
 9445SOL    HW229235   6.160   3.946   1.226
 9446SOL     OW29236   5.937   5.032   1.244
 9446SOL    HW129237   5.905   5.035   1.338
 9446SOL    HW229238   6.024   5.082   1.236
 9447SOL     OW29239   6.230   2.787   1.674
 9447SOL    HW129240   6.289   2.777   1.755
 9447SOL    HW229241   6.226   2.883   1.648
 9448SOL     OW29242   6.399   6.356   0.392
 9448SOL    HW129243   6.435   6.275   0.439
 9448SOL    HW229244   6.442   6.438   0.430
 9449SOL     OW29245   6.946   5.416   5.344
 9449SOL    HW129246   6.914   5.504   5.310
 9449SOL    HW229247   6.874   5.348   5.334
 9450SOL     OW29248   2.873   4.928   4.401
 9450SOL    HW129249   2.846   4.838   4.366
 9450SOL    HW229250   2.865   4.996   4.328
 9451SOL     OW29251   4.148   4.425   5.947
 9451SOL    HW129252   4.088   4.392   6.020
 9451SOL    HW229253   4.093   4.454   5.868
 9452SOL     OW29254   2.931   4.345   1.400
 9452SOL    HW129255   2.878   4.383   1.476
 9452SOL    HW229256   2.871   4.287   1.345
 9453SOL     OW29257   3.447   5.019   1.927
 9453SOL    HW129258   3.384   4.988   1.998
 9453SOL    HW229259   3.502   4.942   1.895
 9454SOL     OW29260   2.453   2.507   4.988
 9454SOL    HW129261   2.495   2.546   5.070
 9454SOL    HW229262   2.369   2.458   5.014
 9455SOL     OW29263   3.504   1.808   2.586
 9455SOL    HW129264   3.461   1.816   2.496
 9455SOL    HW229265   3.467   1.729   2.634
 9456SOL     OW29266   1.581   2.952   1.184
 9456SOL    HW129267   1.547   3.044   1.162
 9456SOL    HW229268   1.570   2.893   1.104
 9457SOL     OW29269   0.269   3.300   0.458
 9457SOL    HW129270   0.253   3.388   0.414
 9457SOL    HW229271   0.362   3.269   0.437
 9458SOL     OW29272   0.137   5.869   4.647
 9458SOL    HW129273   0.128   5.968   4.655
 9458SOL    HW229274   0.203   5.848   4.574
 9459SOL     OW29275   4.560   6.096   1.815
 9459SOL    HW129276   4.628   6.120   1.746
 9459SOL    HW229277   4.606   6.081   1.903
 9460SOL     OW29278   0.565   2.263   5.358
 9460SOL    HW129279   0.495   2.330   5.380
 9460SOL    HW229280   0.549   2.179   5.411
 9461SOL     OW29281   1.603   0.384   3.392
 9461SOL    HW129282   1.507   0.393   3.364
 9461SOL    HW229283   1.608   0.330   3.476
 9462SOL     OW29284   0.543   3.393   2.870
 9462SOL    HW129285   0.582   3.346   2.949
 9462SOL    HW229286   0.614   3.446   2.824
 9463SOL     OW29287   5.262   1.351   0.597
 9463SOL    HW129288   5.241   1.372   0.501
 9463SOL    HW229289   5.288   1.255   0.605
 9464SOL     OW29290   4.871   0.160   6.284
 9464SOL    HW129291   4.883   0.180   6.381
 9464SOL    HW229292   4.945   0.100   6.254
 9465SOL     OW29293   5.746   0.520   4.523
 9465SOL    HW129294   5.681   0.459   4.478
 9465SOL    HW229295   5.715   0.615   4.512
 9466SOL     OW29296   2.913   2.267   6.901
 9466SOL    HW129297   2.896   2.169   6.906
 9466SOL    HW229298   2.840   2.310   6.848
 9467SOL     OW29299   1.990   3.386   2.131
 9467SOL    HW129300   2.075   3.435   2.110
 9467SOL    HW229301   1.932   3.444   2.189
 9468SOL     OW29302   6.949   2.456   5.782
 9468SOL    HW129303   6.851   2.471   5.765
 9468SOL    HW229304   6.962   2.419   5.874
 9469SOL     OW29305   6.334   4.183   2.172
 9469SOL    HW129306   6.247   4.232   2.160
 9469SOL    HW229307   6.344   4.157   2.268
 9470SOL     OW29308   5.247   4.047   1.066
 9470SOL    HW129309   5.229   3.981   0.993
 9470SOL    HW229310   5.235   4.003   1.154
 9471SOL     OW29311   6.502   2.286   6.403
 9471SOL    HW129312   6.470   2.221   6.334
 9471SOL    HW229313   6.425   2.340   6.436
 9472SOL     OW29314   6.555   3.531   4.602
 9472SOL    HW129315   6.553   3.464   4.676
 9472SOL    HW229316   6.638   3.586   4.610
 9473SOL     OW29317   3.625   5.338   4.853
 9473SOL    HW129318   3.543   5.328   4.910
 9473SOL    HW229319   3.602   5.315   4.758
 9474SOL     OW29320   4.035   5.142   2.502
 9474SOL    HW129321   3.951   5.145   2.449
 9474SOL    HW229322   4.027   5.073   2.575
 9475SOL     OW29323   1.415   3.760   1.378
 9475SOL    HW129324   1.439   3.849   1.416
 9475SOL    HW229325   1.454   3.688   1.436
 9476SOL     OW29326   3.813   3.554   5.552
 9476SOL    HW129327   3.837   3.545   5.648
 9476SOL    HW229328   3.896   3.561   5.497
 9477SOL     OW29329   1.106   3.211   1.060
 9477SOL    HW129330   1.117   3.135   1.125
 9477SOL    HW229331   1.193   3.232   1.017
 9478SOL     OW29332   5.391   4.958   5.488
 9478SOL    HW129333   5.356   4.998   5.404
 9478SOL    HW229334   5.465   4.894   5.466
 9479SOL     OW29335   6.912   6.068   5.737
 9479SOL    HW129336   6.899   5.979   5.694
 9479SOL    HW229337   7.008   6.078   5.766
 9480SOL     OW29338   6.318   4.887   0.230
 9480SOL    HW129339   6.241   4.894   0.166
 9480SOL    HW229340   6.375   4.968   0.222
 9481SOL     OW29341   6.838   3.366   2.053
 9481SOL    HW129342   6.791   3.295   2.105
 9481SOL    HW229343   6.870   3.437   2.116
 9482SOL     OW29344   3.700   0.479   2.600
 9482SOL    HW129345   3.769   0.430   2.652
 9482SOL    HW229346   3.745   0.548   2.542
 9483SOL     OW29347   1.602   1.615   6.678
 9483SOL    HW129348   1.569   1.579   6.591
 9483SOL    HW229349   1.582   1.713   6.684
 9484SOL     OW29350   6.495   1.149   2.928
 9484SOL    HW129351   6.540   1.071   2.884
 9484SOL    HW229352   6.561   1.224   2.938
 9485SOL     OW29353   1.334   0.455   3.262
 9485SOL    HW129354   1.347   0.448   3.163
 9485SOL    HW229355   1.262   0.521   3.282
 9486SOL     OW29356   3.233   6.162   2.042
 9486SOL    HW129357   3.213   6.072   2.003
 9486SOL    HW229358   3.331   6.179   2.037
 9487SOL     OW29359   3.032   3.218   3.660
 9487SOL    HW129360   3.092   3.166   3.599
 9487SOL    HW229361   3.084   3.248   3.740
 9488SOL     OW29362   1.494   0.374   1.203
 9488SOL    HW129363   1.398   0.393   1.222
 9488SOL    HW229364   1.505   0.278   1.177
 9489SOL     OW29365   3.671   3.961   0.179
 9489SOL    HW129366   3.697   3.948   0.084
 9489SOL    HW229367   3.753   3.963   0.236
 9490SOL     OW29368   5.239   1.058   0.637
 9490SOL    HW129369   5.154   1.089   0.680
 9490SOL    HW229370   5.309   1.044   0.707
 9491SOL     OW29371   6.159   5.204   6.639
 9491SOL    HW129372   6.066   5.172   6.621
 9491SOL    HW229373   6.225   5.144   6.594
 9492SOL     OW29374   3.087   3.974   2.094
 9492SOL    HW129375   3.062   4.040   2.023
 9492SOL    HW229376   3.149   4.018   2.159
 9493SOL     OW29377   5.124   5.956   3.317
 9493SOL    HW129378   5.059   5.950   3.241
 9493SOL    HW229379   5.217   5.947   3.282
 9494SOL     OW29380   4.181   3.321   5.302
 9494SOL    HW129381   4.247   3.394   5.283
 9494SOL    HW229382   4.230   3.237   5.325
 9495SOL     OW29383   5.687   2.691   5.475
 9495SOL    HW129384   5.753   2.739   5.418
 9495SOL    HW229385   5.610   2.661   5.420
 9496SOL     OW29386   5.585   4.038   0.190
 9496SOL    HW129387   5.534   4.120   0.217
 9496SOL    HW229388   5.670   4.033   0.242
 9497SOL     OW29389   0.125   6.372   5.986
 9497SOL    HW129390   0.085   6.382   5.895
 9497SOL    HW229391   0.060   6.326   6.046
 9498SOL     OW29392   4.475   0.337   5.634
 9498SOL    HW129393   4.550   0.383   5.681
 9498SOL    HW229394   4.401   0.403   5.618
 9499SOL     OW29395   4.479   4.257   5.798
 9499SOL    HW129396   4.382   4.237   5.812
 9499SOL    HW229397   4.509   4.214   5.712
 9500SOL     OW29398   5.240   5.748   1.931
 9500SOL    HW129399   5.257   5.743   2.029
 9500SOL    HW229400   5.141   5.743   1.914
 9501SOL     OW29401   3.208   1.852   4.653
 9501SOL    HW129402   3.114   1.879   4.678
 9501SOL    HW229403   3.271   1.925   4.680
 9502SOL     OW29404   5.662   3.470   5.432
 9502SOL    HW129405   5.578   3.525   5.435
 9502SOL    HW229406   5.663   3.406   5.509
 9503SOL     OW29407   1.636   6.426   0.861
 9503SOL    HW129408   1.598   6.363   0.929
 9503SOL    HW229409   1.628   6.520   0.895
 9504SOL     OW29410   0.826   2.794   6.450
 9504SOL    HW129411   0.901   2.834   6.398
 9504SOL    HW229412   0.819   2.696   6.429
 9505SOL     OW29413   5.742   3.294   2.648
 9505SOL    HW129414   5.667   3.229   2.650
 9505SOL    HW229415   5.751   3.333   2.556
 9506SOL     OW29416   6.390   3.691   0.322
 9506SOL    HW129417   6.341   3.762   0.270
 9506SOL    HW229418   6.383   3.711   0.420
 9507SOL     OW29419   1.140   1.915   3.755
 9507SOL    HW129420   1.236   1.888   3.747
 9507SOL    HW229421   1.108   1.949   3.666
 9508SOL     OW29422   5.216   2.034   0.628
 9508SOL    HW129423   5.298   2.067   0.581
 9508SOL    HW229424   5.164   2.112   0.663
 9509SOL     OW29425   2.375   6.794   5.166
 9509SOL    HW129426   2.461   6.831   5.203
 9509SOL    HW229427   2.298   6.828   5.220
 9510SOL     OW29428   6.064   4.563   3.302
 9510SOL    HW129429   5.977   4.535   3.341
 9510SOL    HW229430   6.123   4.484   3.292
 9511SOL     OW29431   0.892   1.158   0.765
 9511SOL    HW129432   0.829   1.157   0.843
 9511SOL    HW229433   0.948   1.242   0.769
 9512SOL     OW29434   1.465   2.367   3.992
 9512SOL    HW129435   1.472   2.386   4.090
 9512SOL    HW229436   1.382   2.315   3.974
 9513SOL     OW29437   2.402   4.327   3.783
 9513SOL    HW129438   2.430   4.387   3.707
 9513SOL    HW229439   2.421   4.232   3.759
 9514SOL     OW29440   2.494   2.914   6.364
 9514SOL    HW129441   2.423   2.983   6.378
 9514SOL    HW229442   2.584   2.957   6.366
 9515SOL     OW29443   2.384   5.773   6.243
 9515SOL    HW129444   2.318   5.820   6.184
 9515SOL    HW229445   2.401   5.682   6.208
 9516SOL     OW29446   5.274   3.295   4.421
 9516SOL    HW129447   5.221   3.344   4.352
 9516SOL    HW229448   5.250   3.328   4.512
 9517SOL     OW29449   0.309   5.623   2.371
 9517SOL    HW129450   0.238   5.606   2.302
 9517SOL    HW229451   0.386   5.562   2.354
 9518SOL     OW29452   0.625   2.592   5.617
 9518SOL    HW129453   0.677   2.582   5.532
 9518SOL    HW229454   0.682   2.640   5.685
 9519SOL     OW29455   3.347   3.537   3.051
 9519SOL    HW129456   3.316   3.449   3.088
 9519SOL    HW229457   3.333   3.608   3.119
 9520SOL     OW29458   5.599   0.424   6.242
 9520SOL    HW129459   5.512   0.383   6.215
 9520SOL    HW229460   5.618   0.503   6.184
 9521SOL     OW29461   3.587   0.515   0.808
 9521SOL    HW129462   3.520   0.568   0.755
 9521SOL    HW229463   3.654   0.474   0.746
 9522SOL     OW29464   3.423   6.647   2.420
 9522SOL    HW129465   3.517   6.629   2.451
 9522SOL    HW229466   3.416   6.743   2.391
 9523SOL     OW29467   2.884   4.835   3.744
 9523SOL    HW129468   2.790   4.857   3.770
 9523SOL    HW229469   2.935   4.805   3.824
 9524SOL     OW29470   2.835   4.117   1.230
 9524SOL    HW129471   2.894   4.037   1.233
 9524SOL    HW229472   2.741   4.090   1.253
 9525SOL     OW29473   2.175   3.136   5.134
 9525SOL    HW129474   2.259   3.085   5.119
 9525SOL    HW229475   2.190   3.205   5.206
 9526SOL     OW29476   5.206   5.039   7.004
 9526SOL    HW129477   5.116   5.003   0.008
 9526SOL    HW229478   5.216   5.047   6.905
 9527SOL     OW29479   4.157   0.200   3.273
 9527SOL    HW129480   4.083   0.150   3.228
 9527SOL    HW229481   4.121   0.286   3.310
 9528SOL     OW29482   5.838   2.269   1.120
 9528SOL    HW129483   5.780   2.236   1.045
 9528SOL    HW229484   5.932   2.282   1.085
 9529SOL     OW29485   6.327   1.081   1.413
 9529SOL    HW129486   6.420   1.098   1.378
 9529SOL    HW229487   6.329   1.006   1.479
 9530SOL     OW29488   1.214   5.572   3.911
 9530SOL    HW129489   1.237   5.664   3.946
 9530SOL    HW229490   1.225   5.506   3.985
 9531SOL     OW29491   3.484   5.218   2.288
 9531SOL    HW129492   3.413   5.274   2.245
 9531SOL    HW229493   3.445   5.132   2.320
 9532SOL     OW29494   6.647   5.149   3.079
 9532SOL    HW129495   6.598   5.124   3.162
 9532SOL    HW229496   6.586   5.203   3.020
 9533SOL     OW29497   1.759   3.879   3.285
 9533SOL    HW129498   1.746   3.802   3.224
 9533SOL    HW229499   1.816   3.948   3.240
 9534SOL     OW29500   5.594   4.787   4.586
 9534SOL    HW129501   5.519   4.843   4.551
 9534SOL    HW229502   5.678   4.840   4.584
 9535SOL     OW29503   0.868   1.205   5.623
 9535SOL    HW129504   0.883   1.284   5.564
 9535SOL    HW229505   0.787   1.221   5.679
 9536SOL     OW29506   3.585   4.150   5.177
 9536SOL    HW129507   3.665   4.183   5.127
 9536SOL    HW229508   3.509   4.136   5.113
 9537SOL     OW29509   0.668   1.485   3.342
 9537SOL    HW129510   0.752   1.530   3.310
 9537SOL    HW229511   0.692   1.402   3.394
 9538SOL     OW29512   4.588   0.895   5.561
 9538SOL    HW129513   4.684   0.894   5.533
 9538SOL    HW229514   4.531   0.923   5.485
 9539SOL     OW29515   3.525   3.483   2.371
 9539SOL    HW129516   3.465   3.536   2.430
 9539SOL    HW229517   3.479   3.464   2.285
 9540SOL     OW29518   4.419   4.608   3.444
 9540SOL    HW129519   4.352   4.662   3.394
 9540SOL    HW229520   4.462   4.543   3.382
 9541SOL     OW29521   2.169   5.305   6.014
 9541SOL    HW129522   2.197   5.400   6.023
 9541SOL    HW229523   2.071   5.301   5.995
 9542SOL     OW29524   6.301   3.846   4.444
 9542SOL    HW129525   6.218   3.810   4.402
 9542SOL    HW229526   6.295   3.945   4.452
 9543SOL     OW29527   2.906   0.143   5.311
 9543SOL    HW129528   2.990   0.101   5.344
 9543SOL    HW229529   2.921   0.241   5.298
 9544SOL     OW29530   5.717   3.653   4.168
 9544SOL    HW129531   5.684   3.559   4.170
 9544SOL    HW229532   5.795   3.659   4.106
 9545SOL     OW29533   1.018   4.539   1.627
 9545SOL    HW129534   0.996   4.450   1.667
 9545SOL    HW229535   1.003   4.610   1.696
 9546SOL     OW29536   2.534   2.563   6.879
 9546SOL    HW129537   2.489   2.475   6.893
 9546SOL    HW229538   2.605   2.576   6.948
 9547SOL     OW29539   4.083   6.532   4.129
 9547SOL    HW129540   4.165   6.516   4.184
 9547SOL    HW229541   4.075   6.630   4.109
 9548SOL     OW29542   1.174   4.748   0.062
 9548SOL    HW129543   1.229   4.826   0.034
 9548SOL    HW229544   1.224   4.663   0.041
 9549SOL     OW29545   5.185   3.006   0.995
 9549SOL    HW129546   5.251   3.069   1.035
 9549SOL    HW229547   5.143   2.951   1.068
 9550SOL     OW29548   5.675   3.087   1.478
 9550SOL    HW129549   5.755   3.027   1.473
 9550SOL    HW229550   5.705   3.182   1.483
 9551SOL     OW29551   6.516   3.064   6.458
 9551SOL    HW129552   6.443   3.054   6.390
 9551SOL    HW229553   6.551   3.157   6.455
 9552SOL     OW29554   3.180   2.288   6.828
 9552SOL    HW129555   3.086   2.283   6.861
 9552SOL    HW229556   3.213   2.383   6.834
 9553SOL     OW29557   5.439   1.440   6.500
 9553SOL    HW129558   5.502   1.474   6.570
 9553SOL    HW229559   5.355   1.494   6.501
 9554SOL     OW29560   2.502   6.455   3.772
 9554SOL    HW129561   2.564   6.524   3.735
 9554SOL    HW229562   2.428   6.438   3.706
 9555SOL     OW29563   6.584   0.569   3.722
 9555SOL    HW129564   6.511   0.551   3.788
 9555SOL    HW229565   6.591   0.492   3.659
 9556SOL     OW29566   1.977   4.330   6.938
 9556SOL    HW129567   2.014   4.293   6.852
 9556SOL    HW229568   1.922   4.259   6.983
 9557SOL     OW29569   5.117   0.940   1.618
 9557SOL    HW129570   5.159   0.855   1.649
 9557SOL    HW229571   5.035   0.958   1.673
 9558SOL     OW29572   4.638   6.606   6.599
 9558SOL    HW129573   4.713   6.606   6.666
 9558SOL    HW229574   4.655   6.535   6.530
 9559SOL     OW29575   1.409   4.031   0.214
 9559SOL    HW129576   1.421   3.941   0.171
 9559SOL    HW229577   1.363   4.092   0.150
 9560SOL     OW29578   3.534   6.817   1.922
 9560SOL    HW129579   3.576   6.763   1.995
 9560SOL    HW229580   3.471   6.884   1.962
 9561SOL     OW29581   0.880   0.599   0.611
 9561SOL    HW129582   0.897   0.600   0.710
 9561SOL    HW229583   0.968   0.596   0.563
 9562SOL     OW29584   3.137   5.919   3.369
 9562SOL    HW129585   3.037   5.914   3.370
 9562SOL    HW229586   3.169   5.930   3.275
 9563SOL     OW29587   0.431   6.247   1.282
 9563SOL    HW129588   0.453   6.172   1.344
 9563SOL    HW229589   0.499   6.251   1.208
 9564SOL     OW29590   1.040   0.743   0.083
 9564SOL    HW129591   1.089   0.657   0.070
 9564SOL    HW229592   1.092   0.817   0.041
 9565SOL     OW29593   3.180   1.441   3.649
 9565SOL    HW129594   3.226   1.521   3.686
 9565SOL    HW229595   3.216   1.358   3.693
 9566SOL     OW29596   3.039   0.926   0.202
 9566SOL    HW129597   3.047   0.837   0.247
 9566SOL    HW229598   3.026   0.913   0.104
 9567SOL     OW29599   6.568   3.897   1.089
 9567SOL    HW129600   6.603   3.806   1.112
 9567SOL    HW229601   6.509   3.891   1.008
 9568SOL     OW29602   4.773   1.614   6.834
 9568SOL    HW129603   4.790   1.694   6.892
 9568SOL    HW229604   4.775   1.531   6.890
 9569SOL     OW29605   5.757   0.916   2.184
 9569SOL    HW129606   5.731   0.829   2.225
 9569SOL    HW229607   5.851   0.911   2.151
 9570SOL     OW29608   0.619   3.048   1.420
 9570SOL    HW129609   0.527   3.076   1.392
 9570SOL    HW229610   0.645   3.099   1.503
 9571SOL     OW29611   2.291   2.012   6.768
 9571SOL    HW129612   2.311   2.007   6.865
 9571SOL    HW229613   2.334   2.094   6.729
 9572SOL     OW29614   2.227   4.099   3.921
 9572SOL    HW129615   2.255   4.185   3.964
 9572SOL    HW229616   2.143   4.114   3.869
 9573SOL     OW29617   6.250   0.832   4.629
 9573SOL    HW129618   6.218   0.834   4.534
 9573SOL    HW229619   6.307   0.913   4.646
 9574SOL     OW29620   3.196   3.293   1.312
 9574SOL    HW129621   3.277   3.235   1.321
 9574SOL    HW229622   3.115   3.241   1.339
 9575SOL     OW29623   6.168   6.583   1.495
 9575SOL    HW129624   6.205   6.676   1.492
 9575SOL    HW229625   6.075   6.586   1.531
 9576SOL     OW29626   0.710   6.604   0.084
 9576SOL    HW129627   0.611   6.612   0.072
 9576SOL    HW229628   0.744   6.527   0.029
 9577SOL     OW29629   6.234   5.426   2.201
 9577SOL    HW129630   6.308   5.362   2.179
 9577SOL    HW229631   6.206   5.412   2.296
 9578SOL     OW29632   2.076   2.785   3.066
 9578SOL    HW129633   2.023   2.783   3.151
 9578SOL    HW229634   2.130   2.869   3.063
 9579SOL     OW29635   5.807   6.015   2.200
 9579SOL    HW129636   5.818   6.080   2.275
 9579SOL    HW229637   5.875   5.942   2.210
 9580SOL     OW29638   5.219   4.670   2.713
 9580SOL    HW129639   5.221   4.613   2.795
 9580SOL    HW229640   5.295   4.645   2.653
 9581SOL     OW29641   6.463   1.387   0.137
 9581SOL    HW129642   6.446   1.291   0.116
 9581SOL    HW229643   6.508   1.431   0.059
 9582SOL     OW29644   4.890   6.053   4.355
 9582SOL    HW129645   4.813   6.101   4.314
 9582SOL    HW229646   4.972   6.112   4.352
 9583SOL     OW29647   3.518   4.348   1.762
 9583SOL    HW129648   3.556   4.435   1.792
 9583SOL    HW229649   3.529   4.281   1.836
 9584SOL     OW29650   2.169   5.547   4.869
 9584SOL    HW129651   2.247   5.549   4.931
 9584SOL    HW229652   2.158   5.455   4.832
 9585SOL     OW29653   4.156   5.506   1.146
 9585SOL    HW129654   4.183   5.410   1.142
 9585SOL    HW229655   4.218   5.561   1.089
 9586SOL     OW29656   4.499   4.997   2.085
 9586SOL    HW129657   4.414   4.954   2.056
 9586SOL    HW229658   4.566   4.926   2.108
 9587SOL     OW29659   2.660   5.890   1.701
 9587SOL    HW129660   2.702   5.910   1.612
 9587SOL    HW229661   2.682   5.963   1.765
 9588SOL     OW29662   6.554   5.384   0.453
 9588SOL    HW129663   6.621   5.343   0.392
 9588SOL    HW229664   6.494   5.444   0.401
 9589SOL     OW29665   1.680   3.682   5.952
 9589SOL    HW129666   1.780   3.689   5.953
 9589SOL    HW229667   1.641   3.766   5.913
 9590SOL     OW29668   5.751   1.723   1.686
 9590SOL    HW129669   5.721   1.817   1.702
 9590SOL    HW229670   5.763   1.676   1.774
 9591SOL     OW29671   3.652   0.627   6.563
 9591SOL    HW129672   3.681   0.532   6.578
 9591SOL    HW229673   3.575   0.629   6.499
 9592SOL     OW29674   2.497   5.373   5.879
 9592SOL    HW129675   2.403   5.349   5.905
 9592SOL    HW229676   2.555   5.292   5.890
 9593SOL     OW29677   1.941   1.546   4.615
 9593SOL    HW129678   2.022   1.591   4.652
 9593SOL    HW229679   1.902   1.602   4.542
 9594SOL     OW29680   0.398   6.084   3.975
 9594SOL    HW129681   0.488   6.093   3.933
 9594SOL    HW229682   0.386   6.157   4.043
 9595SOL     OW29683   0.139   3.317   3.573
 9595SOL    HW129684   0.165   3.263   3.493
 9595SOL    HW229685   0.070   3.268   3.626
 9596SOL     OW29686   0.386   6.730   0.916
 9596SOL    HW129687   0.438   6.814   0.899
 9596SOL    HW229688   0.290   6.745   0.889
 9597SOL     OW29689   0.595   3.921   2.693
 9597SOL    HW129690   0.636   3.864   2.622
 9597SOL    HW229691   0.580   3.865   2.775
 9598SOL     OW29692   1.145   4.162   3.454
 9598SOL    HW129693   1.120   4.089   3.517
 9598SOL    HW229694   1.063   4.206   3.419
 9599SOL     OW29695   3.853   0.050   4.060
 9599SOL    HW129696   3.870   0.123   3.994
 9599SOL    HW229697   3.832   6.983   4.013
 9600SOL     OW29698   3.356   0.725   1.482
 9600SOL    HW129699   3.365   0.823   1.467
 9600SOL    HW229700   3.352   0.677   1.394
 9601SOL     OW29701   6.865   4.120   1.507
 9601SOL    HW129702   6.903   4.184   1.573
 9601SOL    HW229703   6.872   4.027   1.542
 9602SOL     OW29704   4.756   4.389   5.782
 9602SOL    HW129705   4.841   4.424   5.822
 9602SOL    HW229706   4.687   4.380   5.853
 9603SOL     OW29707   5.582   6.151   5.556
 9603SOL    HW129708   5.662   6.207   5.578
 9603SOL    HW229709   5.531   6.132   5.640
 9604SOL     OW29710   5.270   6.985   0.084
 9604SOL    HW129711   5.233   0.032   0.150
 9604SOL    HW229712   5.253   6.892   0.116
 9605SOL     OW29713   6.544   6.264   3.578
 9605SOL    HW129714   6.490   6.339   3.542
 9605SOL    HW229715   6.549   6.191   3.510
 9606SOL     OW29716   1.368   1.593   6.504
 9606SOL    HW129717   1.355   1.654   6.426
 9606SOL    HW229718   1.284   1.591   6.559
 9607SOL     OW29719   3.258   2.757   5.987
 9607SOL    HW129720   3.239   2.845   5.945
 9607SOL    HW229721   3.280   2.770   6.084
 9608SOL     OW29722   6.838   3.811   3.542
 9608SOL    HW129723   6.752   3.862   3.546
 9608SOL    HW229724   6.826   3.721   3.583
 9609SOL     OW29725   3.948   2.562   5.845
 9609SOL    HW129726   3.914   2.648   5.808
 9609SOL    HW229727   3.890   2.532   5.920
 9610SOL     OW29728   1.366   4.077   2.680
 9610SOL    HW129729   1.458   4.066   2.643
 9610SOL    HW229730   1.300   4.083   2.604
 9611SOL     OW29731   1.240   0.458   0.788
 9611SOL    HW129732   1.183   0.432   0.710
 9611SOL    HW229733   1.227   0.555   0.809
 9612SOL     OW29734   0.517   3.013   3.011
 9612SOL    HW129735   0.544   2.938   2.949
 9612SOL    HW229736   0.436   3.059   2.974
 9613SOL     OW29737   5.811   5.549   3.419
 9613SOL    HW129738   5.864   5.480   3.370
 9613SOL    HW229739   5.728   5.508   3.455
 9614SOL     OW29740   5.201   1.938   3.064
 9614SOL    HW129741   5.208   1.874   2.988
 9614SOL    HW229742   5.145   1.898   3.136
 9615SOL     OW29743   2.332   3.146   1.127
 9615SOL    HW129744   2.339   3.063   1.181
 9615SOL    HW229745   2.417   3.198   1.134
 9616SOL     OW29746   3.789   2.776   6.839
 9616SOL    HW129747   3.845   2.837   6.783
 9616SOL    HW229748   3.773   2.691   6.790
 9617SOL     OW29749   2.286   2.354   4.054
 9617SOL    HW129750   2.200   2.321   4.093
 9617SOL    HW229751   2.323   2.285   3.993
 9618SOL     OW29752   2.876   1.019   0.763
 9618SOL    HW129753   2.813   1.083   0.806
 9618SOL    HW229754   2.826   0.961   0.699
 9619SOL     OW29755   2.579   1.004   4.663
 9619SOL    HW129756   2.653   1.040   4.607
 9619SOL    HW229757   2.615   0.935   4.726
 9620SOL     OW29758   5.605   0.162   5.498
 9620SOL    HW129759   5.581   0.255   5.468
 9620SOL    HW229760   5.523   0.114   5.528
 9621SOL     OW29761   1.681   2.649   3.123
 9621SOL    HW129762   1.725   2.605   3.201
 9621SOL    HW229763   1.751   2.681   3.059
 9622SOL     OW29764   5.745   0.439   1.547
 9622SOL    HW129765   5.749   0.539   1.543
 9622SOL    HW229766   5.754   0.409   1.642
 9623SOL     OW29767   3.257   3.519   6.641
 9623SOL    HW129768   3.268   3.489   6.547
 9623SOL    HW229769   3.329   3.479   6.698
 9624SOL     OW29770   6.013   3.248   3.125
 9624SOL    HW129771   6.073   3.244   3.204
 9624SOL    HW229772   5.920   3.225   3.152
 9625SOL     OW29773   6.092   5.971   0.080
 9625SOL    HW129774   6.056   5.922   7.018
 9625SOL    HW229775   6.117   6.064   0.054
 9626SOL     OW29776   3.776   6.656   6.410
 9626SOL    HW129777   3.741   6.740   6.450
 9626SOL    HW229778   3.836   6.610   6.475
 9627SOL     OW29779   1.007   6.621   6.849
 9627SOL    HW129780   1.005   6.547   6.782
 9627SOL    HW229781   1.033   6.706   6.804
 9628SOL     OW29782   4.069   5.989   1.722
 9628SOL    HW129783   4.115   6.029   1.642
 9628SOL    HW229784   4.039   5.896   1.700
 9629SOL     OW29785   2.552   6.329   1.177
 9629SOL    HW129786   2.629   6.375   1.132
 9629SOL    HW229787   2.471   6.387   1.173
 9630SOL     OW29788   6.159   0.896   5.812
 9630SOL    HW129789   6.095   0.951   5.758
 9630SOL    HW229790   6.129   0.801   5.813
 9631SOL     OW29791   5.946   5.829   6.934
 9631SOL    HW129792   5.862   5.844   6.882
 9631SOL    HW229793   5.926   5.775   7.015
 9632SOL     OW29794   1.726   6.081   1.809
 9632SOL    HW129795   1.692   6.010   1.870
 9632SOL    HW229796   1.805   6.047   1.758
 9633SOL     OW29797   6.865   5.484   6.475
 9633SOL    HW129798   6.823   5.501   6.386
 9633SOL    HW229799   6.805   5.518   6.547
 9634SOL     OW29800   0.964   6.363   4.668
 9634SOL    HW129801   1.019   6.301   4.613
 9634SOL    HW229802   1.005   6.454   4.666
 9635SOL     OW29803   2.122   5.129   5.408
 9635SOL    HW129804   2.063   5.160   5.481
 9635SOL    HW229805   2.138   5.204   5.343
 9636SOL     OW29806   3.885   1.507   6.015
 9636SOL    HW129807   3.851   1.443   5.946
 9636SOL    HW229808   3.813   1.526   6.082
 9637SOL     OW29809   2.077   1.437   6.770
 9637SOL    HW129810   2.088   1.361   6.834
 9637SOL    HW229811   1.981   1.466   6.769
 9638SOL     OW29812   6.434   2.158   5.198
 9638SOL    HW129813   6.341   2.148   5.232
 9638SOL    HW229814   6.457   2.080   5.140
 9639SOL     OW29815   4.364   1.088   2.591
 9639SOL    HW129816   4.371   1.182   2.624
 9639SOL    HW229817   4.453   1.044   2.594
 9640SOL     OW29818   2.001   2.083   2.040
 9640SOL    HW129819   2.050   2.158   2.085
 9640SOL    HW229820   2.057   2.045   1.967
 9641SOL     OW29821   6.320   5.925   0.199
 9641SOL    HW129822   6.230   5.916   0.156
 9641SOL    HW229823   6.370   6.001   0.156
 9642SOL     OW29824   3.245   0.351   4.350
 9642SOL    HW129825   3.276   0.428   4.406
 9642SOL    HW229826   3.309   0.339   4.274
 9643SOL     OW29827   4.687   4.417   3.752
 9643SOL    HW129828   4.734   4.499   3.718
 9643SOL    HW229829   4.594   4.415   3.716
 9644SOL     OW29830   2.182   2.104   5.842
 9644SOL    HW129831   2.227   2.084   5.930
 9644SOL    HW229832   2.171   2.019   5.791
 9645SOL     OW29833   3.045   5.355   5.171
 9645SOL    HW129834   3.025   5.306   5.086
 9645SOL    HW229835   3.126   5.315   5.214
 9646SOL     OW29836   4.315   4.627   3.042
 9646SOL    HW129837   4.348   4.627   2.948
 9646SOL    HW229838   4.275   4.716   3.064
 9647SOL     OW29839   6.517   3.100   0.316
 9647SOL    HW129840   6.431   3.049   0.318
 9647SOL    HW229841   6.499   3.196   0.337
 9648SOL     OW29842   4.688   2.806   1.132
 9648SOL    HW129843   4.754   2.865   1.086
 9648SOL    HW229844   4.700   2.812   1.231
 9649SOL     OW29845   2.038   5.964   0.630
 9649SOL    HW129846   1.940   5.948   0.643
 9649SOL    HW229847   2.052   6.059   0.602
 9650SOL     OW29848   6.753   6.569   1.888
 9650SOL    HW129849   6.764   6.587   1.790
 9650SOL    HW229850   6.839   6.534   1.925
 9651SOL     OW29851   0.170   1.632   5.806
 9651SOL    HW129852   0.126   1.576   5.876
 9651SOL    HW229853   0.112   1.710   5.785
 9652SOL     OW29854   0.875   5.925   3.111
 9652SOL    HW129855   0.786   5.958   3.141
 9652SOL    HW229856   0.891   5.954   3.016
 9653SOL     OW29857   6.070   5.121   4.431
 9653SOL    HW129858   6.062   5.039   4.487
 9653SOL    HW229859   5.978   5.156   4.409
 9654SOL     OW29860   2.178   2.810   2.222
 9654SOL    HW129861   2.247   2.763   2.168
 9654SOL    HW229862   2.221   2.854   2.301
 9655SOL     OW29863   6.318   2.884   6.749
 9655SOL    HW129864   6.411   2.850   6.735
 9655SOL    HW229865   6.260   2.855   6.673
 9656SOL     OW29866   3.657   0.950   2.765
 9656SOL    HW129867   3.560   0.937   2.745
 9656SOL    HW229868   3.696   1.014   2.699
 9657SOL     OW29869   6.962   0.440   4.832
 9657SOL    HW129870   6.913   0.497   4.898
 9657SOL    HW229871   6.976   0.492   4.748
 9658SOL     OW29872   6.732   2.273   2.830
 9658SOL    HW129873   6.660   2.221   2.785
 9658SOL    HW229874   6.714   2.371   2.820
 9659SOL     OW29875   0.539   4.769   6.973
 9659SOL    HW129876   0.542   4.711   0.037
 9659SOL    HW229877   0.612   4.741   6.910
 9660SOL     OW29878   0.731   5.373   0.018
 9660SOL    HW129879   0.726   5.471   7.018
 9660SOL    HW229880   0.681   5.324   6.965
 9661SOL     OW29881   4.375   6.590   1.225
 9661SOL    HW129882   4.408   6.517   1.165
 9661SOL    HW229883   4.319   6.653   1.172
 9662SOL     OW29884   5.502   0.913   4.304
 9662SOL    HW129885   5.578   0.973   4.277
 9662SOL    HW229886   5.465   0.944   4.392
 9663SOL     OW29887   2.477   5.488   2.289
 9663SOL    HW129888   2.456   5.420   2.219
 9663SOL    HW229889   2.401   5.497   2.353
 9664SOL     OW29890   2.608   6.201   1.556
 9664SOL    HW129891   2.667   6.244   1.487
 9664SOL    HW229892   2.652   6.205   1.646
 9665SOL     OW29893   5.071   4.192   4.681
 9665SOL    HW129894   4.980   4.151   4.685
 9665SOL    HW229895   5.132   4.145   4.745
 9666SOL     OW29896   5.904   4.781   4.300
 9666SOL    HW129897   5.864   4.786   4.208
 9666SOL    HW229898   5.982   4.720   4.299
 9667SOL     OW29899   4.085   3.461   3.673
 9667SOL    HW129900   4.138   3.541   3.644
 9667SOL    HW229901   4.035   3.424   3.595
 9668SOL     OW29902   0.780   1.052   5.188
 9668SOL    HW129903   0.868   1.017   5.154
 9668SOL    HW229904   0.756   1.005   5.273
 9669SOL     OW29905   1.778   5.865   0.628
 9669SOL    HW129906   1.771   5.788   0.565
 9669SOL    HW229907   1.722   5.847   0.709
 9670SOL     OW29908   5.732   5.134   0.388
 9670SOL    HW129909   5.653   5.106   0.333
 9670SOL    HW229910   5.801   5.062   0.386
 9671SOL     OW29911   6.981   6.927   6.026
 9671SOL    HW129912   6.927   6.911   5.943
 9671SOL    HW229913   6.975   6.847   6.086
 9672SOL     OW29914   0.660   6.743   5.025
 9672SOL    HW129915   0.628   6.694   5.106
 9672SOL    HW229916   0.737   6.801   5.049
 9673SOL     OW29917   2.752   3.298   6.266
 9673SOL    HW129918   2.714   3.300   6.174
 9673SOL    HW229919   2.850   3.316   6.262
 9674SOL     OW29920   3.125   6.770   2.166
 9674SOL    HW129921   3.139   6.857   2.118
 9674SOL    HW229922   3.190   6.702   2.131
 9675SOL     OW29923   6.815   2.533   2.299
 9675SOL    HW129924   6.854   2.444   2.321
 9675SOL    HW229925   6.758   2.526   2.217
 9676SOL     OW29926   6.975   3.387   4.573
 9676SOL    HW129927   0.020   3.318   4.607
 9676SOL    HW229928   0.006   3.471   4.552
 9677SOL     OW29929   2.101   3.605   4.822
 9677SOL    HW129930   2.107   3.507   4.840
 9677SOL    HW229931   2.077   3.653   4.907
 9678SOL     OW29932   2.944   3.434   3.089
 9678SOL    HW129933   2.992   3.483   3.016
 9678SOL    HW229934   2.847   3.427   3.066
 9679SOL     OW29935   0.940   3.301   1.566
 9679SOL    HW129936   0.952   3.202   1.576
 9679SOL    HW229937   1.023   3.348   1.596
 9680SOL     OW29938   5.937   5.209   3.750
 9680SOL    HW129939   5.971   5.297   3.715
 9680SOL    HW229940   5.989   5.183   3.830
 9681SOL     OW29941   1.594   0.917   2.992
 9681SOL    HW129942   1.504   0.881   3.016
 9681SOL    HW229943   1.656   0.906   3.070
 9682SOL     OW29944   6.203   4.278   2.967
 9682SOL    HW129945   6.265   4.269   3.045
 9682SOL    HW229946   6.162   4.370   2.968
 9683SOL     OW29947   4.609   6.193   6.504
 9683SOL    HW129948   4.679   6.263   6.489
 9683SOL    HW229949   4.527   6.236   6.541
 9684SOL     OW29950   1.462   3.880   4.000
 9684SOL    HW129951   1.556   3.910   4.019
 9684SOL    HW229952   1.465   3.796   3.946
 9685SOL     OW29953   1.804   2.147   0.012
 9685SOL    HW129954   1.704   2.147   0.021
 9685SOL    HW229955   1.831   2.209   6.956
 9686SOL     OW29956   5.876   0.907   1.601
 9686SOL    HW129957   5.929   0.937   1.522
 9686SOL    HW229958   5.794   0.964   1.611
 9687SOL     OW29959   3.313   0.057   3.926
 9687SOL    HW129960   3.381   7.011   3.959
 9687SOL    HW229961   3.287   0.034   3.832
 9688SOL     OW29962   0.495   1.767   3.157
 9688SOL    HW129963   0.463   1.772   3.062
 9688SOL    HW229964   0.522   1.859   3.188
 9689SOL     OW29965   1.896   5.874   6.078
 9689SOL    HW129966   1.829   5.948   6.083
 9689SOL    HW229967   1.849   5.786   6.076
 9690SOL     OW29968   6.538   4.359   1.217
 9690SOL    HW129969   6.580   4.300   1.286
 9690SOL    HW229970   6.460   4.312   1.177
 9691SOL     OW29971   1.295   4.519   1.663
 9691SOL    HW129972   1.341   4.573   1.592
 9691SOL    HW229973   1.200   4.502   1.635
 9692SOL     OW29974   2.648   5.598   1.068
 9692SOL    HW129975   2.562   5.553   1.095
 9692SOL    HW229976   2.724   5.537   1.087
 9693SOL     OW29977   5.456   6.081   1.607
 9693SOL    HW129978   5.412   6.036   1.529
 9693SOL    HW229979   5.464   6.017   1.683
 9694SOL     OW29980   1.922   2.311   0.287
 9694SOL    HW129981   1.895   2.275   0.197
 9694SOL    HW229982   1.898   2.245   0.358
 9695SOL     OW29983   6.312   4.010   1.311
 9695SOL    HW129984   6.325   4.084   1.245
 9695SOL    HW229985   6.398   3.962   1.326
 9696SOL     OW29986   4.300   3.033   1.381
 9696SOL    HW129987   4.384   3.081   1.406
 9696SOL    HW229988   4.316   2.977   1.300
 9697SOL     OW29989   0.710   6.235   0.171
 9697SOL    HW129990   0.793   6.286   0.194
 9697SOL    HW229991   0.694   6.165   0.241
 9698SOL     OW29992   5.626   2.053   4.969
 9698SOL    HW129993   5.719   2.091   4.967
 9698SOL    HW229994   5.614   1.999   5.052
 9699SOL     OW29995   1.722   3.080   0.379
 9699SOL    HW129996   1.745   3.117   0.289
 9699SOL    HW229997   1.789   3.111   0.446
 9700SOL     OW29998   3.557   4.177   4.506
 9700SOL    HW129999   3.648   4.140   4.523
 9700SOL    HW230000   3.532   4.240   4.579
 9701SOL     OW30001   5.574   4.698   5.026
 9701SOL    HW130002   5.555   4.786   5.068
 9701SOL    HW230003   5.508   4.680   4.953
 9702SOL     OW30004   4.416   0.972   0.967
 9702SOL    HW130005   4.460   1.020   1.044
 9702SOL    HW230006   4.317   0.979   0.976
 9703SOL     OW30007   2.854   6.519   3.633
 9703SOL    HW130008   2.928   6.580   3.663
 9703SOL    HW230009   2.889   6.458   3.563
 9704SOL     OW30010   3.040   0.491   3.202
 9704SOL    HW130011   2.968   0.559   3.213
 9704SOL    HW230012   3.097   0.489   3.284
 9705SOL     OW30013   3.697   4.155   0.859
 9705SOL    HW130014   3.729   4.072   0.906
 9705SOL    HW230015   3.618   4.192   0.909
 9706SOL     OW30016   5.442   2.866   2.934
 9706SOL    HW130017   5.368   2.812   2.894
 9706SOL    HW230018   5.486   2.812   3.006
 9707SOL     OW30019   2.522   5.361   2.616
 9707SOL    HW130020   2.530   5.320   2.525
 9707SOL    HW230021   2.462   5.305   2.673
 9708SOL     OW30022   2.839   1.715   2.850
 9708SOL    HW130023   2.742   1.693   2.847
 9708SOL    HW230024   2.859   1.788   2.785
 9709SOL     OW30025   2.040   5.340   2.588
 9709SOL    HW130026   2.092   5.272   2.535
 9709SOL    HW230027   1.942   5.324   2.574
 9710SOL     OW30028   0.273   0.603   3.469
 9710SOL    HW130029   0.256   0.558   3.381
 9710SOL    HW230030   0.247   0.700   3.461
 9711SOL     OW30031   0.864   4.227   5.002
 9711SOL    HW130032   0.794   4.168   4.961
 9711SOL    HW230033   0.927   4.172   5.056
 9712SOL     OW30034   4.274   2.154   4.268
 9712SOL    HW130035   4.327   2.233   4.296
 9712SOL    HW230036   4.257   2.095   4.347
 9713SOL     OW30037   6.646   4.815   2.607
 9713SOL    HW130038   6.622   4.745   2.674
 9713SOL    HW230039   6.745   4.831   2.609
 9714SOL     OW30040   1.780   1.983   1.693
 9714SOL    HW130041   1.713   1.975   1.619
 9714SOL    HW230042   1.739   1.952   1.778
 9715SOL     OW30043   5.159   5.273   5.056
 9715SOL    HW130044   5.240   5.302   5.106
 9715SOL    HW230045   5.077   5.293   5.110
 9716SOL     OW30046   4.257   1.727   6.471
 9716SOL    HW130047   4.347   1.694   6.442
 9716SOL    HW230048   4.212   1.657   6.525
 9717SOL     OW30049   5.821   4.781   4.010
 9717SOL    HW130050   5.813   4.683   3.989
 9717SOL    HW230051   5.750   4.831   3.961
 9718SOL     OW30052   4.714   3.259   1.570
 9718SOL    HW130053   4.705   3.173   1.620
 9718SOL    HW230054   4.794   3.256   1.511
 9719SOL     OW30055   0.236   1.533   0.236
 9719SOL    HW130056   0.278   1.512   0.325
 9719SOL    HW230057   0.301   1.583   0.180
 9720SOL     OW30058   0.026   0.157   2.072
 9720SOL    HW130059   6.980   0.084   2.098
 9720SOL    HW230060   0.048   0.149   1.975
 9721SOL     OW30061   6.833   3.998   2.612
 9721SOL    HW130062   6.837   3.909   2.566
 9721SOL    HW230063   6.793   4.066   2.551
 9722SOL     OW30064   0.669   0.184   4.030
 9722SOL    HW130065   0.614   0.148   3.955
 9722SOL    HW230066   0.682   0.111   4.098
 9723SOL     OW30067   0.151   1.156   3.866
 9723SOL    HW130068   0.116   1.106   3.945
 9723SOL    HW230069   0.203   1.095   3.807
 9724SOL     OW30070   3.881   2.662   1.379
 9724SOL    HW130071   3.884   2.657   1.479
 9724SOL    HW230072   3.975   2.670   1.343
 9725SOL     OW30073   4.327   3.093   5.345
 9725SOL    HW130074   4.303   3.055   5.434
 9725SOL    HW230075   4.370   3.021   5.289
 9726SOL     OW30076   5.889   6.640   4.995
 9726SOL    HW130077   5.847   6.684   5.074
 9726SOL    HW230078   5.907   6.544   5.016
 9727SOL     OW30079   1.747   2.331   5.839
 9727SOL    HW130080   1.726   2.312   5.935
 9727SOL    HW230081   1.753   2.430   5.825
 9728SOL     OW30082   3.190   4.949   6.698
 9728SOL    HW130083   3.109   4.957   6.756
 9728SOL    HW230084   3.163   4.930   6.604
 9729SOL     OW30085   3.165   5.250   2.358
 9729SOL    HW130086   3.099   5.297   2.298
 9729SOL    HW230087   3.177   5.156   2.326
 9730SOL     OW30088   6.645   3.685   3.212
 9730SOL    HW130089   6.606   3.622   3.144
 9730SOL    HW230090   6.640   3.643   3.303
 9731SOL     OW30091   4.566   5.257   0.689
 9731SOL    HW130092   4.649   5.253   0.744
 9731SOL    HW230093   4.523   5.167   0.687
 9732SOL     OW30094   6.412   5.906   3.314
 9732SOL    HW130095   6.447   5.843   3.383
 9732SOL    HW230096   6.472   5.986   3.309
 9733SOL     OW30097   5.492   4.205   6.539
 9733SOL    HW130098   5.590   4.188   6.550
 9733SOL    HW230099   5.463   4.275   6.605
 9734SOL     OW30100   5.256   2.552   4.826
 9734SOL    HW130101   5.285   2.478   4.886
 9734SOL    HW230102   5.260   2.639   4.874
 9735SOL     OW30103   1.274   4.167   1.024
 9735SOL    HW130104   1.361   4.214   1.010
 9735SOL    HW230105   1.278   4.075   0.985
 9736SOL     OW30106   3.310   1.476   0.626
 9736SOL    HW130107   3.293   1.405   0.695
 9736SOL    HW230108   3.237   1.543   0.630
 9737SOL     OW30109   4.046   2.157   5.052
 9737SOL    HW130110   4.094   2.116   5.129
 9737SOL    HW230111   4.093   2.241   5.025
 9738SOL     OW30112   1.956   0.266   2.391
 9738SOL    HW130113   1.958   0.337   2.320
 9738SOL    HW230114   1.954   0.175   2.347
 9739SOL     OW30115   5.388   5.008   1.711
 9739SOL    HW130116   5.308   4.989   1.767
 9739SOL    HW230117   5.448   4.928   1.710
 9740SOL     OW30118   6.876   4.200   3.187
 9740SOL    HW130119   6.890   4.151   3.273
 9740SOL    HW230120   6.889   4.298   3.202
 9741SOL     OW30121   4.451   2.253   1.559
 9741SOL    HW130122   4.476   2.343   1.594
 9741SOL    HW230123   4.433   2.191   1.635
 9742SOL     OW30124   4.770   2.051   4.286
 9742SOL    HW130125   4.851   2.109   4.281
 9742SOL    HW230126   4.694   2.096   4.239
 9743SOL     OW30127   1.902   2.598   5.486
 9743SOL    HW130128   1.858   2.686   5.505
 9743SOL    HW230129   1.998   2.603   5.515
 9744SOL     OW30130   1.716   0.591   1.755
 9744SOL    HW130131   1.685   0.686   1.756
 9744SOL    HW230132   1.667   0.540   1.826
 9745SOL     OW30133   0.369   2.126   4.587
 9745SOL    HW130134   0.452   2.173   4.619
 9745SOL    HW230135   0.288   2.178   4.616
 9746SOL     OW30136   6.017   1.559   4.591
 9746SOL    HW130137   5.944   1.601   4.537
 9746SOL    HW230138   6.015   1.460   4.579
 9747SOL     OW30139   0.547   0.065   6.842
 9747SOL    HW130140   0.640   0.042   6.870
 9747SOL    HW230141   0.529   0.162   6.858
 9748SOL     OW30142   6.779   6.170   4.026
 9748SOL    HW130143   6.750   6.264   4.013
 9748SOL    HW230144   6.856   6.167   4.089
 9749SOL     OW30145   0.853   4.402   4.555
 9749SOL    HW130146   0.873   4.396   4.653
 9749SOL    HW230147   0.917   4.346   4.504
 9750SOL     OW30148   4.148   4.751   3.617
 9750SOL    HW130149   4.116   4.713   3.531
 9750SOL    HW230150   4.237   4.794   3.604
 9751SOL     OW30151   1.888   2.572   0.485
 9751SOL    HW130152   1.977   2.530   0.498
 9751SOL    HW230153   1.817   2.510   0.518
 9752SOL     OW30154   3.379   1.446   5.724
 9752SOL    HW130155   3.287   1.448   5.763
 9752SOL    HW230156   3.414   1.353   5.724
 9753SOL     OW30157   6.645   6.022   5.298
 9753SOL    HW130158   6.622   6.022   5.201
 9753SOL    HW230159   6.700   5.941   5.320
 9754SOL     OW30160   0.241   2.144   6.250
 9754SOL    HW130161   0.223   2.097   6.336
 9754SOL    HW230162   0.155   2.181   6.213
 9755SOL     OW30163   4.054   4.759   5.192
 9755SOL    HW130164   3.971   4.804   5.223
 9755SOL    HW230165   4.126   4.769   5.261
 9756SOL     OW30166   5.915   2.492   5.869
 9756SOL    HW130167   6.011   2.510   5.887
 9756SOL    HW230168   5.861   2.574   5.888
 9757SOL     OW30169   6.211   2.418   3.808
 9757SOL    HW130170   6.254   2.507   3.791
 9757SOL    HW230171   6.283   2.348   3.811
 9758SOL     OW30172   2.836   0.478   0.330
 9758SOL    HW130173   2.748   0.440   0.301
 9758SOL    HW230174   2.845   0.468   0.429
 9759SOL     OW30175   3.541   6.057   1.210
 9759SOL    HW130176   3.535   6.004   1.125
 9759SOL    HW230177   3.636   6.085   1.224
 9760SOL     OW30178   5.770   4.179   6.528
 9760SOL    HW130179   5.866   4.185   6.554
 9760SOL    HW230180   5.761   4.189   6.429
 9761SOL     OW30181   5.607   5.720   2.754
 9761SOL    HW130182   5.672   5.665   2.702
 9761SOL    HW230183   5.607   5.814   2.718
 9762SOL     OW30184   2.276   1.842   3.887
 9762SOL    HW130185   2.321   1.898   3.957
 9762SOL    HW230186   2.193   1.889   3.857
 9763SOL     OW30187   2.364   1.588   1.427
 9763SOL    HW130188   2.312   1.669   1.399
 9763SOL    HW230189   2.308   1.533   1.489
 9764SOL     OW30190   1.440   2.468   1.942
 9764SOL    HW130191   1.537   2.471   1.965
 9764SOL    HW230192   1.430   2.448   1.844
 9765SOL     OW30193   0.101   1.338   5.615
 9765SOL    HW130194   0.038   1.284   5.670
 9765SOL    HW230195   0.054   1.419   5.581
 9766SOL     OW30196   2.845   0.899   2.069
 9766SOL    HW130197   2.910   0.860   2.134
 9766SOL    HW230198   2.894   0.927   1.986
 9767SOL     OW30199   4.771   0.695   5.230
 9767SOL    HW130200   4.835   0.662   5.160
 9767SOL    HW230201   4.813   0.770   5.280
 9768SOL     OW30202   4.444   2.432   2.852
 9768SOL    HW130203   4.492   2.518   2.835
 9768SOL    HW230204   4.511   2.359   2.869
 9769SOL     OW30205   0.272   1.906   1.590
 9769SOL    HW130206   0.364   1.881   1.621
 9769SOL    HW230207   0.204   1.866   1.651
 9770SOL     OW30208   6.145   4.387   6.488
 9770SOL    HW130209   6.199   4.373   6.405
 9770SOL    HW230210   6.200   4.437   6.555
 9771SOL     OW30211   3.886   5.690   5.389
 9771SOL    HW130212   3.925   5.769   5.342
 9771SOL    HW230213   3.790   5.708   5.410
 9772SOL     OW30214   6.596   0.301   1.998
 9772SOL    HW130215   6.568   0.350   1.916
 9772SOL    HW230216   6.617   0.206   1.975
 9773SOL     OW30217   5.502   5.419   3.501
 9773SOL    HW130218   5.552   5.478   3.564
 9773SOL    HW230219   5.421   5.467   3.468
 9774SOL     OW30220   6.968   4.773   3.229
 9774SOL    HW130221   6.938   4.739   3.318
 9774SOL    HW230222   6.888   4.803   3.177
 9775SOL     OW30223   2.902   2.125   5.014
 9775SOL    HW130224   2.923   2.032   5.045
 9775SOL    HW230225   2.982   2.183   5.025
 9776SOL     OW30226   0.283   5.045   4.841
 9776SOL    HW130227   0.263   4.948   4.848
 9776SOL    HW230228   0.336   5.074   4.921
 9777SOL     OW30229   5.841   5.077   6.868
 9777SOL    HW130230   5.748   5.100   6.842
 9777SOL    HW230231   5.881   5.016   6.799
 9778SOL     OW30232   3.992   0.529   3.658
 9778SOL    HW130233   4.081   0.485   3.671
 9778SOL    HW230234   3.993   0.618   3.705
 9779SOL     OW30235   2.942   2.226   6.170
 9779SOL    HW130236   2.885   2.145   6.189
 9779SOL    HW230237   3.009   2.203   6.100
 9780SOL     OW30238   3.441   4.297   0.446
 9780SOL    HW130239   3.448   4.371   0.513
 9780SOL    HW230240   3.473   4.212   0.486
 9781SOL     OW30241   1.802   5.224   4.132
 9781SOL    HW130242   1.878   5.162   4.113
 9781SOL    HW230243   1.818   5.272   4.218
 9782SOL     OW30244   6.622   0.595   1.451
 9782SOL    HW130245   6.692   0.665   1.463
 9782SOL    HW230246   6.536   0.638   1.426
 9783SOL     OW30247   5.245   1.348   2.733
 9783SOL    HW130248   5.328   1.401   2.712
 9783SOL    HW230249   5.256   1.305   2.823
 9784SOL     OW30250   5.209   0.991   4.177
 9784SOL    HW130251   5.291   1.048   4.183
 9784SOL    HW230252   5.235   0.895   4.195
 9785SOL     OW30253   1.020   2.815   1.109
 9785SOL    HW130254   1.073   2.780   1.186
 9785SOL    HW230255   1.002   2.740   1.045
 9786SOL     OW30256   2.633   6.932   4.763
 9786SOL    HW130257   2.545   6.929   4.716
 9786SOL    HW230258   2.621   6.974   4.854
 9787SOL     OW30259   5.545   4.734   1.913
 9787SOL    HW130260   5.551   4.756   1.816
 9787SOL    HW230261   5.537   4.635   1.925
 9788SOL     OW30262   0.477   1.101   5.527
 9788SOL    HW130263   0.462   1.170   5.456
 9788SOL    HW230264   0.531   1.026   5.489
 9789SOL     OW30265   1.617   5.999   4.448
 9789SOL    HW130266   1.706   6.045   4.450
 9789SOL    HW230267   1.614   5.930   4.520
 9790SOL     OW30268   6.259   1.605   4.342
 9790SOL    HW130269   6.350   1.647   4.338
 9790SOL    HW230270   6.232   1.595   4.438
 9791SOL     OW30271   1.129   2.678   1.346
 9791SOL    HW130272   1.216   2.631   1.365
 9791SOL    HW230273   1.122   2.759   1.404
 9792SOL     OW30274   4.151   5.762   2.225
 9792SOL    HW130275   4.088   5.793   2.154
 9792SOL    HW230276   4.239   5.809   2.215
 9793SOL     OW30277   4.911   5.831   2.666
 9793SOL    HW130278   4.926   5.807   2.570
 9793SOL    HW230279   4.825   5.792   2.697
 9794SOL     OW30280   3.911   3.251   6.334
 9794SOL    HW130281   3.921   3.347   6.311
 9794SOL    HW230282   3.986   3.222   6.393
 9795SOL     OW30283   2.448   4.427   4.284
 9795SOL    HW130284   2.463   4.406   4.381
 9795SOL    HW230285   2.461   4.525   4.269
 9796SOL     OW30286   3.231   4.724   0.268
 9796SOL    HW130287   3.188   4.684   0.349
 9796SOL    HW230288   3.161   4.743   0.199
 9797SOL     OW30289   4.649   2.726   4.782
 9797SOL    HW130290   4.587   2.666   4.731
 9797SOL    HW230291   4.670   2.807   4.726
 9798SOL     OW30292   2.153   1.940   1.870
 9798SOL    HW130293   2.243   1.899   1.885
 9798SOL    HW230294   2.115   1.908   1.783
 9799SOL     OW30295   3.247   4.091   2.299
 9799SOL    HW130296   3.176   4.159   2.313
 9799SOL    HW230297   3.273   4.051   2.387
 9800SOL     OW30298   3.740   4.891   0.319
 9800SOL    HW130299   3.739   4.800   0.361
 9800SOL    HW230300   3.725   4.882   0.221
 9801SOL     OW30301   4.617   5.310   6.802
 9801SOL    HW130302   4.611   5.230   6.743
 9801SOL    HW230303   4.610   5.281   6.898
 9802SOL     OW30304   0.576   4.499   1.356
 9802SOL    HW130305   0.619   4.431   1.416
 9802SOL    HW230306   0.478   4.503   1.376
 9803SOL     OW30307   5.585   0.564   6.737
 9803SOL    HW130308   5.559   0.470   6.716
 9803SOL    HW230309   5.502   0.619   6.749
 9804SOL     OW30310   5.819   5.219   4.376
 9804SOL    HW130311   5.744   5.203   4.440
 9804SOL    HW230312   5.813   5.312   4.339
 9805SOL     OW30313   3.060   4.326   0.918
 9805SOL    HW130314   2.990   4.369   0.861
 9805SOL    HW230315   3.048   4.226   0.916
 9806SOL     OW30316   6.538   2.155   2.649
 9806SOL    HW130317   6.551   2.153   2.550
 9806SOL    HW230318   6.453   2.201   2.671
 9807SOL     OW30319   3.439   2.843   1.007
 9807SOL    HW130320   3.427   2.745   0.992
 9807SOL    HW230321   3.516   2.858   1.069
 9808SOL     OW30322   1.127   1.713   5.311
 9808SOL    HW130323   1.157   1.632   5.262
 9808SOL    HW230324   1.051   1.756   5.262
 9809SOL     OW30325   1.100   0.622   4.726
 9809SOL    HW130326   1.182   0.587   4.680
 9809SOL    HW230327   1.018   0.591   4.677
 9810SOL     OW30328   3.944   1.117   3.527
 9810SOL    HW130329   3.866   1.068   3.486
 9810SOL    HW230330   3.915   1.157   3.614
 9811SOL     OW30331   1.467   7.016   2.647
 9811SOL    HW130332   1.483   6.936   2.705
 9811SOL    HW230333   1.491   6.995   2.552
 9812SOL     OW30334   5.106   2.966   5.003
 9812SOL    HW130335   5.091   3.050   4.951
 9812SOL    HW230336   5.044   2.895   4.969
 9813SOL     OW30337   0.010   4.866   0.735
 9813SOL    HW130338   0.088   4.893   0.678
 9813SOL    HW230339   6.974   4.947   0.758
 9814SOL     OW30340   6.770   0.846   5.663
 9814SOL    HW130341   6.717   0.847   5.748
 9814SOL    HW230342   6.757   0.758   5.617
 9815SOL     OW30343   6.988   3.864   3.051
 9815SOL    HW130344   6.960   3.955   3.021
 9815SOL    HW230345   6.967   3.854   3.148
 9816SOL     OW30346   6.410   0.610   6.013
 9816SOL    HW130347   6.447   0.578   6.101
 9816SOL    HW230348   6.313   0.629   6.024
 9817SOL     OW30349   2.367   0.451   0.318
 9817SOL    HW130350   2.301   0.491   0.383
 9817SOL    HW230351   2.335   0.361   0.288
 9818SOL     OW30352   0.869   6.801   3.217
 9818SOL    HW130353   0.918   6.800   3.130
 9818SOL    HW230354   0.895   6.883   3.268
 9819SOL     OW30355   6.677   2.540   4.324
 9819SOL    HW130356   6.654   2.617   4.266
 9819SOL    HW230357   6.731   2.572   4.402
 9820SOL     OW30358   3.500   2.626   5.953
 9820SOL    HW130359   3.552   2.667   5.878
 9820SOL    HW230360   3.411   2.671   5.961
 9821SOL     OW30361   3.464   2.984   1.555
 9821SOL    HW130362   3.457   2.887   1.529
 9821SOL    HW230363   3.535   2.995   1.624
 9822SOL     OW30364   3.382   6.371   4.684
 9822SOL    HW130365   3.287   6.351   4.660
 9822SOL    HW230366   3.403   6.331   4.773
 9823SOL     OW30367   3.530   0.018   3.359
 9823SOL    HW130368   3.483   0.029   3.271
 9823SOL    HW230369   3.514   6.944   3.393
 9824SOL     OW30370   1.086   6.029   5.832
 9824SOL    HW130371   1.180   5.996   5.842
 9824SOL    HW230372   1.026   5.953   5.807
 9825SOL     OW30373   6.992   6.779   5.168
 9825SOL    HW130374   6.948   6.836   5.238
 9825SOL    HW230375   6.922   6.727   5.119
 9826SOL     OW30376   2.357   5.571   5.271
 9826SOL    HW130377   2.427   5.539   5.207
 9826SOL    HW230378   2.354   5.671   5.271
 9827SOL     OW30379   1.700   4.891   1.631
 9827SOL    HW130380   1.653   4.970   1.591
 9827SOL    HW230381   1.715   4.822   1.560
 9828SOL     OW30382   4.532   1.826   4.794
 9828SOL    HW130383   4.485   1.739   4.781
 9828SOL    HW230384   4.469   1.901   4.776
 9829SOL     OW30385   4.875   5.154   5.570
 9829SOL    HW130386   4.965   5.117   5.592
 9829SOL    HW230387   4.838   5.106   5.490
 9830SOL     OW30388   5.477   1.597   3.702
 9830SOL    HW130389   5.460   1.568   3.796
 9830SOL    HW230390   5.442   1.689   3.688
 9831SOL     OW30391   0.561   4.500   2.591
 9831SOL    HW130392   0.638   4.531   2.535
 9831SOL    HW230393   0.595   4.447   2.668
 9832SOL     OW30394   4.441   5.863   4.698
 9832SOL    HW130395   4.349   5.830   4.678
 9832SOL    HW230396   4.499   5.848   4.618
 9833SOL     OW30397   4.090   3.792   3.502
 9833SOL    HW130398   4.102   3.715   3.438
 9833SOL    HW230399   4.044   3.867   3.455
 9834SOL     OW30400   2.650   6.354   5.409
 9834SOL    HW130401   2.685   6.418   5.478
 9834SOL    HW230402   2.574   6.302   5.447
 9835SOL     OW30403   4.131   3.494   4.162
 9835SOL    HW130404   4.075   3.561   4.211
 9835SOL    HW230405   4.159   3.421   4.224
 9836SOL     OW30406   6.887   3.467   5.801
 9836SOL    HW130407   6.862   3.472   5.898
 9836SOL    HW230408   6.985   3.449   5.793
 9837SOL     OW30409   5.914   1.884   3.625
 9837SOL    HW130410   6.005   1.865   3.587
 9837SOL    HW230411   5.877   1.800   3.666
 9838SOL     OW30412   1.271   6.404   1.398
 9838SOL    HW130413   1.206   6.393   1.474
 9838SOL    HW230414   1.338   6.330   1.400
 9839SOL     OW30415   4.892   6.551   3.916
 9839SOL    HW130416   4.952   6.577   3.839
 9839SOL    HW230417   4.919   6.603   3.997
 9840SOL     OW30418   6.432   1.925   6.632
 9840SOL    HW130419   6.502   1.853   6.640
 9840SOL    HW230420   6.452   1.999   6.696
 9841SOL     OW30421   6.815   5.962   3.429
 9841SOL    HW130422   6.826   6.039   3.366
 9841SOL    HW230423   6.846   5.989   3.520
 9842SOL     OW30424   3.439   0.423   6.881
 9842SOL    HW130425   3.491   0.339   6.873
 9842SOL    HW230426   3.501   0.502   6.878
 9843SOL     OW30427   6.890   0.492   1.801
 9843SOL    HW130428   6.870   0.415   1.862
 9843SOL    HW230429   6.924   0.569   1.855
 9844SOL     OW30430   4.596   0.120   4.562
 9844SOL    HW130431   4.575   0.218   4.554
 9844SOL    HW230432   4.670   0.107   4.628
 9845SOL     OW30433   1.426   3.687   2.110
 9845SOL    HW130434   1.435   3.617   2.039
 9845SOL    HW230435   1.441   3.646   2.200
 9846SOL     OW30436   6.327   2.468   1.140
 9846SOL    HW130437   6.385   2.542   1.105
 9846SOL    HW230438   6.318   2.477   1.239
 9847SOL     OW30439   4.225   3.844   6.586
 9847SOL    HW130440   4.226   3.795   6.499
 9847SOL    HW230441   4.167   3.795   6.651
 9848SOL     OW30442   3.355   3.763   5.680
 9848SOL    HW130443   3.303   3.848   5.664
 9848SOL    HW230444   3.432   3.759   5.617
 9849SOL     OW30445   1.156   2.123   4.474
 9849SOL    HW130446   1.191   2.110   4.567
 9849SOL    HW230447   1.129   2.035   4.436
 9850SOL     OW30448   1.639   6.828   4.057
 9850SOL    HW130449   1.719   6.888   4.059
 9850SOL    HW230450   1.587   6.839   4.142
 9851SOL     OW30451   3.523   5.242   3.938
 9851SOL    HW130452   3.505   5.330   3.982
 9851SOL    HW230453   3.617   5.242   3.903
 9852SOL     OW30454   1.897   6.894   0.590
 9852SOL    HW130455   1.914   6.873   0.687
 9852SOL    HW230456   1.908   6.992   0.575
 9853SOL     OW30457   0.180   4.463   3.566
 9853SOL    HW130458   0.245   4.538   3.559
 9853SOL    HW230459   0.226   4.381   3.598
 9854SOL     OW30460   0.474   3.845   6.386
 9854SOL    HW130461   0.382   3.850   6.346
 9854SOL    HW230462   0.516   3.936   6.386
 9855SOL     OW30463   0.796   5.271   0.281
 9855SOL    HW130464   0.759   5.302   0.194
 9855SOL    HW230465   0.797   5.347   0.346
 9856SOL     OW30466   5.479   3.125   3.219
 9856SOL    HW130467   5.411   3.062   3.257
 9856SOL    HW230468   5.459   3.140   3.122
 9857SOL     OW30469   4.652   0.469   5.332
 9857SOL    HW130470   4.701   0.550   5.300
 9857SOL    HW230471   4.553   0.486   5.326
 9858SOL     OW30472   6.280   6.110   1.989
 9858SOL    HW130473   6.241   6.019   1.996
 9858SOL    HW230474   6.367   6.106   1.940
 9859SOL     OW30475   0.164   5.564   3.291
 9859SOL    HW130476   0.143   5.659   3.313
 9859SOL    HW230477   0.238   5.560   3.224
 9860SOL     OW30478   1.574   3.216   4.108
 9860SOL    HW130479   1.643   3.179   4.171
 9860SOL    HW230480   1.558   3.312   4.129
 9861SOL     OW30481   3.792   1.924   2.937
 9861SOL    HW130482   3.825   2.014   2.909
 9861SOL    HW230483   3.763   1.873   2.856
 9862SOL     OW30484   1.418   4.027   6.595
 9862SOL    HW130485   1.351   4.075   6.537
 9862SOL    HW230486   1.509   4.036   6.555
 9863SOL     OW30487   3.877   6.910   1.706
 9863SOL    HW130488   3.858   6.813   1.690
 9863SOL    HW230489   3.845   6.936   1.797
 9864SOL     OW30490   2.231   6.052   5.850
 9864SOL    HW130491   2.326   6.060   5.819
 9864SOL    HW230492   2.170   6.088   5.779
 9865SOL     OW30493   1.652   5.123   5.423
 9865SOL    HW130494   1.561   5.089   5.448
 9865SOL    HW230495   1.720   5.050   5.436
 9866SOL     OW30496   6.956   5.308   5.664
 9866SOL    HW130497   6.967   5.211   5.642
 9866SOL    HW230498   6.875   5.319   5.722
 9867SOL     OW30499   4.140   1.404   2.035
 9867SOL    HW130500   4.237   1.420   2.013
 9867SOL    HW230501   4.092   1.372   1.954
 9868SOL     OW30502   2.367   4.384   3.455
 9868SOL    HW130503   2.333   4.452   3.519
 9868SOL    HW230504   2.422   4.428   3.385
 9869SOL     OW30505   0.211   2.290   1.065
 9869SOL    HW130506   0.289   2.275   1.004
 9869SOL    HW230507   0.175   2.201   1.095
 9870SOL     OW30508   2.363   2.503   2.330
 9870SOL    HW130509   2.420   2.525   2.409
 9870SOL    HW230510   2.273   2.473   2.361
 9871SOL     OW30511   5.482   5.160   3.414
 9871SOL    HW130512   5.495   5.256   3.439
 9871SOL    HW230513   5.402   5.151   3.355
 9872SOL     OW30514   0.796   4.999   5.743
 9872SOL    HW130515   0.869   4.938   5.775
 9872SOL    HW230516   0.766   4.969   5.652
 9873SOL     OW30517   1.077   1.011   5.229
 9873SOL    HW130518   1.110   1.068   5.154
 9873SOL    HW230519   1.129   0.925   5.231
 9874SOL     OW30520   0.424   1.869   4.480
 9874SOL    HW130521   0.414   1.878   4.381
 9874SOL    HW230522   0.401   1.956   4.524
 9875SOL     OW30523   6.727   6.153   0.671
 9875SOL    HW130524   6.679   6.165   0.758
 9875SOL    HW230525   6.663   6.119   0.602
 9876SOL     OW30526   0.582   6.721   3.541
 9876SOL    HW130527   0.653   6.703   3.609
 9876SOL    HW230528   0.574   6.820   3.527
 9877SOL     OW30529   1.172   6.191   5.572
 9877SOL    HW130530   1.108   6.151   5.506
 9877SOL    HW230531   1.204   6.120   5.635
 9878SOL     OW30532   3.457   2.497   6.634
 9878SOL    HW130533   3.425   2.432   6.565
 9878SOL    HW230534   3.383   2.516   6.698
 9879SOL     OW30535   6.985   5.694   5.846
 9879SOL    HW130536   6.982   5.728   5.752
 9879SOL    HW230537   0.056   5.652   5.863
 9880SOL     OW30538   2.876   0.993   1.076
 9880SOL    HW130539   2.852   1.064   1.010
 9880SOL    HW230540   2.867   0.903   1.034
 9881SOL     OW30541   5.862   1.351   3.606
 9881SOL    HW130542   5.926   1.339   3.531
 9881SOL    HW230543   5.910   1.340   3.693
 9882SOL     OW30544   3.536   3.312   4.603
 9882SOL    HW130545   3.586   3.231   4.572
 9882SOL    HW230546   3.442   3.286   4.626
 9883SOL     OW30547   2.187   6.694   2.501
 9883SOL    HW130548   2.179   6.596   2.482
 9883SOL    HW230549   2.137   6.715   2.585
 9884SOL     OW30550   2.986   3.130   5.501
 9884SOL    HW130551   3.072   3.170   5.467
 9884SOL    HW230552   2.927   3.109   5.423
 9885SOL     OW30553   4.842   2.575   5.337
 9885SOL    HW130554   4.879   2.531   5.255
 9885SOL    HW230555   4.761   2.526   5.368
 9886SOL     OW30556   3.586   5.894   0.989
 9886SOL    HW130557   3.635   5.832   0.927
 9886SOL    HW230558   3.499   5.853   1.015
 9887SOL     OW30559   3.229   2.163   0.060
 9887SOL    HW130560   3.160   2.093   0.079
 9887SOL    HW230561   3.213   2.201   6.987
 9888SOL     OW30562   6.484   6.587   3.471
 9888SOL    HW130563   6.412   6.556   3.409
 9888SOL    HW230564   6.442   6.625   3.554
 9889SOL     OW30565   6.623   5.526   2.840
 9889SOL    HW130566   6.709   5.559   2.878
 9889SOL    HW230567   6.571   5.604   2.804
 9890SOL     OW30568   0.735   3.538   2.726
 9890SOL    HW130569   0.674   3.596   2.673
 9890SOL    HW230570   0.776   3.469   2.666
 9891SOL     OW30571   4.824   6.331   1.932
 9891SOL    HW130572   4.917   6.333   1.968
 9891SOL    HW230573   4.769   6.400   1.980
 9892SOL     OW30574   1.485   5.525   3.739
 9892SOL    HW130575   1.397   5.497   3.777
 9892SOL    HW230576   1.506   5.618   3.767
 9893SOL     OW30577   5.561   4.918   5.178
 9893SOL    HW130578   5.608   5.007   5.176
 9893SOL    HW230579   5.464   4.932   5.160
 9894SOL     OW30580   4.394   3.537   5.303
 9894SOL    HW130581   4.336   3.614   5.276
 9894SOL    HW230582   4.485   3.548   5.262
 9895SOL     OW30583   5.477   1.894   6.860
 9895SOL    HW130584   5.463   1.800   6.829
 9895SOL    HW230585   5.402   1.951   6.828
 9896SOL     OW30586   3.936   3.486   0.198
 9896SOL    HW130587   3.859   3.423   0.202
 9896SOL    HW230588   4.019   3.437   0.173
 9897SOL     OW30589   6.845   1.288   3.485
 9897SOL    HW130590   6.787   1.362   3.450
 9897SOL    HW230591   6.925   1.279   3.426
 9898SOL     OW30592   1.958   4.573   6.672
 9898SOL    HW130593   2.034   4.623   6.712
 9898SOL    HW230594   1.886   4.638   6.645
 9899SOL     OW30595   4.900   5.272   2.914
 9899SOL    HW130596   4.840   5.214   2.860
 9899SOL    HW230597   4.983   5.221   2.937
 9900SOL     OW30598   1.855   3.905   4.014
 9900SOL    HW130599   1.810   3.847   4.082
 9900SOL    HW230600   1.950   3.877   4.004
 9901SOL     OW30601   2.551   1.707   6.294
 9901SOL    HW130602   2.546   1.750   6.205
 9901SOL    HW230603   2.584   1.773   6.362
 9902SOL     OW30604   4.849   3.772   6.658
 9902SOL    HW130605   4.888   3.827   6.585
 9902SOL    HW230606   4.750   3.761   6.643
 9903SOL     OW30607   3.345   1.312   1.806
 9903SOL    HW130608   3.369   1.248   1.734
 9903SOL    HW230609   3.381   1.403   1.784
 9904SOL     OW30610   0.445   0.406   1.739
 9904SOL    HW130611   0.505   0.417   1.818
 9904SOL    HW230612   0.475   0.327   1.685
 9905SOL     OW30613   1.889   6.549   6.296
 9905SOL    HW130614   1.805   6.524   6.343
 9905SOL    HW230615   1.900   6.649   6.299
 9906SOL     OW30616   3.828   3.746   5.883
 9906SOL    HW130617   3.925   3.759   5.904
 9906SOL    HW230618   3.813   3.653   5.851
 9907SOL     OW30619   1.263   6.898   2.797
 9907SOL    HW130620   1.226   6.821   2.745
 9907SOL    HW230621   1.246   6.983   2.747
 9908SOL     OW30622   0.110   3.377   5.164
 9908SOL    HW130623   0.061   3.451   5.210
 9908SOL    HW230624   0.094   3.383   5.065
 9909SOL     OW30625   3.378   6.898   2.325
 9909SOL    HW130626   3.328   6.908   2.239
 9909SOL    HW230627   3.410   6.988   2.356
 9910SOL     OW30628   0.797   4.570   0.734
 9910SOL    HW130629   0.798   4.474   0.706
 9910SOL    HW230630   0.841   4.625   0.664
 9911SOL     OW30631   3.917   5.153   2.860
 9911SOL    HW130632   3.974   5.151   2.943
 9911SOL    HW230633   3.879   5.062   2.844
 9912SOL     OW30634   4.075   6.904   1.005
 9912SOL    HW130635   4.019   6.831   0.966
 9912SOL    HW230636   4.016   6.971   1.049
 9913SOL     OW30637   4.208   2.170   2.637
 9913SOL    HW130638   4.113   2.178   2.609
 9913SOL    HW230639   4.218   2.203   2.731
 9914SOL     OW30640   2.236   5.334   5.232
 9914SOL    HW130641   2.219   5.331   5.133
 9914SOL    HW230642   2.285   5.419   5.254
 9915SOL     OW30643   5.950   3.708   4.042
 9915SOL    HW130644   5.991   3.662   4.121
 9915SOL    HW230645   6.003   3.790   4.020
 9916SOL     OW30646   2.810   3.133   0.803
 9916SOL    HW130647   2.857   3.168   0.722
 9916SOL    HW230648   2.878   3.095   0.866
 9917SOL     OW30649   2.365   2.736   4.865
 9917SOL    HW130650   2.396   2.810   4.924
 9917SOL    HW230651   2.411   2.651   4.890
 9918SOL     OW30652   2.309   0.626   5.040
 9918SOL    HW130653   2.357   0.624   4.953
 9918SOL    HW230654   2.239   0.698   5.038
 9919SOL     OW30655   0.358   5.741   2.649
 9919SOL    HW130656   0.313   5.699   2.571
 9919SOL    HW230657   0.430   5.804   2.618
 9920SOL     OW30658   3.884   6.684   2.742
 9920SOL    HW130659   3.984   6.681   2.741
 9920SOL    HW230660   3.849   6.601   2.784
 9921SOL     OW30661   4.908   6.866   3.468
 9921SOL    HW130662   4.917   6.817   3.381
 9921SOL    HW230663   4.815   6.855   3.503
 9922SOL     OW30664   5.124   3.094   1.999
 9922SOL    HW130665   5.037   3.063   1.961
 9922SOL    HW230666   5.166   3.161   1.939
 9923SOL     OW30667   6.354   0.876   6.261
 9923SOL    HW130668   6.292   0.818   6.208
 9923SOL    HW230669   6.404   0.936   6.199
 9924SOL     OW30670   4.468   0.707   2.917
 9924SOL    HW130671   4.523   0.775   2.869
 9924SOL    HW230672   4.503   0.695   3.009
 9925SOL     OW30673   3.374   2.129   5.031
 9925SOL    HW130674   3.289   2.176   5.007
 9925SOL    HW230675   3.354   2.053   5.094
 9926SOL     OW30676   1.642   0.518   6.122
 9926SOL    HW130677   1.671   0.548   6.213
 9926SOL    HW230678   1.702   0.558   6.053
 9927SOL     OW30679   1.154   2.497   1.978
 9927SOL    HW130680   1.251   2.498   1.952
 9927SOL    HW230681   1.120   2.591   1.982
 9928SOL     OW30682   0.061   3.450   2.486
 9928SOL    HW130683   0.080   3.409   2.576
 9928SOL    HW230684   0.054   3.377   2.418
 9929SOL     OW30685   1.339   4.316   5.599
 9929SOL    HW130686   1.298   4.371   5.526
 9929SOL    HW230687   1.405   4.253   5.560
 9930SOL     OW30688   0.219   5.500   0.052
 9930SOL    HW130689   0.172   5.532   0.135
 9930SOL    HW230690   0.271   5.417   0.074
 9931SOL     OW30691   2.934   4.729   6.671
 9931SOL    HW130692   3.027   4.693   6.663
 9931SOL    HW230693   2.934   4.806   6.736
 9932SOL     OW30694   1.982   2.417   1.075
 9932SOL    HW130695   2.068   2.467   1.067
 9932SOL    HW230696   1.998   2.321   1.053
 9933SOL     OW30697   0.522   1.341   2.298
 9933SOL    HW130698   0.488   1.252   2.330
 9933SOL    HW230699   0.607   1.362   2.346
 9934SOL     OW30700   5.172   0.777   6.461
 9934SOL    HW130701   5.123   0.691   6.452
 9934SOL    HW230702   5.118   0.841   6.516
 9935SOL     OW30703   2.527   2.361   0.632
 9935SOL    HW130704   2.437   2.398   0.655
 9935SOL    HW230705   2.596   2.400   0.693
 9936SOL     OW30706   5.190   6.313   6.005
 9936SOL    HW130707   5.144   6.378   5.946
 9936SOL    HW230708   5.142   6.225   6.002
 9937SOL     OW30709   1.960   6.588   3.286
 9937SOL    HW130710   1.929   6.521   3.354
 9937SOL    HW230711   1.945   6.552   3.194
 9938SOL     OW30712   6.630   1.077   3.450
 9938SOL    HW130713   6.674   1.165   3.431
 9938SOL    HW230714   6.557   1.061   3.384
 9939SOL     OW30715   2.694   4.223   1.592
 9939SOL    HW130716   2.782   4.177   1.588
 9939SOL    HW230717   2.708   4.322   1.595
 9940SOL     OW30718   6.587   1.054   3.717
 9940SOL    HW130719   6.599   1.049   3.618
 9940SOL    HW230720   6.572   0.962   3.753
 9941SOL     OW30721   5.782   4.420   0.927
 9941SOL    HW130722   5.868   4.370   0.924
 9941SOL    HW230723   5.777   4.474   1.012
 9942SOL     OW30724   5.779   5.855   3.144
 9942SOL    HW130725   5.801   5.950   3.125
 9942SOL    HW230726   5.812   5.831   3.235
 9943SOL     OW30727   1.733   3.343   5.162
 9943SOL    HW130728   1.716   3.281   5.238
 9943SOL    HW230729   1.749   3.290   5.079
 9944SOL     OW30730   1.765   5.604   6.110
 9944SOL    HW130731   1.680   5.622   6.160
 9944SOL    HW230732   1.749   5.614   6.012
 9945SOL     OW30733   6.749   3.665   6.790
 9945SOL    HW130734   6.655   3.694   6.806
 9945SOL    HW230735   6.751   3.594   6.720
 9946SOL     OW30736   4.812   2.338   1.855
 9946SOL    HW130737   4.740   2.272   1.879
 9946SOL    HW230738   4.785   2.429   1.884
 9947SOL     OW30739   0.730   1.326   2.740
 9947SOL    HW130740   0.800   1.255   2.745
 9947SOL    HW230741   0.773   1.416   2.750
 9948SOL     OW30742   5.894   0.796   5.104
 9948SOL    HW130743   5.935   0.738   5.174
 9948SOL    HW230744   5.817   0.749   5.062
 9949SOL     OW30745   6.958   4.066   3.430
 9949SOL    HW130746   6.912   3.985   3.466
 9949SOL    HW230747   6.988   4.124   3.505
 9950SOL     OW30748   4.551   3.968   5.257
 9950SOL    HW130749   4.610   3.897   5.295
 9950SOL    HW230750   4.607   4.044   5.224
 9951SOL     OW30751   0.119   1.997   3.171
 9951SOL    HW130752   0.169   2.063   3.114
 9951SOL    HW230753   0.051   2.046   3.225
 9952SOL     OW30754   1.408   4.658   1.426
 9952SOL    HW130755   1.415   4.749   1.466
 9952SOL    HW230756   1.340   4.659   1.353
 9953SOL     OW30757   6.128   3.932   3.993
 9953SOL    HW130758   6.125   3.955   3.896
 9953SOL    HW230759   6.129   4.016   4.047
 9954SOL     OW30760   3.392   1.002   1.437
 9954SOL    HW130761   3.487   1.023   1.461
 9954SOL    HW230762   3.379   1.012   1.338
 9955SOL     OW30763   5.132   5.541   1.595
 9955SOL    HW130764   5.142   5.504   1.687
 9955SOL    HW230765   5.211   5.516   1.540
 9956SOL     OW30766   1.860   2.826   3.604
 9956SOL    HW130767   1.911   2.891   3.660
 9956SOL    HW230768   1.763   2.830   3.630
 9957SOL     OW30769   5.686   0.580   0.531
 9957SOL    HW130770   5.754   0.544   0.467
 9957SOL    HW230771   5.658   0.671   0.501
 9958SOL     OW30772   5.960   5.619   0.112
 9958SOL    HW130773   6.020   5.558   0.060
 9958SOL    HW230774   6.002   5.639   0.201
 9959SOL     OW30775   5.910   5.086   0.617
 9959SOL    HW130776   5.830   5.128   0.572
 9959SOL    HW230777   5.882   5.002   0.663
 9960SOL     OW30778   6.191   0.039   0.060
 9960SOL    HW130779   6.290   0.029   0.045
 9960SOL    HW230780   6.147   0.069   6.994
 9961SOL     OW30781   3.450   5.631   0.776
 9961SOL    HW130782   3.433   5.717   0.727
 9961SOL    HW230783   3.504   5.570   0.718
 9962SOL     OW30784   3.262   0.223   1.237
 9962SOL    HW130785   3.344   0.276   1.216
 9962SOL    HW230786   3.197   0.229   1.161
 9963SOL     OW30787   0.737   0.384   5.953
 9963SOL    HW130788   0.783   0.461   5.999
 9963SOL    HW230789   0.714   0.315   6.021
 9964SOL     OW30790   4.506   4.516   5.854
 9964SOL    HW130791   4.505   4.421   5.821
 9964SOL    HW230792   4.430   4.566   5.812
 9965SOL     OW30793   2.991   5.126   3.954
 9965SOL    HW130794   3.087   5.149   3.934
 9965SOL    HW230795   2.979   5.027   3.949
 9966SOL     OW30796   3.580   5.177   3.187
 9966SOL    HW130797   3.626   5.252   3.234
 9966SOL    HW230798   3.482   5.179   3.208
 9967SOL     OW30799   0.250   0.536   3.177
 9967SOL    HW130800   0.336   0.585   3.162
 9967SOL    HW230801   0.192   0.544   3.096
 9968SOL     OW30802   4.253   7.001   0.327
 9968SOL    HW130803   4.333   6.955   0.288
 9968SOL    HW230804   4.242   0.073   0.285
 9969SOL     OW30805   0.124   5.843   3.703
 9969SOL    HW130806   0.139   5.921   3.764
 9969SOL    HW230807   0.124   5.758   3.756
 9970SOL     OW30808   6.700   3.171   2.228
 9970SOL    HW130809   6.643   3.243   2.269
 9970SOL    HW230810   6.651   3.130   2.151
 9971SOL     OW30811   6.830   5.487   4.359
 9971SOL    HW130812   6.902   5.418   4.353
 9971SOL    HW230813   6.789   5.499   4.268
 9972SOL     OW30814   3.346   4.140   5.903
 9972SOL    HW130815   3.328   4.052   5.947
 9972SOL    HW230816   3.292   4.147   5.819
 9973SOL     OW30817   2.550   1.893   3.510
 9973SOL    HW130818   2.572   1.801   3.475
 9973SOL    HW230819   2.625   1.925   3.567
 9974SOL     OW30820   1.571   2.462   3.414
 9974SOL    HW130821   1.560   2.515   3.498
 9974SOL    HW230822   1.649   2.499   3.362
 9975SOL     OW30823   2.734   4.564   6.528
 9975SOL    HW130824   2.782   4.619   6.597
 9975SOL    HW230825   2.739   4.467   6.554
 9976SOL     OW30826   4.077   5.706   5.809
 9976SOL    HW130827   4.094   5.689   5.907
 9976SOL    HW230828   4.106   5.626   5.756
 9977SOL     OW30829   4.260   0.154   5.637
 9977SOL    HW130830   4.198   0.212   5.583
 9977SOL    HW230831   4.354   0.186   5.625
 9978SOL     OW30832   0.746   2.756   0.060
 9978SOL    HW130833   0.662   2.702   0.050
 9978SOL    HW230834   0.723   2.853   0.064
 9979SOL     OW30835   3.341   4.102   5.056
 9979SOL    HW130836   3.255   4.152   5.070
 9979SOL    HW230837   3.354   4.086   4.958
 9980SOL     OW30838   1.546   1.199   1.281
 9980SOL    HW130839   1.591   1.187   1.192
 9980SOL    HW230840   1.593   1.270   1.333
 9981SOL     OW30841   5.860   1.168   0.415
 9981SOL    HW130842   5.827   1.262   0.417
 9981SOL    HW230843   5.931   1.159   0.346
 9982SOL     OW30844   1.812   2.148   4.626
 9982SOL    HW130845   1.763   2.155   4.713
 9982SOL    HW230846   1.885   2.080   4.635
 9983SOL     OW30847   1.186   3.825   2.191
 9983SOL    HW130848   1.116   3.792   2.254
 9983SOL    HW230849   1.251   3.752   2.172
 9984SOL     OW30850   0.281   5.241   0.554
 9984SOL    HW130851   0.288   5.251   0.653
 9984SOL    HW230852   0.369   5.214   0.517
 9985SOL     OW30853   5.010   4.543   6.871
 9985SOL    HW130854   4.973   4.551   6.964
 9985SOL    HW230855   4.938   4.565   6.805
 9986SOL     OW30856   5.837   5.519   0.418
 9986SOL    HW130857   5.774   5.596   0.411
 9986SOL    HW230858   5.816   5.452   0.346
 9987SOL     OW30859   5.643   2.378   1.265
 9987SOL    HW130860   5.705   2.433   1.321
 9987SOL    HW230861   5.694   2.307   1.217
 9988SOL     OW30862   6.046   0.304   3.639
 9988SOL    HW130863   6.075   0.340   3.550
 9988SOL    HW230864   5.959   0.255   3.628
 9989SOL     OW30865   6.704   5.941   2.703
 9989SOL    HW130866   6.777   5.927   2.636
 9989SOL    HW230867   6.632   5.874   2.688
 9990SOL     OW30868   6.755   0.074   3.284
 9990SOL    HW130869   6.695   0.147   3.252
 9990SOL    HW230870   6.806   0.037   3.207
 9991SOL     OW30871   1.874   4.108   2.670
 9991SOL    HW130872   1.817   4.090   2.590
 9991SOL    HW230873   1.921   4.196   2.658
 9992SOL     OW30874   2.385   5.100   0.498
 9992SOL    HW130875   2.306   5.157   0.475
 9992SOL    HW230876   2.361   5.004   0.487
 9993SOL     OW30877   4.172   0.451   4.995
 9993SOL    HW130878   4.076   0.435   4.976
 9993SOL    HW230879   4.229   0.395   4.934
 9994SOL     OW30880   5.895   5.311   5.008
 9994SOL    HW130881   5.992   5.290   5.024
 9994SOL    HW230882   5.881   5.332   4.912
 9995SOL     OW30883   3.548   1.684   6.312
 9995SOL    HW130884   3.563   1.622   6.235
 9995SOL    HW230885   3.453   1.679   6.342
 9996SOL     OW30886   2.825   4.041   0.677
 9996SOL    HW130887   2.805   3.943   0.684
 9996SOL    HW230888   2.746   4.093   0.709
 9997SOL     OW30889   6.647   1.971   3.488
 9997SOL    HW130890   6.629   1.940   3.395
 9997SOL    HW230891   6.578   2.039   3.514
 9998SOL     OW30892   4.942   3.924   2.569
 9998SOL    HW130893   4.957   3.827   2.587
 9998SOL    HW230894   4.904   3.936   2.477
 9999SOL     OW30895   0.620   6.634   4.066
 9999SOL    HW130896   0.661   6.542   4.068
 9999SOL    HW230897   0.520   6.626   4.065
10000SOL     OW30898   4.231   2.279   1.285
10000SOL    HW130899   4.153   2.340   1.273
10000SOL    HW230900   4.241   2.255   1.382
10001SOL     OW30901   3.818   6.513   1.296
10001SOL    HW130902   3.909   6.476   1.274
10001SOL    HW230903   3.760   6.510   1.215
10002SOL     OW30904   2.855   0.632   1.936
10002SOL    HW130905   2.949   0.629   1.970
10002SOL    HW230906   2.793   0.657   2.011
10003SOL     OW30907   1.083   0.811   2.935
10003SOL    HW130908   1.124   0.720   2.923
10003SOL    HW230909   1.019   0.829   2.861
10004SOL     OW30910   6.947   4.809   4.303
10004SOL    HW130911   6.983   4.819   4.211
10004SOL    HW230912   6.892   4.726   4.309
10005SOL     OW30913   2.864   5.081   3.332
10005SOL    HW130914   2.871   4.983   3.350
10005SOL    HW230915   2.933   5.130   3.386
10006SOL     OW30916   5.639   1.018   5.125
10006SOL    HW130917   5.654   1.092   5.059
10006SOL    HW230918   5.723   1.003   5.178
10007SOL     OW30919   1.264   5.327   4.050
10007SOL    HW130920   1.364   5.332   4.043
10007SOL    HW230921   1.232   5.241   4.009
10008SOL     OW30922   3.619   1.513   6.114
10008SOL    HW130923   3.610   1.533   6.017
10008SOL    HW230924   3.602   1.416   6.131
10009SOL     OW30925   0.938   4.016   2.062
10009SOL    HW130926   1.031   3.991   2.088
10009SOL    HW230927   0.940   4.099   2.006
10010SOL     OW30928   2.263   4.340   0.793
10010SOL    HW130929   2.242   4.268   0.727
10010SOL    HW230930   2.294   4.298   0.878
10011SOL     OW30931   2.365   3.011   6.845
10011SOL    HW130932   2.433   3.048   6.782
10011SOL    HW230933   2.355   2.913   6.831
10012SOL     OW30934   5.618   2.293   3.115
10012SOL    HW130935   5.616   2.246   3.203
10012SOL    HW230936   5.706   2.278   3.070
10013SOL     OW30937   0.500   6.108   4.612
10013SOL    HW130938   0.543   6.198   4.605
10013SOL    HW230939   0.495   6.067   4.521
10014SOL     OW30940   0.531   0.972   2.649
10014SOL    HW130941   0.542   1.032   2.729
10014SOL    HW230942   0.518   0.878   2.681
10015SOL     OW30943   4.077   6.129   6.187
10015SOL    HW130944   4.162   6.077   6.200
10015SOL    HW230945   4.100   6.224   6.168
10016SOL     OW30946   2.399   0.687   4.127
10016SOL    HW130947   2.445   0.726   4.207
10016SOL    HW230948   2.301   0.686   4.143
10017SOL     OW30949   2.720   2.224   2.783
10017SOL    HW130950   2.791   2.251   2.717
10017SOL    HW230951   2.760   2.161   2.850
10018SOL     OW30952   6.703   4.011   5.245
10018SOL    HW130953   6.641   4.035   5.320
10018SOL    HW230954   6.797   4.033   5.271
10019SOL     OW30955   0.413   2.394   1.789
10019SOL    HW130956   0.409   2.492   1.770
10019SOL    HW230957   0.336   2.369   1.848
10020SOL     OW30958   6.370   1.464   1.812
10020SOL    HW130959   6.344   1.368   1.822
10020SOL    HW230960   6.458   1.470   1.765
10021SOL     OW30961   0.774   3.356   2.254
10021SOL    HW130962   0.835   3.344   2.176
10021SOL    HW230963   0.679   3.360   2.222
10022SOL     OW30964   1.749   4.827   5.974
10022SOL    HW130965   1.669   4.820   6.034
10022SOL    HW230966   1.763   4.740   5.926
10023SOL     OW30967   1.112   0.960   6.073
10023SOL    HW130968   1.052   0.936   6.150
10023SOL    HW230969   1.154   0.876   6.037
10024SOL     OW30970   1.356   4.767   2.688
10024SOL    HW130971   1.362   4.710   2.770
10024SOL    HW230972   1.430   4.742   2.625
10025SOL     OW30973   1.249   3.502   0.705
10025SOL    HW130974   1.270   3.478   0.610
10025SOL    HW230975   1.274   3.597   0.722
10026SOL     OW30976   5.461   1.784   4.776
10026SOL    HW130977   5.549   1.739   4.758
10026SOL    HW230978   5.394   1.754   4.709
10027SOL     OW30979   3.061   1.920   5.173
10027SOL    HW130980   3.046   1.857   5.097
10027SOL    HW230981   3.156   1.917   5.201
10028SOL     OW30982   4.464   0.130   1.431
10028SOL    HW130983   4.498   0.180   1.351
10028SOL    HW230984   4.430   0.195   1.499
10029SOL     OW30985   0.309   4.479   4.535
10029SOL    HW130986   0.406   4.503   4.529
10029SOL    HW230987   0.294   4.390   4.491
10030SOL     OW30988   2.321   6.890   4.152
10030SOL    HW130989   2.400   6.915   4.208
10030SOL    HW230990   2.351   6.861   4.062
10031SOL     OW30991   3.013   5.338   2.736
10031SOL    HW130992   3.099   5.386   2.724
10031SOL    HW230993   2.977   5.355   2.828
10032SOL     OW30994   3.012   6.284   4.856
10032SOL    HW130995   3.047   6.190   4.853
10032SOL    HW230996   3.076   6.341   4.907
10033SOL     OW30997   3.086   1.355   4.652
10033SOL    HW130998   3.166   1.316   4.607
10033SOL    HW230999   3.034   1.410   4.586
10034SOL     OW31000   2.376   1.205   3.636
10034SOL    HW131001   2.460   1.157   3.662
10034SOL    HW231002   2.297   1.160   3.678
10035SOL     OW31003   6.608   2.556   2.812
10035SOL    HW131004   6.606   2.656   2.812
10035SOL    HW231005   6.555   2.522   2.890
10036SOL     OW31006   0.489   0.909   6.996
10036SOL    HW131007   0.518   0.869   6.909
10036SOL    HW231008   0.554   0.980   0.005
10037SOL     OW31009   6.038   6.439   6.934
10037SOL    HW131010   6.062   6.468   6.841
10037SOL    HW231011   5.971   6.365   6.929
10038SOL     OW31012   4.373   6.441   6.358
10038SOL    HW131013   4.290   6.402   6.318
10038SOL    HW231014   4.371   6.428   6.458
10039SOL     OW31015   6.857   5.645   2.414
10039SOL    HW131016   6.922   5.602   2.476
10039SOL    HW231017   6.795   5.576   2.377
10040SOL     OW31018   2.834   0.042   1.310
10040SOL    HW131019   2.860   7.015   1.224
10040SOL    HW231020   2.739   0.071   1.304
10041SOL     OW31021   6.892   5.651   5.207
10041SOL    HW131022   6.958   5.724   5.184
10041SOL    HW231023   6.831   5.636   5.129
10042SOL     OW31024   0.261   0.478   5.102
10042SOL    HW131025   0.175   0.492   5.152
10042SOL    HW231026   0.276   0.380   5.089
10043SOL     OW31027   0.606   0.857   3.841
10043SOL    HW131028   0.585   0.767   3.879
10043SOL    HW231029   0.697   0.885   3.871
10044SOL     OW31030   2.829   1.580   6.611
10044SOL    HW131031   2.755   1.532   6.659
10044SOL    HW231032   2.913   1.526   6.616
10045SOL     OW31033   3.968   6.698   5.195
10045SOL    HW131034   3.936   6.614   5.151
10045SOL    HW231035   3.916   6.776   5.160
10046SOL     OW31036   0.399   2.651   1.723
10046SOL    HW131037   0.356   2.676   1.810
10046SOL    HW231038   0.486   2.699   1.714
10047SOL     OW31039   0.475   1.655   3.430
10047SOL    HW131040   0.544   1.586   3.407
10047SOL    HW231041   0.480   1.730   3.364
10048SOL     OW31042   3.532   2.408   1.678
10048SOL    HW131043   3.578   2.497   1.676
10048SOL    HW231044   3.565   2.356   1.757
10049SOL     OW31045   1.632   6.724   4.663
10049SOL    HW131046   1.652   6.704   4.567
10049SOL    HW231047   1.611   6.821   4.673
10050SOL     OW31048   5.104   2.497   3.778
10050SOL    HW131049   5.126   2.576   3.720
10050SOL    HW231050   5.082   2.419   3.721
10051SOL     OW31051   5.919   2.822   5.770
10051SOL    HW131052   5.826   2.809   5.737
10051SOL    HW231053   5.916   2.856   5.864
10052SOL     OW31054   1.124   3.773   1.329
10052SOL    HW131055   1.218   3.791   1.299
10052SOL    HW231056   1.111   3.674   1.342
10053SOL     OW31057   3.146   6.132   3.555
10053SOL    HW131058   3.231   6.183   3.548
10053SOL    HW231059   3.142   6.064   3.482
10054SOL     OW31060   3.977   5.436   4.101
10054SOL    HW131061   3.917   5.478   4.033
10054SOL    HW231062   3.943   5.345   4.124
10055SOL     OW31063   6.788   3.189   6.002
10055SOL    HW131064   6.740   3.117   6.053
10055SOL    HW231065   6.754   3.191   5.908
10056SOL     OW31066   6.686   5.192   1.727
10056SOL    HW131067   6.731   5.159   1.643
10056SOL    HW231068   6.756   5.215   1.795
10057SOL     OW31069   2.661   2.103   3.859
10057SOL    HW131070   2.575   2.142   3.825
10057SOL    HW231071   2.727   2.099   3.785
10058SOL     OW31072   0.513   5.342   3.662
10058SOL    HW131073   0.600   5.390   3.653
10058SOL    HW231074   0.441   5.395   3.617
10059SOL     OW31075   5.521   0.131   0.931
10059SOL    HW131076   5.485   0.043   0.899
10059SOL    HW231077   5.620   0.135   0.914
10060SOL     OW31078   1.973   2.873   1.641
10060SOL    HW131079   2.059   2.852   1.688
10060SOL    HW231080   1.914   2.926   1.702
10061SOL     OW31081   5.865   1.912   4.806
10061SOL    HW131082   5.887   1.961   4.891
10061SOL    HW231083   5.897   1.965   4.728
10062SOL     OW31084   6.046   6.130   2.865
10062SOL    HW131085   6.082   6.219   2.836
10062SOL    HW231086   6.075   6.111   2.959
10063SOL     OW31087   0.839   3.044   2.820
10063SOL    HW131088   0.898   3.046   2.740
10063SOL    HW231089   0.782   2.962   2.817
10064SOL     OW31090   5.738   6.535   4.789
10064SOL    HW131091   5.775   6.581   4.870
10064SOL    HW231092   5.638   6.546   4.788
10065SOL     OW31093   1.095   6.302   3.153
10065SOL    HW131094   1.059   6.274   3.242
10065SOL    HW231095   1.139   6.392   3.162
10066SOL     OW31096   0.593   0.377   3.655
10066SOL    HW131097   0.557   0.313   3.588
10066SOL    HW231098   0.597   0.469   3.615
10067SOL     OW31099   3.731   5.217   3.484
10067SOL    HW131100   3.812   5.165   3.510
10067SOL    HW231101   3.657   5.199   3.550
10068SOL     OW31102   5.044   3.756   5.383
10068SOL    HW131103   5.135   3.730   5.414
10068SOL    HW231104   4.980   3.751   5.459
10069SOL     OW31105   3.507   0.820   3.631
10069SOL    HW131106   3.480   0.773   3.715
10069SOL    HW231107   3.461   0.909   3.625
10070SOL     OW31108   0.709   6.561   4.802
10070SOL    HW131109   0.695   6.626   4.877
10070SOL    HW231110   0.757   6.607   4.727
10071SOL     OW31111   5.109   5.710   4.962
10071SOL    HW131112   5.098   5.705   5.061
10071SOL    HW231113   5.072   5.627   4.920
10072SOL     OW31114   1.065   0.022   3.040
10072SOL    HW131115   1.074   0.050   3.135
10072SOL    HW231116   1.038   6.944   3.035
10073SOL     OW31117   0.589   5.056   6.055
10073SOL    HW131118   0.546   4.972   6.090
10073SOL    HW231119   0.560   5.071   5.960
10074SOL     OW31120   2.469   6.885   5.717
10074SOL    HW131121   2.427   6.894   5.808
10074SOL    HW231122   2.481   6.976   5.677
10075SOL     OW31123   1.046   2.633   3.943
10075SOL    HW131124   0.993   2.630   3.858
10075SOL    HW231125   1.124   2.695   3.931
10076SOL     OW31126   5.342   0.447   4.594
10076SOL    HW131127   5.346   0.488   4.685
10076SOL    HW231128   5.366   0.515   4.525
10077SOL     OW31129   3.700   1.504   6.442
10077SOL    HW131130   3.643   1.578   6.409
10077SOL    HW231131   3.683   1.421   6.387
10078SOL     OW31132   5.714   6.470   6.053
10078SOL    HW131133   5.639   6.457   5.988
10078SOL    HW231134   5.799   6.485   6.003
10079SOL     OW31135   0.224   4.233   0.154
10079SOL    HW131136   0.196   4.149   0.201
10079SOL    HW231137   0.172   4.310   0.190
10080SOL     OW31138   1.677   2.988   5.983
10080SOL    HW131139   1.756   2.942   6.024
10080SOL    HW231140   1.676   3.084   6.010
10081SOL     OW31141   0.079   0.634   6.466
10081SOL    HW131142   0.174   0.664   6.473
10081SOL    HW231143   0.038   0.633   6.557
10082SOL     OW31144   6.587   1.110   1.344
10082SOL    HW131145   6.592   1.023   1.294
10082SOL    HW231146   6.638   1.102   1.430
10083SOL     OW31147   4.861   0.956   4.277
10083SOL    HW131148   4.934   1.019   4.302
10083SOL    HW231149   4.834   0.901   4.356
10084SOL     OW31150   2.387   1.211   6.241
10084SOL    HW131151   2.481   1.177   6.249
10084SOL    HW231152   2.387   1.311   6.254
10085SOL     OW31153   0.575   5.370   2.927
10085SOL    HW131154   0.492   5.315   2.910
10085SOL    HW231155   0.556   5.465   2.905
10086SOL     OW31156   6.221   3.568   2.178
10086SOL    HW131157   6.275   3.649   2.154
10086SOL    HW231158   6.128   3.579   2.142
10087SOL     OW31159   1.315   6.845   4.106
10087SOL    HW131160   1.226   6.807   4.130
10087SOL    HW231161   1.379   6.831   4.182
10088SOL     OW31162   0.661   0.317   4.569
10088SOL    HW131163   0.584   0.351   4.514
10088SOL    HW231164   0.704   0.240   4.522
10089SOL     OW31165   1.457   3.316   2.062
10089SOL    HW131166   1.463   3.399   2.007
10089SOL    HW231167   1.534   3.312   2.125
10090SOL     OW31168   0.511   4.889   0.489
10090SOL    HW131169   0.524   4.902   0.587
10090SOL    HW231170   0.521   4.792   0.467
10091SOL     OW31171   0.821   2.520   4.356
10091SOL    HW131172   0.839   2.556   4.265
10091SOL    HW231173   0.723   2.525   4.375
10092SOL     OW31174   1.989   4.198   5.154
10092SOL    HW131175   2.019   4.133   5.084
10092SOL    HW231176   2.004   4.158   5.245
10093SOL     OW31177   6.770   4.560   6.487
10093SOL    HW131178   6.783   4.614   6.403
10093SOL    HW231179   6.832   4.594   6.557
10094SOL     OW31180   1.229   1.323   1.923
10094SOL    HW131181   1.165   1.353   1.994
10094SOL    HW231182   1.322   1.350   1.948
10095SOL     OW31183   6.872   0.789   6.002
10095SOL    HW131184   6.930   0.771   5.922
10095SOL    HW231185   6.924   0.841   6.070
10096SOL     OW31186   0.570   4.979   2.443
10096SOL    HW131187   0.512   5.055   2.474
10096SOL    HW231188   0.523   4.929   2.371
10097SOL     OW31189   1.022   1.553   6.883
10097SOL    HW131190   0.978   1.475   6.929
10097SOL    HW231191   1.089   1.594   6.944
10098SOL     OW31192   2.781   5.090   6.499
10098SOL    HW131193   2.716   5.040   6.442
10098SOL    HW231194   2.865   5.105   6.449
10099SOL     OW31195   0.043   4.531   4.692
10099SOL    HW131196   0.042   4.529   4.592
10099SOL    HW231197   0.018   4.623   4.724
10100SOL     OW31198   5.675   1.455   5.181
10100SOL    HW131199   5.714   1.459   5.273
10100SOL    HW231200   5.583   1.494   5.182
10101SOL     OW31201   0.300   4.563   2.175
10101SOL    HW131202   0.385   4.595   2.217
10101SOL    HW231203   0.241   4.642   2.155
10102SOL     OW31204   2.808   1.447   2.743
10102SOL    HW131205   2.767   1.389   2.813
10102SOL    HW231206   2.832   1.536   2.783
10103SOL     OW31207   2.938   2.475   0.078
10103SOL    HW131208   2.947   2.419   7.015
10103SOL    HW231209   2.929   2.417   0.159
10104SOL     OW31210   1.373   6.066   5.075
10104SOL    HW131211   1.293   6.104   5.121
10104SOL    HW231212   1.417   5.999   5.135
10105SOL     OW31213   2.280   0.363   6.633
10105SOL    HW131214   2.301   0.397   6.725
10105SOL    HW231215   2.183   0.337   6.628
10106SOL     OW31216   5.449   5.716   0.317
10106SOL    HW131217   5.545   5.742   0.330
10106SOL    HW231218   5.430   5.705   0.220
10107SOL     OW31219   5.811   1.295   5.704
10107SOL    HW131220   5.784   1.386   5.736
10107SOL    HW231221   5.825   1.235   5.783
10108SOL     OW31222   6.533   6.760   0.215
10108SOL    HW131223   6.451   6.703   0.217
10108SOL    HW231224   6.510   6.852   0.246
10109SOL     OW31225   4.944   5.178   3.307
10109SOL    HW131226   4.986   5.109   3.247
10109SOL    HW231227   4.998   5.262   3.303
10110SOL     OW31228   2.931   0.838   5.780
10110SOL    HW131229   2.956   0.931   5.805
10110SOL    HW231230   2.937   0.827   5.680
10111SOL     OW31231   0.733   2.302   2.912
10111SOL    HW131232   0.784   2.260   2.987
10111SOL    HW231233   0.661   2.239   2.882
10112SOL     OW31234   4.484   4.192   5.543
10112SOL    HW131235   4.411   4.187   5.474
10112SOL    HW231236   4.558   4.130   5.518
10113SOL     OW31237   3.600   6.563   6.675
10113SOL    HW131238   3.661   6.498   6.720
10113SOL    HW231239   3.557   6.519   6.596
10114SOL     OW31240   4.193   1.143   1.305
10114SOL    HW131241   4.210   1.060   1.359
10114SOL    HW231242   4.176   1.220   1.367
10115SOL     OW31243   1.447   1.872   3.739
10115SOL    HW131244   1.452   1.834   3.831
10115SOL    HW231245   1.496   1.959   3.735
10116SOL     OW31246   1.293   1.270   1.150
10116SOL    HW131247   1.224   1.342   1.156
10116SOL    HW231248   1.340   1.261   1.237
10117SOL     OW31249   4.849   0.796   5.644
10117SOL    HW131250   4.779   0.737   5.682
10117SOL    HW231251   4.850   0.883   5.694
10118SOL     OW31252   6.845   5.243   1.962
10118SOL    HW131253   6.820   5.283   2.050
10118SOL    HW231254   6.871   5.147   1.976
10119SOL     OW31255   2.308   0.894   5.986
10119SOL    HW131256   2.297   0.985   5.946
10119SOL    HW231257   2.220   0.861   6.019
10120SOL     OW31258   6.773   2.989   3.565
10120SOL    HW131259   6.804   2.948   3.651
10120SOL    HW231260   6.687   2.948   3.537
10121SOL     OW31261   6.638   4.595   5.027
10121SOL    HW131262   6.646   4.682   4.977
10121SOL    HW231263   6.654   4.611   5.124
10122SOL     OW31264   5.211   3.541   0.582
10122SOL    HW131265   5.263   3.591   0.652
10122SOL    HW231266   5.273   3.503   0.514
10123SOL     OW31267   0.021   6.602   0.347
10123SOL    HW131268   0.071   6.518   0.326
10123SOL    HW231269   6.948   6.597   0.305
10124SOL     OW31270   2.996   4.469   0.671
10124SOL    HW131271   3.066   4.533   0.702
10124SOL    HW231272   3.039   4.391   0.626
10125SOL     OW31273   1.403   0.223   1.517
10125SOL    HW131274   1.384   0.211   1.614
10125SOL    HW231275   1.461   0.303   1.504
10126SOL     OW31276   6.659   5.499   0.687
10126SOL    HW131277   6.733   5.566   0.684
10126SOL    HW231278   6.644   5.462   0.596
10127SOL     OW31279   3.728   5.152   5.218
10127SOL    HW131280   3.753   5.234   5.271
10127SOL    HW231281   3.629   5.153   5.200
10128SOL     OW31282   0.170   2.278   0.772
10128SOL    HW131283   0.127   2.369   0.778
10128SOL    HW231284   0.257   2.286   0.723
10129SOL     OW31285   5.917   2.353   3.144
10129SOL    HW131286   5.882   2.371   3.236
10129SOL    HW231287   5.888   2.427   3.083
10130SOL     OW31288   6.386   5.318   1.495
10130SOL    HW131289   6.407   5.407   1.456
10130SOL    HW231290   6.421   5.246   1.435
10131SOL     OW31291   0.510   1.427   0.931
10131SOL    HW131292   0.436   1.363   0.911
10131SOL    HW231293   0.542   1.412   1.024
10132SOL     OW31294   2.944   6.885   2.358
10132SOL    HW131295   2.918   6.980   2.337
10132SOL    HW231296   3.002   6.849   2.285
10133SOL     OW31297   4.981   5.522   3.542
10133SOL    HW131298   5.023   5.596   3.594
10133SOL    HW231299   4.966   5.550   3.448
10134SOL     OW31300   6.960   1.340   2.618
10134SOL    HW131301   6.999   1.284   2.544
10134SOL    HW231302   0.007   1.345   2.694
10135SOL     OW31303   4.435   4.890   3.290
10135SOL    HW131304   4.522   4.905   3.242
10135SOL    HW231305   4.453   4.877   3.388
10136SOL     OW31306   5.675   6.644   3.243
10136SOL    HW131307   5.641   6.614   3.333
10136SOL    HW231308   5.609   6.707   3.203
10137SOL     OW31309   6.266   4.994   4.217
10137SOL    HW131310   6.312   4.917   4.261
10137SOL    HW231311   6.207   5.040   4.284
10138SOL     OW31312   5.343   2.426   6.517
10138SOL    HW131313   5.377   2.475   6.437
10138SOL    HW231314   5.417   2.412   6.583
10139SOL     OW31315   3.965   3.046   2.966
10139SOL    HW131316   3.920   3.002   3.044
10139SOL    HW231317   3.926   3.010   2.881
10140SOL     OW31318   0.824   4.889   6.157
10140SOL    HW131319   0.733   4.850   6.158
10140SOL    HW231320   0.854   4.907   6.251
10141SOL     OW31321   1.736   0.905   3.820
10141SOL    HW131322   1.755   0.807   3.809
10141SOL    HW231323   1.660   0.917   3.884
10142SOL     OW31324   4.451   6.134   4.746
10142SOL    HW131325   4.538   6.162   4.704
10142SOL    HW231326   4.444   6.034   4.744
10143SOL     OW31327   4.632   6.911   0.965
10143SOL    HW131328   4.586   6.989   0.922
10143SOL    HW231329   4.575   6.875   1.038
10144SOL     OW31330   3.217   5.537   4.055
10144SOL    HW131331   3.239   5.441   4.043
10144SOL    HW231332   3.290   5.593   4.016
10145SOL     OW31333   2.753   6.490   5.878
10145SOL    HW131334   2.697   6.408   5.880
10145SOL    HW231335   2.757   6.526   5.785
10146SOL     OW31336   4.621   5.234   4.368
10146SOL    HW131337   4.564   5.277   4.299
10146SOL    HW231338   4.636   5.138   4.345
10147SOL     OW31339   4.675   4.856   5.065
10147SOL    HW131340   4.734   4.936   5.054
10147SOL    HW231341   4.727   4.773   5.048
10148SOL     OW31342   5.608   5.903   0.764
10148SOL    HW131343   5.648   5.812   0.750
10148SOL    HW231344   5.519   5.893   0.808
10149SOL     OW31345   4.373   2.671   0.842
10149SOL    HW131346   4.307   2.611   0.888
10149SOL    HW231347   4.324   2.736   0.784
10150SOL     OW31348   4.580   4.507   1.286
10150SOL    HW131349   4.655   4.461   1.334
10150SOL    HW231350   4.569   4.599   1.323
10151SOL     OW31351   2.131   0.029   5.643
10151SOL    HW131352   2.075   6.966   5.659
10151SOL    HW231353   2.209   0.028   5.705
10152SOL     OW31354   0.125   5.513   3.728
10152SOL    HW131355   0.045   5.567   3.754
10152SOL    HW231356   0.204   5.544   3.780
10153SOL     OW31357   5.485   6.235   4.424
10153SOL    HW131358   5.454   6.327   4.446
10153SOL    HW231359   5.454   6.172   4.495
10154SOL     OW31360   0.052   5.081   5.984
10154SOL    HW131361   7.016   5.054   6.063
10154SOL    HW231362   0.045   5.180   5.972
10155SOL     OW31363   3.799   0.899   5.730
10155SOL    HW131364   3.768   0.915   5.636
10155SOL    HW231365   3.882   0.953   5.746
10156SOL     OW31366   5.645   0.702   2.313
10156SOL    HW131367   5.546   0.708   2.317
10156SOL    HW231368   5.682   0.695   2.406
10157SOL     OW31369   5.737   1.024   6.278
10157SOL    HW131370   5.786   0.974   6.207
10157SOL    HW231371   5.710   0.960   6.351
10158SOL     OW31372   4.073   3.631   6.739
10158SOL    HW131373   4.042   3.628   6.834
10158SOL    HW231374   4.086   3.538   6.705
10159SOL     OW31375   1.257   1.429   6.232
10159SOL    HW131376   1.253   1.332   6.209
10159SOL    HW231377   1.317   1.476   6.168
10160SOL     OW31378   0.395   5.786   4.098
10160SOL    HW131379   0.407   5.875   4.054
10160SOL    HW231380   0.484   5.751   4.127
10161SOL     OW31381   3.304   5.432   5.908
10161SOL    HW131382   3.315   5.505   5.841
10161SOL    HW231383   3.275   5.348   5.861
10162SOL     OW31384   3.193   1.986   6.754
10162SOL    HW131385   3.174   2.077   6.792
10162SOL    HW231386   3.271   1.991   6.691
10163SOL     OW31387   5.874   3.635   5.468
10163SOL    HW131388   5.782   3.597   5.458
10163SOL    HW231389   5.891   3.701   5.395
10164SOL     OW31390   6.792   2.656   4.935
10164SOL    HW131391   6.768   2.739   4.986
10164SOL    HW231392   6.755   2.576   4.982
10165SOL     OW31393   0.369   1.999   3.900
10165SOL    HW131394   0.324   1.958   3.979
10165SOL    HW231395   0.433   1.933   3.860
10166SOL     OW31396   2.535   1.069   2.113
10166SOL    HW131397   2.539   1.055   2.014
10166SOL    HW231398   2.481   0.996   2.155
10167SOL     OW31399   4.955   0.305   0.366
10167SOL    HW131400   4.955   0.381   0.431
10167SOL    HW231401   4.993   0.336   0.278
10168SOL     OW31402   0.146   4.157   3.995
10168SOL    HW131403   0.133   4.059   3.981
10168SOL    HW231404   0.155   4.203   3.907
10169SOL     OW31405   6.469   4.095   4.089
10169SOL    HW131406   6.532   4.138   4.152
10169SOL    HW231407   6.405   4.163   4.054
10170SOL     OW31408   1.953   4.449   5.026
10170SOL    HW131409   1.876   4.422   4.969
10170SOL    HW231410   1.969   4.378   5.095
10171SOL     OW31411   6.468   4.175   6.339
10171SOL    HW131412   6.563   4.200   6.360
10171SOL    HW231413   6.464   4.081   6.307
10172SOL     OW31414   5.357   0.766   2.294
10172SOL    HW131415   5.350   0.676   2.250
10172SOL    HW231416   5.334   0.837   2.227
10173SOL     OW31417   2.067   1.580   2.174
10173SOL    HW131418   2.112   1.669   2.171
10173SOL    HW231419   2.133   1.508   2.150
10174SOL     OW31420   6.910   4.848   2.634
10174SOL    HW131421   6.973   4.776   2.607
10174SOL    HW231422   6.956   4.911   2.696
10175SOL     OW31423   6.153   2.369   5.323
10175SOL    HW131424   6.076   2.308   5.308
10175SOL    HW231425   6.230   2.317   5.361
10176SOL     OW31426   2.050   3.761   6.972
10176SOL    HW131427   2.032   3.731   0.047
10176SOL    HW231428   2.143   3.735   6.946
10177SOL     OW31429   2.802   6.570   0.071
10177SOL    HW131430   2.874   6.616   0.020
10177SOL    HW231431   2.739   6.525   0.008
10178SOL     OW31432   5.941   2.914   4.210
10178SOL    HW131433   5.995   2.869   4.282
10178SOL    HW231434   5.880   2.848   4.167
10179SOL     OW31435   1.280   2.815   6.247
10179SOL    HW131436   1.266   2.748   6.175
10179SOL    HW231437   1.358   2.874   6.225
10180SOL     OW31438   2.409   5.792   5.563
10180SOL    HW131439   2.406   5.703   5.609
10180SOL    HW231440   2.503   5.825   5.561
10181SOL     OW31441   5.622   3.511   1.265
10181SOL    HW131442   5.602   3.589   1.324
10181SOL    HW231443   5.700   3.460   1.302
10182SOL     OW31444   5.808   1.791   1.366
10182SOL    HW131445   5.840   1.875   1.321
10182SOL    HW231446   5.868   1.770   1.443
10183SOL     OW31447   1.785   1.697   6.303
10183SOL    HW131448   1.812   1.612   6.348
10183SOL    HW231449   1.752   1.762   6.371
10184SOL     OW31450   4.352   1.003   5.950
10184SOL    HW131451   4.368   0.923   5.892
10184SOL    HW231452   4.261   0.995   5.993
10185SOL     OW31453   4.806   6.729   0.845
10185SOL    HW131454   4.761   6.793   0.907
10185SOL    HW231455   4.773   6.744   0.752
10186SOL     OW31456   4.769   2.198   2.680
10186SOL    HW131457   4.754   2.256   2.601
10186SOL    HW231458   4.855   2.148   2.669
10187SOL     OW31459   0.698   2.412   1.750
10187SOL    HW131460   0.614   2.388   1.798
10187SOL    HW231461   0.729   2.334   1.695
10188SOL     OW31462   4.058   6.044   0.697
10188SOL    HW131463   4.025   6.112   0.633
10188SOL    HW231464   4.147   6.010   0.667
10189SOL     OW31465   1.719   6.592   5.164
10189SOL    HW131466   1.802   6.538   5.167
10189SOL    HW231467   1.639   6.532   5.174
10190SOL     OW31468   4.783   2.244   0.333
10190SOL    HW131469   4.759   2.265   0.238
10190SOL    HW231470   4.715   2.283   0.394
10191SOL     OW31471   6.411   4.489   0.317
10191SOL    HW131472   6.336   4.487   0.252
10191SOL    HW231473   6.478   4.558   0.289
10192SOL     OW31474   3.264   0.842   5.780
10192SOL    HW131475   3.322   0.924   5.772
10192SOL    HW231476   3.264   0.792   5.693
10193SOL     OW31477   4.938   3.865   0.877
10193SOL    HW131478   4.906   3.804   0.804
10193SOL    HW231479   5.028   3.836   0.908
10194SOL     OW31480   5.721   3.885   5.481
10194SOL    HW131481   5.710   3.838   5.394
10194SOL    HW231482   5.782   3.963   5.470
10195SOL     OW31483   6.742   4.533   1.819
10195SOL    HW131484   6.788   4.582   1.745
10195SOL    HW231485   6.759   4.435   1.810
10196SOL     OW31486   0.103   1.880   4.368
10196SOL    HW131487   0.135   1.926   4.451
10196SOL    HW231488   0.100   1.781   4.385
10197SOL     OW31489   5.895   0.522   5.843
10197SOL    HW131490   5.941   0.477   5.766
10197SOL    HW231491   5.810   0.474   5.864
10198SOL     OW31492   3.866   6.848   3.102
10198SOL    HW131493   3.950   6.839   3.049
10198SOL    HW231494   3.825   6.758   3.115
10199SOL     OW31495   1.384   2.897   5.404
10199SOL    HW131496   1.303   2.840   5.394
10199SOL    HW231497   1.374   2.956   5.484
10200SOL     OW31498   6.047   3.485   1.285
10200SOL    HW131499   5.983   3.422   1.329
10200SOL    HW231500   6.137   3.478   1.328
10201SOL     OW31501   1.378   3.274   0.708
10201SOL    HW131502   1.356   3.235   0.619
10201SOL    HW231503   1.329   3.361   0.720
10202SOL     OW31504   3.559   0.530   5.482
10202SOL    HW131505   3.518   0.503   5.569
10202SOL    HW231506   3.535   0.463   5.412
10203SOL     OW31507   6.372   2.735   4.670
10203SOL    HW131508   6.464   2.704   4.697
10203SOL    HW231509   6.380   2.814   4.609
10204SOL     OW31510   5.077   6.482   6.686
10204SOL    HW131511   5.163   6.435   6.706
10204SOL    HW231512   5.047   6.459   6.593
10205SOL     OW31513   1.235   0.566   6.125
10205SOL    HW131514   1.278   0.634   6.066
10205SOL    HW231515   1.225   0.480   6.074
10206SOL     OW31516   1.209   0.780   5.289
10206SOL    HW131517   1.187   0.788   5.386
10206SOL    HW231518   1.243   0.688   5.269
10207SOL     OW31519   1.242   1.697   5.574
10207SOL    HW131520   1.189   1.743   5.645
10207SOL    HW231521   1.193   1.702   5.487
10208SOL     OW31522   6.621   5.091   5.769
10208SOL    HW131523   6.686   5.021   5.798
10208SOL    HW231524   6.667   5.180   5.768
10209SOL     OW31525   6.695   6.975   6.449
10209SOL    HW131526   6.758   6.911   6.406
10209SOL    HW231527   6.604   6.963   6.410
10210SOL     OW31528   3.928   6.334   2.020
10210SOL    HW131529   3.988   6.406   2.056
10210SOL    HW231530   3.879   6.292   2.096
10211SOL     OW31531   4.227   6.000   5.224
10211SOL    HW131532   4.306   5.990   5.163
10211SOL    HW231533   4.244   5.951   5.310
10212SOL     OW31534   0.760   0.461   6.246
10212SOL    HW131535   0.736   0.480   6.342
10212SOL    HW231536   0.702   0.516   6.186
10213SOL     OW31537   5.625   1.531   0.976
10213SOL    HW131538   5.548   1.594   0.972
10213SOL    HW231539   5.597   1.448   1.025
10214SOL     OW31540   1.073   2.537   0.644
10214SOL    HW131541   1.133   2.604   0.689
10214SOL    HW231542   0.998   2.585   0.599
10215SOL     OW31543   3.150   3.395   2.170
10215SOL    HW131544   3.241   3.428   2.145
10215SOL    HW231545   3.082   3.460   2.135
10216SOL     OW31546   6.609   6.734   2.819
10216SOL    HW131547   6.567   6.672   2.885
10216SOL    HW231548   6.602   6.828   2.852
10217SOL     OW31549   3.385   0.822   3.884
10217SOL    HW131550   3.285   0.819   3.875
10217SOL    HW231551   3.412   0.911   3.921
10218SOL     OW31552   1.537   2.492   2.254
10218SOL    HW131553   1.601   2.558   2.215
10218SOL    HW231554   1.445   2.510   2.221
10219SOL     OW31555   0.196   0.065   2.723
10219SOL    HW131556   0.180   0.076   2.625
10219SOL    HW231557   0.202   0.155   2.766
10220SOL     OW31558   3.254   2.496   1.690
10220SOL    HW131559   3.351   2.473   1.699
10220SOL    HW231560   3.200   2.412   1.686
10221SOL     OW31561   0.619   5.989   3.464
10221SOL    HW131562   0.688   5.917   3.458
10221SOL    HW231563   0.662   6.075   3.488
10222SOL     OW31564   3.045   3.920   4.363
10222SOL    HW131565   2.987   3.888   4.438
10222SOL    HW231566   3.134   3.948   4.398
10223SOL     OW31567   0.481   5.756   1.695
10223SOL    HW131568   0.420   5.676   1.692
10223SOL    HW231569   0.435   5.834   1.652
10224SOL     OW31570   5.714   3.953   3.164
10224SOL    HW131571   5.741   3.859   3.147
10224SOL    HW231572   5.639   3.955   3.231
10225SOL     OW31573   2.306   3.873   6.026
10225SOL    HW131574   2.270   3.966   6.027
10225SOL    HW231575   2.252   3.816   6.088
10226SOL     OW31576   4.908   2.397   6.880
10226SOL    HW131577   4.856   2.384   6.965
10226SOL    HW231578   4.962   2.480   6.887
10227SOL     OW31579   5.685   3.984   1.265
10227SOL    HW131580   5.607   4.046   1.267
10227SOL    HW231581   5.770   4.037   1.258
10228SOL     OW31582   5.294   0.821   1.275
10228SOL    HW131583   5.206   0.869   1.277
10228SOL    HW231584   5.280   0.723   1.283
10229SOL     OW31585   6.622   3.389   4.342
10229SOL    HW131586   6.714   3.410   4.309
10229SOL    HW231587   6.582   3.472   4.382
10230SOL     OW31588   0.148   6.250   2.404
10230SOL    HW131589   0.157   6.159   2.446
10230SOL    HW231590   0.052   6.278   2.408
10231SOL     OW31591   1.337   5.304   2.789
10231SOL    HW131592   1.297   5.272   2.703
10231SOL    HW231593   1.268   5.356   2.840
10232SOL     OW31594   4.890   4.898   3.887
10232SOL    HW131595   4.948   4.950   3.824
10232SOL    HW231596   4.933   4.894   3.977
10233SOL     OW31597   3.642   4.161   5.871
10233SOL    HW131598   3.560   4.133   5.921
10233SOL    HW231599   3.648   4.110   5.785
10234SOL     OW31600   0.262   1.314   1.841
10234SOL    HW131601   0.324   1.309   1.919
10234SOL    HW231602   0.249   1.223   1.803
10235SOL     OW31603   1.671   1.010   2.598
10235SOL    HW131604   1.739   0.968   2.657
10235SOL    HW231605   1.712   1.088   2.551
10236SOL     OW31606   2.418   6.905   1.689
10236SOL    HW131607   2.477   6.889   1.609
10236SOL    HW231608   2.452   6.985   1.739
10237SOL     OW31609   0.518   3.231   5.735
10237SOL    HW131610   0.432   3.195   5.771
10237SOL    HW231611   0.587   3.229   5.807
10238SOL     OW31612   3.315   6.560   1.382
10238SOL    HW131613   3.277   6.639   1.430
10238SOL    HW231614   3.328   6.485   1.447
10239SOL     OW31615   1.157   2.659   4.392
10239SOL    HW131616   1.071   2.710   4.384
10239SOL    HW231617   1.143   2.579   4.452
10240SOL     OW31618   2.523   6.810   0.860
10240SOL    HW131619   2.504   6.734   0.922
10240SOL    HW231620   2.459   6.807   0.783
10241SOL     OW31621   3.921   2.550   1.630
10241SOL    HW131622   3.825   2.575   1.645
10241SOL    HW231623   3.945   2.474   1.690
10242SOL     OW31624   6.852   2.815   6.759
10242SOL    HW131625   6.919   2.888   6.774
10242SOL    HW231626   6.762   2.846   6.789
10243SOL     OW31627   2.646   5.182   1.141
10243SOL    HW131628   2.742   5.155   1.147
10243SOL    HW231629   2.619   5.187   1.044
10244SOL     OW31630   2.916   4.776   1.458
10244SOL    HW131631   2.948   4.687   1.492
10244SOL    HW231632   2.835   4.762   1.400
10245SOL     OW31633   4.490   3.875   0.701
10245SOL    HW131634   4.501   3.881   0.800
10245SOL    HW231635   4.426   3.945   0.669
10246SOL     OW31636   2.960   3.552   4.140
10246SOL    HW131637   2.969   3.484   4.212
10246SOL    HW231638   3.049   3.568   4.098
10247SOL     OW31639   0.603   2.763   4.526
10247SOL    HW131640   0.643   2.816   4.452
10247SOL    HW231641   0.572   2.675   4.491
10248SOL     OW31642   1.465   0.363   3.742
10248SOL    HW131643   1.480   0.460   3.723
10248SOL    HW231644   1.504   0.308   3.668
10249SOL     OW31645   2.767   5.609   6.485
10249SOL    HW131646   2.724   5.543   6.424
10249SOL    HW231647   2.866   5.609   6.469
10250SOL     OW31648   4.139   2.224   0.862
10250SOL    HW131649   4.072   2.244   0.934
10250SOL    HW231650   4.166   2.128   0.868
10251SOL     OW31651   1.739   0.363   4.344
10251SOL    HW131652   1.736   0.411   4.432
10251SOL    HW231653   1.722   0.265   4.359
10252SOL     OW31654   6.024   4.236   6.110
10252SOL    HW131655   6.112   4.261   6.150
10252SOL    HW231656   6.036   4.155   6.052
10253SOL     OW31657   3.457   6.122   5.995
10253SOL    HW131658   3.500   6.207   5.967
10253SOL    HW231659   3.425   6.130   6.089
10254SOL     OW31660   5.890   1.203   5.408
10254SOL    HW131661   5.989   1.195   5.414
10254SOL    HW231662   5.852   1.122   5.362
10255SOL     OW31663   4.039   4.957   1.977
10255SOL    HW131664   4.110   4.891   1.998
10255SOL    HW231665   4.043   5.032   2.043
10256SOL     OW31666   4.064   1.284   2.981
10256SOL    HW131667   4.106   1.197   2.953
10256SOL    HW231668   3.997   1.311   2.912
10257SOL     OW31669   3.498   5.187   2.726
10257SOL    HW131670   3.428   5.220   2.664
10257SOL    HW231671   3.524   5.260   2.790
10258SOL     OW31672   1.574   1.002   2.008
10258SOL    HW131673   1.627   1.079   1.972
10258SOL    HW231674   1.480   1.031   2.025
10259SOL     OW31675   1.616   4.145   3.691
10259SOL    HW131676   1.685   4.190   3.635
10259SOL    HW231677   1.645   4.143   3.786
10260SOL     OW31678   1.129   0.634   3.744
10260SOL    HW131679   1.102   0.563   3.680
10260SOL    HW231680   1.174   0.708   3.695
10261SOL     OW31681   6.828   3.612   0.850
10261SOL    HW131682   6.822   3.601   0.949
10261SOL    HW231683   6.805   3.706   0.825
10262SOL     OW31684   4.290   1.270   0.667
10262SOL    HW131685   4.222   1.332   0.628
10262SOL    HW231686   4.371   1.269   0.608
10263SOL     OW31687   6.030   0.870   1.845
10263SOL    HW131688   6.036   0.770   1.842
10263SOL    HW231689   5.973   0.902   1.769
10264SOL     OW31690   0.173   6.067   6.510
10264SOL    HW131691   0.093   6.102   6.461
10264SOL    HW231692   0.156   6.074   6.609
10265SOL     OW31693   2.152   1.839   0.734
10265SOL    HW131694   2.091   1.866   0.660
10265SOL    HW231695   2.100   1.831   0.819
10266SOL     OW31696   2.959   3.636   1.892
10266SOL    HW131697   3.011   3.664   1.973
10266SOL    HW231698   2.993   3.687   1.813
10267SOL     OW31699   5.826   1.072   1.253
10267SOL    HW131700   5.878   0.999   1.210
10267SOL    HW231701   5.736   1.036   1.281
10268SOL     OW31702   4.164   0.154   1.185
10268SOL    HW131703   4.235   0.103   1.138
10268SOL    HW231704   4.161   0.248   1.149
10269SOL     OW31705   2.678   2.724   0.259
10269SOL    HW131706   2.635   2.646   0.303
10269SOL    HW231707   2.675   2.803   0.321
10270SOL     OW31708   2.627   6.926   2.231
10270SOL    HW131709   2.645   6.954   2.137
10270SOL    HW231710   2.640   6.827   2.240
10271SOL     OW31711   1.443   1.916   6.993
10271SOL    HW131712   1.484   1.898   6.904
10271SOL    HW231713   1.425   2.014   7.003
10272SOL     OW31714   6.390   0.532   4.905
10272SOL    HW131715   6.384   0.441   4.866
10272SOL    HW231716   6.448   0.590   4.848
10273SOL     OW31717   2.373   5.312   3.210
10273SOL    HW131718   2.345   5.391   3.265
10273SOL    HW231719   2.443   5.340   3.145
10274SOL     OW31720   0.834   5.202   5.419
10274SOL    HW131721   0.916   5.252   5.444
10274SOL    HW231722   0.857   5.128   5.356
10275SOL     OW31723   0.055   0.092   2.483
10275SOL    HW131724   6.983   0.050   2.474
10275SOL    HW231725   0.069   0.157   2.409
10276SOL     OW31726   3.493   5.676   5.795
10276SOL    HW131727   3.559   5.611   5.758
10276SOL    HW231728   3.542   5.746   5.848
10277SOL     OW31729   0.425   6.308   4.128
10277SOL    HW131730   0.524   6.325   4.122
10277SOL    HW231731   0.382   6.378   4.184
10278SOL     OW31732   6.861   0.697   5.050
10278SOL    HW131733   6.905   0.774   5.003
10278SOL    HW231734   6.762   0.711   5.050
10279SOL     OW31735   2.327   5.854   4.212
10279SOL    HW131736   2.330   5.806   4.300
10279SOL    HW231737   2.417   5.846   4.168
10280SOL     OW31738   5.935   4.072   0.693
10280SOL    HW131739   5.932   4.007   0.768
10280SOL    HW231740   6.009   4.048   0.631
10281SOL     OW31741   6.880   1.691   3.601
10281SOL    HW131742   6.822   1.645   3.668
10281SOL    HW231743   6.869   1.790   3.610
10282SOL     OW31744   5.157   3.451   3.530
10282SOL    HW131745   5.130   3.544   3.554
10282SOL    HW231746   5.216   3.413   3.602
10283SOL     OW31747   0.718   3.129   1.193
10283SOL    HW131748   0.677   3.094   1.277
10283SOL    HW231749   0.707   3.062   1.119
10284SOL     OW31750   0.182   3.044   3.932
10284SOL    HW131751   0.163   2.951   3.900
10284SOL    HW231752   0.279   3.063   3.923
10285SOL     OW31753   5.446   5.844   4.952
10285SOL    HW131754   5.447   5.924   5.012
10285SOL    HW231755   5.377   5.857   4.880
10286SOL     OW31756   2.792   1.236   4.048
10286SOL    HW131757   2.709   1.202   4.093
10286SOL    HW231758   2.784   1.334   4.033
10287SOL     OW31759   2.662   5.602   2.599
10287SOL    HW131760   2.621   5.518   2.634
10287SOL    HW231761   2.651   5.607   2.500
10288SOL     OW31762   3.468   6.971   5.536
10288SOL    HW131763   3.453   6.927   5.447
10288SOL    HW231764   3.562   7.005   5.540
10289SOL     OW31765   3.066   5.580   6.474
10289SOL    HW131766   3.090   5.488   6.444
10289SOL    HW231767   3.126   5.607   6.550
10290SOL     OW31768   3.152   3.098   2.131
10290SOL    HW131769   3.159   3.035   2.054
10290SOL    HW231770   3.108   3.183   2.101
10291SOL     OW31771   2.082   1.429   2.655
10291SOL    HW131772   2.112   1.518   2.620
10291SOL    HW231773   2.142   1.401   2.730
10292SOL     OW31774   6.157   6.559   6.711
10292SOL    HW131775   6.246   6.599   6.688
10292SOL    HW231776   6.160   6.460   6.695
10293SOL     OW31777   1.208   3.894   3.897
10293SOL    HW131778   1.298   3.916   3.934
10293SOL    HW231779   1.202   3.796   3.880
10294SOL     OW31780   4.040   1.605   2.241
10294SOL    HW131781   3.940   1.616   2.236
10294SOL    HW231782   4.070   1.536   2.175
10295SOL     OW31783   0.972   2.196   6.862
10295SOL    HW131784   0.915   2.269   6.826
10295SOL    HW231785   0.978   2.122   6.795
10296SOL     OW31786   5.723   1.439   5.448
10296SOL    HW131787   5.782   1.359   5.435
10296SOL    HW231788   5.676   1.432   5.536
10297SOL     OW31789   3.361   1.540   6.946
10297SOL    HW131790   3.460   1.535   6.960
10297SOL    HW231791   3.333   1.636   6.939
10298SOL     OW31792   0.865   2.493   2.762
10298SOL    HW131793   0.812   2.420   2.806
10298SOL    HW231794   0.886   2.467   2.668
10299SOL     OW31795   4.228   6.204   3.127
10299SOL    HW131796   4.178   6.245   3.051
10299SOL    HW231797   4.251   6.274   3.194
10300SOL     OW31798   0.815   3.704   1.831
10300SOL    HW131799   0.795   3.723   1.735
10300SOL    HW231800   0.744   3.643   1.867
10301SOL     OW31801   4.481   0.212   6.393
10301SOL    HW131802   4.521   0.284   6.449
10301SOL    HW231803   4.463   0.247   6.301
10302SOL     OW31804   2.829   5.969   4.695
10302SOL    HW131805   2.738   5.929   4.708
10302SOL    HW231806   2.819   6.064   4.667
10303SOL     OW31807   0.880   6.126   4.920
10303SOL    HW131808   0.821   6.055   4.882
10303SOL    HW231809   0.825   6.203   4.952
10304SOL     OW31810   6.123   6.365   0.370
10304SOL    HW131811   6.211   6.336   0.334
10304SOL    HW231812   6.136   6.437   0.438
10305SOL     OW31813   2.100   4.563   5.842
10305SOL    HW131814   2.077   4.472   5.807
10305SOL    HW231815   2.195   4.584   5.819
10306SOL     OW31816   4.653   0.626   1.389
10306SOL    HW131817   4.615   0.606   1.299
10306SOL    HW231818   4.663   0.725   1.400
10307SOL     OW31819   2.433   6.963   4.578
10307SOL    HW131820   2.337   6.935   4.582
10307SOL    HW231821   2.466   6.952   4.484
10308SOL     OW31822   2.878   5.123   2.319
10308SOL    HW131823   2.875   5.179   2.402
10308SOL    HW231824   2.971   5.089   2.304
10309SOL     OW31825   6.631   1.403   4.732
10309SOL    HW131826   6.711   1.354   4.696
10309SOL    HW231827   6.619   1.379   4.829
10310SOL     OW31828   2.528   4.069   5.684
10310SOL    HW131829   2.499   4.154   5.640
10310SOL    HW231830   2.546   4.085   5.780
10311SOL     OW31831   5.180   5.822   0.634
10311SOL    HW131832   5.239   5.780   0.565
10311SOL    HW231833   5.087   5.788   0.623
10312SOL     OW31834   4.290   0.716   1.830
10312SOL    HW131835   4.204   0.748   1.869
10312SOL    HW231836   4.305   0.762   1.742
10313SOL     OW31837   4.587   6.516   3.212
10313SOL    HW131838   4.606   6.592   3.150
10313SOL    HW231839   4.521   6.546   3.281
10314SOL     OW31840   0.344   0.581   1.447
10314SOL    HW131841   0.302   0.593   1.537
10314SOL    HW231842   0.353   0.670   1.401
10315SOL     OW31843   5.686   5.510   3.906
10315SOL    HW131844   5.707   5.450   3.984
10315SOL    HW231845   5.769   5.560   3.880
10316SOL     OW31846   0.476   1.869   6.570
10316SOL    HW131847   0.482   1.778   6.529
10316SOL    HW231848   0.380   1.894   6.581
10317SOL     OW31849   4.083   5.626   6.071
10317SOL    HW131850   3.988   5.609   6.045
10317SOL    HW231851   4.090   5.622   6.171
10318SOL     OW31852   6.090   6.858   0.202
10318SOL    HW131853   6.148   6.926   0.156
10318SOL    HW231854   6.099   6.869   0.301
10319SOL     OW31855   0.368   4.821   4.274
10319SOL    HW131856   0.403   4.913   4.256
10319SOL    HW231857   0.437   4.754   4.248
10320SOL     OW31858   0.706   6.996   4.221
10320SOL    HW131859   0.775   6.929   4.250
10320SOL    HW231860   0.621   6.948   4.199
10321SOL     OW31861   5.421   2.262   1.909
10321SOL    HW131862   5.453   2.183   1.961
10321SOL    HW231863   5.380   2.329   1.971
10322SOL     OW31864   4.595   4.488   4.808
10322SOL    HW131865   4.522   4.491   4.876
10322SOL    HW231866   4.555   4.487   4.716
10323SOL     OW31867   0.466   4.328   5.296
10323SOL    HW131868   0.548   4.385   5.306
10323SOL    HW231869   0.453   4.305   5.200
10324SOL     OW31870   3.403   3.165   2.288
10324SOL    HW131871   3.472   3.161   2.216
10324SOL    HW231872   3.314   3.138   2.252
10325SOL     OW31873   0.020   5.822   3.293
10325SOL    HW131874   6.958   5.864   3.336
10325SOL    HW231875   0.096   5.887   3.292
10326SOL     OW31876   5.495   3.245   6.777
10326SOL    HW131877   5.548   3.329   6.763
10326SOL    HW231878   5.454   3.247   6.868
10327SOL     OW31879   2.330   4.253   1.042
10327SOL    HW131880   2.270   4.189   1.089
10327SOL    HW231881   2.401   4.285   1.105
10328SOL     OW31882   6.355   2.672   1.949
10328SOL    HW131883   6.289   2.615   1.996
10328SOL    HW231884   6.400   2.618   1.877
10329SOL     OW31885   3.968   1.353   2.618
10329SOL    HW131886   3.961   1.339   2.717
10329SOL    HW231887   4.057   1.394   2.597
10330SOL     OW31888   4.199   0.887   1.416
10330SOL    HW131889   4.231   0.911   1.508
10330SOL    HW231890   4.107   0.847   1.423
10331SOL     OW31891   6.417   5.798   6.687
10331SOL    HW131892   6.318   5.804   6.690
10331SOL    HW231893   6.449   5.730   6.753
10332SOL     OW31894   1.053   0.991   6.627
10332SOL    HW131895   1.138   0.941   6.613
10332SOL    HW231896   1.060   1.081   6.584
10333SOL     OW31897   0.824   5.297   4.849
10333SOL    HW131898   0.740   5.305   4.795
10333SOL    HW231899   0.807   5.237   4.928
10334SOL     OW31900   3.047   0.109   3.986
10334SOL    HW131901   3.142   0.078   3.988
10334SOL    HW231902   3.022   0.144   4.076
10335SOL     OW31903   0.356   2.541   5.739
10335SOL    HW131904   0.333   2.616   5.801
10335SOL    HW231905   0.445   2.558   5.697
10336SOL     OW31906   5.153   6.984   3.512
10336SOL    HW131907   5.166   0.044   3.450
10336SOL    HW231908   5.057   6.956   3.510
10337SOL     OW31909   6.191   5.482   6.645
10337SOL    HW131910   6.289   5.499   6.648
10337SOL    HW231911   6.173   5.387   6.670
10338SOL     OW31912   1.778   6.327   1.872
10338SOL    HW131913   1.748   6.237   1.841
10338SOL    HW231914   1.875   6.324   1.894
10339SOL     OW31915   6.285   2.249   5.561
10339SOL    HW131916   6.245   2.161   5.585
10339SOL    HW231917   6.372   2.261   5.608
10340SOL     OW31918   2.582   3.851   6.385
10340SOL    HW131919   2.667   3.884   6.344
10340SOL    HW231920   2.575   3.752   6.374
10341SOL     OW31921   2.325   2.710   2.646
10341SOL    HW131922   2.400   2.647   2.623
10341SOL    HW231923   2.325   2.726   2.745
10342SOL     OW31924   1.015   1.145   3.332
10342SOL    HW131925   1.093   1.139   3.270
10342SOL    HW231926   1.007   1.238   3.368
10343SOL     OW31927   2.414   5.185   1.277
10343SOL    HW131928   2.420   5.249   1.354
10343SOL    HW231929   2.495   5.195   1.220
10344SOL     OW31930   4.457   5.087   5.844
10344SOL    HW131931   4.419   5.179   5.849
10344SOL    HW231932   4.546   5.086   5.890
10345SOL     OW31933   1.575   3.359   4.402
10345SOL    HW131934   1.636   3.415   4.346
10345SOL    HW231935   1.480   3.385   4.384
10346SOL     OW31936   0.086   5.635   1.286
10346SOL    HW131937   0.040   5.704   1.230
10346SOL    HW231938   0.100   5.671   1.378
10347SOL     OW31939   4.840   1.489   3.560
10347SOL    HW131940   4.841   1.577   3.607
10347SOL    HW231941   4.827   1.505   3.462
10348SOL     OW31942   6.590   4.008   0.463
10348SOL    HW131943   6.560   4.083   0.405
10348SOL    HW231944   6.520   3.937   0.465
10349SOL     OW31945   0.888   6.871   6.433
10349SOL    HW131946   0.797   6.901   6.462
10349SOL    HW231947   0.940   6.951   6.400
10350SOL     OW31948   3.041   6.959   6.022
10350SOL    HW131949   2.941   6.949   6.025
10350SOL    HW231950   3.079   6.944   6.113
10351SOL     OW31951   4.988   5.087   5.912
10351SOL    HW131952   5.077   5.128   5.931
10351SOL    HW231953   4.981   5.067   5.814
10352SOL     OW31954   3.666   3.138   6.258
10352SOL    HW131955   3.761   3.165   6.243
10352SOL    HW231956   3.612   3.218   6.282
10353SOL     OW31957   0.122   2.210   4.737
10353SOL    HW131958   0.148   2.302   4.765
10353SOL    HW231959   0.094   2.157   4.817
10354SOL     OW31960   5.977   1.944   1.898
10354SOL    HW131961   5.918   2.019   1.871
10354SOL    HW231962   5.922   1.870   1.937
10355SOL     OW31963   2.158   5.627   2.180
10355SOL    HW131964   2.128   5.638   2.274
10355SOL    HW231965   2.102   5.684   2.120
10356SOL     OW31966   0.144   3.628   4.707
10356SOL    HW131967   0.063   3.687   4.710
10356SOL    HW231968   0.158   3.596   4.613
10357SOL     OW31969   2.326   1.829   0.369
10357SOL    HW131970   2.270   1.872   0.439
10357SOL    HW231971   2.271   1.765   0.316
10358SOL     OW31972   0.468   1.522   1.752
10358SOL    HW131973   0.390   1.460   1.746
10358SOL    HW231974   0.534   1.487   1.819
10359SOL     OW31975   0.206   1.189   1.316
10359SOL    HW131976   0.191   1.282   1.280
10359SOL    HW231977   0.141   1.126   1.272
10360SOL     OW31978   5.890   6.178   3.802
10360SOL    HW131979   5.908   6.186   3.704
10360SOL    HW231980   5.806   6.126   3.817
10361SOL     OW31981   1.915   4.752   1.209
10361SOL    HW131982   1.831   4.796   1.177
10361SOL    HW231983   1.942   4.792   1.297
10362SOL     OW31984   1.393   4.719   4.142
10362SOL    HW131985   1.438   4.753   4.225
10362SOL    HW231986   1.345   4.634   4.163
10363SOL     OW31987   4.998   1.019   4.004
10363SOL    HW131988   5.010   1.117   3.987
10363SOL    HW231989   5.040   0.995   4.092
10364SOL     OW31990   1.214   4.238   1.540
10364SOL    HW131991   1.126   4.270   1.575
10364SOL    HW231992   1.227   4.274   1.447
10365SOL     OW31993   4.202   5.791   0.065
10365SOL    HW131994   4.215   5.741   6.998
10365SOL    HW231995   4.287   5.837   0.090
10366SOL     OW31996   3.210   6.599   3.837
10366SOL    HW131997   3.166   6.687   3.824
10366SOL    HW231998   3.153   6.541   3.896
10367SOL     OW31999   6.867   1.943   3.654
10367SOL    HW132000   6.940   2.010   3.641
10367SOL    HW232001   6.800   1.952   3.581
10368SOL     OW32002   2.018   0.600   1.490
10368SOL    HW132003   1.952   0.665   1.453
10368SOL    HW232004   2.104   0.605   1.439
10369SOL     OW32005   4.062   2.821   0.295
10369SOL    HW132006   4.053   2.830   0.196
10369SOL    HW232007   4.146   2.868   0.326
10370SOL     OW32008   3.432   0.477   4.875
10370SOL    HW132009   3.415   0.559   4.928
10370SOL    HW232010   3.492   0.499   4.798
10371SOL     OW32011   5.019   6.506   6.189
10371SOL    HW132012   4.943   6.571   6.195
10371SOL    HW232013   5.074   6.526   6.108
10372SOL     OW32014   1.183   0.557   2.888
10372SOL    HW132015   1.266   0.508   2.914
10372SOL    HW232016   1.102   0.502   2.911
10373SOL     OW32017   1.140   6.011   4.843
10373SOL    HW132018   1.048   6.050   4.836
10373SOL    HW232019   1.195   6.065   4.906
10374SOL     OW32020   3.093   2.208   3.855
10374SOL    HW132021   3.044   2.272   3.796
10374SOL    HW232022   3.115   2.253   3.942
10375SOL     OW32023   6.262   2.205   0.102
10375SOL    HW132024   6.247   2.300   0.076
10375SOL    HW232025   6.358   2.191   0.126
10376SOL     OW32026   0.276   1.561   3.789
10376SOL    HW132027   0.367   1.560   3.831
10376SOL    HW232028   0.209   1.595   3.854
10377SOL     OW32029   1.203   6.806   4.464
10377SOL    HW132030   1.115   6.850   4.443
10377SOL    HW232031   1.200   6.711   4.432
10378SOL     OW32032   6.907   0.048   0.003
10378SOL    HW132033   6.917   7.010   6.939
10378SOL    HW232034   6.983   0.113   0.009
10379SOL     OW32035   5.357   1.699   4.402
10379SOL    HW132036   5.332   1.784   4.356
10379SOL    HW232037   5.366   1.626   4.334
10380SOL     OW32038   4.816   0.687   2.539
10380SOL    HW132039   4.772   0.609   2.584
10380SOL    HW232040   4.777   0.698   2.447
10381SOL     OW32041   4.444   5.036   5.073
10381SOL    HW132042   4.531   4.987   5.086
10381SOL    HW232043   4.368   4.971   5.075
10382SOL     OW32044   2.207   5.522   0.732
10382SOL    HW132045   2.108   5.524   0.722
10382SOL    HW232046   2.244   5.614   0.722
10383SOL     OW32047   6.758   2.768   6.390
10383SOL    HW132048   6.855   2.764   6.416
10383SOL    HW232049   6.748   2.826   6.309
10384SOL     OW32050   6.142   0.203   0.276
10384SOL    HW132051   6.043   0.215   0.286
10384SOL    HW232052   6.160   0.135   0.205
10385SOL     OW32053   5.593   2.313   6.986
10385SOL    HW132054   5.595   2.219   0.003
10385SOL    HW232055   5.516   2.324   6.924
10386SOL     OW32056   5.806   2.773   6.095
10386SOL    HW132057   5.809   2.701   6.164
10386SOL    HW232058   5.881   2.837   6.110
10387SOL     OW32059   2.274   2.793   3.360
10387SOL    HW132060   2.302   2.802   3.456
10387SOL    HW232061   2.191   2.737   3.355
10388SOL     OW32062   1.570   4.548   2.920
10388SOL    HW132063   1.543   4.493   2.841
10388SOL    HW232064   1.524   4.514   3.002
10389SOL     OW32065   0.360   5.601   3.100
10389SOL    HW132066   0.403   5.592   3.011
10389SOL    HW232067   0.424   5.573   3.172
10390SOL     OW32068   1.550   3.117   3.413
10390SOL    HW132069   1.557   3.017   3.403
10390SOL    HW232070   1.633   3.152   3.456
10391SOL     OW32071   3.120   6.541   5.542
10391SOL    HW132072   3.131   6.493   5.629
10391SOL    HW232073   3.036   6.595   5.544
10392SOL     OW32074   6.916   4.830   6.520
10392SOL    HW132075   6.962   4.743   6.539
10392SOL    HW232076   6.983   4.905   6.524
10393SOL     OW32077   1.506   1.045   3.993
10393SOL    HW132078   1.420   1.003   3.966
10393SOL    HW232079   1.500   1.144   3.985
10394SOL     OW32080   2.500   6.712   6.764
10394SOL    HW132081   2.589   6.757   6.765
10394SOL    HW232082   2.469   6.701   6.670
10395SOL     OW32083   1.336   1.421   4.948
10395SOL    HW132084   1.353   1.507   4.901
10395SOL    HW232085   1.422   1.368   4.953
10396SOL     OW32086   0.326   0.149   5.197
10396SOL    HW132087   0.426   0.145   5.203
10396SOL    HW232088   0.289   0.191   5.279
10397SOL     OW32089   4.194   1.841   2.550
10397SOL    HW132090   4.161   1.849   2.643
10397SOL    HW232091   4.149   1.909   2.492
10398SOL     OW32092   6.854   2.801   2.809
10398SOL    HW132093   6.913   2.723   2.788
10398SOL    HW232094   6.868   2.828   2.904
10399SOL     OW32095   6.203   2.040   5.258
10399SOL    HW132096   6.202   1.964   5.193
10399SOL    HW232097   6.215   2.005   5.351
10400SOL     OW32098   2.337   4.602   1.645
10400SOL    HW132099   2.250   4.572   1.606
10400SOL    HW232100   2.372   4.532   1.707
10401SOL     OW32101   1.000   5.971   1.260
10401SOL    HW132102   1.067   5.912   1.217
10401SOL    HW232103   1.032   6.066   1.257
10402SOL     OW32104   0.208   2.703   4.270
10402SOL    HW132105   0.272   2.770   4.232
10402SOL    HW232106   0.203   2.715   4.370
10403SOL     OW32107   5.271   1.620   1.974
10403SOL    HW132108   5.216   1.616   1.891
10403SOL    HW232109   5.266   1.533   2.022
10404SOL     OW32110   0.333   6.670   3.650
10404SOL    HW132111   0.327   6.570   3.652
10404SOL    HW232112   0.388   6.699   3.571
10405SOL     OW32113   1.604   6.772   0.030
10405SOL    HW132114   1.542   6.821   6.987
10405SOL    HW232115   1.581   6.675   0.029
10406SOL     OW32116   2.606   5.103   5.833
10406SOL    HW132117   2.555   5.066   5.755
10406SOL    HW232118   2.564   5.073   5.918
10407SOL     OW32119   1.278   1.162   6.163
10407SOL    HW132120   1.237   1.071   6.158
10407SOL    HW232121   1.335   1.178   6.083
10408SOL     OW32122   4.075   5.172   3.106
10408SOL    HW132123   4.035   5.241   3.167
10408SOL    HW232124   4.069   5.082   3.149
10409SOL     OW32125   6.038   4.870   2.342
10409SOL    HW132126   5.942   4.860   2.315
10409SOL    HW232127   6.091   4.899   2.263
10410SOL     OW32128   5.958   6.886   0.731
10410SOL    HW132129   5.987   6.855   0.640
10410SOL    HW232130   6.001   6.829   0.801
10411SOL     OW32131   1.604   4.040   2.526
10411SOL    HW132132   1.611   3.952   2.481
10411SOL    HW232133   1.639   4.112   2.466
10412SOL     OW32134   0.611   2.189   6.830
10412SOL    HW132135   0.538   2.179   6.762
10412SOL    HW232136   0.618   2.284   6.858
10413SOL     OW32137   6.823   1.843   6.090
10413SOL    HW132138   6.810   1.908   6.015
10413SOL    HW232139   6.910   1.795   6.076
10414SOL     OW32140   5.626   0.262   5.093
10414SOL    HW132141   5.536   0.305   5.092
10414SOL    HW232142   5.685   0.310   5.158
10415SOL     OW32143   0.526   5.632   3.453
10415SOL    HW132144   0.462   5.572   3.500
10415SOL    HW232145   0.476   5.709   3.413
10416SOL     OW32146   4.713   0.534   0.026
10416SOL    HW132147   4.784   0.558   0.092
10416SOL    HW232148   4.626   0.573   0.054
10417SOL     OW32149   4.288   4.674   4.550
10417SOL    HW132150   4.319   4.679   4.645
10417SOL    HW232151   4.204   4.727   4.540
10418SOL     OW32152   6.910   3.458   6.562
10418SOL    HW132153   7.002   3.466   6.600
10418SOL    HW232154   6.859   3.387   6.612
10419SOL     OW32155   2.121   1.579   3.938
10419SOL    HW132156   2.194   1.646   3.931
10419SOL    HW232157   2.155   1.498   3.986
10420SOL     OW32158   5.253   3.358   3.766
10420SOL    HW132159   5.333   3.333   3.821
10420SOL    HW232160   5.176   3.299   3.792
10421SOL     OW32161   1.099   4.869   3.513
10421SOL    HW132162   1.173   4.802   3.505
10421SOL    HW232163   1.116   4.929   3.591
10422SOL     OW32164   6.032   3.592   5.203
10422SOL    HW132165   6.094   3.580   5.126
10422SOL    HW232166   6.083   3.620   5.284
10423SOL     OW32167   1.990   5.005   3.802
10423SOL    HW132168   1.970   5.098   3.771
10423SOL    HW232169   2.082   4.979   3.773
10424SOL     OW32170   3.472   1.629   0.329
10424SOL    HW132171   3.554   1.662   0.282
10424SOL    HW232172   3.398   1.617   0.263
10425SOL     OW32173   2.186   3.266   0.628
10425SOL    HW132174   2.242   3.321   0.690
10425SOL    HW232175   2.239   3.241   0.548
10426SOL     OW32176   6.009   2.409   6.368
10426SOL    HW132177   6.062   2.334   6.407
10426SOL    HW232178   6.039   2.425   6.274
10427SOL     OW32179   5.402   1.190   4.150
10427SOL    HW132180   5.417   1.206   4.247
10427SOL    HW232181   5.330   1.252   4.117
10428SOL     OW32182   1.897   6.779   5.080
10428SOL    HW132183   1.868   6.867   5.118
10428SOL    HW232184   1.828   6.710   5.100
10429SOL     OW32185   1.309   2.832   1.040
10429SOL    HW132186   1.269   2.874   1.121
10429SOL    HW232187   1.316   2.733   1.054
10430SOL     OW32188   3.548   0.794   4.303
10430SOL    HW132189   3.595   0.706   4.300
10430SOL    HW232190   3.452   0.780   4.279
10431SOL     OW32191   3.839   0.891   3.151
10431SOL    HW132192   3.923   0.924   3.107
10431SOL    HW232193   3.853   0.797   3.183
10432SOL     OW32194   1.107   5.174   6.674
10432SOL    HW132195   1.057   5.203   6.755
10432SOL    HW232196   1.056   5.199   6.592
10433SOL     OW32197   3.833   6.198   3.823
10433SOL    HW132198   3.873   6.288   3.804
10433SOL    HW232199   3.893   6.147   3.885
10434SOL     OW32200   4.929   0.702   6.289
10434SOL    HW132201   4.838   0.739   6.271
10434SOL    HW232202   4.927   0.602   6.282
10435SOL     OW32203   2.555   1.432   0.864
10435SOL    HW132204   2.496   1.508   0.837
10435SOL    HW232205   2.549   1.420   0.963
10436SOL     OW32206   0.334   3.725   4.915
10436SOL    HW132207   0.409   3.698   4.976
10436SOL    HW232208   0.291   3.643   4.877
10437SOL     OW32209   6.224   6.414   4.838
10437SOL    HW132210   6.193   6.344   4.903
10437SOL    HW232211   6.199   6.504   4.872
10438SOL     OW32212   6.745   6.219   6.902
10438SOL    HW132213   6.687   6.299   6.912
10438SOL    HW232214   6.702   6.141   6.947
10439SOL     OW32215   6.570   5.290   5.365
10439SOL    HW132216   6.496   5.225   5.352
10439SOL    HW232217   6.657   5.241   5.370
10440SOL     OW32218   6.006   2.757   0.892
10440SOL    HW132219   6.082   2.732   0.833
10440SOL    HW232220   6.018   2.850   0.926
10441SOL     OW32221   4.645   2.071   6.824
10441SOL    HW132222   4.617   1.979   6.797
10441SOL    HW232223   4.565   2.119   6.862
10442SOL     OW32224   1.903   1.303   4.762
10442SOL    HW132225   1.814   1.265   4.738
10442SOL    HW232226   1.922   1.383   4.705
10443SOL     OW32227   1.296   0.992   0.987
10443SOL    HW132228   1.294   1.028   0.893
10443SOL    HW232229   1.272   1.065   1.051
10444SOL     OW32230   4.092   4.871   4.490
10444SOL    HW132231   4.119   4.967   4.489
10444SOL    HW232232   4.013   4.859   4.550
10445SOL     OW32233   1.018   3.325   3.775
10445SOL    HW132234   1.055   3.380   3.700
10445SOL    HW232235   1.016   3.380   3.859
10446SOL     OW32236   2.212   4.936   5.563
10446SOL    HW132237   2.174   5.015   5.515
10446SOL    HW232238   2.291   4.965   5.618
10447SOL     OW32239   0.500   1.755   2.533
10447SOL    HW132240   0.455   1.757   2.444
10447SOL    HW232241   0.596   1.781   2.523
10448SOL     OW32242   2.618   6.477   1.996
10448SOL    HW132243   2.531   6.428   2.001
10448SOL    HW232244   2.686   6.431   2.053
10449SOL     OW32245   4.268   5.146   4.704
10449SOL    HW132246   4.197   5.093   4.750
10449SOL    HW232247   4.324   5.085   4.649
10450SOL     OW32248   6.933   0.846   4.466
10450SOL    HW132249   6.838   0.868   4.446
10450SOL    HW232250   6.983   0.930   4.487
10451SOL     OW32251   3.187   1.727   3.709
10451SOL    HW132252   3.112   1.779   3.748
10451SOL    HW232253   3.256   1.790   3.673
10452SOL     OW32254   6.092   2.762   4.409
10452SOL    HW132255   6.122   2.673   4.444
10452SOL    HW232256   6.062   2.819   4.486
10453SOL     OW32257   4.185   5.880   3.826
10453SOL    HW132258   4.196   5.807   3.759
10453SOL    HW232259   4.180   5.840   3.918
10454SOL     OW32260   6.606   1.271   6.740
10454SOL    HW132261   6.646   1.286   6.830
10454SOL    HW232262   6.581   1.174   6.731
10455SOL     OW32263   0.371   5.877   3.506
10455SOL    HW132264   0.468   5.900   3.496
10455SOL    HW232265   0.351   5.862   3.603
10456SOL     OW32266   1.010   5.561   6.375
10456SOL    HW132267   0.975   5.558   6.281
10456SOL    HW232268   1.026   5.656   6.401
10457SOL     OW32269   3.963   2.066   6.440
10457SOL    HW132270   4.001   2.064   6.347
10457SOL    HW232271   3.927   1.975   6.462
10458SOL     OW32272   1.005   5.968   6.856
10458SOL    HW132273   1.069   5.891   6.855
10458SOL    HW232274   0.928   5.949   6.796
10459SOL     OW32275   5.738   5.424   1.483
10459SOL    HW132276   5.775   5.510   1.519
10459SOL    HW232277   5.681   5.443   1.404
10460SOL     OW32278   6.567   0.687   0.448
10460SOL    HW132279   6.494   0.716   0.510
10460SOL    HW232280   6.567   0.588   0.441
10461SOL     OW32281   0.029   4.320   6.618
10461SOL    HW132282   0.029   4.261   6.698
10461SOL    HW232283   6.992   4.401   6.636
10462SOL     OW32284   3.596   3.430   6.289
10462SOL    HW132285   3.622   3.493   6.216
10462SOL    HW232286   3.620   3.471   6.377
10463SOL     OW32287   5.029   2.566   6.495
10463SOL    HW132288   5.114   2.586   6.544
10463SOL    HW232289   5.044   2.488   6.434
10464SOL     OW32290   6.398   4.395   2.708
10464SOL    HW132291   6.362   4.431   2.622
10464SOL    HW232292   6.432   4.471   2.763
10465SOL     OW32293   5.465   4.956   1.282
10465SOL    HW132294   5.447   4.883   1.216
10465SOL    HW232295   5.382   4.973   1.336
10466SOL     OW32296   6.528   3.918   6.219
10466SOL    HW132297   6.521   3.819   6.236
10466SOL    HW232298   6.617   3.939   6.179
10467SOL     OW32299   0.520   2.664   6.918
10467SOL    HW132300   0.433   2.707   6.942
10467SOL    HW232301   0.558   2.708   6.836
10468SOL     OW32302   1.217   4.586   3.635
10468SOL    HW132303   1.299   4.540   3.668
10468SOL    HW232304   1.136   4.536   3.665
10469SOL     OW32305   1.208   1.500   4.375
10469SOL    HW132306   1.176   1.465   4.287
10469SOL    HW232307   1.286   1.560   4.361
10470SOL     OW32308   2.045   3.630   2.916
10470SOL    HW132309   2.083   3.618   3.008
10470SOL    HW232310   1.947   3.609   2.918
10471SOL     OW32311   2.665   5.934   6.784
10471SOL    HW132312   2.680   5.985   6.699
10471SOL    HW232313   2.607   5.855   6.766
10472SOL     OW32314   3.413   4.792   6.709
10472SOL    HW132315   3.368   4.704   6.717
10472SOL    HW232316   3.344   4.864   6.695
10473SOL     OW32317   5.691   4.779   1.004
10473SOL    HW132318   5.706   4.877   1.011
10473SOL    HW232319   5.762   4.730   1.055
10474SOL     OW32320   6.119   0.224   5.046
10474SOL    HW132321   6.075   0.142   5.009
10474SOL    HW232322   6.200   0.246   4.990
10475SOL     OW32323   0.980   4.823   0.980
10475SOL    HW132324   0.956   4.897   0.917
10475SOL    HW232325   0.994   4.860   1.071
10476SOL     OW32326   4.887   6.958   1.381
10476SOL    HW132327   4.854   0.034   1.374
10476SOL    HW232328   4.811   6.895   1.363
10477SOL     OW32329   6.917   6.017   3.677
10477SOL    HW132330   6.856   5.989   3.751
10477SOL    HW232331   7.002   5.966   3.682
10478SOL     OW32332   6.500   0.845   6.503
10478SOL    HW132333   6.449   0.765   6.534
10478SOL    HW232334   6.472   0.868   6.410
10479SOL     OW32335   0.981   2.708   1.902
10479SOL    HW132336   0.927   2.674   1.825
10479SOL    HW232337   0.919   2.741   1.974
10480SOL     OW32338   2.604   0.553   3.640
10480SOL    HW132339   2.525   0.498   3.617
10480SOL    HW232340   2.613   0.629   3.574
10481SOL     OW32341   0.016   1.098   1.164
10481SOL    HW132342   6.994   1.033   1.099
10481SOL    HW232343   6.995   1.189   1.148
10482SOL     OW32344   5.230   2.931   3.788
10482SOL    HW132345   5.286   2.946   3.707
10482SOL    HW232346   5.278   2.962   3.870
10483SOL     OW32347   6.894   6.335   0.228
10483SOL    HW132348   6.915   6.319   0.324
10483SOL    HW232349   6.813   6.393   0.221
10484SOL     OW32350   6.366   0.924   2.278
10484SOL    HW132351   6.400   0.876   2.197
10484SOL    HW232352   6.317   0.860   2.337
10485SOL     OW32353   5.046   3.394   5.543
10485SOL    HW132354   4.975   3.454   5.580
10485SOL    HW232355   5.094   3.349   5.618
10486SOL     OW32356   5.535   3.053   2.186
10486SOL    HW132357   5.447   3.095   2.161
10486SOL    HW232358   5.528   3.013   2.277
10487SOL     OW32359   5.874   6.872   1.671
10487SOL    HW132360   5.928   6.894   1.752
10487SOL    HW232361   5.804   6.942   1.658
10488SOL     OW32362   3.036   3.084   0.276
10488SOL    HW132363   2.996   3.172   0.253
10488SOL    HW232364   2.978   3.036   0.341
10489SOL     OW32365   1.641   5.631   4.962
10489SOL    HW132366   1.546   5.659   4.960
10489SOL    HW232367   1.681   5.641   4.871
10490SOL     OW32368   0.033   0.415   3.931
10490SOL    HW132369   0.034   0.463   3.844
10490SOL    HW232370   0.045   0.317   3.916
10491SOL     OW32371   0.552   4.585   5.650
10491SOL    HW132372   0.577   4.659   5.711
10491SOL    HW232373   0.591   4.602   5.559
10492SOL     OW32374   3.692   3.938   5.697
10492SOL    HW132375   3.656   3.880   5.624
10492SOL    HW232376   3.693   3.885   5.783
10493SOL     OW32377   3.122   1.019   0.898
10493SOL    HW132378   3.033   1.031   0.855
10493SOL    HW232379   3.115   0.955   0.973
10494SOL     OW32380   5.770   2.511   4.479
10494SOL    HW132381   5.793   2.519   4.382
10494SOL    HW232382   5.738   2.418   4.499
10495SOL     OW32383   1.435   6.668   0.471
10495SOL    HW132384   1.371   6.650   0.397
10495SOL    HW232385   1.416   6.757   0.512
10496SOL     OW32386   6.313   0.616   5.544
10496SOL    HW132387   6.354   0.552   5.480
10496SOL    HW232388   6.306   0.573   5.634
10497SOL     OW32389   1.098   1.499   0.345
10497SOL    HW132390   1.081   1.574   0.281
10497SOL    HW232391   1.182   1.452   0.319
10498SOL     OW32392   2.984   5.136   5.708
10498SOL    HW132393   2.973   5.154   5.610
10498SOL    HW232394   2.906   5.175   5.758
10499SOL     OW32395   3.053   5.150   3.144
10499SOL    HW132396   3.094   5.060   3.130
10499SOL    HW232397   2.971   5.142   3.200
10500SOL     OW32398   1.279   2.309   6.829
10500SOL    HW132399   1.200   2.289   6.772
10500SOL    HW232400   1.349   2.356   6.774
10501SOL     OW32401   1.185   2.248   2.796
10501SOL    HW132402   1.213   2.279   2.887
10501SOL    HW232403   1.123   2.170   2.804
10502SOL     OW32404   3.199   6.313   5.731
10502SOL    HW132405   3.194   6.230   5.787
10502SOL    HW232406   3.291   6.351   5.737
10503SOL     OW32407   2.767   3.790   5.823
10503SOL    HW132408   2.832   3.726   5.864
10503SOL    HW232409   2.688   3.800   5.885
10504SOL     OW32410   3.017   3.094   1.042
10504SOL    HW132411   2.937   3.080   1.101
10504SOL    HW232412   3.019   3.189   1.011
10505SOL     OW32413   0.227   6.812   1.415
10505SOL    HW132414   0.304   6.766   1.372
10505SOL    HW232415   0.214   6.902   1.374
10506SOL     OW32416   0.297   4.615   5.259
10506SOL    HW132417   0.241   4.589   5.180
10506SOL    HW232418   0.347   4.535   5.292
10507SOL     OW32419   0.964   0.261   4.864
10507SOL    HW132420   0.953   0.313   4.779
10507SOL    HW232421   0.954   0.163   4.843
10508SOL     OW32422   5.122   4.012   2.775
10508SOL    HW132423   5.095   4.001   2.680
10508SOL    HW232424   5.050   3.977   2.835
10509SOL     OW32425   1.756   0.142   5.438
10509SOL    HW132426   1.826   0.186   5.494
10509SOL    HW232427   1.667   0.183   5.458
10510SOL     OW32428   6.448   6.186   0.097
10510SOL    HW132429   6.450   6.196   7.016
10510SOL    HW232430   6.537   6.210   0.135
10511SOL     OW32431   6.351   1.994   0.355
10511SOL    HW132432   6.325   2.079   0.310
10511SOL    HW232433   6.353   1.919   0.289
10512SOL     OW32434   3.619   6.009   6.605
10512SOL    HW132435   3.626   6.012   6.505
10512SOL    HW232436   3.638   5.917   6.638
10513SOL     OW32437   6.764   2.654   0.036
10513SOL    HW132438   6.710   2.738   0.039
10513SOL    HW232439   6.719   2.586   6.997
10514SOL     OW32440   6.545   3.708   1.587
10514SOL    HW132441   6.547   3.609   1.603
10514SOL    HW232442   6.452   3.742   1.604
10515SOL     OW32443   6.362   2.283   4.182
10515SOL    HW132444   6.382   2.230   4.264
10515SOL    HW232445   6.293   2.353   4.203
10516SOL     OW32446   3.724   0.368   6.813
10516SOL    HW132447   3.756   0.411   6.897
10516SOL    HW232448   3.730   0.268   6.823
10517SOL     OW32449   0.350   2.382   3.079
10517SOL    HW132450   0.285   2.317   3.039
10517SOL    HW232451   0.315   2.415   3.166
10518SOL     OW32452   0.567   6.907   1.656
10518SOL    HW132453   0.485   6.929   1.709
10518SOL    HW232454   0.643   6.964   1.686
10519SOL     OW32455   3.233   3.738   5.329
10519SOL    HW132456   3.270   3.678   5.400
10519SOL    HW232457   3.255   3.700   5.239
10520SOL     OW32458   3.895   3.789   6.216
10520SOL    HW132459   3.927   3.834   6.300
10520SOL    HW232460   3.868   3.858   6.149
10521SOL     OW32461   6.401   5.192   2.113
10521SOL    HW132462   6.478   5.246   2.080
10521SOL    HW232463   6.330   5.188   2.043
10522SOL     OW32464   6.191   0.284   1.870
10522SOL    HW132465   6.236   0.199   1.900
10522SOL    HW232466   6.257   0.360   1.876
10523SOL     OW32467   0.305   5.723   6.946
10523SOL    HW132468   0.225   5.779   6.923
10523SOL    HW232469   0.284   5.664   0.005
10524SOL     OW32470   4.133   1.167   4.327
10524SOL    HW132471   4.078   1.202   4.403
10524SOL    HW232472   4.088   1.087   4.288
10525SOL     OW32473   2.848   6.039   4.394
10525SOL    HW132474   2.830   6.074   4.302
10525SOL    HW232475   2.763   6.008   4.436
10526SOL     OW32476   5.728   6.812   2.041
10526SOL    HW132477   5.806   6.865   2.008
10526SOL    HW232478   5.751   6.714   2.039
10527SOL     OW32479   1.613   2.497   4.496
10527SOL    HW132480   1.645   2.557   4.424
10527SOL    HW232481   1.591   2.407   4.458
10528SOL     OW32482   6.200   4.863   5.508
10528SOL    HW132483   6.186   4.897   5.415
10528SOL    HW232484   6.131   4.794   5.529
10529SOL     OW32485   6.004   6.440   3.916
10529SOL    HW132486   5.988   6.349   3.877
10529SOL    HW232487   6.082   6.436   3.978
10530SOL     OW32488   1.878   1.652   5.669
10530SOL    HW132489   1.819   1.571   5.665
10530SOL    HW232490   1.826   1.731   5.701
10531SOL     OW32491   2.429   2.427   5.574
10531SOL    HW132492   2.423   2.433   5.674
10531SOL    HW232493   2.456   2.515   5.536
10532SOL     OW32494   3.479   3.152   5.069
10532SOL    HW132495   3.529   3.187   4.990
10532SOL    HW232496   3.518   3.065   5.098
10533SOL     OW32497   2.077   0.805   6.109
10533SOL    HW132498   2.063   0.820   6.207
10533SOL    HW232499   2.032   0.720   6.082
10534SOL     OW32500   5.795   5.642   1.271
10534SOL    HW132501   5.756   5.550   1.269
10534SOL    HW232502   5.756   5.696   1.196
10535SOL     OW32503   0.467   1.294   2.697
10535SOL    HW132504   0.429   1.378   2.659
10535SOL    HW232505   0.561   1.311   2.727
10536SOL     OW32506   4.533   6.844   3.792
10536SOL    HW132507   4.466   6.876   3.859
10536SOL    HW232508   4.625   6.865   3.823
10537SOL     OW32509   0.732   4.992   1.179
10537SOL    HW132510   0.822   4.962   1.210
10537SOL    HW232511   0.671   4.913   1.173
10538SOL     OW32512   4.980   3.819   6.923
10538SOL    HW132513   5.068   3.866   6.911
10538SOL    HW232514   4.938   3.803   6.834
10539SOL     OW32515   0.871   3.280   5.854
10539SOL    HW132516   0.915   3.367   5.879
10539SOL    HW232517   0.868   3.271   5.755
10540SOL     OW32518   2.792   0.713   0.039
10540SOL    HW132519   2.723   0.658   7.011
10540SOL    HW232520   2.880   0.701   7.013
10541SOL     OW32521   4.290   2.336   0.673
10541SOL    HW132522   4.267   2.427   0.639
10541SOL    HW232523   4.235   2.316   0.754
10542SOL     OW32524   1.410   2.639   6.904
10542SOL    HW132525   1.509   2.635   6.890
10542SOL    HW232526   1.370   2.698   6.834
10543SOL     OW32527   2.315   1.159   5.888
10543SOL    HW132528   2.407   1.196   5.900
10543SOL    HW232529   2.248   1.233   5.895
10544SOL     OW32530   0.719   2.560   2.132
10544SOL    HW132531   0.767   2.646   2.115
10544SOL    HW232532   0.749   2.490   2.067
10545SOL     OW32533   5.385   0.817   2.875
10545SOL    HW132534   5.343   0.843   2.788
10545SOL    HW232535   5.316   0.823   2.948
10546SOL     OW32536   3.904   0.469   4.966
10546SOL    HW132537   3.825   0.437   5.019
10546SOL    HW232538   3.879   0.553   4.918
10547SOL     OW32539   4.047   1.421   0.699
10547SOL    HW132540   4.102   1.436   0.781
10547SOL    HW232541   3.957   1.386   0.725
10548SOL     OW32542   4.691   4.171   5.216
10548SOL    HW132543   4.649   4.255   5.181
10548SOL    HW232544   4.787   4.188   5.238
10549SOL     OW32545   1.325   1.095   1.618
10549SOL    HW132546   1.332   1.130   1.711
10549SOL    HW232547   1.233   1.058   1.602
10550SOL     OW32548   4.857   6.945   5.474
10550SOL    HW132549   4.911   6.916   5.553
10550SOL    HW232550   4.916   6.994   5.410
10551SOL     OW32551   1.494   2.734   5.819
10551SOL    HW132552   1.528   2.754   5.911
10551SOL    HW232553   1.425   2.801   5.793
10552SOL     OW32554   3.048   2.141   5.329
10552SOL    HW132555   3.072   2.086   5.250
10552SOL    HW232556   3.078   2.236   5.315
10553SOL     OW32557   2.623   4.389   6.139
10553SOL    HW132558   2.595   4.471   6.189
10553SOL    HW232559   2.602   4.401   6.041
10554SOL     OW32560   6.420   4.622   5.406
10554SOL    HW132561   6.447   4.717   5.419
10554SOL    HW232562   6.379   4.611   5.316
10555SOL     OW32563   3.191   2.194   1.106
10555SOL    HW132564   3.176   2.219   1.202
10555SOL    HW232565   3.175   2.096   1.094
10556SOL     OW32566   2.097   3.126   4.217
10556SOL    HW132567   2.130   3.082   4.301
10556SOL    HW232568   2.113   3.225   4.223
10557SOL     OW32569   6.365   2.189   3.795
10557SOL    HW132570   6.420   2.151   3.721
10557SOL    HW232571   6.415   2.179   3.881
10558SOL     OW32572   5.033   6.193   5.052
10558SOL    HW132573   4.974   6.229   5.124
10558SOL    HW232574   5.122   6.239   5.055
10559SOL     OW32575   4.561   2.617   0.637
10559SOL    HW132576   4.490   2.627   0.707
10559SOL    HW232577   4.563   2.522   0.606
10560SOL     OW32578   0.219   2.749   4.531
10560SOL    HW132579   0.289   2.792   4.587
10560SOL    HW232580   0.168   2.682   4.586
10561SOL     OW32581   2.919   4.260   6.085
10561SOL    HW132582   2.837   4.314   6.101
10561SOL    HW232583   2.911   4.211   5.999
10562SOL     OW32584   3.362   1.319   0.302
10562SOL    HW132585   3.328   1.243   0.356
10562SOL    HW232586   3.289   1.354   0.243
10563SOL     OW32587   1.815   1.581   3.851
10563SOL    HW132588   1.914   1.575   3.862
10563SOL    HW232589   1.773   1.497   3.886
10564SOL     OW32590   6.853   2.260   2.354
10564SOL    HW132591   6.902   2.179   2.322
10564SOL    HW232592   6.759   2.234   2.379
10565SOL     OW32593   5.254   1.859   4.934
10565SOL    HW132594   5.226   1.955   4.931
10565SOL    HW232595   5.347   1.850   4.900
10566SOL     OW32596   4.073   4.305   6.705
10566SOL    HW132597   3.986   4.350   6.722
10566SOL    HW232598   4.138   4.332   6.776
10567SOL     OW32599   1.510   5.157   3.859
10567SOL    HW132600   1.523   5.077   3.799
10567SOL    HW232601   1.494   5.126   3.952
10568SOL     OW32602   4.254   1.693   3.321
10568SOL    HW132603   4.345   1.682   3.359
10568SOL    HW232604   4.225   1.607   3.280
10569SOL     OW32605   6.216   2.982   3.324
10569SOL    HW132606   6.312   2.954   3.316
10569SOL    HW232607   6.211   3.082   3.327
10570SOL     OW32608   1.057   4.276   2.004
10570SOL    HW132609   1.135   4.246   2.060
10570SOL    HW232610   0.991   4.323   2.063
10571SOL     OW32611   6.124   6.807   4.670
10571SOL    HW132612   6.107   6.843   4.578
10571SOL    HW232613   6.039   6.806   4.722
10572SOL     OW32614   6.555   3.060   2.014
10572SOL    HW132615   6.595   3.028   1.928
10572SOL    HW232616   6.460   3.030   2.020
10573SOL     OW32617   6.276   4.727   5.856
10573SOL    HW132618   6.271   4.792   5.780
10573SOL    HW232619   6.214   4.651   5.839
10574SOL     OW32620   0.702   1.913   2.731
10574SOL    HW132621   0.655   1.996   2.760
10574SOL    HW232622   0.643   1.834   2.746
10575SOL     OW32623   0.982   6.831   5.740
10575SOL    HW132624   0.920   6.879   5.802
10575SOL    HW232625   0.931   6.760   5.690
10576SOL     OW32626   1.712   4.484   3.364
10576SOL    HW132627   1.764   4.534   3.294
10576SOL    HW232628   1.616   4.511   3.360
10577SOL     OW32629   0.712   2.944   5.209
10577SOL    HW132630   0.666   2.879   5.270
10577SOL    HW232631   0.647   2.978   5.141
10578SOL     OW32632   5.844   0.808   5.843
10578SOL    HW132633   5.792   0.861   5.775
10578SOL    HW232634   5.850   0.713   5.814
10579SOL     OW32635   4.997   1.119   0.767
10579SOL    HW132636   4.905   1.100   0.800
10579SOL    HW232637   5.034   1.200   0.814
10580SOL     OW32638   6.691   6.147   0.215
10580SOL    HW132639   6.768   6.210   0.218
10580SOL    HW232640   6.706   6.079   0.143
10581SOL     OW32641   4.460   1.692   4.087
10581SOL    HW132642   4.514   1.661   4.009
10581SOL    HW232643   4.363   1.687   4.064
10582SOL     OW32644   3.347   4.575   6.939
10582SOL    HW132645   3.300   4.662   6.924
10582SOL    HW232646   3.428   4.591   6.997
10583SOL     OW32647   4.568   1.756   0.790
10583SOL    HW132648   4.490   1.696   0.776
10583SOL    HW232649   4.601   1.789   0.701
10584SOL     OW32650   6.333   0.597   1.586
10584SOL    HW132651   6.323   0.599   1.685
10584SOL    HW232652   6.267   0.532   1.547
10585SOL     OW32653   1.802   4.360   6.615
10585SOL    HW132654   1.847   4.278   6.650
10585SOL    HW232655   1.849   4.441   6.652
10586SOL     OW32656   3.934   0.890   0.358
10586SOL    HW132657   3.948   0.986   0.383
10586SOL    HW232658   3.929   0.834   0.440
10587SOL     OW32659   5.859   3.478   0.877
10587SOL    HW132660   5.859   3.384   0.911
10587SOL    HW232661   5.866   3.478   0.778
10588SOL     OW32662   0.858   5.445   2.972
10588SOL    HW132663   0.770   5.399   2.983
10588SOL    HW232664   0.931   5.384   3.002
10589SOL     OW32665   6.341   1.723   3.841
10589SOL    HW132666   6.291   1.806   3.818
10589SOL    HW232667   6.432   1.726   3.800
10590SOL     OW32668   1.787   0.940   4.411
10590SOL    HW132669   1.847   0.861   4.409
10590SOL    HW232670   1.726   0.937   4.331
10591SOL     OW32671   1.423   2.493   0.512
10591SOL    HW132672   1.339   2.490   0.458
10591SOL    HW232673   1.404   2.461   0.605
10592SOL     OW32674   6.163   1.935   0.102
10592SOL    HW132675   6.187   2.031   0.091
10592SOL    HW232676   6.199   1.882   0.025
10593SOL     OW32677   2.340   4.800   1.094
10593SOL    HW132678   2.427   4.760   1.122
10593SOL    HW232679   2.295   4.739   1.029
10594SOL     OW32680   1.275   1.854   4.570
10594SOL    HW132681   1.181   1.837   4.540
10594SOL    HW232682   1.273   1.893   4.662
10595SOL     OW32683   2.446   6.306   5.624
10595SOL    HW132684   2.446   6.371   5.699
10595SOL    HW232685   2.459   6.213   5.660
10596SOL     OW32686   3.669   0.957   1.978
10596SOL    HW132687   3.615   1.042   1.979
10596SOL    HW232688   3.619   0.886   2.027
10597SOL     OW32689   1.991   0.094   4.152
10597SOL    HW132690   2.068   0.153   4.174
10597SOL    HW232691   1.980   0.025   4.224
10598SOL     OW32692   1.808   1.863   6.979
10598SOL    HW132693   1.822   1.961   6.967
10598SOL    HW232694   1.764   1.846   0.049
10599SOL     OW32695   5.011   1.042   6.869
10599SOL    HW132696   4.931   1.008   6.919
10599SOL    HW232697   5.094   1.007   6.912
10600SOL     OW32698   1.745   2.585   5.795
10600SOL    HW132699   1.674   2.655   5.796
10600SOL    HW232700   1.835   2.629   5.787
10601SOL     OW32701   3.609   5.939   5.679
10601SOL    HW132702   3.557   5.894   5.752
10601SOL    HW232703   3.623   6.035   5.702
10602SOL     OW32704   4.328   1.093   2.014
10602SOL    HW132705   4.394   1.034   1.967
10602SOL    HW232706   4.284   1.153   1.946
10603SOL     OW32707   1.447   5.582   4.218
10603SOL    HW132708   1.506   5.662   4.211
10603SOL    HW232709   1.467   5.520   4.142
10604SOL     OW32710   6.882   4.472   5.045
10604SOL    HW132711   6.882   4.403   4.973
10604SOL    HW232712   6.796   4.522   5.043
10605SOL     OW32713   2.162   4.734   6.461
10605SOL    HW132714   2.118   4.645   6.446
10605SOL    HW232715   2.127   4.800   6.395
10606SOL     OW32716   0.617   0.834   2.966
10606SOL    HW132717   0.540   0.801   2.911
10606SOL    HW232718   0.611   0.933   2.974
10607SOL     OW32719   5.929   4.959   0.313
10607SOL    HW132720   5.931   4.868   0.354
10607SOL    HW232721   6.022   4.989   0.295
10608SOL     OW32722   6.000   1.089   2.994
10608SOL    HW132723   6.084   1.115   2.947
10608SOL    HW232724   6.016   1.087   3.093
10609SOL     OW32725   3.879   6.655   1.999
10609SOL    HW132726   3.896   6.737   2.054
10609SOL    HW232727   3.940   6.655   1.920
10610SOL     OW32728   1.748   3.348   4.813
10610SOL    HW132729   1.753   3.266   4.871
10610SOL    HW232730   1.816   3.341   4.740
10611SOL     OW32731   5.120   2.387   6.261
10611SOL    HW132732   5.082   2.341   6.181
10611SOL    HW232733   5.215   2.412   6.244
10612SOL     OW32734   1.387   6.944   1.015
10612SOL    HW132735   1.303   6.988   0.983
10612SOL    HW232736   1.420   6.881   0.945
10613SOL     OW32737   0.635   6.913   6.484
10613SOL    HW132738   0.591   6.890   6.397
10613SOL    HW232739   0.583   6.985   6.530
10614SOL     OW32740   6.708   0.934   4.364
10614SOL    HW132741   6.744   0.965   4.276
10614SOL    HW232742   6.626   0.879   4.349
10615SOL     OW32743   6.633   5.826   5.655
10615SOL    HW132744   6.631   5.729   5.678
10615SOL    HW232745   6.684   5.840   5.570
10616SOL     OW32746   2.789   6.210   0.407
10616SOL    HW132747   2.803   6.162   0.320
10616SOL    HW232748   2.872   6.259   0.432
10617SOL     OW32749   0.826   2.191   6.473
10617SOL    HW132750   0.874   2.116   6.427
10617SOL    HW232751   0.842   2.185   6.571
10618SOL     OW32752   6.116   4.246   1.379
10618SOL    HW132753   6.163   4.333   1.394
10618SOL    HW232754   6.179   4.181   1.336
10619SOL     OW32755   0.733   4.702   4.019
10619SOL    HW132756   0.688   4.743   3.939
10619SOL    HW232757   0.816   4.655   3.991
10620SOL     OW32758   1.196   6.042   4.329
10620SOL    HW132759   1.115   6.020   4.275
10620SOL    HW232760   1.203   5.980   4.407
10621SOL     OW32761   2.817   6.057   1.081
10621SOL    HW132762   2.782   5.994   1.150
10621SOL    HW232763   2.750   6.065   1.007
10622SOL     OW32764   4.422   1.564   1.472
10622SOL    HW132765   4.381   1.630   1.535
10622SOL    HW232766   4.460   1.487   1.525
10623SOL     OW32767   6.499   1.282   3.802
10623SOL    HW132768   6.524   1.206   3.742
10623SOL    HW232769   6.425   1.335   3.759
10624SOL     OW32770   2.466   1.441   4.544
10624SOL    HW132771   2.554   1.470   4.507
10624SOL    HW232772   2.450   1.345   4.524
10625SOL     OW32773   0.339   3.306   0.149
10625SOL    HW132774   0.291   3.218   0.149
10625SOL    HW232775   0.299   3.365   0.219
10626SOL     OW32776   6.789   1.708   0.955
10626SOL    HW132777   6.761   1.788   0.903
10626SOL    HW232778   6.884   1.685   0.934
10627SOL     OW32779   6.315   5.234   4.456
10627SOL    HW132780   6.309   5.305   4.386
10627SOL    HW232781   6.233   5.176   4.451
10628SOL     OW32782   6.967   6.256   6.171
10628SOL    HW132783   6.882   6.275   6.122
10628SOL    HW232784   6.945   6.210   6.257
10629SOL     OW32785   2.809   5.687   5.948
10629SOL    HW132786   2.821   5.763   6.013
10629SOL    HW232787   2.714   5.657   5.949
10630SOL     OW32788   6.756   1.315   2.777
10630SOL    HW132789   6.820   1.354   2.711
10630SOL    HW232790   6.738   1.382   2.849
10631SOL     OW32791   1.329   0.161   5.016
10631SOL    HW132792   1.233   0.141   4.998
10631SOL    HW232793   1.358   0.239   4.960
10632SOL     OW32794   0.495   3.055   5.060
10632SOL    HW132795   0.454   3.134   5.013
10632SOL    HW232796   0.424   3.006   5.110
10633SOL     OW32797   0.694   5.318   0.664
10633SOL    HW132798   0.719   5.258   0.739
10633SOL    HW232799   0.777   5.357   0.623
10634SOL     OW32800   3.981   0.036   1.373
10634SOL    HW132801   4.024   0.019   1.462
10634SOL    HW232802   4.050   0.074   1.310
10635SOL     OW32803   1.911   0.852   0.899
10635SOL    HW132804   1.868   0.763   0.885
10635SOL    HW232805   1.899   0.881   0.993
10636SOL     OW32806   6.771   1.430   1.010
10636SOL    HW132807   6.678   1.409   1.039
10636SOL    HW232808   6.785   1.529   1.012
10637SOL     OW32809   4.023   4.691   5.580
10637SOL    HW132810   4.003   4.635   5.661
10637SOL    HW232811   4.026   4.633   5.499
10638SOL     OW32812   6.639   0.463   5.223
10638SOL    HW132813   6.641   0.453   5.123
10638SOL    HW232814   6.551   0.428   5.257
10639SOL     OW32815   3.246   1.524   5.199
10639SOL    HW132816   3.147   1.513   5.191
10639SOL    HW232817   3.267   1.590   5.271
10640SOL     OW32818   3.575   6.697   0.493
10640SOL    HW132819   3.482   6.669   0.514
10640SOL    HW232820   3.620   6.625   0.439
10641SOL     OW32821   4.197   0.669   6.159
10641SOL    HW132822   4.269   0.623   6.107
10641SOL    HW232823   4.238   0.738   6.220
10642SOL     OW32824   0.068   3.528   0.510
10642SOL    HW132825   0.024   3.609   0.548
10642SOL    HW232826   0.140   3.555   0.447
10643SOL     OW32827   3.949   3.439   5.174
10643SOL    HW132828   4.026   3.405   5.228
10643SOL    HW232829   3.980   3.462   5.082
10644SOL     OW32830   3.611   1.782   5.165
10644SOL    HW132831   3.557   1.808   5.245
10644SOL    HW232832   3.612   1.682   5.156
10645SOL     OW32833   2.342   6.965   4.933
10645SOL    HW132834   2.427   6.983   4.984
10645SOL    HW232835   2.303   6.879   4.964
10646SOL     OW32836   0.875   4.107   6.658
10646SOL    HW132837   0.814   4.028   6.646
10646SOL    HW232838   0.962   4.089   6.613
10647SOL     OW32839   0.163   5.000   0.545
10647SOL    HW132840   0.174   5.019   0.447
10647SOL    HW232841   0.202   5.076   0.598
10648SOL     OW32842   5.181   4.644   6.376
10648SOL    HW132843   5.185   4.560   6.431
10648SOL    HW232844   5.241   4.713   6.418
10649SOL     OW32845   0.671   4.425   5.951
10649SOL    HW132846   0.649   4.471   6.037
10649SOL    HW232847   0.617   4.464   5.877
10650SOL     OW32848   2.758   0.227   4.104
10650SOL    HW132849   2.749   0.134   4.140
10650SOL    HW232850   2.847   0.265   4.130
10651SOL     OW32851   3.154   0.074   5.723
10651SOL    HW132852   3.066   0.114   5.747
10651SOL    HW232853   3.160   7.000   5.762
10652SOL     OW32854   3.843   0.992   0.015
10652SOL    HW132855   3.933   1.033   0.000
10652SOL    HW232856   3.797   1.038   0.090
10653SOL     OW32857   5.398   2.986   3.989
10653SOL    HW132858   5.370   3.067   4.040
10653SOL    HW232859   5.497   2.986   3.978
10654SOL     OW32860   4.534   1.008   1.373
10654SOL    HW132861   4.499   1.052   1.290
10654SOL    HW232862   4.485   1.042   1.453
10655SOL     OW32863   3.568   5.889   1.450
10655SOL    HW132864   3.550   5.980   1.487
10655SOL    HW232865   3.525   5.881   1.360
10656SOL     OW32866   6.023   2.941   6.107
10656SOL    HW132867   6.050   2.917   6.200
10656SOL    HW232868   6.097   2.918   6.044
10657SOL     OW32869   6.051   0.565   1.876
10657SOL    HW132870   6.119   0.505   1.834
10657SOL    HW232871   5.965   0.558   1.826
10658SOL     OW32872   0.726   6.290   4.590
10658SOL    HW132873   0.812   6.300   4.641
10658SOL    HW232874   0.657   6.350   4.629
10659SOL     OW32875   5.396   0.989   0.847
10659SOL    HW132876   5.393   1.044   0.931
10659SOL    HW232877   5.490   0.979   0.817
10660SOL     OW32878   5.126   5.057   5.655
10660SOL    HW132879   5.170   4.968   5.642
10660SOL    HW232880   5.191   5.130   5.635
10661SOL     OW32881   0.755   0.240   2.198
10661SOL    HW132882   0.770   0.221   2.101
10661SOL    HW232883   0.834   0.209   2.251
10662SOL     OW32884   5.608   1.485   0.618
10662SOL    HW132885   5.693   1.480   0.565
10662SOL    HW232886   5.594   1.579   0.649
10663SOL     OW32887   0.414   0.762   0.429
10663SOL    HW132888   0.455   0.835   0.483
10663SOL    HW232889   0.456   0.758   0.338
10664SOL     OW32890   2.210   4.673   6.744
10664SOL    HW132891   2.184   4.740   6.814
10664SOL    HW232892   2.216   4.718   6.655
10665SOL     OW32893   5.868   1.020   6.879
10665SOL    HW132894   5.934   1.076   6.829
10665SOL    HW232895   5.785   1.075   6.896
10666SOL     OW32896   1.001   0.303   0.119
10666SOL    HW132897   0.995   0.206   0.139
10666SOL    HW232898   0.910   0.344   0.122
10667SOL     OW32899   3.367   2.307   5.327
10667SOL    HW132900   3.431   2.257   5.269
10667SOL    HW232901   3.284   2.328   5.275
10668SOL     OW32902   2.064   0.833   6.656
10668SOL    HW132903   2.018   0.921   6.671
10668SOL    HW232904   2.004   0.759   6.686
10669SOL     OW32905   0.722   6.682   6.674
10669SOL    HW132906   0.691   6.762   6.622
10669SOL    HW232907   0.794   6.710   6.738
10670SOL     OW32908   6.970   5.006   5.439
10670SOL    HW132909   6.960   4.910   5.412
10670SOL    HW232910   6.979   5.011   5.539
10671SOL     OW32911   1.470   1.853   3.069
10671SOL    HW132912   1.392   1.845   3.006
10671SOL    HW232913   1.502   1.947   3.071
10672SOL     OW32914   0.181   2.548   1.092
10672SOL    HW132915   0.149   2.595   1.010
10672SOL    HW232916   0.179   2.449   1.076
10673SOL     OW32917   3.115   3.392   4.981
10673SOL    HW132918   3.186   3.415   4.914
10673SOL    HW232919   3.131   3.299   5.014
10674SOL     OW32920   4.526   1.748   2.179
10674SOL    HW132921   4.622   1.726   2.196
10674SOL    HW232922   4.491   1.805   2.253
10675SOL     OW32923   0.234   1.117   6.590
10675SOL    HW132924   0.324   1.076   6.580
10675SOL    HW232925   0.220   1.144   6.685
10676SOL     OW32926   6.703   0.310   0.064
10676SOL    HW132927   6.752   0.277   7.001
10676SOL    HW232928   6.688   0.234   0.127
10677SOL     OW32929   6.925   1.137   0.067
10677SOL    HW132930   6.982   1.172   7.011
10677SOL    HW232931   6.897   1.213   0.127
10678SOL     OW32932   2.107   5.798   2.723
10678SOL    HW132933   2.158   5.788   2.637
10678SOL    HW232934   2.086   5.708   2.760
10679SOL     OW32935   5.160   5.268   3.573
10679SOL    HW132936   5.236   5.226   3.622
10679SOL    HW232937   5.121   5.342   3.627
10680SOL     OW32938   1.823   2.292   3.664
10680SOL    HW132939   1.912   2.274   3.706
10680SOL    HW232940   1.823   2.260   3.570
10681SOL     OW32941   0.856   1.958   6.335
10681SOL    HW132942   0.821   1.915   6.418
10681SOL    HW232943   0.876   1.887   6.267
10682SOL     OW32944   6.396   1.509   3.021
10682SOL    HW132945   6.427   1.601   3.002
10682SOL    HW232946   6.297   1.504   3.008
10683SOL     OW32947   2.129   0.683   4.133
10683SOL    HW132948   2.050   0.740   4.109
10683SOL    HW232949   2.098   0.600   4.178
10684SOL     OW32950   6.276   6.124   0.672
10684SOL    HW132951   6.314   6.077   0.592
10684SOL    HW232952   6.268   6.059   0.748
10685SOL     OW32953   6.938   2.282   2.032
10685SOL    HW132954   6.875   2.242   2.099
10685SOL    HW232955   6.899   2.367   1.996
10686SOL     OW32956   4.068   4.397   0.857
10686SOL    HW132957   4.070   4.331   0.783
10686SOL    HW232958   4.161   4.416   0.888
10687SOL     OW32959   0.294   5.130   1.449
10687SOL    HW132960   0.251   5.220   1.463
10687SOL    HW232961   0.384   5.130   1.493
10688SOL     OW32962   6.633   5.847   1.424
10688SOL    HW132963   6.717   5.864   1.477
10688SOL    HW232964   6.566   5.802   1.482
10689SOL     OW32965   0.627   0.764   1.568
10689SOL    HW132966   0.722   0.795   1.572
10689SOL    HW232967   0.586   0.770   1.659
10690SOL     OW32968   4.597   5.994   2.259
10690SOL    HW132969   4.680   5.942   2.276
10690SOL    HW232970   4.616   6.065   2.191
10691SOL     OW32971   6.501   1.440   1.095
10691SOL    HW132972   6.490   1.507   1.022
10691SOL    HW232973   6.411   1.417   1.132
10692SOL     OW32974   5.344   5.994   4.565
10692SOL    HW132975   5.402   5.929   4.517
10692SOL    HW232976   5.297   5.948   4.640
10693SOL     OW32977   4.758   2.523   3.352
10693SOL    HW132978   4.672   2.496   3.395
10693SOL    HW232979   4.832   2.466   3.388
10694SOL     OW32980   3.220   6.174   0.625
10694SOL    HW132981   3.213   6.253   0.686
10694SOL    HW232982   3.173   6.096   0.665
10695SOL     OW32983   5.980   2.806   4.908
10695SOL    HW132984   6.063   2.783   4.959
10695SOL    HW232985   5.900   2.795   4.966
10696SOL     OW32986   6.521   6.795   1.940
10696SOL    HW132987   6.432   6.802   1.986
10696SOL    HW232988   6.520   6.716   1.879
10697SOL     OW32989   2.632   6.250   2.843
10697SOL    HW132990   2.599   6.296   2.760
10697SOL    HW232991   2.610   6.306   2.923
10698SOL     OW32992   3.001   0.830   3.357
10698SOL    HW132993   3.099   0.834   3.377
10698SOL    HW232994   2.958   0.917   3.382
10699SOL     OW32995   2.034   2.238   3.020
10699SOL    HW132996   2.108   2.298   2.989
10699SOL    HW232997   2.066   2.143   3.020
10700SOL     OW32998   6.849   1.212   1.903
10700SOL    HW132999   6.860   1.306   1.871
10700SOL    HW233000   6.923   1.155   1.868
10701SOL     OW33001   3.569   6.640   0.780
10701SOL    HW133002   3.650   6.691   0.812
10701SOL    HW233003   3.578   6.622   0.682
10702SOL     OW33004   5.362   3.105   0.778
10702SOL    HW133005   5.362   3.072   0.872
10702SOL    HW233006   5.268   3.122   0.748
10703SOL     OW33007   3.812   3.306   4.491
10703SOL    HW133008   3.911   3.303   4.506
10703SOL    HW233009   3.766   3.251   4.561
10704SOL     OW33010   5.634   6.560   2.400
10704SOL    HW133011   5.577   6.480   2.415
10704SOL    HW233012   5.677   6.588   2.486
10705SOL     OW33013   1.699   3.235   6.085
10705SOL    HW133014   1.732   3.200   6.173
10705SOL    HW233015   1.627   3.302   6.102
10706SOL     OW33016   3.478   2.005   1.376
10706SOL    HW133017   3.467   2.063   1.456
10706SOL    HW233018   3.473   2.061   1.293
10707SOL     OW33019   6.197   6.973   6.205
10707SOL    HW133020   6.142   6.990   6.287
10707SOL    HW233021   6.142   6.921   6.139
10708SOL     OW33022   4.768   1.221   1.550
10708SOL    HW133023   4.798   1.162   1.476
10708SOL    HW233024   4.846   1.274   1.585
10709SOL     OW33025   0.797   6.874   5.946
10709SOL    HW133026   0.847   6.791   5.968
10709SOL    HW233027   0.699   6.860   5.959
10710SOL     OW33028   6.431   5.881   4.105
10710SOL    HW133029   6.437   5.959   4.043
10710SOL    HW233030   6.341   5.839   4.098
10711SOL     OW33031   2.610   5.791   4.791
10711SOL    HW133032   2.562   5.718   4.742
10711SOL    HW233033   2.621   5.765   4.887
10712SOL     OW33034   4.221   1.419   5.601
10712SOL    HW133035   4.188   1.385   5.513
10712SOL    HW233036   4.236   1.343   5.663
10713SOL     OW33037   1.991   5.957   0.968
10713SOL    HW133038   1.914   6.013   0.936
10713SOL    HW233039   1.980   5.864   0.935
10714SOL     OW33040   6.742   5.651   6.008
10714SOL    HW133041   6.661   5.694   5.967
10714SOL    HW233042   6.814   5.643   5.939
10715SOL     OW33043   5.965   1.098   3.267
10715SOL    HW133044   5.969   1.177   3.328
10715SOL    HW233045   5.904   1.028   3.306
10716SOL     OW33046   6.567   0.748   2.364
10716SOL    HW133047   6.504   0.825   2.354
10716SOL    HW233048   6.553   0.705   2.453
10717SOL     OW33049   6.897   6.303   2.445
10717SOL    HW133050   6.902   6.398   2.474
10717SOL    HW233051   6.859   6.298   2.353
10718SOL     OW33052   0.925   3.818   5.667
10718SOL    HW133053   0.926   3.916   5.650
10718SOL    HW233054   0.858   3.797   5.738
10719SOL     OW33055   3.675   6.862   2.473
10719SOL    HW133056   3.620   6.883   2.393
10719SOL    HW233057   3.733   6.941   2.496
10720SOL     OW33058   0.282   2.759   6.603
10720SOL    HW133059   0.306   2.790   6.694
10720SOL    HW233060   0.188   2.724   6.603
10721SOL     OW33061   5.031   2.287   4.647
10721SOL    HW133062   5.067   2.200   4.615
10721SOL    HW233063   4.992   2.276   4.739
10722SOL     OW33064   0.098   4.611   0.673
10722SOL    HW133065   0.181   4.599   0.729
10722SOL    HW233066   0.057   4.700   0.693
10723SOL     OW33067   6.190   4.819   0.482
10723SOL    HW133068   6.225   4.773   0.400
10723SOL    HW233069   6.184   4.917   0.465
10724SOL     OW33070   3.337   0.239   5.544
10724SOL    HW133071   3.330   0.141   5.564
10724SOL    HW233072   3.275   0.290   5.604
10725SOL     OW33073   6.660   0.160   5.165
10725SOL    HW133074   6.660   0.253   5.128
10725SOL    HW233075   6.749   0.141   5.207
10726SOL     OW33076   5.655   1.281   3.898
10726SOL    HW133077   5.752   1.269   3.875
10726SOL    HW233078   5.616   1.193   3.925
10727SOL     OW33079   3.155   6.948   6.967
10727SOL    HW133080   3.139   7.005   0.029
10727SOL    HW233081   3.253   6.936   6.954
10728SOL     OW33082   5.622   5.797   3.990
10728SOL    HW133083   5.619   5.846   4.076
10728SOL    HW233084   5.559   5.719   3.994
10729SOL     OW33085   5.684   3.005   3.951
10729SOL    HW133086   5.677   3.013   4.050
10729SOL    HW233087   5.759   3.061   3.918
10730SOL     OW33088   1.253   5.442   3.424
10730SOL    HW133089   1.233   5.539   3.408
10730SOL    HW233090   1.167   5.392   3.434
10731SOL     OW33091   4.946   5.710   6.671
10731SOL    HW133092   4.870   5.645   6.665
10731SOL    HW233093   4.975   5.735   6.579
10732SOL     OW33094   6.306   5.950   3.030
10732SOL    HW133095   6.340   5.925   3.120
10732SOL    HW233096   6.343   6.039   3.004
10733SOL     OW33097   0.502   1.710   5.915
10733SOL    HW133098   0.535   1.793   5.871
10733SOL    HW233099   0.408   1.691   5.886
10734SOL     OW33100   1.146   0.422   4.988
10734SOL    HW133101   1.076   0.367   4.942
10734SOL    HW233102   1.132   0.519   4.966
10735SOL     OW33103   0.313   0.072   1.774
10735SOL    HW133104   0.259   0.151   1.803
10735SOL    HW233105   0.257   7.007   1.781
10736SOL     OW33106   5.317   5.614   3.382
10736SOL    HW133107   5.309   5.671   3.464
10736SOL    HW233108   5.345   5.671   3.305
10737SOL     OW33109   6.542   1.067   1.692
10737SOL    HW133110   6.564   1.021   1.779
10737SOL    HW233111   6.443   1.064   1.678
10738SOL     OW33112   2.526   6.917   1.412
10738SOL    HW133113   2.605   6.862   1.438
10738SOL    HW233114   2.554   6.988   1.347
10739SOL     OW33115   5.549   3.427   4.181
10739SOL    HW133116   5.494   3.496   4.229
10739SOL    HW233117   5.514   3.336   4.202
10740SOL     OW33118   3.053   0.461   6.047
10740SOL    HW133119   2.970   0.507   6.015
10740SOL    HW233120   3.133   0.518   6.026
10741SOL     OW33121   1.222   2.229   3.637
10741SOL    HW133122   1.174   2.157   3.586
10741SOL    HW233123   1.205   2.317   3.594
10742SOL     OW33124   6.342   6.566   2.171
10742SOL    HW133125   6.263   6.518   2.134
10742SOL    HW233126   6.420   6.504   2.175
10743SOL     OW33127   3.322   2.065   5.837
10743SOL    HW133128   3.349   1.998   5.906
10743SOL    HW233129   3.378   2.052   5.755
10744SOL     OW33130   2.858   1.943   0.839
10744SOL    HW133131   2.786   1.885   0.802
10744SOL    HW233132   2.941   1.888   0.853
10745SOL     OW33133   2.424   4.582   1.405
10745SOL    HW133134   2.520   4.608   1.395
10745SOL    HW233135   2.389   4.616   1.492
10746SOL     OW33136   2.424   5.515   6.469
10746SOL    HW133137   2.416   5.526   6.370
10746SOL    HW233138   2.487   5.583   6.505
10747SOL     OW33139   6.853   1.315   4.546
10747SOL    HW133140   6.881   1.410   4.531
10747SOL    HW233141   6.811   1.279   4.462
10748SOL     OW33142   3.381   6.353   2.290
10748SOL    HW133143   3.318   6.333   2.215
10748SOL    HW233144   3.396   6.452   2.295
10749SOL     OW33145   6.248   4.498   1.628
10749SOL    HW133146   6.216   4.573   1.686
10749SOL    HW233147   6.318   4.445   1.676
10750SOL     OW33148   4.062   1.968   4.663
10750SOL    HW133149   4.014   1.887   4.629
10750SOL    HW233150   3.997   2.032   4.703
10751SOL     OW33151   6.422   5.933   4.415
10751SOL    HW133152   6.399   5.929   4.318
10751SOL    HW233153   6.453   5.843   4.446
10752SOL     OW33154   6.965   6.234   0.478
10752SOL    HW133155   6.894   6.193   0.536
10752SOL    HW233156   0.030   6.248   0.531
10753SOL     OW33157   4.772   6.822   4.917
10753SOL    HW133158   4.746   6.879   4.994
10753SOL    HW233159   4.857   6.773   4.938
10754SOL     OW33160   1.384   5.174   2.154
10754SOL    HW133161   1.327   5.172   2.073
10754SOL    HW233162   1.472   5.131   2.134
10755SOL     OW33163   0.361   2.022   1.339
10755SOL    HW133164   0.337   1.967   1.419
10755SOL    HW233165   0.441   2.079   1.360
10756SOL     OW33166   1.397   0.684   0.125
10756SOL    HW133167   1.382   0.627   0.044
10756SOL    HW233168   1.492   0.678   0.154
10757SOL     OW33169   0.265   2.478   2.327
10757SOL    HW133170   0.365   2.478   2.327
10757SOL    HW233171   0.233   2.564   2.285
10758SOL     OW33172   0.758   0.639   7.004
10758SOL    HW133173   0.751   0.540   6.994
10758SOL    HW233174   0.848   0.662   0.024
10759SOL     OW33175   3.002   3.003   5.237
10759SOL    HW133176   3.072   3.019   5.168
10759SOL    HW233177   2.915   3.043   5.206
10760SOL     OW33178   0.769   4.755   6.786
10760SOL    HW133179   0.724   4.727   6.701
10760SOL    HW233180   0.806   4.674   6.832
10761SOL     OW33181   1.121   1.676   5.915
10761SOL    HW133182   1.090   1.723   5.998
10761SOL    HW233183   1.046   1.671   5.849
10762SOL     OW33184   2.501   6.185   6.708
10762SOL    HW133185   2.448   6.190   6.793
10762SOL    HW233186   2.496   6.092   6.672
10763SOL     OW33187   4.561   0.671   3.187
10763SOL    HW133188   4.517   0.591   3.229
10763SOL    HW233189   4.576   0.741   3.257
10764SOL     OW33190   5.128   6.469   4.865
10764SOL    HW133191   5.132   6.406   4.788
10764SOL    HW233192   5.170   6.427   4.945
10765SOL     OW33193   0.885   1.840   1.253
10765SOL    HW133194   0.944   1.906   1.300
10765SOL    HW233195   0.859   1.876   1.163
10766SOL     OW33196   2.568   5.245   6.616
10766SOL    HW133197   2.644   5.180   6.609
10766SOL    HW233198   2.529   5.260   6.526
10767SOL     OW33199   1.823   4.589   0.090
10767SOL    HW133200   1.785   4.540   0.169
10767SOL    HW233201   1.911   4.549   0.066
10768SOL     OW33202   5.336   6.074   6.747
10768SOL    HW133203   5.374   6.080   6.655
10768SOL    HW233204   5.283   6.156   6.767
10769SOL     OW33205   2.871   3.432   4.607
10769SOL    HW133206   2.862   3.401   4.512
10769SOL    HW233207   2.913   3.359   4.662
10770SOL     OW33208   5.838   0.109   3.329
10770SOL    HW133209   5.907   0.181   3.319
10770SOL    HW233210   5.791   0.119   3.417
10771SOL     OW33211   4.962   6.125   5.478
10771SOL    HW133212   5.021   6.180   5.419
10771SOL    HW233213   4.880   6.178   5.502
10772SOL     OW33214   5.777   5.245   2.275
10772SOL    HW133215   5.763   5.146   2.272
10772SOL    HW233216   5.698   5.291   2.233
10773SOL     OW33217   0.490   3.616   0.773
10773SOL    HW133218   0.532   3.638   0.684
10773SOL    HW233219   0.508   3.691   0.837
10774SOL     OW33220   1.136   3.082   0.692
10774SOL    HW133221   1.200   3.114   0.762
10774SOL    HW233222   1.065   3.027   0.735
10775SOL     OW33223   2.165   3.799   0.602
10775SOL    HW133224   2.174   3.717   0.657
10775SOL    HW233225   2.173   3.880   0.660
10776SOL     OW33226   0.577   2.947   3.545
10776SOL    HW133227   0.593   2.940   3.447
10776SOL    HW233228   0.479   2.942   3.564
10777SOL     OW33229   1.543   0.133   1.082
10777SOL    HW133230   1.508   0.044   1.052
10777SOL    HW233231   1.552   0.193   1.003
10778SOL     OW33232   4.871   0.093   3.363
10778SOL    HW133233   4.777   0.128   3.372
10778SOL    HW233234   4.878   0.005   3.410
10779SOL     OW33235   5.661   3.071   5.590
10779SOL    HW133236   5.656   3.060   5.491
10779SOL    HW233237   5.637   3.165   5.614
10780SOL     OW33238   2.395   5.383   4.157
10780SOL    HW133239   2.390   5.290   4.119
10780SOL    HW233240   2.308   5.430   4.142
10781SOL     OW33241   5.594   2.035   4.656
10781SOL    HW133242   5.595   2.015   4.754
10781SOL    HW233243   5.635   1.958   4.606
10782SOL     OW33244   1.128   2.313   5.838
10782SOL    HW133245   1.033   2.342   5.852
10782SOL    HW233246   1.162   2.352   5.753
10783SOL     OW33247   1.322   3.028   3.630
10783SOL    HW133248   1.406   2.988   3.666
10783SOL    HW233249   1.313   3.004   3.534
10784SOL     OW33250   4.303   5.546   3.661
10784SOL    HW133251   4.235   5.505   3.599
10784SOL    HW233252   4.262   5.560   3.751
10785SOL     OW33253   1.763   5.674   1.626
10785SOL    HW133254   1.723   5.745   1.568
10785SOL    HW233255   1.854   5.651   1.591
10786SOL     OW33256   4.847   1.768   2.076
10786SOL    HW133257   4.912   1.692   2.065
10786SOL    HW233258   4.792   1.777   1.993
10787SOL     OW33259   3.570   2.046   3.616
10787SOL    HW133260   3.498   2.114   3.635
10787SOL    HW233261   3.650   2.067   3.673
10788SOL     OW33262   2.111   3.751   0.335
10788SOL    HW133263   2.121   3.765   0.434
10788SOL    HW233264   2.172   3.813   0.286
10789SOL     OW33265   6.773   1.200   2.364
10789SOL    HW133266   6.721   1.189   2.449
10789SOL    HW233267   6.726   1.264   2.303
10790SOL     OW33268   6.840   1.861   5.363
10790SOL    HW133269   6.929   1.880   5.322
10790SOL    HW233270   6.779   1.938   5.348
10791SOL     OW33271   1.866   1.978   3.546
10791SOL    HW133272   1.822   1.895   3.582
10791SOL    HW233273   1.796   2.045   3.524
10792SOL     OW33274   3.713   1.842   2.319
10792SOL    HW133275   3.760   1.776   2.377
10792SOL    HW233276   3.660   1.793   2.249
10793SOL     OW33277   3.283   1.741   4.994
10793SOL    HW133278   3.350   1.780   4.931
10793SOL    HW233279   3.286   1.641   4.988
10794SOL     OW33280   5.434   2.185   0.501
10794SOL    HW133281   5.525   2.144   0.492
10794SOL    HW233282   5.403   2.217   0.411
10795SOL     OW33283   6.910   3.757   3.276
10795SOL    HW133284   6.896   3.751   3.375
10795SOL    HW233285   6.830   3.720   3.229
10796SOL     OW33286   0.325   0.675   6.208
10796SOL    HW133287   0.329   0.721   6.297
10796SOL    HW233288   0.229   0.657   6.184
10797SOL     OW33289   4.405   4.588   0.301
10797SOL    HW133290   4.378   4.680   0.329
10797SOL    HW233291   4.393   4.579   0.202
10798SOL     OW33292   2.284   6.318   6.581
10798SOL    HW133293   2.243   6.234   6.544
10798SOL    HW233294   2.371   6.296   6.626
10799SOL     OW33295   3.276   1.230   2.961
10799SOL    HW133296   3.242   1.137   2.976
10799SOL    HW233297   3.227   1.271   2.884
10800SOL     OW33298   2.129   6.827   5.336
10800SOL    HW133299   2.157   6.923   5.329
10800SOL    HW233300   2.033   6.823   5.363
10801SOL     OW33301   3.007   6.428   6.375
10801SOL    HW133302   2.925   6.372   6.376
10801SOL    HW233303   3.086   6.372   6.403
10802SOL     OW33304   0.133   5.438   4.144
10802SOL    HW133305   0.085   5.357   4.110
10802SOL    HW233306   0.201   5.467   4.077
10803SOL     OW33307   0.124   4.849   3.981
10803SOL    HW133308   0.116   4.749   3.988
10803SOL    HW233309   0.035   4.890   3.997
10804SOL     OW33310   4.776   4.513   1.034
10804SOL    HW133311   4.771   4.414   1.037
10804SOL    HW233312   4.716   4.551   1.105
10805SOL     OW33313   3.705   6.455   0.397
10805SOL    HW133314   3.764   6.393   0.346
10805SOL    HW233315   3.609   6.438   0.372
10806SOL     OW33316   6.035   4.150   6.551
10806SOL    HW133317   6.084   4.228   6.514
10806SOL    HW233318   6.060   4.067   6.500
10807SOL     OW33319   4.336   1.644   4.475
10807SOL    HW133320   4.240   1.636   4.446
10807SOL    HW233321   4.352   1.586   4.554
10808SOL     OW33322   0.210   1.928   0.124
10808SOL    HW133323   0.258   2.014   0.111
10808SOL    HW233324   0.274   1.852   0.111
10809SOL     OW33325   2.748   1.208   2.235
10809SOL    HW133326   2.763   1.211   2.334
10809SOL    HW233327   2.669   1.149   2.215
10810SOL     OW33328   1.944   1.131   6.677
10810SOL    HW133329   1.991   1.183   6.606
10810SOL    HW233330   1.846   1.154   6.676
10811SOL     OW33331   4.697   4.842   6.515
10811SOL    HW133332   4.642   4.925   6.508
10811SOL    HW233333   4.638   4.762   6.506
10812SOL     OW33334   6.551   2.830   2.189
10812SOL    HW133335   6.561   2.730   2.198
10812SOL    HW233336   6.479   2.850   2.123
10813SOL     OW33337   3.396   5.471   2.879
10813SOL    HW133338   3.337   5.509   2.950
10813SOL    HW233339   3.467   5.413   2.921
10814SOL     OW33340   2.124   5.507   4.143
10814SOL    HW133341   2.031   5.514   4.105
10814SOL    HW233342   2.131   5.565   4.224
10815SOL     OW33343   4.517   1.966   4.539
10815SOL    HW133344   4.531   1.890   4.603
10815SOL    HW233345   4.533   1.936   4.446
10816SOL     OW33346   2.414   2.041   1.575
10816SOL    HW133347   2.320   2.075   1.574
10816SOL    HW233348   2.438   2.008   1.483
10817SOL     OW33349   4.198   0.596   1.576
10817SOL    HW133350   4.133   0.547   1.634
10817SOL    HW233351   4.251   0.529   1.523
10818SOL     OW33352   4.400   2.906   0.149
10818SOL    HW133353   4.468   2.833   0.139
10818SOL    HW233354   4.324   2.889   0.086
10819SOL     OW33355   0.771   3.683   5.476
10819SOL    HW133356   0.803   3.590   5.455
10819SOL    HW233357   0.845   3.734   5.521
10820SOL     OW33358   0.273   6.937   4.667
10820SOL    HW133359   0.232   6.942   4.758
10820SOL    HW233360   0.219   6.992   4.603
10821SOL     OW33361   0.188   0.296   0.917
10821SOL    HW133362   0.192   0.350   0.833
10821SOL    HW233363   0.205   0.355   0.995
10822SOL     OW33364   0.313   3.990   6.798
10822SOL    HW133365   0.375   3.955   6.868
10822SOL    HW233366   0.359   4.062   6.746
10823SOL     OW33367   2.093   2.218   1.299
10823SOL    HW133368   2.159   2.276   1.347
10823SOL    HW233369   2.105   2.230   1.200
10824SOL     OW33370   5.111   0.574   3.704
10824SOL    HW133371   5.144   0.653   3.756
10824SOL    HW233372   5.056   0.516   3.764
10825SOL     OW33373   3.542   0.713   1.978
10825SOL    HW133374   3.551   0.652   2.056
10825SOL    HW233375   3.471   0.679   1.917
10826SOL     OW33376   6.632   3.161   1.478
10826SOL    HW133377   6.572   3.097   1.527
10826SOL    HW233378   6.727   3.140   1.500
10827SOL     OW33379   1.304   3.421   4.442
10827SOL    HW133380   1.265   3.403   4.532
10827SOL    HW233381   1.300   3.519   4.423
10828SOL     OW33382   1.703   5.628   0.486
10828SOL    HW133383   1.776   5.579   0.439
10828SOL    HW233384   1.675   5.576   0.566
10829SOL     OW33385   2.110   3.446   1.588
10829SOL    HW133386   2.194   3.403   1.620
10829SOL    HW233387   2.052   3.468   1.666
10830SOL     OW33388   5.097   0.943   3.442
10830SOL    HW133389   5.028   1.014   3.456
10830SOL    HW233390   5.151   0.965   3.361
10831SOL     OW33391   5.715   3.261   2.381
10831SOL    HW133392   5.680   3.178   2.337
10831SOL    HW233393   5.653   3.337   2.362
10832SOL     OW33394   0.778   3.820   3.162
10832SOL    HW133395   0.810   3.783   3.074
10832SOL    HW233396   0.791   3.751   3.233
10833SOL     OW33397   2.703   6.842   3.916
10833SOL    HW133398   2.741   6.905   3.849
10833SOL    HW233399   2.606   6.826   3.896
10834SOL     OW33400   6.962   1.023   5.655
10834SOL    HW133401   6.981   1.027   5.557
10834SOL    HW233402   6.881   0.966   5.671
10835SOL     OW33403   0.395   3.063   1.687
10835SOL    HW133404   0.374   3.031   1.595
10835SOL    HW233405   0.386   3.163   1.690
10836SOL     OW33406   1.868   2.873   0.588
10836SOL    HW133407   1.836   2.954   0.638
10836SOL    HW233408   1.818   2.792   0.621
10837SOL     OW33409   0.868   5.966   0.930
10837SOL    HW133410   0.931   5.978   1.007
10837SOL    HW233411   0.920   5.963   0.844
10838SOL     OW33412   6.280   6.623   0.250
10838SOL    HW133413   6.195   6.665   0.280
10838SOL    HW233414   6.334   6.594   0.330
10839SOL     OW33415   1.490   1.556   0.097
10839SOL    HW133416   1.564   1.499   0.060
10839SOL    HW233417   1.529   1.641   0.134
10840SOL     OW33418   3.042   6.417   2.593
10840SOL    HW133419   3.089   6.335   2.561
10840SOL    HW233420   3.077   6.497   2.544
10841SOL     OW33421   5.416   2.891   7.004
10841SOL    HW133422   5.506   2.881   6.961
10841SOL    HW233423   5.362   2.809   6.986
10842SOL     OW33424   6.055   2.822   1.381
10842SOL    HW133425   5.978   2.758   1.384
10842SOL    HW233426   6.135   2.780   1.423
10843SOL     OW33427   0.223   1.561   1.529
10843SOL    HW133428   0.162   1.601   1.460
10843SOL    HW233429   0.285   1.497   1.485
10844SOL     OW33430   4.064   0.460   3.377
10844SOL    HW133431   4.012   0.394   3.431
10844SOL    HW233432   4.002   0.526   3.334
10845SOL     OW33433   2.287   3.010   0.789
10845SOL    HW133434   2.353   3.041   0.858
10845SOL    HW233435   2.303   3.060   0.704
10846SOL     OW33436   3.536   1.616   1.454
10846SOL    HW133437   3.622   1.668   1.455
10846SOL    HW233438   3.482   1.644   1.374
10847SOL     OW33439   4.805   2.834   5.214
10847SOL    HW133440   4.823   2.752   5.268
10847SOL    HW233441   4.891   2.871   5.180
10848SOL     OW33442   1.297   0.785   6.569
10848SOL    HW133443   1.343   0.812   6.485
10848SOL    HW233444   1.341   0.704   6.608
10849SOL     OW33445   2.010   5.297   3.708
10849SOL    HW133446   2.055   5.376   3.667
10849SOL    HW233447   1.911   5.307   3.699
10850SOL     OW33448   5.745   0.424   1.832
10850SOL    HW133449   5.778   0.412   1.926
10850SOL    HW233450   5.748   0.521   1.808
10851SOL     OW33451   4.778   2.013   6.485
10851SOL    HW133452   4.700   2.076   6.487
10851SOL    HW233453   4.862   2.064   6.472
10852SOL     OW33454   6.906   0.566   5.591
10852SOL    HW133455   6.828   0.528   5.641
10852SOL    HW233456   6.962   0.621   5.653
10853SOL     OW33457   2.376   0.529   4.574
10853SOL    HW133458   2.420   0.615   4.552
10853SOL    HW233459   2.401   0.460   4.506
10854SOL     OW33460   0.040   6.967   1.073
10854SOL    HW133461   0.076   6.877   1.097
10854SOL    HW233462   0.013   7.015   1.156
10855SOL     OW33463   6.908   5.361   1.451
10855SOL    HW133464   6.869   5.438   1.502
10855SOL    HW233465   6.919   5.387   1.355
10856SOL     OW33466   5.419   0.097   6.707
10856SOL    HW133467   5.459   0.184   6.676
10856SOL    HW233468   5.351   0.115   6.778
10857SOL     OW33469   6.689   0.405   4.972
10857SOL    HW133470   6.643   0.489   4.944
10857SOL    HW233471   6.720   0.355   4.891
10858SOL     OW33472   1.976   1.932   0.556
10858SOL    HW133473   2.004   1.951   0.462
10858SOL    HW233474   1.903   1.996   0.582
10859SOL     OW33475   1.155   5.587   2.147
10859SOL    HW133476   1.152   5.606   2.049
10859SOL    HW233477   1.166   5.672   2.197
10860SOL     OW33478   5.920   2.966   1.821
10860SOL    HW133479   5.932   2.940   1.917
10860SOL    HW233480   6.002   2.941   1.769
10861SOL     OW33481   1.752   3.686   1.379
10861SOL    HW133482   1.703   3.763   1.420
10861SOL    HW233483   1.731   3.682   1.281
10862SOL     OW33484   3.498   4.405   5.270
10862SOL    HW133485   3.456   4.391   5.360
10862SOL    HW233486   3.533   4.318   5.236
10863SOL     OW33487   2.346   0.671   3.279
10863SOL    HW133488   2.250   0.644   3.286
10863SOL    HW233489   2.401   0.592   3.251
10864SOL     OW33490   3.032   4.104   1.876
10864SOL    HW133491   2.951   4.124   1.821
10864SOL    HW233492   3.112   4.099   1.816
10865SOL     OW33493   3.772   1.563   2.533
10865SOL    HW133494   3.765   1.646   2.589
10865SOL    HW233495   3.859   1.518   2.551
10866SOL     OW33496   0.976   3.545   3.993
10866SOL    HW133497   0.976   3.642   3.967
10866SOL    HW233498   1.004   3.536   4.089
10867SOL     OW33499   4.473   2.629   7.007
10867SOL    HW133500   4.391   2.604   6.956
10867SOL    HW233501   4.541   2.668   6.944
10868SOL     OW33502   1.381   6.798   4.839
10868SOL    HW133503   1.383   6.700   4.822
10868SOL    HW233504   1.354   6.816   4.933
10869NA      NA33505   6.841   1.029   6.330
10870NA      NA33506   4.259   4.563   5.336
10871NA      NA33507   1.243   4.898   2.930
10872NA      NA33508   5.550   3.599   2.995
10873NA      NA33509   3.752   2.763   5.599
10874NA      NA33510   2.446   4.894   0.058
10875NA      NA33511   1.791   5.553   6.650
10876NA      NA33512   4.184   4.962   1.611
10877NA      NA33513   5.086   4.535   0.622
10878NA      NA33514   3.471   1.439   0.486
10879NA      NA33515   5.408   6.810   1.682
10880NA      NA33516   2.360   6.563   5.079
10881NA      NA33517   4.479   4.817   2.676
10882NA      NA33518   4.354   4.046   6.626
   7.01825   7.01825   7.01825
