Generated by trjconv : CNT in water t= 535.00000
33518
    1C        C    1   2.844   2.770   4.752
    1C        C    2   2.901   2.719   4.871
    1C        C    3   2.840   2.771   4.986
    1C        C    4   2.848   2.773   4.265
    1C        C    5   2.897   2.725   4.388
    1C        C    6   2.839   2.770   4.509
    1C        C    7   3.011   2.642   4.628
    1C        C    8   2.893   2.720   4.629
    1C        C    9   3.079   2.609   4.747
    1C        C   10   3.013   2.634   4.869
    1C        C   11   3.183   2.494   4.979
    1C        C   12   3.063   2.567   4.981
    1C        C   13   2.845   2.767   3.774
    1C        C   14   2.900   2.723   3.897
    1C        C   15   2.846   2.770   4.019
    1C        C   16   3.015   2.645   4.141
    1C        C   17   2.897   2.723   4.142
    1C        C   18   3.078   2.614   4.264
    1C        C   19   3.015   2.649   4.386
    1C        C   20   3.204   2.552   4.505
    1C        C   21   3.074   2.606   4.507
    1C        C   22   3.277   2.534   4.625
    1C        C   23   3.209   2.551   4.748
    1C        C   24   3.413   2.481   4.864
    1C        C   25   3.271   2.503   4.866
    1C        C   26   3.489   2.480   4.981
    1C        C   27   2.848   2.769   3.285
    1C        C   28   2.901   2.720   3.407
    1C        C   29   2.851   2.770   3.529
    1C        C   30   3.017   2.642   3.649
    1C        C   31   2.900   2.721   3.652
    1C        C   32   3.078   2.610   3.773
    1C        C   33   3.018   2.644   3.896
    1C        C   34   3.208   2.556   4.018
    1C        C   35   3.079   2.614   4.019
    1C        C   36   3.275   2.533   4.140
    1C        C   37   3.208   2.560   4.262
    1C        C   38   3.414   2.509   4.384
    1C        C   39   3.275   2.537   4.384
    1C        C   40   3.488   2.507   4.504
    1C        C   41   3.416   2.507   4.626
    1C        C   42   3.632   2.488   4.746
    1C        C   43   3.490   2.484   4.744
    1C        C   44   3.706   2.493   4.866
    1C        C   45   3.628   2.479   4.982
    1C        C   46   2.843   2.759   2.795
    1C        C   47   2.898   2.714   2.917
    1C        C   48   2.844   2.762   3.039
    1C        C   49   3.016   2.641   3.163
    1C        C   50   2.901   2.722   3.162
    1C        C   51   3.079   2.606   3.285
    1C        C   52   3.017   2.640   3.407
    1C        C   53   3.209   2.547   3.530
    1C        C   54   3.079   2.603   3.528
    1C        C   55   3.276   2.530   3.653
    1C        C   56   3.205   2.549   3.774
    1C        C   57   3.415   2.511   3.896
    1C        C   58   3.274   2.529   3.896
    1C        C   59   3.485   2.509   4.018
    1C        C   60   3.414   2.512   4.141
    1C        C   61   3.626   2.505   4.262
    1C        C   62   3.485   2.499   4.263
    1C        C   63   3.700   2.508   4.383
    1C        C   64   3.629   2.504   4.505
    1C        C   65   3.838   2.550   4.624
    1C        C   66   3.702   2.510   4.626
    1C        C   67   3.907   2.567   4.746
    1C        C   68   3.842   2.532   4.866
    1C        C   69   4.055   2.588   4.981
    1C        C   70   3.928   2.530   4.976
    1C        C   71   2.828   2.736   2.309
    1C        C   72   2.880   2.690   2.432
    1C        C   73   2.834   2.746   2.553
    1C        C   74   3.007   2.621   2.674
    1C        C   75   2.896   2.707   2.674
    1C        C   76   3.072   2.593   2.796
    1C        C   77   3.013   2.633   2.918
    1C        C   78   3.206   2.547   3.042
    1C        C   79   3.076   2.602   3.041
    1C        C   80   3.275   2.528   3.164
    1C        C   81   3.207   2.547   3.287
    1C        C   82   3.416   2.501   3.407
    1C        C   83   3.276   2.521   3.408
    1C        C   84   3.485   2.497   3.531
    1C        C   85   3.415   2.507   3.653
    1C        C   86   3.628   2.513   3.772
    1C        C   87   3.487   2.504   3.775
    1C        C   88   3.695   2.523   3.896
    1C        C   89   3.626   2.515   4.019
    1C        C   90   3.833   2.561   4.138
    1C        C   91   3.696   2.524   4.142
    1C        C   92   3.902   2.577   4.261
    1C        C   93   3.836   2.548   4.382
    1C        C   94   4.031   2.638   4.502
    1C        C   95   3.905   2.575   4.502
    1C        C   96   4.097   2.671   4.623
    1C        C   97   4.036   2.627   4.743
    1C        C   98   4.196   2.766   4.866
    1C        C   99   4.101   2.659   4.865
    1C        C  100   4.219   2.841   4.983
    1C        C  101   2.823   2.731   2.071
    1C        C  102   2.989   2.589   2.191
    1C        C  103   2.877   2.678   2.189
    1C        C  104   3.063   2.576   2.312
    1C        C  105   3.002   2.619   2.432
    1C        C  106   3.204   2.545   2.553
    1C        C  107   3.069   2.587   2.552
    1C        C  108   3.273   2.526   2.675
    1C        C  109   3.203   2.541   2.796
    1C        C  110   3.411   2.503   2.916
    1C        C  111   3.270   2.519   2.919
    1C        C  112   3.481   2.499   3.039
    1C        C  113   3.414   2.505   3.163
    1C        C  114   3.626   2.506   3.283
    1C        C  115   3.485   2.499   3.284
    1C        C  116   3.695   2.514   3.406
    1C        C  117   3.626   2.506   3.529
    1C        C  118   3.835   2.554   3.648
    1C        C  119   3.698   2.519   3.649
    1C        C  120   3.896   2.584   3.772
    1C        C  121   3.831   2.560   3.895
    1C        C  122   4.026   2.649   4.015
    1C        C  123   3.899   2.586   4.016
    1C        C  124   4.089   2.678   4.138
    1C        C  125   4.030   2.636   4.259
    1C        C  126   4.199   2.767   4.377
    1C        C  127   4.091   2.676   4.380
    1C        C  128   4.247   2.819   4.500
    1C        C  129   4.201   2.766   4.622
    1C        C  130   4.330   2.934   4.742
    1C        C  131   4.247   2.819   4.745
    1C        C  132   4.366   2.999   4.862
    1C        C  133   4.297   2.956   4.976
    1C        C  134   3.176   2.476   2.080
    1C        C  135   3.038   2.503   2.088
    1C        C  136   3.260   2.486   2.191
    1C        C  137   3.195   2.522   2.310
    1C        C  138   3.406   2.481   2.429
    1C        C  139   3.269   2.514   2.431
    1C        C  140   3.481   2.483   2.549
    1C        C  141   3.411   2.498   2.671
    1C        C  142   3.623   2.499   2.793
    1C        C  143   3.481   2.497   2.794
    1C        C  144   3.694   2.507   2.914
    1C        C  145   3.623   2.499   3.036
    1C        C  146   3.830   2.546   3.158
    1C        C  147   3.693   2.509   3.158
    1C        C  148   3.897   2.570   3.279
    1C        C  149   3.833   2.547   3.403
    1C        C  150   4.027   2.633   3.523
    1C        C  151   3.900   2.571   3.524
    1C        C  152   4.087   2.672   3.645
    1C        C  153   4.025   2.642   3.768
    1C        C  154   4.198   2.763   3.890
    1C        C  155   4.085   2.679   3.890
    1C        C  156   4.248   2.816   4.011
    1C        C  157   4.199   2.767   4.134
    1C        C  158   4.342   2.925   4.257
    1C        C  159   4.250   2.817   4.256
    1C        C  160   4.383   2.984   4.378
    1C        C  161   4.337   2.928   4.499
    1C        C  162   4.445   3.113   4.617
    1C        C  163   4.374   2.990   4.620
    1C        C  164   4.474   3.183   4.736
    1C        C  165   4.437   3.121   4.858
    1C        C  166   4.513   3.324   4.974
    1C        C  167   4.475   3.190   4.974
    1C        C  168   3.477   2.441   2.075
    1C        C  169   3.400   2.466   2.190
    1C        C  170   3.619   2.467   2.310
    1C        C  171   3.477   2.463   2.308
    1C        C  172   3.695   2.488   2.427
    1C        C  173   3.622   2.490   2.548
    1C        C  174   3.828   2.543   2.670
    1C        C  175   3.691   2.510   2.670
    1C        C  176   3.896   2.565   2.792
    1C        C  177   3.831   2.540   2.915
    1C        C  178   4.024   2.630   3.033
    1C        C  179   3.900   2.564   3.036
    1C        C  180   4.084   2.671   3.155
    1C        C  181   4.023   2.635   3.277
    1C        C  182   4.201   2.749   3.400
    1C        C  183   4.086   2.667   3.399
    1C        C  184   4.253   2.800   3.521
    1C        C  185   4.201   2.755   3.644
    1C        C  186   4.340   2.916   3.767
    1C        C  187   4.252   2.805   3.766
    1C        C  188   4.383   2.977   3.887
    1C        C  189   4.343   2.921   4.011
    1C        C  190   4.450   3.104   4.129
    1C        C  191   4.383   2.980   4.133
    1C        C  192   4.471   3.173   4.250
    1C        C  193   4.447   3.111   4.375
    1C        C  194   4.510   3.315   4.492
    1C        C  195   4.474   3.178   4.495
    1C        C  196   4.517   3.388   4.613
    1C        C  197   4.512   3.320   4.736
    1C        C  198   4.549   3.536   4.852
    1C        C  199   4.534   3.394   4.855
    1C        C  200   4.578   3.623   4.962
    1C        C  201   3.616   2.426   2.076
    1C        C  202   3.829   2.512   2.183
    1C        C  203   3.694   2.466   2.189
    1C        C  204   3.899   2.545   2.303
    1C        C  205   3.831   2.524   2.425
    1C        C  206   4.022   2.620   2.545
    1C        C  207   3.897   2.554   2.547
    1C        C  208   4.085   2.659   2.665
    1C        C  209   4.024   2.625   2.788
    1C        C  210   4.195   2.750   2.910
    1C        C  211   4.086   2.660   2.910
    1C        C  212   4.249   2.799   3.032
    1C        C  213   4.202   2.748   3.156
    1C        C  214   4.341   2.908   3.274
    1C        C  215   4.254   2.797   3.278
    1C        C  216   4.380   2.964   3.398
    1C        C  217   4.341   2.911   3.523
    1C        C  218   4.436   3.102   3.641
    1C        C  219   4.376   2.974   3.644
    1C        C  220   4.463   3.170   3.762
    1C        C  221   4.445   3.103   3.885
    1C        C  222   4.504   3.307   4.006
    1C        C  223   4.475   3.169   4.006
    1C        C  224   4.518   3.381   4.126
    1C        C  225   4.506   3.310   4.247
    1C        C  226   4.516   3.524   4.369
    1C        C  227   4.517   3.382   4.368
    1C        C  228   4.517   3.599   4.488
    1C        C  229   4.525   3.529   4.610
    1C        C  230   4.503   3.745   4.726
    1C        C  231   4.530   3.606   4.729
    1C        C  232   4.496   3.823   4.844
    1C        C  233   4.541   3.759   4.959
    1C        C  234   4.018   2.614   2.066
    1C        C  235   3.894   2.551   2.066
    1C        C  236   4.086   2.651   2.182
    1C        C  237   4.024   2.613   2.303
    1C        C  238   4.204   2.732   2.423
    1C        C  239   4.085   2.653   2.423
    1C        C  240   4.257   2.783   2.543
    1C        C  241   4.198   2.744   2.665
    1C        C  242   4.345   2.896   2.787
    1C        C  243   4.253   2.789   2.787
    1C        C  244   4.383   2.960   2.907
    1C        C  245   4.338   2.907   3.030
    1C        C  246   4.437   3.096   3.152
    1C        C  247   4.378   2.968   3.152
    1C        C  248   4.460   3.160   3.276
    1C        C  249   4.439   3.093   3.398
    1C        C  250   4.500   3.302   3.518
    1C        C  251   4.463   3.165   3.517
    1C        C  252   4.512   3.375   3.639
    1C        C  253   4.500   3.306   3.762
    1C        C  254   4.522   3.518   3.878
    1C        C  255   4.514   3.377   3.883
    1C        C  256   4.512   3.589   3.999
    1C        C  257   4.516   3.522   4.124
    1C        C  258   4.488   3.733   4.242
    1C        C  259   4.510   3.593   4.246
    1C        C  260   4.470   3.804   4.363
    1C        C  261   4.488   3.737   4.486
    1C        C  262   4.425   3.945   4.603
    1C        C  263   4.471   3.811   4.605
    1C        C  264   4.402   4.015   4.723
    1C        C  265   4.435   3.951   4.845
    1C        C  266   4.319   4.136   4.961
    1C        C  267   4.401   4.023   4.960
    1C        C  268   4.263   2.773   2.061
    1C        C  269   4.202   2.732   2.180
    1C        C  270   4.350   2.887   2.301
    1C        C  271   4.259   2.778   2.301
    1C        C  272   4.389   2.949   2.422
    1C        C  273   4.345   2.894   2.544
    1C        C  274   4.457   3.076   2.663
    1C        C  275   4.390   2.951   2.665
    1C        C  276   4.478   3.147   2.783
    1C        C  277   4.451   3.083   2.906
    1C        C  278   4.506   3.290   3.028
    1C        C  279   4.474   3.152   3.027
    1C        C  280   4.508   3.362   3.149
    1C        C  281   4.500   3.295   3.273
    1C        C  282   4.515   3.509   3.391
    1C        C  283   4.514   3.368   3.394
    1C        C  284   4.514   3.584   3.510
    1C        C  285   4.517   3.516   3.634
    1C        C  286   4.489   3.727   3.752
    1C        C  287   4.514   3.588   3.756
    1C        C  288   4.470   3.794   3.875
    1C        C  289   4.488   3.729   3.998
    1C        C  290   4.421   3.932   4.115
    1C        C  291   4.473   3.801   4.119
    1C        C  292   4.391   3.998   4.236
    1C        C  293   4.420   3.936   4.360
    1C        C  294   4.326   4.129   4.479
    1C        C  295   4.396   4.006   4.479
    1C        C  296   4.291   4.195   4.599
    1C        C  297   4.330   4.137   4.722
    1C        C  298   4.206   4.320   4.839
    1C        C  299   4.288   4.202   4.841
    1C        C  300   4.171   4.400   4.952
    1C        C  301   4.353   2.879   2.065
    1C        C  302   4.467   3.070   2.179
    1C        C  303   4.399   2.944   2.181
    1C        C  304   4.486   3.142   2.300
    1C        C  305   4.454   3.075   2.420
    1C        C  306   4.509   3.281   2.538
    1C        C  307   4.485   3.142   2.541
    1C        C  308   4.515   3.354   2.659
    1C        C  309   4.508   3.285   2.782
    1C        C  310   4.521   3.498   2.901
    1C        C  311   4.519   3.356   2.904
    1C        C  312   4.519   3.571   3.021
    1C        C  313   4.512   3.503   3.145
    1C        C  314   4.484   3.715   3.262
    1C        C  315   4.509   3.576   3.266
    1C        C  316   4.469   3.788   3.382
    1C        C  317   4.488   3.723   3.506
    1C        C  318   4.420   3.924   3.628
    1C        C  319   4.470   3.792   3.628
    1C        C  320   4.390   3.991   3.749
    1C        C  321   4.420   3.927   3.871
    1C        C  322   4.316   4.114   3.989
    1C        C  323   4.391   3.994   3.991
    1C        C  324   4.274   4.173   4.111
    1C        C  325   4.320   4.120   4.234
    1C        C  326   4.187   4.285   4.355
    1C        C  327   4.284   4.183   4.355
    1C        C  328   4.138   4.340   4.476
    1C        C  329   4.198   4.301   4.598
    1C        C  330   4.031   4.442   4.714
    1C        C  331   4.144   4.355   4.716
    1C        C  332   3.975   4.498   4.830
    1C        C  333   4.053   4.475   4.944
    1C        C  334   4.556   3.264   2.064
    1C        C  335   4.539   3.125   2.068
    1C        C  336   4.539   3.347   2.175
    1C        C  337   4.518   3.280   2.297
    1C        C  338   4.528   3.495   2.415
    1C        C  339   4.517   3.354   2.418
    1C        C  340   4.521   3.568   2.536
    1C        C  341   4.516   3.496   2.658
    1C        C  342   4.488   3.707   2.774
    1C        C  343   4.514   3.569   2.779
    1C        C  344   4.467   3.778   2.895
    1C        C  345   4.486   3.709   3.016
    1C        C  346   4.424   3.914   3.138
    1C        C  347   4.468   3.779   3.137
    1C        C  348   4.389   3.981   3.257
    1C        C  349   4.420   3.920   3.381
    1C        C  350   4.316   4.105   3.500
    1C        C  351   4.390   3.985   3.504
    1C        C  352   4.272   4.164   3.621
    1C        C  353   4.316   4.111   3.745
    1C        C  354   4.178   4.273   3.865
    1C        C  355   4.274   4.169   3.866
    1C        C  356   4.125   4.320   3.987
    1C        C  357   4.174   4.272   4.111
    1C        C  358   4.014   4.410   4.232
    1C        C  359   4.128   4.326   4.233
    1C        C  360   3.956   4.454   4.353
    1C        C  361   4.023   4.421   4.473
    1C        C  362   3.833   4.523   4.593
    1C        C  363   3.963   4.466   4.593
    1C        C  364   3.766   4.550   4.714
    1C        C  365   3.842   4.545   4.833
    1C        C  366   3.630   4.592   4.949
    1C        C  367   3.767   4.568   4.949
    1C        C  368   4.513   3.563   2.055
    1C        C  369   4.532   3.488   2.172
    1C        C  370   4.496   3.701   2.288
    1C        C  371   4.525   3.563   2.292
    1C        C  372   4.480   3.773   2.408
    1C        C  373   4.498   3.707   2.532
    1C        C  374   4.426   3.909   2.649
    1C        C  375   4.475   3.777   2.652
    1C        C  376   4.396   3.976   2.770
    1C        C  377   4.419   3.911   2.893
    1C        C  378   4.321   4.098   3.012
    1C        C  379   4.394   3.977   3.016
    1C        C  380   4.273   4.156   3.131
    1C        C  381   4.314   4.100   3.254
    1C        C  382   4.185   4.267   3.375
    1C        C  383   4.280   4.163   3.376
    1C        C  384   4.130   4.315   3.496
    1C        C  385   4.181   4.271   3.620
    1C        C  386   4.011   4.400   3.742
    1C        C  387   4.125   4.317   3.741
    1C        C  388   3.949   4.438   3.863
    1C        C  389   4.011   4.403   3.986
    1C        C  390   3.823   4.497   4.109
    1C        C  391   3.953   4.441   4.109
    1C        C  392   3.755   4.519   4.230
    1C        C  393   3.826   4.509   4.352
    1C        C  394   3.619   4.554   4.473
    1C        C  395   3.759   4.537   4.473
    1C        C  396   3.550   4.557   4.597
    1C        C  397   3.625   4.563   4.716
    1C        C  398   3.412   4.544   4.839
    1C        C  399   3.550   4.572   4.835
    1C        C  400   3.343   4.516   4.958
    1C        C  401   4.504   3.701   2.049
    1C        C  402   4.449   3.910   2.166
    1C        C  403   4.485   3.774   2.167
    1C        C  404   4.409   3.975   2.285
    1C        C  405   4.434   3.907   2.406
    1C        C  406   4.324   4.093   2.527
    1C        C  407   4.396   3.971   2.525
    1C        C  408   4.279   4.154   2.647
    1C        C  409   4.320   4.095   2.769
    1C        C  410   4.177   4.254   2.889
    1C        C  411   4.276   4.153   2.890
    1C        C  412   4.124   4.304   3.010
    1C        C  413   4.177   4.260   3.134
    1C        C  414   4.007   4.389   3.254
    1C        C  415   4.125   4.311   3.255
    1C        C  416   3.949   4.426   3.377
    1C        C  417   4.009   4.387   3.500
    1C        C  418   3.815   4.480   3.620
    1C        C  419   3.946   4.427   3.620
    1C        C  420   3.749   4.507   3.743
    1C        C  421   3.817   4.488   3.865
    1C        C  422   3.614   4.545   3.988
    1C        C  423   3.753   4.517   3.988
    1C        C  424   3.544   4.550   4.110
    1C        C  425   3.615   4.543   4.232
    1C        C  426   3.403   4.552   4.357
    1C        C  427   3.544   4.557   4.354
    1C        C  428   3.334   4.544   4.480
    1C        C  429   3.409   4.550   4.600
    1C        C  430   3.197   4.514   4.725
    1C        C  431   3.336   4.541   4.720
    1C        C  432   3.124   4.492   4.846
    1C        C  433   3.206   4.497   4.960
    1C        C  434   4.382   4.121   2.050
    1C        C  435   4.436   3.992   2.054
    1C        C  436   4.305   4.163   2.164
    1C        C  437   4.335   4.097   2.286
    1C        C  438   4.181   4.248   2.403
    1C        C  439   4.283   4.151   2.405
    1C        C  440   4.124   4.298   2.522
    1C        C  441   4.179   4.254   2.644
    1C        C  442   4.011   4.384   2.763
    1C        C  443   4.127   4.303   2.766
    1C        C  444   3.946   4.415   2.884
    1C        C  445   4.004   4.378   3.008
    1C        C  446   3.817   4.476   3.132
    1C        C  447   3.944   4.416   3.130
    1C        C  448   3.750   4.499   3.254
    1C        C  449   3.818   4.477   3.376
    1C        C  450   3.611   4.532   3.498
    1C        C  451   3.750   4.504   3.497
    1C        C  452   3.542   4.541   3.621
    1C        C  453   3.611   4.536   3.744
    1C        C  454   3.402   4.546   3.865
    1C        C  455   3.543   4.552   3.866
    1C        C  456   3.335   4.534   3.989
    1C        C  457   3.403   4.542   4.112
    1C        C  458   3.197   4.499   4.238
    1C        C  459   3.334   4.534   4.235
    1C        C  460   3.130   4.483   4.361
    1C        C  461   3.198   4.509   4.483
    1C        C  462   2.998   4.438   4.601
    1C        C  463   3.127   4.495   4.604
    1C        C  464   2.930   4.406   4.721
    1C        C  465   2.989   4.445   4.845
    1C        C  466   2.801   4.339   4.958
    1C        C  467   2.909   4.427   4.962
    1C        C  468   4.128   4.286   2.040
    1C        C  469   4.190   4.248   2.160
    1C        C  470   4.011   4.374   2.277
    1C        C  471   4.130   4.296   2.280
    1C        C  472   3.943   4.404   2.397
    1C        C  473   4.006   4.375   2.520
    1C        C  474   3.816   4.472   2.643
    1C        C  475   3.946   4.417   2.642
    1C        C  476   3.748   4.494   2.765
    1C        C  477   3.816   4.471   2.886
    1C        C  478   3.612   4.520   3.009
    1C        C  479   3.751   4.495   3.009
    1C        C  480   3.541   4.527   3.131
    1C        C  481   3.612   4.530   3.254
    1C        C  482   3.400   4.534   3.378
    1C        C  483   3.541   4.538   3.376
    1C        C  484   3.330   4.534   3.500
    1C        C  485   3.401   4.542   3.623
    1C        C  486   3.193   4.496   3.748
    1C        C  487   3.330   4.531   3.745
    1C        C  488   3.129   4.469   3.871
    1C        C  489   3.198   4.496   3.991
    1C        C  490   3.005   4.414   4.114
    1C        C  491   3.132   4.476   4.114
    1C        C  492   2.943   4.383   4.237
    1C        C  493   3.005   4.418   4.359
    1C        C  494   2.832   4.300   4.484
    1C        C  495   2.940   4.391   4.481
    1C        C  496   2.776   4.257   4.606
    1C        C  497   2.818   4.319   4.726
    1C        C  498   2.659   4.170   4.846
    1C        C  499   2.750   4.278   4.842
    1C        C  500   2.597   4.119   4.961
    1C        C  501   4.007   4.356   2.042
    1C        C  502   3.819   4.471   2.155
    1C        C  503   3.946   4.409   2.157
    1C        C  504   3.745   4.482   2.275
    1C        C  505   3.813   4.459   2.397
    1C        C  506   3.611   4.516   2.519
    1C        C  507   3.749   4.488   2.519
    1C        C  508   3.540   4.520   2.641
    1C        C  509   3.608   4.515   2.765
    1C        C  510   3.398   4.528   2.888
    1C        C  511   3.539   4.525   2.888
    1C        C  512   3.326   4.529   3.010
    1C        C  513   3.400   4.530   3.130
    1C        C  514   3.195   4.489   3.254
    1C        C  515   3.332   4.524   3.254
    1C        C  516   3.133   4.464   3.379
    1C        C  517   3.193   4.498   3.502
    1C        C  518   3.003   4.408   3.625
    1C        C  519   3.128   4.474   3.625
    1C        C  520   2.943   4.370   3.747
    1C        C  521   3.006   4.401   3.870
    1C        C  522   2.835   4.282   3.997
    1C        C  523   2.946   4.369   3.994
    1C        C  524   2.784   4.237   4.121
    1C        C  525   2.833   4.293   4.241
    1C        C  526   2.693   4.136   4.366
    1C        C  527   2.780   4.247   4.363
    1C        C  528   2.649   4.082   4.489
    1C        C  529   2.687   4.147   4.608
    1C        C  530   2.584   3.963   4.733
    1C        C  531   2.636   4.095   4.729
    1C        C  532   2.544   3.902   4.855
    1C        C  533   2.531   3.995   4.962
    1C        C  534   3.621   4.566   2.042
    1C        C  535   3.754   4.524   2.043
    1C        C  536   3.537   4.537   2.154
    1C        C  537   3.606   4.511   2.276
    1C        C  538   3.397   4.515   2.402
    1C        C  539   3.538   4.524   2.399
    1C        C  540   3.326   4.511   2.524
    1C        C  541   3.399   4.518   2.646
    1C        C  542   3.188   4.486   2.765
    1C        C  543   3.326   4.517   2.767
    1C        C  544   3.123   4.463   2.888
    1C        C  545   3.191   4.490   3.009
    1C        C  546   3.002   4.401   3.137
    1C        C  547   3.126   4.468   3.133
    1C        C  548   2.948   4.360   3.261
    1C        C  549   3.008   4.398   3.383
    1C        C  550   2.833   4.279   3.506
    1C        C  551   2.943   4.368   3.504
    1C        C  552   2.781   4.232   3.629
    1C        C  553   2.832   4.282   3.751
    1C        C  554   2.699   4.120   3.879
    1C        C  555   2.784   4.233   3.875
    1C        C  556   2.660   4.063   4.002
    1C        C  557   2.694   4.129   4.123
    1C        C  558   2.592   3.946   4.250
    1C        C  559   2.652   4.073   4.246
    1C        C  560   2.570   3.880   4.373
    1C        C  561   2.589   3.954   4.492
    1C        C  562   2.529   3.751   4.618
    1C        C  563   2.565   3.888   4.614
    1C        C  564   2.516   3.683   4.741
    1C        C  565   2.526   3.760   4.860
    1C        C  566   2.541   3.548   4.981
    1C        C  567   2.531   3.687   4.980
    1C        C  568   3.329   4.477   2.043
    1C        C  569   3.397   4.513   2.160
    1C        C  570   3.186   4.475   2.281
    1C        C  571   3.323   4.512   2.282
    1C        C  572   3.119   4.453   2.404
    1C        C  573   3.188   4.481   2.523
    1C        C  574   2.993   4.399   2.649
    1C        C  575   3.117   4.465   2.644
    1C        C  576   2.938   4.357   2.772
    1C        C  577   2.996   4.401   2.893
    1C        C  578   2.835   4.267   3.017
    1C        C  579   2.941   4.360   3.016
    1C        C  580   2.783   4.221   3.140
    1C        C  581   2.838   4.271   3.260
    1C        C  582   2.698   4.115   3.387
    1C        C  583   2.787   4.225   3.384
    1C        C  584   2.658   4.060   3.510
    1C        C  585   2.697   4.119   3.632
    1C        C  586   2.594   3.937   3.759
    1C        C  587   2.662   4.060   3.756
    1C        C  588   2.566   3.875   3.883
    1C        C  589   2.597   3.937   4.006
    1C        C  590   2.532   3.738   4.130
    1C        C  591   2.572   3.874   4.130
    1C        C  592   2.515   3.674   4.255
    1C        C  593   2.528   3.745   4.376
    1C        C  594   2.514   3.536   4.501
    1C        C  595   2.515   3.677   4.499
    1C        C  596   2.521   3.466   4.624
    1C        C  597   2.517   3.541   4.744
    1C        C  598   2.536   3.329   4.864
    1C        C  599   2.524   3.470   4.866
    1C        C  600   2.532   3.253   4.981
    1C        C  601   3.196   4.441   2.044
    1C        C  602   2.982   4.395   2.158
    1C        C  603   3.119   4.439   2.161
    1C        C  604   2.928   4.358   2.284
    1C        C  605   2.989   4.397   2.406
    1C        C  606   2.824   4.267   2.531
    1C        C  607   2.929   4.362   2.529
    1C        C  608   2.775   4.217   2.654
    1C        C  609   2.829   4.267   2.774
    1C        C  610   2.689   4.110   2.898
    1C        C  611   2.782   4.216   2.897
    1C        C  612   2.648   4.054   3.021
    1C        C  613   2.690   4.114   3.142
    1C        C  614   2.591   3.931   3.268
    1C        C  615   2.652   4.058   3.266
    1C        C  616   2.567   3.869   3.393
    1C        C  617   2.593   3.934   3.515
    1C        C  618   2.528   3.733   3.637
    1C        C  619   2.570   3.868   3.638
    1C        C  620   2.516   3.667   3.762
    1C        C  621   2.533   3.738   3.883
    1C        C  622   2.515   3.528   4.010
    1C        C  623   2.527   3.669   4.007
    1C        C  624   2.521   3.461   4.134
    1C        C  625   2.512   3.533   4.255
    1C        C  626   2.537   3.327   4.381
    1C        C  627   2.513   3.466   4.379
    1C        C  628   2.556   3.256   4.501
    1C        C  629   2.546   3.327   4.623
    1C        C  630   2.596   3.120   4.745
    1C        C  631   2.558   3.257   4.745
    1C        C  632   2.613   3.049   4.867
    1C        C  633   2.560   3.116   4.982
    1C        C  634   2.781   4.301   2.053
    1C        C  635   2.887   4.393   2.051
    1C        C  636   2.749   4.232   2.171
    1C        C  637   2.814   4.273   2.289
    1C        C  638   2.679   4.111   2.410
    1C        C  639   2.765   4.222   2.411
    1C        C  640   2.642   4.050   2.532
    1C        C  641   2.687   4.106   2.654
    1C        C  642   2.582   3.924   2.777
    1C        C  643   2.648   4.049   2.777
    1C        C  644   2.560   3.861   2.902
    1C        C  645   2.590   3.925   3.024
    1C        C  646   2.526   3.726   3.150
    1C        C  647   2.569   3.861   3.148
    1C        C  648   2.512   3.659   3.274
    1C        C  649   2.529   3.733   3.393
    1C        C  650   2.503   3.523   3.521
    1C        C  651   2.513   3.664   3.515
    1C        C  652   2.509   3.455   3.645
    1C        C  653   2.511   3.526   3.767
    1C        C  654   2.543   3.317   3.891
    1C        C  655   2.514   3.455   3.889
    1C        C  656   2.561   3.251   4.014
    1C        C  657   2.542   3.321   4.135
    1C        C  658   2.611   3.126   4.260
    1C        C  659   2.555   3.256   4.260
    1C        C  660   2.642   3.060   4.381
    1C        C  661   2.603   3.122   4.502
    1C        C  662   2.707   2.937   4.629
    1C        C  663   2.629   3.056   4.624
    1C        C  664   2.751   2.877   4.749
    1C        C  665   2.693   2.931   4.868
    1C        C  666   2.743   2.871   4.984
    1C        C  667   2.689   4.023   2.057
    1C        C  668   2.683   4.107   2.169
    1C        C  669   2.584   3.917   2.291
    1C        C  670   2.640   4.047   2.289
    1C        C  671   2.564   3.850   2.414
    1C        C  672   2.587   3.920   2.534
    1C        C  673   2.514   3.722   2.660
    1C        C  674   2.555   3.857   2.656
    1C        C  675   2.508   3.653   2.783
    1C        C  676   2.529   3.723   2.904
    1C        C  677   2.506   3.515   3.031
    1C        C  678   2.518   3.656   3.028
    1C        C  679   2.508   3.447   3.155
    1C        C  680   2.503   3.518   3.277
    1C        C  681   2.534   3.310   3.403
    1C        C  682   2.507   3.449   3.401
    1C        C  683   2.554   3.244   3.527
    1C        C  684   2.538   3.317   3.647
    1C        C  685   2.607   3.115   3.770
    1C        C  686   2.558   3.248   3.769
    1C        C  687   2.645   3.057   3.893
    1C        C  688   2.612   3.119   4.016
    1C        C  689   2.715   2.938   4.141
    1C        C  690   2.641   3.058   4.140
    1C        C  691   2.757   2.881   4.263
    1C        C  692   2.709   2.936   4.385
    1C        C  693   2.750   2.880   4.508
    1C        C  694   2.633   3.895   2.058
    1C        C  695   2.539   3.703   2.174
    1C        C  696   2.579   3.838   2.174
    1C        C  697   2.511   3.641   2.298
    1C        C  698   2.524   3.714   2.418
    1C        C  699   2.494   3.507   2.543
    1C        C  700   2.501   3.648   2.540
    1C        C  701   2.504   3.440   2.667
    1C        C  702   2.503   3.512   2.788
    1C        C  703   2.535   3.303   2.912
    1C        C  704   2.509   3.442   2.911
    1C        C  705   2.552   3.236   3.036
    1C        C  706   2.539   3.309   3.156
    1C        C  707   2.601   3.110   3.279
    1C        C  708   2.556   3.244   3.280
    1C        C  709   2.634   3.050   3.403
    1C        C  710   2.611   3.115   3.527
    1C        C  711   2.718   2.933   3.650
    1C        C  712   2.640   3.051   3.649
    1C        C  713   2.756   2.876   3.774
    1C        C  714   2.719   2.937   3.896
    1C        C  715   2.758   2.880   4.019
    1C        C  716   2.455   3.498   2.062
    1C        C  717   2.495   3.633   2.061
    1C        C  718   2.468   3.424   2.183
    1C        C  719   2.483   3.501   2.301
    1C        C  720   2.519   3.293   2.427
    1C        C  721   2.492   3.432   2.424
    1C        C  722   2.540   3.225   2.549
    1C        C  723   2.525   3.300   2.667
    1C        C  724   2.591   3.099   2.793
    1C        C  725   2.543   3.232   2.790
    1C        C  726   2.624   3.035   2.915
    1C        C  727   2.594   3.101   3.036
    1C        C  728   2.709   2.926   3.161
    1C        C  729   2.626   3.040   3.159
    1C        C  730   2.752   2.873   3.285
    1C        C  731   2.706   2.929   3.406
    1C        C  732   2.753   2.872   3.527
    1C        C  733   2.490   3.199   2.074
    1C        C  734   2.489   3.282   2.186
    1C        C  735   2.586   3.089   2.308
    1C        C  736   2.525   3.217   2.308
    1C        C  737   2.620   3.024   2.429
    1C        C  738   2.593   3.094   2.549
    1C        C  739   2.698   2.914   2.673
    1C        C  740   2.622   3.033   2.673
    1C        C  741   2.744   2.859   2.795
    1C        C  742   2.699   2.915   2.916
    1C        C  743   2.752   2.869   3.039
    1C        C  744   2.541   3.070   2.076
    1C        C  745   2.686   2.900   2.189
    1C        C  746   2.608   3.018   2.188
    1C        C  747   2.735   2.844   2.309
    1C        C  748   2.695   2.904   2.430
    1C        C  749   2.741   2.853   2.553
    1C        C  750   2.740   2.843   2.074
    1C        C  751   3.670   2.310   2.001
    1C        O  752   3.700   2.194   2.038
    1C        O  753   3.633   2.319   1.866
    1C        C  754   4.641   3.053   1.989
    1C        O  755   4.604   3.031   1.870
    1C        O  756   4.730   2.959   2.042
    1C        C  757   4.450   4.221   1.965
    1C        O  758   4.575   4.238   1.971
    1C        O  759   4.399   4.242   1.836
    1C        C  760   3.584   4.662   1.936
    1C        O  761   3.623   4.782   1.940
    1C        O  762   3.541   4.616   1.811
    1C        C  763   2.862   4.508   1.962
    1C        O  764   2.901   4.508   1.842
    1C        O  765   2.807   4.627   2.010
    1C        C  766   2.325   3.484   1.992
    1C        O  767   2.325   3.465   1.868
    1C        O  768   2.195   3.484   2.042
    1C        C  769   4.679   3.602   5.068
    1C        O  770   4.672   3.621   5.192
    1C        O  771   4.815   3.613   5.036
    1C        C  772   4.273   4.449   5.047
    1C        O  773   4.250   4.453   5.171
    1C        O  774   4.366   4.545   5.006
    1C        C  775   4.153   2.510   5.059
    1C        O  776   4.195   2.399   5.018
    1C        O  777   4.161   2.515   5.199
    1C        C  778   2.896   4.532   5.066
    1C        O  779   2.837   4.643   5.052
    1C        O  780   2.922   4.512   5.202
    1C        C  781   2.474   3.041   5.076
    1C        O  782   2.367   2.978   5.053
    1C        O  783   2.487   3.048   5.215
    1C        C  784   2.443   3.970   5.078
    1C        O  785   2.353   4.057   5.098
    1C        O  786   2.502   3.936   5.201
    1C        C  787   2.952   2.397   2.031
    1C        O  788   2.927   2.380   1.909
    1C        O  789   2.877   2.306   2.105
    1C        C  790   3.172   2.359   5.039
    1C        O  791   3.133   2.262   4.968
    1C        O  792   3.162   2.326   5.174
    1C        H  793   4.308   3.010   5.068
    1C        H  794   4.137   2.842   5.052
    1C        H  795   4.525   3.126   5.043
    1C        H  796   4.485   3.377   5.063
    1C        H  797   4.597   3.820   5.026
    1C        H  798   4.424   3.977   5.054
    1C        H  799   4.270   4.166   5.050
    1C        H  800   4.009   4.500   5.039
    1C        H  801   3.817   4.597   5.040
    1C        H  802   3.589   4.636   5.037
    1C        H  803   3.392   4.524   5.053
    1C        H  804   3.157   4.506   5.055
    1C        H  805   3.901   2.482   5.068
    1C        H  806   3.676   2.467   5.077
    1C        H  807   2.995   2.540   5.059
    1C        H  808   3.444   2.450   5.073
    1C        H  809   2.900   2.775   5.075
    1C        H  810   2.733   2.913   5.082
    1C        H  811   2.558   3.299   5.075
    1C        H  812   2.606   3.513   5.058
    1C        H  813   2.544   3.736   5.074
    1C        H  814   2.559   4.192   5.030
    1C        H  815   2.731   4.348   5.039
    1C        H  816   2.741   2.904   1.986
    1C        H  817   2.873   2.702   1.981
    1C        H  818   3.203   2.411   1.999
    1C        H  819   3.432   2.395   1.990
    1C        H  820   3.831   2.573   1.982
    1C        H  821   4.077   2.592   1.979
    1C        H  822   4.257   2.716   1.971
    1C        H  823   4.384   2.914   1.969
    1C        H  824   4.582   3.312   1.972
    1C        H  825   4.472   3.516   1.968
    1C        H  826   4.534   3.749   1.958
    1C        H  827   3.797   4.504   1.947
    1C        H  828   3.967   4.388   1.949
    1C        H  829   4.158   4.252   1.943
    1C        H  830   4.507   3.976   1.975
    1C        H  831   2.672   3.828   1.984
    1C        H  832   2.752   4.044   1.973
    1C        H  833   2.768   4.248   1.961
    1C        H  834   3.380   4.452   1.952
    1C        H  835   3.142   4.467   1.955
    1C        H  836   2.539   3.011   1.987
    1C        H  837   2.453   3.233   1.979
    1C        H  838   2.507   3.678   1.965
    2V3OU   H29  839   2.805   3.550   5.923
    2V3OU   C27  840   2.782   3.505   6.023
    2V3OU   H27  841   2.724   3.572   6.092
    2V3OU   H28  842   2.725   3.410   6.004
    2V3OU   O11  843   2.910   3.478   6.079
    2V3OU   C15  844   2.924   3.394   6.188
    2V3OU   C13  845   3.053   3.373   6.241
    2V3OU   C14  846   3.080   3.266   6.328
    2V3OU   C16  847   2.972   3.186   6.364
    2V3OU    H6  848   2.992   3.113   6.444
    2V3OU   C12  849   3.219   3.228   6.362
    2V3OU    O2  850   3.238   3.121   6.425
    2V3OU   C10  851   3.329   3.302   6.300
    2V3OU    C8  852   3.462   3.267   6.320
    2V3OU   O10  853   3.495   3.153   6.386
    2V3OU   H26  854   3.415   3.113   6.427
    2V3OU    C6  855   3.569   3.350   6.275
    2V3OU    C5  856   3.540   3.473   6.215
    2V3OU    C4  857   3.705   3.290   6.279
    2V3OU    H4  858   3.723   3.230   6.372
    2V3OU    H5  859   3.715   3.227   6.186
    2V3OU    C2  860   3.816   3.396   6.283
    2V3OU    O6  861   3.811   3.472   6.404
    2V3OU   H21  862   3.769   3.558   6.386
    2V3OU    C3  863   3.783   3.496   6.173
    2V3OU    H2  864   3.864   3.573   6.165
    2V3OU    H3  865   3.777   3.445   6.074
    2V3OU   C25  866   3.951   3.324   6.274
    2V3OU    O7  867   4.007   3.307   6.166
    2V3OU   C26  868   4.031   3.293   6.400
    2V3OU   H22  869   4.067   3.387   6.449
    2V3OU   H23  870   4.118   3.227   6.374
    2V3OU    O8  871   3.962   3.209   6.490
    2V3OU   H24  872   3.930   3.268   6.560
    2V3OU    C1  873   3.651   3.571   6.191
    2V3OU    H1  874   3.627   3.622   6.094
    2V3OU    O3  875   3.664   3.660   6.302
    2V3OU   C19  876   3.621   3.794   6.276
    2V3OU    H9  877   3.522   3.805   6.224
    2V3OU    O4  878   3.718   3.851   6.191
    2V3OU   C20  879   3.848   3.874   6.244
    2V3OU   H10  880   3.892   3.772   6.266
    2V3OU   C24  881   3.608   3.855   6.416
    2V3OU   H16  882   3.546   3.786   6.477
    2V3OU   H17  883   3.557   3.955   6.406
    2V3OU   C23  884   3.748   3.879   6.474
    2V3OU   H15  885   3.792   3.777   6.503
    2V3OU    N1  886   3.736   3.956   6.596
    2V3OU   H19  887   3.808   3.933   6.662
    2V3OU   H20  888   3.642   3.938   6.625
    2V3OU   C21  889   3.845   3.951   6.376
    2V3OU   H11  890   3.950   3.931   6.413
    2V3OU    O5  891   3.830   4.092   6.380
    2V3OU   H18  892   3.785   4.107   6.464
    2V3OU   C22  893   3.916   3.953   6.134
    2V3OU   H12  894   3.862   4.050   6.123
    2V3OU   H13  895   3.908   3.895   6.038
    2V3OU   H14  896   4.026   3.960   6.153
    2V3OU   C11  897   3.161   3.468   6.214
    2V3OU    O1  898   3.133   3.587   6.188
    2V3OU    C9  899   3.301   3.423   6.231
    2V3OU    C7  900   3.404   3.508   6.190
    2V3OU    O9  901   3.385   3.620   6.113
    2V3OU   H25  902   3.289   3.635   6.117
    2V3OU   C17  903   2.819   3.320   6.245
    2V3OU    H7  904   2.716   3.341   6.215
    2V3OU   C18  905   2.840   3.214   6.332
    2V3OU    H8  906   2.758   3.150   6.367
    3SOL     OW  907   2.963   3.263   4.253
    3SOL    HW1  908   2.874   3.223   4.273
    3SOL    HW2  909   3.016   3.272   4.337
    4SOL     OW  910   6.738   6.059   0.926
    4SOL    HW1  911   6.663   6.124   0.916
    4SOL    HW2  912   6.810   6.081   0.860
    5SOL     OW  913   3.999   2.586   0.539
    5SOL    HW1  914   3.930   2.542   0.596
    5SOL    HW2  915   3.972   2.577   0.443
    6SOL     OW  916   3.921   1.528   1.996
    6SOL    HW1  917   3.929   1.527   1.896
    6SOL    HW2  918   3.825   1.532   2.021
    7SOL     OW  919   2.253   2.706   4.779
    7SOL    HW1  920   2.305   2.636   4.827
    7SOL    HW2  921   2.230   2.780   4.842
    8SOL     OW  922   1.185   2.409   5.648
    8SOL    HW1  923   1.136   2.485   5.605
    8SOL    HW2  924   1.120   2.350   5.696
    9SOL     OW  925   1.480   2.158   6.051
    9SOL    HW1  926   1.557   2.127   5.996
    9SOL    HW2  927   1.514   2.217   6.125
   10SOL     OW  928   5.512   5.283   1.398
   10SOL    HW1  929   5.444   5.271   1.470
   10SOL    HW2  930   5.603   5.258   1.432
   11SOL     OW  931   3.136   2.178   0.603
   11SOL    HW1  932   3.138   2.273   0.635
   11SOL    HW2  933   3.106   2.176   0.508
   12SOL     OW  934   5.193   4.909   2.022
   12SOL    HW1  935   5.113   4.908   2.081
   12SOL    HW2  936   5.265   4.964   2.063
   13SOL     OW  937   5.276   6.246   1.929
   13SOL    HW1  938   5.242   6.261   1.836
   13SOL    HW2  939   5.315   6.331   1.964
   14SOL     OW  940   4.485   6.511   0.299
   14SOL    HW1  941   4.573   6.554   0.317
   14SOL    HW2  942   4.498   6.432   0.239
   15SOL     OW  943   0.542   5.512   6.427
   15SOL    HW1  944   0.586   5.594   6.463
   15SOL    HW2  945   0.605   5.435   6.433
   16SOL     OW  946   2.174   5.937   4.662
   16SOL    HW1  947   2.232   5.958   4.584
   16SOL    HW2  948   2.108   5.867   4.637
   17SOL     OW  949   0.097   1.224   4.670
   17SOL    HW1  950   0.005   1.244   4.635
   17SOL    HW2  951   0.122   1.294   4.737
   18SOL     OW  952   3.062   0.570   5.385
   18SOL    HW1  953   3.034   0.661   5.355
   18SOL    HW2  954   3.153   0.550   5.349
   19SOL     OW  955   3.171   6.093   2.493
   19SOL    HW1  956   3.096   6.032   2.468
   19SOL    HW2  957   3.258   6.043   2.484
   20SOL     OW  958   6.917   1.916   5.929
   20SOL    HW1  959   6.933   2.008   5.963
   20SOL    HW2  960   6.885   1.921   5.834
   21SOL     OW  961   2.060   4.110   2.524
   21SOL    HW1  962   2.104   4.182   2.470
   21SOL    HW2  963   2.095   4.112   2.618
   22SOL     OW  964   0.718   1.217   0.135
   22SOL    HW1  965   0.643   1.189   0.194
   22SOL    HW2  966   0.700   1.189   0.041
   23SOL     OW  967   6.881   5.130   0.776
   23SOL    HW1  968   6.793   5.083   0.769
   23SOL    HW2  969   6.955   5.063   0.773
   24SOL     OW  970   5.251   1.249   0.212
   24SOL    HW1  971   5.168   1.265   0.266
   24SOL    HW2  972   5.231   1.184   0.139
   25SOL     OW  973   1.531   1.046   4.428
   25SOL    HW1  974   1.455   0.996   4.470
   25SOL    HW2  975   1.564   0.996   4.348
   26SOL     OW  976   1.772   0.712   6.242
   26SOL    HW1  977   1.857   0.692   6.193
   26SOL    HW2  978   1.751   0.810   6.234
   27SOL     OW  979   0.032   0.079   2.592
   27SOL    HW1  980   0.126   0.109   2.606
   27SOL    HW2  981   0.008   0.010   2.661
   28SOL     OW  982   1.193   0.633   5.596
   28SOL    HW1  983   1.143   0.707   5.640
   28SOL    HW2  984   1.282   0.620   5.642
   29SOL     OW  985   5.690   0.885   1.365
   29SOL    HW1  986   5.625   0.810   1.352
   29SOL    HW2  987   5.644   0.972   1.347
   30SOL     OW  988   4.791   0.408   4.995
   30SOL    HW1  989   4.829   0.477   5.057
   30SOL    HW2  990   4.691   0.411   5.000
   31SOL     OW  991   6.772   4.731   4.046
   31SOL    HW1  992   6.819   4.711   4.132
   31SOL    HW2  993   6.706   4.804   4.061
   32SOL     OW  994   2.574   1.118   1.287
   32SOL    HW1  995   2.570   1.030   1.333
   32SOL    HW2  996   2.667   1.135   1.254
   33SOL     OW  997   2.395   4.893   5.717
   33SOL    HW1  998   2.482   4.877   5.671
   33SOL    HW2  999   2.339   4.956   5.662
   34SOL     OW 1000   1.951   5.911   5.435
   34SOL    HW1 1001   2.034   5.871   5.473
   34SOL    HW2 1002   1.973   5.997   5.390
   35SOL     OW 1003   1.512   3.437   5.413
   35SOL    HW1 1004   1.487   3.376   5.488
   35SOL    HW2 1005   1.554   3.520   5.449
   36SOL     OW 1006   6.006   1.220   3.754
   36SOL    HW1 1007   5.978   1.292   3.817
   36SOL    HW2 1008   5.953   1.227   3.669
   37SOL     OW 1009   2.182   6.655   4.429
   37SOL    HW1 1010   2.164   6.711   4.348
   37SOL    HW2 1011   2.131   6.693   4.507
   38SOL     OW 1012   1.077   4.268   2.179
   38SOL    HW1 1013   1.162   4.281   2.128
   38SOL    HW2 1014   1.097   4.228   2.268
   39SOL     OW 1015   6.666   5.031   1.262
   39SOL    HW1 1016   6.735   4.982   1.209
   39SOL    HW2 1017   6.711   5.079   1.338
   40SOL     OW 1018   3.636   0.596   6.456
   40SOL    HW1 1019   3.726   0.565   6.425
   40SOL    HW2 1020   3.583   0.518   6.489
   41SOL     OW 1021   5.068   3.610   1.601
   41SOL    HW1 1022   5.095   3.706   1.599
   41SOL    HW2 1023   4.976   3.602   1.640
   42SOL     OW 1024   2.698   3.408   6.583
   42SOL    HW1 1025   2.623   3.471   6.605
   42SOL    HW2 1026   2.775   3.460   6.546
   43SOL     OW 1027   5.182   0.113   4.878
   43SOL    HW1 1028   5.084   0.133   4.878
   43SOL    HW2 1029   5.229   0.179   4.820
   44SOL     OW 1030   6.074   1.475   5.930
   44SOL    HW1 1031   6.007   1.425   5.875
   44SOL    HW2 1032   6.154   1.497   5.873
   45SOL     OW 1033   2.874   4.104   5.933
   45SOL    HW1 1034   2.837   4.043   6.004
   45SOL    HW2 1035   2.814   4.102   5.853
   46SOL     OW 1036   1.175   4.591   4.898
   46SOL    HW1 1037   1.250   4.657   4.895
   46SOL    HW2 1038   1.148   4.568   4.805
   47SOL     OW 1039   6.114   4.026   6.993
   47SOL    HW1 1040   6.173   3.965   0.018
   47SOL    HW2 1041   6.167   4.104   6.958
   48SOL     OW 1042   0.258   4.402   0.738
   48SOL    HW1 1043   0.166   4.402   0.776
   48SOL    HW2 1044   0.320   4.352   0.799
   49SOL     OW 1045   3.194   2.399   6.618
   49SOL    HW1 1046   3.240   2.481   6.653
   49SOL    HW2 1047   3.095   2.407   6.632
   50SOL     OW 1048   5.335   2.224   0.141
   50SOL    HW1 1049   5.236   2.230   0.154
   50SOL    HW2 1050   5.381   2.234   0.229
   51SOL     OW 1051   0.888   6.154   2.068
   51SOL    HW1 1052   0.829   6.084   2.027
   51SOL    HW2 1053   0.929   6.210   1.997
   52SOL     OW 1054   5.556   2.040   2.244
   52SOL    HW1 1055   5.551   1.965   2.310
   52SOL    HW2 1056   5.627   2.104   2.271
   53SOL     OW 1057   4.366   0.713   0.729
   53SOL    HW1 1058   4.372   0.798   0.678
   53SOL    HW2 1059   4.274   0.674   0.719
   54SOL     OW 1060   6.216   0.065   6.705
   54SOL    HW1 1061   6.131   0.052   6.655
   54SOL    HW2 1062   6.261   7.003   6.719
   55SOL     OW 1063   1.534   3.938   5.887
   55SOL    HW1 1064   1.522   3.864   5.953
   55SOL    HW2 1065   1.574   4.017   5.933
   56SOL     OW 1066   0.624   2.320   6.636
   56SOL    HW1 1067   0.667   2.316   6.546
   56SOL    HW2 1068   0.693   2.303   6.707
   57SOL     OW 1069   3.927   5.997   1.431
   57SOL    HW1 1070   3.938   6.087   1.389
   57SOL    HW2 1071   3.831   5.972   1.431
   58SOL     OW 1072   1.211   0.281   6.553
   58SOL    HW1 1073   1.165   0.196   6.579
   58SOL    HW2 1074   1.161   0.358   6.590
   59SOL     OW 1075   4.266   3.091   6.696
   59SOL    HW1 1076   4.327   3.170   6.681
   59SOL    HW2 1077   4.184   3.122   6.744
   60SOL     OW 1078   6.879   3.359   2.742
   60SOL    HW1 1079   6.879   3.439   2.682
   60SOL    HW2 1080   6.969   3.350   2.785
   61SOL     OW 1081   1.345   5.771   3.103
   61SOL    HW1 1082   1.333   5.741   3.008
   61SOL    HW2 1083   1.272   5.835   3.127
   62SOL     OW 1084   5.632   2.657   3.470
   62SOL    HW1 1085   5.628   2.665   3.569
   62SOL    HW2 1086   5.627   2.749   3.429
   63SOL     OW 1087   3.880   6.877   5.765
   63SOL    HW1 1088   3.921   6.951   5.819
   63SOL    HW2 1089   3.838   6.914   5.683
   64SOL     OW 1090   1.601   2.292   6.249
   64SOL    HW1 1091   1.579   2.383   6.283
   64SOL    HW2 1092   1.698   2.289   6.224
   65SOL     OW 1093   1.335   4.963   5.014
   65SOL    HW1 1094   1.433   4.954   5.034
   65SOL    HW2 1095   1.314   5.059   4.994
   66SOL     OW 1096   4.590   0.907   1.323
   66SOL    HW1 1097   4.506   0.855   1.341
   66SOL    HW2 1098   4.578   1.001   1.354
   67SOL     OW 1099   0.350   3.495   1.234
   67SOL    HW1 1100   0.359   3.458   1.141
   67SOL    HW2 1101   0.428   3.465   1.289
   68SOL     OW 1102   0.593   0.669   6.217
   68SOL    HW1 1103   0.576   0.748   6.158
   68SOL    HW2 1104   0.674   0.686   6.273
   69SOL     OW 1105   1.395   6.683   6.777
   69SOL    HW1 1106   1.452   6.631   6.841
   69SOL    HW2 1107   1.414   6.652   6.684
   70SOL     OW 1108   4.830   4.779   3.233
   70SOL    HW1 1109   4.734   4.771   3.206
   70SOL    HW2 1110   4.880   4.697   3.204
   71SOL     OW 1111   5.040   1.457   5.200
   71SOL    HW1 1112   5.068   1.363   5.221
   71SOL    HW2 1113   5.013   1.463   5.104
   72SOL     OW 1114   0.241   0.938   2.097
   72SOL    HW1 1115   0.169   0.966   2.033
   72SOL    HW2 1116   0.202   0.884   2.171
   73SOL     OW 1117   2.670   0.887   1.069
   73SOL    HW1 1118   2.769   0.882   1.083
   73SOL    HW2 1119   2.632   0.958   1.129
   74SOL     OW 1120   2.605   1.378   0.058
   74SOL    HW1 1121   2.664   1.459   0.057
   74SOL    HW2 1122   2.629   1.321   0.137
   75SOL     OW 1123   2.329   2.363   0.660
   75SOL    HW1 1124   2.361   2.444   0.610
   75SOL    HW2 1125   2.248   2.326   0.615
   76SOL     OW 1126   3.970   5.219   5.800
   76SOL    HW1 1127   4.054   5.209   5.853
   76SOL    HW2 1128   3.929   5.308   5.818
   77SOL     OW 1129   0.238   5.421   4.611
   77SOL    HW1 1130   0.294   5.433   4.693
   77SOL    HW2 1131   0.241   5.504   4.555
   78SOL     OW 1132   5.634   1.522   1.642
   78SOL    HW1 1133   5.695   1.590   1.601
   78SOL    HW2 1134   5.596   1.464   1.571
   79SOL     OW 1135   1.344   4.223   4.477
   79SOL    HW1 1136   1.274   4.172   4.527
   79SOL    HW2 1137   1.357   4.182   4.387
   80SOL     OW 1138   3.445   1.981   5.203
   80SOL    HW1 1139   3.399   1.970   5.114
   80SOL    HW2 1140   3.507   2.060   5.199
   81SOL     OW 1141   3.432   5.261   2.448
   81SOL    HW1 1142   3.368   5.327   2.410
   81SOL    HW2 1143   3.438   5.182   2.388
   82SOL     OW 1144   3.299   0.423   2.231
   82SOL    HW1 1145   3.374   0.359   2.217
   82SOL    HW2 1146   3.333   0.505   2.277
   83SOL     OW 1147   5.496   0.784   4.481
   83SOL    HW1 1148   5.551   0.866   4.497
   83SOL    HW2 1149   5.511   0.719   4.556
   84SOL     OW 1150   5.913   2.759   2.871
   84SOL    HW1 1151   5.895   2.665   2.840
   84SOL    HW2 1152   5.878   2.770   2.964
   85SOL     OW 1153   2.198   5.906   3.520
   85SOL    HW1 1154   2.187   5.932   3.616
   85SOL    HW2 1155   2.247   5.819   3.515
   86SOL     OW 1156   4.656   0.587   0.305
   86SOL    HW1 1157   4.575   0.569   0.250
   86SOL    HW2 1158   4.711   0.658   0.261
   87SOL     OW 1159   3.010   2.986   6.856
   87SOL    HW1 1160   3.039   2.951   6.945
   87SOL    HW2 1161   3.034   2.921   6.785
   88SOL     OW 1162   1.947   2.803   1.261
   88SOL    HW1 1163   2.037   2.760   1.245
   88SOL    HW2 1164   1.928   2.803   1.359
   89SOL     OW 1165   3.237   3.746   5.347
   89SOL    HW1 1166   3.277   3.824   5.299
   89SOL    HW2 1167   3.282   3.662   5.318
   90SOL     OW 1168   6.620   4.559   1.985
   90SOL    HW1 1169   6.595   4.483   2.046
   90SOL    HW2 1170   6.681   4.525   1.913
   91SOL     OW 1171   4.430   5.969   0.728
   91SOL    HW1 1172   4.439   6.047   0.666
   91SOL    HW2 1173   4.475   5.889   0.687
   92SOL     OW 1174   5.834   5.120   0.172
   92SOL    HW1 1175   5.896   5.111   0.094
   92SOL    HW2 1176   5.764   5.189   0.153
   93SOL     OW 1177   2.845   3.827   1.729
   93SOL    HW1 1178   2.875   3.879   1.809
   93SOL    HW2 1179   2.872   3.731   1.739
   94SOL     OW 1180   3.057   1.704   4.277
   94SOL    HW1 1181   3.110   1.787   4.293
   94SOL    HW2 1182   3.106   1.645   4.213
   95SOL     OW 1183   0.712   6.964   3.652
   95SOL    HW1 1184   0.685   6.973   3.556
   95SOL    HW2 1185   0.688   0.022   3.701
   96SOL     OW 1186   0.225   5.744   6.572
   96SOL    HW1 1187   0.260   5.798   6.496
   96SOL    HW2 1188   0.272   5.656   6.575
   97SOL     OW 1189   3.596   4.465   5.324
   97SOL    HW1 1190   3.620   4.376   5.285
   97SOL    HW2 1191   3.499   4.484   5.306
   98SOL     OW 1192   0.463   3.006   4.953
   98SOL    HW1 1193   0.444   2.913   4.984
   98SOL    HW2 1194   0.514   3.003   4.867
   99SOL     OW 1195   4.308   4.840   5.127
   99SOL    HW1 1196   4.225   4.818   5.075
   99SOL    HW2 1197   4.371   4.892   5.070
  100SOL     OW 1198   1.503   0.487   5.184
  100SOL    HW1 1199   1.467   0.437   5.106
  100SOL    HW2 1200   1.458   0.576   5.191
  101SOL     OW 1201   5.262   3.397   2.432
  101SOL    HW1 1202   5.328   3.331   2.466
  101SOL    HW2 1203   5.208   3.355   2.358
  102SOL     OW 1204   3.672   0.326   6.761
  102SOL    HW1 1205   3.708   0.289   6.846
  102SOL    HW2 1206   3.748   0.355   6.702
  103SOL     OW 1207   1.180   1.584   1.692
  103SOL    HW1 1208   1.180   1.501   1.748
  103SOL    HW2 1209   1.233   1.655   1.737
  104SOL     OW 1210   6.726   4.721   1.591
  104SOL    HW1 1211   6.652   4.743   1.654
  104SOL    HW2 1212   6.710   4.630   1.551
  105SOL     OW 1213   6.865   0.549   5.038
  105SOL    HW1 1214   6.840   0.641   5.009
  105SOL    HW2 1215   6.820   0.482   4.979
  106SOL     OW 1216   4.388   2.706   1.714
  106SOL    HW1 1217   4.339   2.787   1.680
  106SOL    HW2 1218   4.457   2.735   1.780
  107SOL     OW 1219   4.800   6.770   2.138
  107SOL    HW1 1220   4.796   6.868   2.160
  107SOL    HW2 1221   4.710   6.739   2.108
  108SOL     OW 1222   3.542   1.847   4.739
  108SOL    HW1 1223   3.461   1.901   4.714
  108SOL    HW2 1224   3.612   1.858   4.669
  109SOL     OW 1225   1.929   1.060   5.446
  109SOL    HW1 1226   1.904   1.082   5.541
  109SOL    HW2 1227   1.949   0.963   5.438
  110SOL     OW 1228   4.179   4.297   5.728
  110SOL    HW1 1229   4.087   4.277   5.693
  110SOL    HW2 1230   4.179   4.290   5.827
  111SOL     OW 1231   6.210   3.464   1.990
  111SOL    HW1 1232   6.299   3.506   2.010
  111SOL    HW2 1233   6.153   3.529   1.940
  112SOL     OW 1234   4.708   6.957   4.920
  112SOL    HW1 1235   4.624   6.931   4.871
  112SOL    HW2 1236   4.698   6.934   5.017
  113SOL     OW 1237   0.696   5.012   2.368
  113SOL    HW1 1238   0.652   4.924   2.349
  113SOL    HW2 1239   0.729   5.012   2.462
  114SOL     OW 1240   6.887   2.254   1.807
  114SOL    HW1 1241   6.931   2.172   1.770
  114SOL    HW2 1242   6.844   2.232   1.894
  115SOL     OW 1243   4.192   1.108   2.654
  115SOL    HW1 1244   4.222   1.149   2.740
  115SOL    HW2 1245   4.122   1.166   2.612
  116SOL     OW 1246   6.723   5.440   1.195
  116SOL    HW1 1247   6.759   5.380   1.124
  116SOL    HW2 1248   6.731   5.396   1.284
  117SOL     OW 1249   2.985   1.971   0.385
  117SOL    HW1 1250   3.050   1.919   0.440
  117SOL    HW2 1251   2.922   2.021   0.444
  118SOL     OW 1252   6.919   2.482   2.134
  118SOL    HW1 1253   6.825   2.452   2.117
  118SOL    HW2 1254   6.946   2.458   2.227
  119SOL     OW 1255   6.367   6.501   4.780
  119SOL    HW1 1256   6.294   6.456   4.729
  119SOL    HW2 1257   6.329   6.551   4.857
  120SOL     OW 1258   4.438   1.919   4.617
  120SOL    HW1 1259   4.385   1.835   4.609
  120SOL    HW2 1260   4.376   1.997   4.622
  121SOL     OW 1261   0.296   5.784   6.111
  121SOL    HW1 1262   0.199   5.766   6.129
  121SOL    HW2 1263   0.344   5.697   6.101
  122SOL     OW 1264   6.725   4.919   5.920
  122SOL    HW1 1265   6.814   4.936   5.963
  122SOL    HW2 1266   6.653   4.926   5.990
  123SOL     OW 1267   0.573   2.920   1.377
  123SOL    HW1 1268   0.535   2.991   1.318
  123SOL    HW2 1269   0.656   2.883   1.336
  124SOL     OW 1270   1.866   3.476   6.808
  124SOL    HW1 1271   1.946   3.484   6.867
  124SOL    HW2 1272   1.897   3.464   6.713
  125SOL     OW 1273   4.497   2.326   0.451
  125SOL    HW1 1274   4.431   2.261   0.489
  125SOL    HW2 1275   4.504   2.313   0.352
  126SOL     OW 1276   3.415   3.717   4.920
  126SOL    HW1 1277   3.481   3.723   4.995
  126SOL    HW2 1278   3.326   3.689   4.957
  127SOL     OW 1279   0.398   5.232   6.080
  127SOL    HW1 1280   0.359   5.266   5.995
  127SOL    HW2 1281   0.333   5.173   6.126
  128SOL     OW 1282   4.420   4.014   6.162
  128SOL    HW1 1283   4.397   4.037   6.256
  128SOL    HW2 1284   4.352   3.951   6.124
  129SOL     OW 1285   0.780   4.635   1.346
  129SOL    HW1 1286   0.762   4.669   1.254
  129SOL    HW2 1287   0.838   4.700   1.395
  130SOL     OW 1288   6.076   3.668   4.950
  130SOL    HW1 1289   6.084   3.576   4.987
  130SOL    HW2 1290   5.979   3.695   4.948
  131SOL     OW 1291   1.017   3.641   3.337
  131SOL    HW1 1292   1.106   3.604   3.364
  131SOL    HW2 1293   1.002   3.624   3.240
  132SOL     OW 1294   4.556   2.816   1.500
  132SOL    HW1 1295   4.526   2.798   1.594
  132SOL    HW2 1296   4.550   2.731   1.447
  133SOL     OW 1297   4.416   4.700   6.088
  133SOL    HW1 1298   4.447   4.659   6.002
  133SOL    HW2 1299   4.337   4.650   6.122
  134SOL     OW 1300   6.571   1.847   0.922
  134SOL    HW1 1301   6.616   1.832   0.834
  134SOL    HW2 1302   6.505   1.774   0.939
  135SOL     OW 1303   4.179   4.762   4.036
  135SOL    HW1 1304   4.174   4.854   3.997
  135SOL    HW2 1305   4.142   4.763   4.129
  136SOL     OW 1306   4.101   6.547   6.311
  136SOL    HW1 1307   4.107   6.646   6.301
  136SOL    HW2 1308   4.177   6.515   6.367
  137SOL     OW 1309   2.032   4.205   0.026
  137SOL    HW1 1310   1.997   4.120   7.013
  137SOL    HW2 1311   2.127   4.218   7.026
  138SOL     OW 1312   0.860   5.868   7.000
  138SOL    HW1 1313   0.791   5.838   0.040
  138SOL    HW2 1314   0.864   5.968   6.999
  139SOL     OW 1315   0.155   0.993   0.910
  139SOL    HW1 1316   0.088   1.022   0.978
  139SOL    HW2 1317   0.150   0.894   0.898
  140SOL     OW 1318   3.930   0.371   1.547
  140SOL    HW1 1319   3.922   0.436   1.622
  140SOL    HW2 1320   3.891   0.283   1.576
  141SOL     OW 1321   1.009   1.233   6.760
  141SOL    HW1 1322   0.947   1.155   6.751
  141SOL    HW2 1323   1.079   1.212   6.827
  142SOL     OW 1324   1.715   3.741   6.939
  142SOL    HW1 1325   1.735   3.643   6.937
  142SOL    HW2 1326   1.642   3.761   6.875
  143SOL     OW 1327   4.906   5.624   1.672
  143SOL    HW1 1328   4.997   5.662   1.655
  143SOL    HW2 1329   4.904   5.581   1.762
  144SOL     OW 1330   3.053   5.414   2.890
  144SOL    HW1 1331   2.998   5.351   2.944
  144SOL    HW2 1332   3.060   5.502   2.938
  145SOL     OW 1333   0.298   5.535   3.500
  145SOL    HW1 1334   0.385   5.543   3.452
  145SOL    HW2 1335   0.269   5.440   3.499
  146SOL     OW 1336   6.830   0.741   5.815
  146SOL    HW1 1337   6.835   0.717   5.718
  146SOL    HW2 1338   6.853   0.661   5.871
  147SOL     OW 1339   5.916   1.119   5.295
  147SOL    HW1 1340   5.855   1.132   5.217
  147SOL    HW2 1341   5.962   1.030   5.286
  148SOL     OW 1342   1.830   6.508   1.214
  148SOL    HW1 1343   1.762   6.580   1.225
  148SOL    HW2 1344   1.789   6.419   1.237
  149SOL     OW 1345   1.623   3.193   4.826
  149SOL    HW1 1346   1.605   3.139   4.744
  149SOL    HW2 1347   1.629   3.290   4.802
  150SOL     OW 1348   4.741   2.499   5.816
  150SOL    HW1 1349   4.690   2.420   5.848
  150SOL    HW2 1350   4.827   2.469   5.774
  151SOL     OW 1351   5.880   2.925   1.062
  151SOL    HW1 1352   5.807   2.895   1.000
  151SOL    HW2 1353   5.958   2.958   1.009
  152SOL     OW 1354   0.366   2.662   0.764
  152SOL    HW1 1355   0.346   2.760   0.765
  152SOL    HW2 1356   0.283   2.610   0.746
  153SOL     OW 1357   1.538   2.177   3.655
  153SOL    HW1 1358   1.627   2.210   3.624
  153SOL    HW2 1359   1.494   2.126   3.581
  154SOL     OW 1360   0.095   1.358   3.827
  154SOL    HW1 1361   0.025   1.392   3.890
  154SOL    HW2 1362   0.077   1.392   3.735
  155SOL     OW 1363   5.460   4.702   3.527
  155SOL    HW1 1364   5.514   4.641   3.585
  155SOL    HW2 1365   5.451   4.663   3.436
  156SOL     OW 1366   4.723   0.782   1.683
  156SOL    HW1 1367   4.818   0.809   1.697
  156SOL    HW2 1368   4.679   0.767   1.771
  157SOL     OW 1369   5.093   0.353   1.226
  157SOL    HW1 1370   5.065   0.447   1.208
  157SOL    HW2 1371   5.050   0.321   1.310
  158SOL     OW 1372   0.882   3.358   4.110
  158SOL    HW1 1373   0.931   3.307   4.039
  158SOL    HW2 1374   0.814   3.417   4.068
  159SOL     OW 1375   6.421   5.366   0.193
  159SOL    HW1 1376   6.405   5.417   0.277
  159SOL    HW2 1377   6.511   5.323   0.196
  160SOL     OW 1378   4.140   0.626   0.910
  160SOL    HW1 1379   4.080   0.627   0.989
  160SOL    HW2 1380   4.208   0.700   0.919
  161SOL     OW 1381   0.088   6.420   0.251
  161SOL    HW1 1382   0.176   6.373   0.247
  161SOL    HW2 1383   0.051   6.430   0.158
  162SOL     OW 1384   4.527   6.916   5.798
  162SOL    HW1 1385   4.475   6.972   5.733
  162SOL    HW2 1386   4.468   6.891   5.875
  163SOL     OW 1387   0.841   3.726   2.638
  163SOL    HW1 1388   0.896   3.709   2.720
  163SOL    HW2 1389   0.757   3.773   2.663
  164SOL     OW 1390   1.766   1.786   2.455
  164SOL    HW1 1391   1.707   1.854   2.498
  164SOL    HW2 1392   1.843   1.832   2.410
  165SOL     OW 1393   0.273   6.605   3.988
  165SOL    HW1 1394   0.194   6.664   4.003
  165SOL    HW2 1395   0.317   6.628   3.901
  166SOL     OW 1396   0.522   4.488   4.087
  166SOL    HW1 1397   0.538   4.421   4.014
  166SOL    HW2 1398   0.590   4.476   4.159
  167SOL     OW 1399   1.138   1.362   3.364
  167SOL    HW1 1400   1.181   1.363   3.455
  167SOL    HW2 1401   1.065   1.429   3.361
  168SOL     OW 1402   3.104   3.533   2.825
  168SOL    HW1 1403   3.039   3.545   2.899
  168SOL    HW2 1404   3.055   3.514   2.740
  169SOL     OW 1405   5.319   2.435   7.014
  169SOL    HW1 1406   5.314   2.363   0.057
  169SOL    HW2 1407   5.412   2.472   7.012
  170SOL     OW 1408   6.871   5.551   1.799
  170SOL    HW1 1409   6.892   5.530   1.704
  170SOL    HW2 1410   6.952   5.588   1.845
  171SOL     OW 1411   2.978   2.573   0.854
  171SOL    HW1 1412   2.972   2.589   0.756
  171SOL    HW2 1413   2.936   2.650   0.903
  172SOL     OW 1414   1.411   1.226   0.104
  172SOL    HW1 1415   1.434   1.129   0.109
  172SOL    HW2 1416   1.378   1.257   0.194
  173SOL     OW 1417   6.039   1.200   4.714
  173SOL    HW1 1418   6.118   1.172   4.768
  173SOL    HW2 1419   6.055   1.289   4.673
  174SOL     OW 1420   6.032   4.404   5.197
  174SOL    HW1 1421   6.111   4.377   5.143
  174SOL    HW2 1422   6.006   4.329   5.257
  175SOL     OW 1423   0.495   6.610   2.781
  175SOL    HW1 1424   0.494   6.702   2.740
  175SOL    HW2 1425   0.483   6.618   2.880
  176SOL     OW 1426   6.855   3.511   0.968
  176SOL    HW1 1427   6.873   3.551   1.058
  176SOL    HW2 1428   6.933   3.527   0.908
  177SOL     OW 1429   6.634   2.336   3.795
  177SOL    HW1 1430   6.677   2.382   3.873
  177SOL    HW2 1431   6.680   2.249   3.778
  178SOL     OW 1432   2.230   5.934   4.925
  178SOL    HW1 1433   2.320   5.964   4.956
  178SOL    HW2 1434   2.224   5.943   4.826
  179SOL     OW 1435   3.738   4.171   1.870
  179SOL    HW1 1436   3.691   4.144   1.955
  179SOL    HW2 1437   3.698   4.256   1.836
  180SOL     OW 1438   4.562   1.742   6.564
  180SOL    HW1 1439   4.531   1.695   6.646
  180SOL    HW2 1440   4.501   1.819   6.544
  181SOL     OW 1441   4.041   0.416   5.337
  181SOL    HW1 1442   3.980   0.444   5.263
  181SOL    HW2 1443   4.009   0.456   5.423
  182SOL     OW 1444   2.937   3.029   5.493
  182SOL    HW1 1445   2.960   3.126   5.504
  182SOL    HW2 1446   2.857   3.021   5.433
  183SOL     OW 1447   2.985   1.283   3.271
  183SOL    HW1 1448   3.058   1.270   3.338
  183SOL    HW2 1449   2.908   1.331   3.315
  184SOL     OW 1450   4.676   5.555   3.558
  184SOL    HW1 1451   4.589   5.517   3.526
  184SOL    HW2 1452   4.731   5.482   3.598
  185SOL     OW 1453   0.085   6.609   4.896
  185SOL    HW1 1454   0.088   6.695   4.947
  185SOL    HW2 1455   0.086   6.532   4.960
  186SOL     OW 1456   2.965   5.917   5.635
  186SOL    HW1 1457   2.899   5.963   5.695
  186SOL    HW2 1458   3.024   5.858   5.690
  187SOL     OW 1459   4.004   5.734   1.346
  187SOL    HW1 1460   3.972   5.828   1.363
  187SOL    HW2 1461   4.096   5.724   1.384
  188SOL     OW 1462   1.515   3.719   3.387
  188SOL    HW1 1463   1.574   3.640   3.370
  188SOL    HW2 1464   1.543   3.794   3.328
  189SOL     OW 1465   5.530   4.461   5.788
  189SOL    HW1 1466   5.438   4.472   5.752
  189SOL    HW2 1467   5.540   4.516   5.872
  190SOL     OW 1468   6.102   6.900   0.885
  190SOL    HW1 1469   6.003   6.893   0.874
  190SOL    HW2 1470   6.144   6.813   0.861
  191SOL     OW 1471   1.631   2.610   5.495
  191SOL    HW1 1472   1.691   2.578   5.422
  191SOL    HW2 1473   1.687   2.643   5.572
  192SOL     OW 1474   0.119   6.640   1.825
  192SOL    HW1 1475   0.117   6.696   1.742
  192SOL    HW2 1476   0.176   6.685   1.894
  193SOL     OW 1477   3.605   0.614   2.048
  193SOL    HW1 1478   3.530   0.561   2.008
  193SOL    HW2 1479   3.571   0.666   2.127
  194SOL     OW 1480   4.315   6.090   2.795
  194SOL    HW1 1481   4.379   6.107   2.870
  194SOL    HW2 1482   4.225   6.127   2.820
  195SOL     OW 1483   3.400   0.576   0.881
  195SOL    HW1 1484   3.337   0.501   0.864
  195SOL    HW2 1485   3.483   0.564   0.827
  196SOL     OW 1486   4.419   2.602   1.181
  196SOL    HW1 1487   4.378   2.607   1.272
  196SOL    HW2 1488   4.395   2.515   1.138
  197SOL     OW 1489   2.136   6.074   0.596
  197SOL    HW1 1490   2.167   6.154   0.648
  197SOL    HW2 1491   2.205   6.002   0.602
  198SOL     OW 1492   4.777   6.859   6.617
  198SOL    HW1 1493   4.805   6.952   6.593
  198SOL    HW2 1494   4.753   6.856   6.714
  199SOL     OW 1495   1.850   0.632   3.023
  199SOL    HW1 1496   1.754   0.627   3.049
  199SOL    HW2 1497   1.901   0.561   3.071
  200SOL     OW 1498   1.250   3.510   4.412
  200SOL    HW1 1499   1.202   3.523   4.326
  200SOL    HW2 1500   1.253   3.413   4.435
  201SOL     OW 1501   4.463   1.673   6.791
  201SOL    HW1 1502   4.366   1.694   6.783
  201SOL    HW2 1503   4.491   1.677   6.887
  202SOL     OW 1504   4.351   0.604   3.042
  202SOL    HW1 1505   4.296   0.665   3.098
  202SOL    HW2 1506   4.391   0.533   3.100
  203SOL     OW 1507   5.749   2.652   0.231
  203SOL    HW1 1508   5.772   2.622   0.323
  203SOL    HW2 1509   5.671   2.601   0.197
  204SOL     OW 1510   1.813   6.166   0.981
  204SOL    HW1 1511   1.779   6.224   1.055
  204SOL    HW2 1512   1.790   6.070   1.002
  205SOL     OW 1513   5.554   0.657   1.390
  205SOL    HW1 1514   5.597   0.576   1.429
  205SOL    HW2 1515   5.457   0.639   1.372
  206SOL     OW 1516   6.663   6.170   1.306
  206SOL    HW1 1517   6.760   6.174   1.284
  206SOL    HW2 1518   6.611   6.140   1.226
  207SOL     OW 1519   6.320   1.875   6.247
  207SOL    HW1 1520   6.292   1.957   6.299
  207SOL    HW2 1521   6.252   1.856   6.177
  208SOL     OW 1522   3.852   4.422   0.144
  208SOL    HW1 1523   3.916   4.358   0.102
  208SOL    HW2 1524   3.834   4.498   0.082
  209SOL     OW 1525   6.907   6.292   3.916
  209SOL    HW1 1526   6.941   6.220   3.976
  209SOL    HW2 1527   6.981   6.353   3.891
  210SOL     OW 1528   4.155   2.130   0.674
  210SOL    HW1 1529   4.093   2.092   0.742
  210SOL    HW2 1530   4.102   2.168   0.598
  211SOL     OW 1531   1.054   3.318   1.612
  211SOL    HW1 1532   0.988   3.383   1.572
  211SOL    HW2 1533   1.091   3.357   1.696
  212SOL     OW 1534   0.999   5.425   4.733
  212SOL    HW1 1535   1.062   5.406   4.658
  212SOL    HW2 1536   1.051   5.437   4.817
  213SOL     OW 1537   3.825   2.393   0.156
  213SOL    HW1 1538   3.770   2.457   0.102
  213SOL    HW2 1539   3.918   2.429   0.166
  214SOL     OW 1540   1.519   6.272   3.346
  214SOL    HW1 1541   1.515   6.192   3.286
  214SOL    HW2 1542   1.609   6.316   3.338
  215SOL     OW 1543   3.237   4.097   2.926
  215SOL    HW1 1544   3.182   4.099   2.843
  215SOL    HW2 1545   3.188   4.046   2.997
  216SOL     OW 1546   2.957   0.275   5.679
  216SOL    HW1 1547   3.017   0.220   5.621
  216SOL    HW2 1548   2.912   0.217   5.746
  217SOL     OW 1549   6.739   2.365   5.094
  217SOL    HW1 1550   6.656   2.343   5.043
  217SOL    HW2 1551   6.718   2.431   5.166
  218SOL     OW 1552   2.771   3.788   5.758
  218SOL    HW1 1553   2.856   3.842   5.762
  218SOL    HW2 1554   2.726   3.791   5.847
  219SOL     OW 1555   3.467   5.132   0.277
  219SOL    HW1 1556   3.538   5.100   0.215
  219SOL    HW2 1557   3.430   5.219   0.243
  220SOL     OW 1558   1.552   4.416   0.123
  220SOL    HW1 1559   1.538   4.322   0.154
  220SOL    HW2 1560   1.481   4.475   0.162
  221SOL     OW 1561   5.741   2.486   4.657
  221SOL    HW1 1562   5.734   2.393   4.692
  221SOL    HW2 1563   5.812   2.536   4.706
  222SOL     OW 1564   2.018   6.528   4.766
  222SOL    HW1 1565   1.958   6.520   4.686
  222SOL    HW2 1566   2.011   6.621   4.802
  223SOL     OW 1567   5.861   4.957   2.486
  223SOL    HW1 1568   5.878   4.984   2.581
  223SOL    HW2 1569   5.948   4.955   2.436
  224SOL     OW 1570   4.070   2.255   2.629
  224SOL    HW1 1571   4.148   2.239   2.689
  224SOL    HW2 1572   3.986   2.258   2.682
  225SOL     OW 1573   5.095   6.657   1.134
  225SOL    HW1 1574   5.174   6.614   1.176
  225SOL    HW2 1575   5.049   6.714   1.202
  226SOL     OW 1576   0.447   5.631   2.678
  226SOL    HW1 1577   0.484   5.713   2.634
  226SOL    HW2 1578   0.510   5.601   2.750
  227SOL     OW 1579   1.263   3.710   3.142
  227SOL    HW1 1580   1.265   3.758   3.054
  227SOL    HW2 1581   1.313   3.765   3.210
  228SOL     OW 1582   3.984   6.479   2.711
  228SOL    HW1 1583   3.984   6.551   2.642
  228SOL    HW2 1584   4.073   6.433   2.711
  229SOL     OW 1585   6.524   5.206   2.870
  229SOL    HW1 1586   6.526   5.147   2.790
  229SOL    HW2 1587   6.521   5.150   2.953
  230SOL     OW 1588   1.025   4.580   6.251
  230SOL    HW1 1589   0.952   4.647   6.262
  230SOL    HW2 1590   1.085   4.582   6.331
  231SOL     OW 1591   0.445   1.943   6.497
  231SOL    HW1 1592   0.370   1.956   6.563
  231SOL    HW2 1593   0.431   2.004   6.419
  232SOL     OW 1594   1.098   3.828   6.093
  232SOL    HW1 1595   1.118   3.731   6.084
  232SOL    HW2 1596   1.053   3.860   6.009
  233SOL     OW 1597   3.214   6.831   6.910
  233SOL    HW1 1598   3.145   6.874   6.969
  233SOL    HW2 1599   3.175   6.752   6.864
  234SOL     OW 1600   2.850   4.591   6.241
  234SOL    HW1 1601   2.853   4.641   6.327
  234SOL    HW2 1602   2.930   4.616   6.186
  235SOL     OW 1603   3.293   3.309   5.746
  235SOL    HW1 1604   3.301   3.344   5.653
  235SOL    HW2 1605   3.227   3.364   5.797
  236SOL     OW 1606   0.476   2.099   6.074
  236SOL    HW1 1607   0.434   2.026   6.020
  236SOL    HW2 1608   0.546   2.145   6.019
  237SOL     OW 1609   6.508   6.635   1.884
  237SOL    HW1 1610   6.483   6.541   1.860
  237SOL    HW2 1611   6.578   6.668   1.822
  238SOL     OW 1612   6.898   1.750   2.550
  238SOL    HW1 1613   6.907   1.668   2.607
  238SOL    HW2 1614   6.880   1.829   2.608
  239SOL     OW 1615   6.520   5.613   0.685
  239SOL    HW1 1616   6.536   5.566   0.772
  239SOL    HW2 1617   6.432   5.660   0.688
  240SOL     OW 1618   0.097   2.602   5.663
  240SOL    HW1 1619   0.100   2.510   5.625
  240SOL    HW2 1620   0.112   2.598   5.762
  241SOL     OW 1621   5.515   2.586   4.834
  241SOL    HW1 1622   5.582   2.649   4.875
  241SOL    HW2 1623   5.548   2.554   4.746
  242SOL     OW 1624   2.751   2.349   4.303
  242SOL    HW1 1625   2.729   2.341   4.401
  242SOL    HW2 1626   2.670   2.377   4.253
  243SOL     OW 1627   4.776   1.266   6.849
  243SOL    HW1 1628   4.679   1.242   6.860
  243SOL    HW2 1629   4.797   1.345   6.906
  244SOL     OW 1630   0.936   1.830   6.342
  244SOL    HW1 1631   1.004   1.838   6.415
  244SOL    HW2 1632   0.857   1.888   6.364
  245SOL     OW 1633   4.998   2.869   3.422
  245SOL    HW1 1634   5.046   2.878   3.508
  245SOL    HW2 1635   5.055   2.821   3.355
  246SOL     OW 1636   4.886   3.064   3.804
  246SOL    HW1 1637   4.906   3.147   3.856
  246SOL    HW2 1638   4.809   3.081   3.743
  247SOL     OW 1639   3.067   0.642   3.179
  247SOL    HW1 1640   3.090   0.550   3.210
  247SOL    HW2 1641   3.145   0.680   3.129
  248SOL     OW 1642   0.132   1.813   2.473
  248SOL    HW1 1643   0.046   1.777   2.509
  248SOL    HW2 1644   0.114   1.898   2.423
  249SOL     OW 1645   2.289   5.371   5.231
  249SOL    HW1 1646   2.315   5.456   5.186
  249SOL    HW2 1647   2.213   5.329   5.182
  250SOL     OW 1648   5.483   2.545   0.425
  250SOL    HW1 1649   5.431   2.536   0.510
  250SOL    HW2 1650   5.576   2.576   0.445
  251SOL     OW 1651   1.952   0.983   0.678
  251SOL    HW1 1652   2.046   0.973   0.645
  251SOL    HW2 1653   1.953   1.011   0.774
  252SOL     OW 1654   0.446   1.986   6.913
  252SOL    HW1 1655   0.422   1.964   7.007
  252SOL    HW2 1656   0.506   2.066   6.912
  253SOL     OW 1657   2.017   4.606   6.512
  253SOL    HW1 1658   2.061   4.646   6.432
  253SOL    HW2 1659   1.920   4.590   6.492
  254SOL     OW 1660   4.617   3.465   6.118
  254SOL    HW1 1661   4.539   3.490   6.061
  254SOL    HW2 1662   4.616   3.522   6.201
  255SOL     OW 1663   4.055   2.136   2.391
  255SOL    HW1 1664   4.051   2.191   2.474
  255SOL    HW2 1665   4.102   2.187   2.319
  256SOL     OW 1666   6.701   5.636   1.430
  256SOL    HW1 1667   6.747   5.668   1.348
  256SOL    HW2 1668   6.603   5.653   1.422
  257SOL     OW 1669   2.709   5.836   6.007
  257SOL    HW1 1670   2.621   5.853   6.051
  257SOL    HW2 1671   2.698   5.770   5.932
  258SOL     OW 1672   4.203   4.804   4.311
  258SOL    HW1 1673   4.125   4.858   4.280
  258SOL    HW2 1674   4.176   4.749   4.390
  259SOL     OW 1675   0.627   2.098   2.798
  259SOL    HW1 1676   0.575   2.143   2.870
  259SOL    HW2 1677   0.705   2.155   2.773
  260SOL     OW 1678   6.874   6.573   5.860
  260SOL    HW1 1679   6.806   6.512   5.821
  260SOL    HW2 1680   6.859   6.580   5.959
  261SOL     OW 1681   0.545   1.180   3.882
  261SOL    HW1 1682   0.498   1.186   3.970
  261SOL    HW2 1683   0.542   1.269   3.837
  262SOL     OW 1684   0.831   4.934   1.736
  262SOL    HW1 1685   0.760   4.872   1.704
  262SOL    HW2 1686   0.810   4.963   1.830
  263SOL     OW 1687   0.552   4.115   4.417
  263SOL    HW1 1688   0.634   4.061   4.439
  263SOL    HW2 1689   0.481   4.054   4.383
  264SOL     OW 1690   2.933   4.106   0.194
  264SOL    HW1 1691   2.974   4.017   0.177
  264SOL    HW2 1692   2.981   4.176   0.141
  265SOL     OW 1693   4.125   5.444   3.455
  265SOL    HW1 1694   4.096   5.538   3.440
  265SOL    HW2 1695   4.073   5.383   3.395
  266SOL     OW 1696   4.255   3.698   0.099
  266SOL    HW1 1697   4.318   3.744   0.036
  266SOL    HW2 1698   4.284   3.603   0.112
  267SOL     OW 1699   2.017   2.450   5.923
  267SOL    HW1 1700   1.926   2.450   5.883
  267SOL    HW2 1701   2.073   2.521   5.879
  268SOL     OW 1702   2.493   4.485   3.395
  268SOL    HW1 1703   2.400   4.450   3.402
  268SOL    HW2 1704   2.512   4.543   3.475
  269SOL     OW 1705   2.226   2.122   5.309
  269SOL    HW1 1706   2.198   2.192   5.243
  269SOL    HW2 1707   2.153   2.109   5.376
  270SOL     OW 1708   5.074   6.246   4.781
  270SOL    HW1 1709   5.051   6.231   4.877
  270SOL    HW2 1710   5.001   6.209   4.723
  271SOL     OW 1711   2.212   1.720   0.455
  271SOL    HW1 1712   2.180   1.757   0.368
  271SOL    HW2 1713   2.134   1.679   0.503
  272SOL     OW 1714   4.645   5.165   0.193
  272SOL    HW1 1715   4.687   5.088   0.145
  272SOL    HW2 1716   4.589   5.131   0.269
  273SOL     OW 1717   1.855   6.108   4.231
  273SOL    HW1 1718   1.840   6.169   4.153
  273SOL    HW2 1719   1.795   6.135   4.306
  274SOL     OW 1720   5.811   2.177   1.522
  274SOL    HW1 1721   5.892   2.153   1.470
  274SOL    HW2 1722   5.806   2.121   1.605
  275SOL     OW 1723   5.524   5.779   5.885
  275SOL    HW1 1724   5.559   5.685   5.889
  275SOL    HW2 1725   5.587   5.841   5.932
  276SOL     OW 1726   0.378   0.253   4.205
  276SOL    HW1 1727   0.331   0.176   4.163
  276SOL    HW2 1728   0.313   0.329   4.217
  277SOL     OW 1729   4.147   2.715   5.366
  277SOL    HW1 1730   4.160   2.643   5.298
  277SOL    HW2 1731   4.070   2.693   5.425
  278SOL     OW 1732   5.765   4.050   3.209
  278SOL    HW1 1733   5.732   3.959   3.182
  278SOL    HW2 1734   5.728   4.118   3.145
  279SOL     OW 1735   0.221   3.764   3.664
  279SOL    HW1 1736   0.312   3.744   3.627
  279SOL    HW2 1737   0.159   3.789   3.590
  280SOL     OW 1738   4.135   1.868   3.609
  280SOL    HW1 1739   4.135   1.900   3.704
  280SOL    HW2 1740   4.110   1.771   3.607
  281SOL     OW 1741   4.746   6.053   5.403
  281SOL    HW1 1742   4.669   6.085   5.348
  281SOL    HW2 1743   4.717   5.973   5.457
  282SOL     OW 1744   0.815   2.501   0.449
  282SOL    HW1 1745   0.875   2.548   0.513
  282SOL    HW2 1746   0.869   2.439   0.392
  283SOL     OW 1747   6.287   3.873   3.622
  283SOL    HW1 1748   6.224   3.933   3.671
  283SOL    HW2 1749   6.259   3.866   3.526
  284SOL     OW 1750   5.320   6.885   2.502
  284SOL    HW1 1751   5.254   6.809   2.504
  284SOL    HW2 1752   5.273   6.971   2.520
  285SOL     OW 1753   4.065   6.467   6.043
  285SOL    HW1 1754   4.074   6.506   6.134
  285SOL    HW2 1755   3.992   6.514   5.993
  286SOL     OW 1756   3.143   4.849   5.621
  286SOL    HW1 1757   3.233   4.890   5.639
  286SOL    HW2 1758   3.146   4.752   5.645
  287SOL     OW 1759   3.397   5.416   0.192
  287SOL    HW1 1760   3.374   5.510   0.217
  287SOL    HW2 1761   3.496   5.406   0.188
  288SOL     OW 1762   4.320   1.370   0.248
  288SOL    HW1 1763   4.385   1.312   0.199
  288SOL    HW2 1764   4.340   1.366   0.346
  289SOL     OW 1765   5.499   4.874   5.059
  289SOL    HW1 1766   5.495   4.851   5.156
  289SOL    HW2 1767   5.485   4.791   5.004
  290SOL     OW 1768   3.818   0.380   5.743
  290SOL    HW1 1769   3.890   0.419   5.685
  290SOL    HW2 1770   3.771   0.453   5.791
  291SOL     OW 1771   5.190   0.930   5.249
  291SOL    HW1 1772   5.259   0.961   5.314
  291SOL    HW2 1773   5.217   0.841   5.211
  292SOL     OW 1774   3.433   0.153   3.990
  292SOL    HW1 1775   3.403   0.188   4.078
  292SOL    HW2 1776   3.522   0.194   3.967
  293SOL     OW 1777   5.196   0.420   2.708
  293SOL    HW1 1778   5.150   0.340   2.746
  293SOL    HW2 1779   5.170   0.501   2.761
  294SOL     OW 1780   6.900   1.647   6.402
  294SOL    HW1 1781   6.853   1.681   6.483
  294SOL    HW2 1782   6.893   1.547   6.399
  295SOL     OW 1783   0.506   0.752   4.923
  295SOL    HW1 1784   0.460   0.683   4.978
  295SOL    HW2 1785   0.529   0.714   4.833
  296SOL     OW 1786   0.867   1.676   1.550
  296SOL    HW1 1787   0.943   1.629   1.505
  296SOL    HW2 1788   0.781   1.629   1.530
  297SOL     OW 1789   5.202   3.224   3.172
  297SOL    HW1 1790   5.243   3.202   3.084
  297SOL    HW2 1791   5.270   3.214   3.244
  298SOL     OW 1792   3.940   0.926   5.754
  298SOL    HW1 1793   4.007   0.854   5.738
  298SOL    HW2 1794   3.938   0.988   5.675
  299SOL     OW 1795   0.643   1.144   6.128
  299SOL    HW1 1796   0.728   1.153   6.180
  299SOL    HW2 1797   0.621   1.048   6.117
  300SOL     OW 1798   4.513   6.430   3.400
  300SOL    HW1 1799   4.531   6.469   3.490
  300SOL    HW2 1800   4.470   6.340   3.410
  301SOL     OW 1801   0.128   5.967   5.692
  301SOL    HW1 1802   0.029   5.974   5.676
  301SOL    HW2 1803   0.160   6.048   5.739
  302SOL     OW 1804   0.007   6.619   2.476
  302SOL    HW1 1805   0.062   6.599   2.557
  302SOL    HW2 1806   0.034   6.707   2.438
  303SOL     OW 1807   5.575   5.825   2.484
  303SOL    HW1 1808   5.521   5.752   2.443
  303SOL    HW2 1809   5.516   5.880   2.543
  304SOL     OW 1810   2.142   0.252   4.605
  304SOL    HW1 1811   2.052   0.293   4.594
  304SOL    HW2 1812   2.141   0.188   4.682
  305SOL     OW 1813   1.048   2.107   1.323
  305SOL    HW1 1814   1.137   2.142   1.292
  305SOL    HW2 1815   0.976   2.173   1.301
  306SOL     OW 1816   0.318   0.171   2.610
  306SOL    HW1 1817   0.414   0.146   2.621
  306SOL    HW2 1818   0.299   0.253   2.664
  307SOL     OW 1819   3.841   3.492   3.624
  307SOL    HW1 1820   3.759   3.515   3.573
  307SOL    HW2 1821   3.826   3.407   3.675
  308SOL     OW 1822   6.558   1.667   2.218
  308SOL    HW1 1823   6.584   1.616   2.136
  308SOL    HW2 1824   6.458   1.672   2.225
  309SOL     OW 1825   1.814   4.839   0.148
  309SOL    HW1 1826   1.880   4.814   0.218
  309SOL    HW2 1827   1.763   4.757   0.120
  310SOL     OW 1828   5.241   6.640   4.939
  310SOL    HW1 1829   5.174   6.625   4.867
  310SOL    HW2 1830   5.324   6.587   4.919
  311SOL     OW 1831   1.287   6.365   1.580
  311SOL    HW1 1832   1.358   6.324   1.522
  311SOL    HW2 1833   1.260   6.454   1.542
  312SOL     OW 1834   3.495   0.671   4.330
  312SOL    HW1 1835   3.456   0.672   4.422
  312SOL    HW2 1836   3.425   0.643   4.264
  313SOL     OW 1837   3.083   3.010   2.610
  313SOL    HW1 1838   3.086   3.014   2.510
  313SOL    HW2 1839   3.097   2.916   2.641
  314SOL     OW 1840   2.920   5.672   6.512
  314SOL    HW1 1841   2.984   5.738   6.554
  314SOL    HW2 1842   2.955   5.645   6.422
  315SOL     OW 1843   5.876   0.591   4.307
  315SOL    HW1 1844   5.939   0.630   4.374
  315SOL    HW2 1845   5.890   0.492   4.302
  316SOL     OW 1846   3.410   1.009   6.040
  316SOL    HW1 1847   3.478   1.081   6.051
  316SOL    HW2 1848   3.389   0.969   6.130
  317SOL     OW 1849   0.543   2.296   1.211
  317SOL    HW1 1850   0.452   2.336   1.221
  317SOL    HW2 1851   0.538   2.198   1.227
  318SOL     OW 1852   0.907   0.290   3.520
  318SOL    HW1 1853   0.898   0.389   3.519
  318SOL    HW2 1854   0.957   0.260   3.439
  319SOL     OW 1855   0.319   0.608   3.190
  319SOL    HW1 1856   0.228   0.568   3.193
  319SOL    HW2 1857   0.387   0.539   3.216
  320SOL     OW 1858   4.934   1.479   0.352
  320SOL    HW1 1859   4.941   1.380   0.369
  320SOL    HW2 1860   5.006   1.506   0.288
  321SOL     OW 1861   4.556   2.866   0.888
  321SOL    HW1 1862   4.478   2.879   0.948
  321SOL    HW2 1863   4.630   2.821   0.939
  322SOL     OW 1864   3.527   2.751   6.735
  322SOL    HW1 1865   3.582   2.736   6.817
  322SOL    HW2 1866   3.585   2.749   6.654
  323SOL     OW 1867   1.532   3.428   2.476
  323SOL    HW1 1868   1.624   3.456   2.500
  323SOL    HW2 1869   1.496   3.366   2.546
  324SOL     OW 1870   0.197   0.329   3.523
  324SOL    HW1 1871   0.264   0.398   3.548
  324SOL    HW2 1872   0.217   0.244   3.571
  325SOL     OW 1873   6.542   3.591   1.013
  325SOL    HW1 1874   6.608   3.620   1.082
  325SOL    HW2 1875   6.558   3.496   0.989
  326SOL     OW 1876   0.081   5.796   6.918
  326SOL    HW1 1877   7.026   5.805   6.862
  326SOL    HW2 1878   0.056   5.800   7.015
  327SOL     OW 1879   3.991   6.324   6.509
  327SOL    HW1 1880   4.066   6.374   6.465
  327SOL    HW2 1881   3.910   6.382   6.513
  328SOL     OW 1882   1.093   5.091   3.678
  328SOL    HW1 1883   1.183   5.061   3.708
  328SOL    HW2 1884   1.023   5.037   3.724
  329SOL     OW 1885   3.448   3.214   1.878
  329SOL    HW1 1886   3.381   3.288   1.871
  329SOL    HW2 1887   3.502   3.210   1.794
  330SOL     OW 1888   2.492   3.114   0.083
  330SOL    HW1 1889   2.564   3.045   0.093
  330SOL    HW2 1890   2.533   3.199   0.051
  331SOL     OW 1891   5.237   4.964   4.960
  331SOL    HW1 1892   5.265   4.919   4.875
  331SOL    HW2 1893   5.291   5.047   4.972
  332SOL     OW 1894   6.121   2.420   2.992
  332SOL    HW1 1895   6.085   2.345   3.048
  332SOL    HW2 1896   6.149   2.496   3.050
  333SOL     OW 1897   3.675   6.729   4.080
  333SOL    HW1 1898   3.585   6.772   4.091
  333SOL    HW2 1899   3.688   6.662   4.154
  334SOL     OW 1900   3.223   3.502   3.944
  334SOL    HW1 1901   3.146   3.543   3.992
  334SOL    HW2 1902   3.218   3.402   3.953
  335SOL     OW 1903   3.235   0.748   1.340
  335SOL    HW1 1904   3.202   0.834   1.300
  335SOL    HW2 1905   3.158   0.686   1.355
  336SOL     OW 1906   4.410   2.074   4.909
  336SOL    HW1 1907   4.476   2.001   4.930
  336SOL    HW2 1908   4.322   2.033   4.885
  337SOL     OW 1909   0.119   0.940   5.306
  337SOL    HW1 1910   0.036   0.896   5.272
  337SOL    HW2 1911   0.116   0.943   5.406
  338SOL     OW 1912   4.513   1.418   1.387
  338SOL    HW1 1913   4.578   1.479   1.340
  338SOL    HW2 1914   4.470   1.467   1.462
  339SOL     OW 1915   4.514   5.099   5.769
  339SOL    HW1 1916   4.539   5.179   5.824
  339SOL    HW2 1917   4.463   5.034   5.825
  340SOL     OW 1918   5.141   3.331   5.050
  340SOL    HW1 1919   5.160   3.236   5.023
  340SOL    HW2 1920   5.060   3.364   5.001
  341SOL     OW 1921   0.124   0.039   2.222
  341SOL    HW1 1922   0.219   0.011   2.207
  341SOL    HW2 1923   0.077   6.995   2.274
  342SOL     OW 1924   4.608   1.502   2.495
  342SOL    HW1 1925   4.538   1.437   2.468
  342SOL    HW2 1926   4.580   1.595   2.470
  343SOL     OW 1927   5.403   0.415   0.951
  343SOL    HW1 1928   5.482   0.462   0.912
  343SOL    HW2 1929   5.323   0.474   0.943
  344SOL     OW 1930   6.954   3.550   1.672
  344SOL    HW1 1931   7.014   3.470   1.673
  344SOL    HW2 1932   6.977   3.610   1.749
  345SOL     OW 1933   6.748   2.483   4.026
  345SOL    HW1 1934   6.767   2.580   4.040
  345SOL    HW2 1935   6.673   2.455   4.085
  346SOL     OW 1936   2.023   5.993   3.102
  346SOL    HW1 1937   1.945   6.013   3.042
  346SOL    HW2 1938   2.090   5.938   3.052
  347SOL     OW 1939   2.541   4.574   1.232
  347SOL    HW1 1940   2.481   4.611   1.161
  347SOL    HW2 1941   2.586   4.650   1.280
  348SOL     OW 1942   4.875   4.768   1.862
  348SOL    HW1 1943   4.954   4.808   1.817
  348SOL    HW2 1944   4.881   4.668   1.857
  349SOL     OW 1945   5.448   4.496   0.686
  349SOL    HW1 1946   5.516   4.491   0.613
  349SOL    HW2 1947   5.485   4.455   0.769
  350SOL     OW 1948   2.372   1.625   0.169
  350SOL    HW1 1949   2.295   1.683   0.143
  350SOL    HW2 1950   2.416   1.589   0.087
  351SOL     OW 1951   3.281   3.981   0.915
  351SOL    HW1 1952   3.255   4.041   0.990
  351SOL    HW2 1953   3.198   3.953   0.866
  352SOL     OW 1954   4.376   6.860   2.252
  352SOL    HW1 1955   4.381   6.775   2.304
  352SOL    HW2 1956   4.435   6.929   2.294
  353SOL     OW 1957   2.219   6.763   0.705
  353SOL    HW1 1958   2.151   6.814   0.654
  353SOL    HW2 1959   2.198   6.665   0.701
  354SOL     OW 1960   1.207   2.446   0.358
  354SOL    HW1 1961   1.297   2.488   0.354
  354SOL    HW2 1962   1.171   2.434   0.265
  355SOL     OW 1963   0.540   3.052   3.686
  355SOL    HW1 1964   0.569   3.148   3.689
  355SOL    HW2 1965   0.620   2.993   3.695
  356SOL     OW 1966   2.813   0.363   5.381
  356SOL    HW1 1967   2.891   0.424   5.395
  356SOL    HW2 1968   2.788   0.320   5.468
  357SOL     OW 1969   5.857   6.254   4.361
  357SOL    HW1 1970   5.808   6.311   4.427
  357SOL    HW2 1971   5.954   6.254   4.383
  358SOL     OW 1972   3.302   5.586   6.516
  358SOL    HW1 1973   3.237   5.561   6.444
  358SOL    HW2 1974   3.251   5.613   6.598
  359SOL     OW 1975   1.484   2.006   2.035
  359SOL    HW1 1976   1.437   1.969   2.114
  359SOL    HW2 1977   1.445   2.095   2.011
  360SOL     OW 1978   2.143   4.001   3.673
  360SOL    HW1 1979   2.167   3.918   3.724
  360SOL    HW2 1980   2.181   3.996   3.581
  361SOL     OW 1981   0.091   2.023   1.920
  361SOL    HW1 1982   0.025   2.067   1.981
  361SOL    HW2 1983   0.155   2.092   1.885
  362SOL     OW 1984   3.968   3.948   2.410
  362SOL    HW1 1985   4.020   4.021   2.455
  362SOL    HW2 1986   3.897   3.915   2.472
  363SOL     OW 1987   4.710   5.251   1.079
  363SOL    HW1 1988   4.664   5.248   1.168
  363SOL    HW2 1989   4.671   5.324   1.024
  364SOL     OW 1990   0.838   0.831   0.489
  364SOL    HW1 1991   0.934   0.841   0.515
  364SOL    HW2 1992   0.829   0.837   0.390
  365SOL     OW 1993   5.726   0.635   4.060
  365SOL    HW1 1994   5.759   0.646   4.154
  365SOL    HW2 1995   5.627   0.650   4.058
  366SOL     OW 1996   5.143   1.776   0.054
  366SOL    HW1 1997   5.166   1.873   0.063
  366SOL    HW2 1998   5.171   1.743   6.991
  367SOL     OW 1999   5.409   0.852   6.676
  367SOL    HW1 2000   5.416   0.754   6.656
  367SOL    HW2 2001   5.411   0.904   6.591
  368SOL     OW 2002   1.720   2.093   5.538
  368SOL    HW1 2003   1.765   2.060   5.455
  368SOL    HW2 2004   1.719   2.020   5.607
  369SOL     OW 2005   5.800   4.674   0.316
  369SOL    HW1 2006   5.822   4.592   0.263
  369SOL    HW2 2007   5.877   4.738   0.311
  370SOL     OW 2008   2.327   2.747   3.204
  370SOL    HW1 2009   2.286   2.775   3.291
  370SOL    HW2 2010   2.418   2.787   3.196
  371SOL     OW 2011   1.801   5.929   0.025
  371SOL    HW1 2012   1.842   5.996   0.087
  371SOL    HW2 2013   1.871   5.867   7.017
  372SOL     OW 2014   2.208   5.548   5.842
  372SOL    HW1 2015   2.304   5.565   5.863
  372SOL    HW2 2016   2.184   5.454   5.869
  373SOL     OW 2017   6.272   4.649   2.874
  373SOL    HW1 2018   6.220   4.727   2.909
  373SOL    HW2 2019   6.293   4.586   2.948
  374SOL     OW 2020   3.107   1.615   2.278
  374SOL    HW1 2021   3.113   1.551   2.355
  374SOL    HW2 2022   3.160   1.697   2.299
  375SOL     OW 2023   1.114   5.990   4.124
  375SOL    HW1 2024   1.074   5.906   4.088
  375SOL    HW2 2025   1.077   6.069   4.075
  376SOL     OW 2026   4.076   0.490   3.225
  376SOL    HW1 2027   4.006   0.420   3.233
  376SOL    HW2 2028   4.033   0.581   3.232
  377SOL     OW 2029   2.750   2.190   6.563
  377SOL    HW1 2030   2.775   2.094   6.574
  377SOL    HW2 2031   2.729   2.209   6.468
  378SOL     OW 2032   4.012   1.244   1.966
  378SOL    HW1 2033   4.000   1.340   1.993
  378SOL    HW2 2034   4.001   1.236   1.867
  379SOL     OW 2035   4.199   2.545   6.332
  379SOL    HW1 2036   4.292   2.581   6.343
  379SOL    HW2 2037   4.133   2.618   6.352
  380SOL     OW 2038   4.405   2.189   0.668
  380SOL    HW1 2039   4.460   2.107   0.683
  380SOL    HW2 2040   4.309   2.169   0.685
  381SOL     OW 2041   2.058   4.030   3.009
  381SOL    HW1 2042   1.986   4.092   2.979
  381SOL    HW2 2043   2.021   3.937   3.019
  382SOL     OW 2044   5.649   6.813   7.021
  382SOL    HW1 2045   5.615   6.803   0.088
  382SOL    HW2 2046   5.710   6.892   7.016
  383SOL     OW 2047   4.172   2.962   0.741
  383SOL    HW1 2048   4.150   2.921   0.829
  383SOL    HW2 2049   4.218   2.894   0.683
  384SOL     OW 2050   0.207   3.891   5.001
  384SOL    HW1 2051   0.260   3.910   4.918
  384SOL    HW2 2052   0.123   3.843   4.977
  385SOL     OW 2053   4.505   2.677   0.619
  385SOL    HW1 2054   4.537   2.732   0.696
  385SOL    HW2 2055   4.567   2.688   0.542
  386SOL     OW 2056   4.235   6.397   4.993
  386SOL    HW1 2057   4.176   6.439   5.061
  386SOL    HW2 2058   4.318   6.451   4.982
  387SOL     OW 2059   2.715   5.975   4.274
  387SOL    HW1 2060   2.739   6.053   4.332
  387SOL    HW2 2061   2.791   5.911   4.271
  388SOL     OW 2062   1.574   5.468   5.839
  388SOL    HW1 2063   1.653   5.482   5.899
  388SOL    HW2 2064   1.559   5.370   5.825
  389SOL     OW 2065   2.723   2.788   1.547
  389SOL    HW1 2066   2.697   2.873   1.500
  389SOL    HW2 2067   2.659   2.770   1.621
  390SOL     OW 2068   2.478   1.160   4.696
  390SOL    HW1 2069   2.436   1.174   4.606
  390SOL    HW2 2070   2.513   1.066   4.701
  391SOL     OW 2071   1.522   2.263   6.969
  391SOL    HW1 2072   1.525   2.171   7.008
  391SOL    HW2 2073   1.440   2.273   6.912
  392SOL     OW 2074   3.687   6.046   4.342
  392SOL    HW1 2075   3.670   5.997   4.427
  392SOL    HW2 2076   3.770   6.010   4.299
  393SOL     OW 2077   5.941   3.915   5.589
  393SOL    HW1 2078   5.851   3.890   5.555
  393SOL    HW2 2079   5.957   3.870   5.677
  394SOL     OW 2080   2.099   0.851   6.397
  394SOL    HW1 2081   2.124   0.757   6.421
  394SOL    HW2 2082   2.159   0.884   6.324
  395SOL     OW 2083   6.834   3.245   0.959
  395SOL    HW1 2084   6.781   3.201   0.886
  395SOL    HW2 2085   6.847   3.342   0.935
  396SOL     OW 2086   3.541   3.205   5.174
  396SOL    HW1 2087   3.453   3.249   5.154
  396SOL    HW2 2088   3.531   3.147   5.255
  397SOL     OW 2089   3.864   1.373   6.695
  397SOL    HW1 2090   3.883   1.391   6.599
  397SOL    HW2 2091   3.768   1.350   6.707
  398SOL     OW 2092   1.094   4.629   2.636
  398SOL    HW1 2093   1.046   4.686   2.569
  398SOL    HW2 2094   1.030   4.600   2.707
  399SOL     OW 2095   5.067   4.697   2.307
  399SOL    HW1 2096   5.067   4.626   2.237
  399SOL    HW2 2097   4.974   4.710   2.342
  400SOL     OW 2098   2.618   5.090   4.536
  400SOL    HW1 2099   2.663   5.001   4.543
  400SOL    HW2 2100   2.524   5.077   4.506
  401SOL     OW 2101   5.672   1.197   0.460
  401SOL    HW1 2102   5.710   1.219   0.550
  401SOL    HW2 2103   5.576   1.227   0.456
  402SOL     OW 2104   6.669   4.600   0.866
  402SOL    HW1 2105   6.621   4.521   0.903
  402SOL    HW2 2106   6.616   4.638   0.790
  403SOL     OW 2107   5.191   4.381   0.563
  403SOL    HW1 2108   5.107   4.332   0.590
  403SOL    HW2 2109   5.220   4.440   0.638
  404SOL     OW 2110   0.603   6.551   4.528
  404SOL    HW1 2111   0.683   6.611   4.525
  404SOL    HW2 2112   0.622   6.467   4.477
  405SOL     OW 2113   0.836   2.806   1.280
  405SOL    HW1 2114   0.820   2.708   1.293
  405SOL    HW2 2115   0.933   2.826   1.290
  406SOL     OW 2116   0.894   2.259   3.292
  406SOL    HW1 2117   0.882   2.192   3.219
  406SOL    HW2 2118   0.983   2.303   3.283
  407SOL     OW 2119   2.984   1.906   3.572
  407SOL    HW1 2120   2.980   1.971   3.648
  407SOL    HW2 2121   2.894   1.866   3.557
  408SOL     OW 2122   2.062   0.544   3.320
  408SOL    HW1 2123   2.100   0.502   3.402
  408SOL    HW2 2124   2.042   0.641   3.339
  409SOL     OW 2125   6.405   3.151   4.273
  409SOL    HW1 2126   6.445   3.168   4.184
  409SOL    HW2 2127   6.469   3.098   4.329
  410SOL     OW 2128   2.963   6.877   6.550
  410SOL    HW1 2129   3.048   6.927   6.568
  410SOL    HW2 2130   2.935   6.892   6.455
  411SOL     OW 2131   0.380   3.271   4.685
  411SOL    HW1 2132   0.470   3.227   4.686
  411SOL    HW2 2133   0.313   3.210   4.727
  412SOL     OW 2134   4.447   0.309   2.456
  412SOL    HW1 2135   4.477   0.391   2.408
  412SOL    HW2 2136   4.452   0.323   2.554
  413SOL     OW 2137   2.474   0.389   2.472
  413SOL    HW1 2138   2.469   0.488   2.458
  413SOL    HW2 2139   2.569   0.364   2.494
  414SOL     OW 2140   5.026   4.002   0.545
  414SOL    HW1 2141   4.960   3.942   0.500
  414SOL    HW2 2142   5.119   3.969   0.527
  415SOL     OW 2143   3.863   6.590   2.168
  415SOL    HW1 2144   3.889   6.545   2.254
  415SOL    HW2 2145   3.836   6.684   2.187
  416SOL     OW 2146   3.663   5.669   6.619
  416SOL    HW1 2147   3.700   5.758   6.646
  416SOL    HW2 2148   3.603   5.680   6.540
  417SOL     OW 2149   5.201   4.773   1.160
  417SOL    HW1 2150   5.153   4.727   1.235
  417SOL    HW2 2151   5.283   4.818   1.196
  418SOL     OW 2152   6.648   5.170   0.308
  418SOL    HW1 2153   6.615   5.213   0.391
  418SOL    HW2 2154   6.665   5.073   0.325
  419SOL     OW 2155   5.538   6.106   1.142
  419SOL    HW1 2156   5.532   6.178   1.211
  419SOL    HW2 2157   5.455   6.051   1.143
  420SOL     OW 2158   4.820   4.602   0.084
  420SOL    HW1 2159   4.812   4.659   0.166
  420SOL    HW2 2160   4.784   4.652   0.005
  421SOL     OW 2161   1.139   6.607   6.446
  421SOL    HW1 2162   1.066   6.581   6.382
  421SOL    HW2 2163   1.110   6.587   6.539
  422SOL     OW 2164   5.443   4.377   6.512
  422SOL    HW1 2165   5.418   4.436   6.590
  422SOL    HW2 2166   5.374   4.387   6.440
  423SOL     OW 2167   1.076   3.402   5.741
  423SOL    HW1 2168   1.003   3.428   5.803
  423SOL    HW2 2169   1.128   3.483   5.713
  424SOL     OW 2170   1.574   3.811   0.142
  424SOL    HW1 2171   1.616   3.868   0.212
  424SOL    HW2 2172   1.643   3.783   0.075
  425SOL     OW 2173   2.922   6.736   0.418
  425SOL    HW1 2174   2.909   6.653   0.363
  425SOL    HW2 2175   2.847   6.745   0.483
  426SOL     OW 2176   6.209   4.264   5.783
  426SOL    HW1 2177   6.168   4.258   5.691
  426SOL    HW2 2178   6.307   4.245   5.777
  427SOL     OW 2179   4.864   3.190   0.513
  427SOL    HW1 2180   4.953   3.222   0.546
  427SOL    HW2 2181   4.825   3.126   0.580
  428SOL     OW 2182   3.586   1.676   5.654
  428SOL    HW1 2183   3.600   1.774   5.643
  428SOL    HW2 2184   3.602   1.650   5.749
  429SOL     OW 2185   2.915   5.515   0.009
  429SOL    HW1 2186   2.869   5.577   6.971
  429SOL    HW2 2187   2.962   5.443   6.985
  430SOL     OW 2188   2.451   6.951   4.955
  430SOL    HW1 2189   2.394   6.960   5.037
  430SOL    HW2 2190   2.414   7.009   4.883
  431SOL     OW 2191   3.112   1.606   6.457
  431SOL    HW1 2192   3.086   1.667   6.532
  431SOL    HW2 2193   3.118   1.512   6.491
  432SOL     OW 2194   0.338   1.548   1.162
  432SOL    HW1 2195   0.313   1.469   1.218
  432SOL    HW2 2196   0.424   1.587   1.196
  433SOL     OW 2197   2.925   6.133   4.643
  433SOL    HW1 2198   2.948   6.227   4.667
  433SOL    HW2 2199   3.008   6.079   4.633
  434SOL     OW 2200   6.264   3.632   1.280
  434SOL    HW1 2201   6.173   3.625   1.320
  434SOL    HW2 2202   6.321   3.689   1.339
  435SOL     OW 2203   3.884   3.264   1.040
  435SOL    HW1 2204   3.973   3.228   1.013
  435SOL    HW2 2205   3.854   3.219   1.124
  436SOL     OW 2206   2.807   0.117   0.539
  436SOL    HW1 2207   2.828   0.213   0.519
  436SOL    HW2 2208   2.889   0.071   0.573
  437SOL     OW 2209   6.662   6.982   5.731
  437SOL    HW1 2210   6.745   7.010   5.685
  437SOL    HW2 2211   6.604   6.930   5.668
  438SOL     OW 2212   2.044   3.122   1.722
  438SOL    HW1 2213   2.053   3.171   1.809
  438SOL    HW2 2214   1.957   3.147   1.679
  439SOL     OW 2215   6.147   4.502   2.218
  439SOL    HW1 2216   6.197   4.529   2.300
  439SOL    HW2 2217   6.209   4.452   2.157
  440SOL     OW 2218   1.401   3.202   3.078
  440SOL    HW1 2219   1.403   3.286   3.023
  440SOL    HW2 2220   1.316   3.153   3.061
  441SOL     OW 2221   1.210   1.326   3.116
  441SOL    HW1 2222   1.212   1.236   3.074
  441SOL    HW2 2223   1.170   1.319   3.208
  442SOL     OW 2224   6.966   4.571   0.104
  442SOL    HW1 2225   6.908   4.519   0.041
  442SOL    HW2 2226   7.009   4.647   0.056
  443SOL     OW 2227   1.009   4.509   5.363
  443SOL    HW1 2228   0.923   4.535   5.320
  443SOL    HW2 2229   1.074   4.481   5.292
  444SOL     OW 2230   4.697   2.859   6.532
  444SOL    HW1 2231   4.662   2.951   6.513
  444SOL    HW2 2232   4.720   2.852   6.629
  445SOL     OW 2233   1.890   4.667   3.177
  445SOL    HW1 2234   1.938   4.719   3.247
  445SOL    HW2 2235   1.868   4.726   3.100
  446SOL     OW 2236   4.086   5.379   4.146
  446SOL    HW1 2237   4.006   5.372   4.086
  446SOL    HW2 2238   4.149   5.447   4.111
  447SOL     OW 2239   0.542   6.037   0.201
  447SOL    HW1 2240   0.521   6.005   0.293
  447SOL    HW2 2241   0.520   5.964   0.135
  448SOL     OW 2242   4.273   0.825   6.046
  448SOL    HW1 2243   4.177   0.844   6.026
  448SOL    HW2 2244   4.302   0.879   6.125
  449SOL     OW 2245   5.884   6.539   4.292
  449SOL    HW1 2246   5.844   6.623   4.330
  449SOL    HW2 2247   5.848   6.461   4.343
  450SOL     OW 2248   6.970   5.582   3.543
  450SOL    HW1 2249   7.011   5.633   3.467
  450SOL    HW2 2250   6.899   5.521   3.507
  451SOL     OW 2251   5.983   2.497   3.629
  451SOL    HW1 2252   6.042   2.510   3.709
  451SOL    HW2 2253   6.036   2.517   3.546
  452SOL     OW 2254   6.779   4.874   6.319
  452SOL    HW1 2255   6.783   4.965   6.360
  452SOL    HW2 2256   6.705   4.871   6.252
  453SOL     OW 2257   3.050   0.535   5.665
  453SOL    HW1 2258   3.063   0.546   5.567
  453SOL    HW2 2259   3.009   0.446   5.683
  454SOL     OW 2260   1.080   6.214   0.231
  454SOL    HW1 2261   1.029   6.128   0.232
  454SOL    HW2 2262   1.175   6.197   0.255
  455SOL     OW 2263   4.750   0.860   5.091
  455SOL    HW1 2264   4.813   0.802   5.143
  455SOL    HW2 2265   4.764   0.846   4.993
  456SOL     OW 2266   4.606   5.610   0.047
  456SOL    HW1 2267   4.508   5.614   0.063
  456SOL    HW2 2268   4.651   5.686   0.094
  457SOL     OW 2269   0.393   4.986   1.740
  457SOL    HW1 2270   0.335   5.029   1.670
  457SOL    HW2 2271   0.474   4.946   1.696
  458SOL     OW 2272   6.812   6.609   6.137
  458SOL    HW1 2273   6.766   6.586   6.222
  458SOL    HW2 2274   6.766   6.687   6.094
  459SOL     OW 2275   1.818   0.676   3.569
  459SOL    HW1 2276   1.869   0.726   3.499
  459SOL    HW2 2277   1.720   0.684   3.552
  460SOL     OW 2278   6.931   1.540   3.925
  460SOL    HW1 2279   6.887   1.627   3.903
  460SOL    HW2 2280   6.891   1.467   3.870
  461SOL     OW 2281   5.285   5.956   5.659
  461SOL    HW1 2282   5.279   5.999   5.569
  461SOL    HW2 2283   5.366   5.991   5.707
  462SOL     OW 2284   3.086   2.615   6.942
  462SOL    HW1 2285   3.042   2.619   0.005
  462SOL    HW2 2286   3.142   2.532   6.935
  463SOL     OW 2287   0.043   6.075   1.585
  463SOL    HW1 2288   6.975   6.061   1.554
  463SOL    HW2 2289   0.076   6.163   1.550
  464SOL     OW 2290   1.613   1.270   5.834
  464SOL    HW1 2291   1.657   1.354   5.800
  464SOL    HW2 2292   1.521   1.292   5.867
  465SOL     OW 2293   6.446   3.353   5.375
  465SOL    HW1 2294   6.441   3.390   5.467
  465SOL    HW2 2295   6.389   3.271   5.368
  466SOL     OW 2296   2.371   0.625   3.210
  466SOL    HW1 2297   2.342   0.531   3.193
  466SOL    HW2 2298   2.367   0.677   3.125
  467SOL     OW 2299   1.539   1.290   5.020
  467SOL    HW1 2300   1.588   1.236   4.952
  467SOL    HW2 2301   1.472   1.233   5.067
  468SOL     OW 2302   3.420   4.031   1.793
  468SOL    HW1 2303   3.481   4.107   1.773
  468SOL    HW2 2304   3.339   4.037   1.735
  469SOL     OW 2305   2.644   4.754   6.728
  469SOL    HW1 2306   2.582   4.815   6.778
  469SOL    HW2 2307   2.738   4.769   6.759
  470SOL     OW 2308   3.693   0.920   2.413
  470SOL    HW1 2309   3.659   0.951   2.502
  470SOL    HW2 2310   3.707   0.999   2.353
  471SOL     OW 2311   2.599   1.832   4.636
  471SOL    HW1 2312   2.637   1.790   4.553
  471SOL    HW2 2313   2.652   1.803   4.715
  472SOL     OW 2314   4.113   4.274   5.282
  472SOL    HW1 2315   4.017   4.299   5.299
  472SOL    HW2 2316   4.156   4.344   5.226
  473SOL     OW 2317   1.238   4.273   3.621
  473SOL    HW1 2318   1.276   4.194   3.573
  473SOL    HW2 2319   1.165   4.243   3.682
  474SOL     OW 2320   4.764   4.729   4.758
  474SOL    HW1 2321   4.822   4.778   4.693
  474SOL    HW2 2322   4.812   4.721   4.846
  475SOL     OW 2323   0.936   6.458   6.197
  475SOL    HW1 2324   0.853   6.514   6.190
  475SOL    HW2 2325   0.984   6.459   6.109
  476SOL     OW 2326   0.087   5.051   2.319
  476SOL    HW1 2327   0.047   5.104   2.244
  476SOL    HW2 2328   0.051   4.958   2.317
  477SOL     OW 2329   1.434   5.464   4.343
  477SOL    HW1 2330   1.419   5.523   4.264
  477SOL    HW2 2331   1.507   5.503   4.399
  478SOL     OW 2332   1.531   5.311   3.277
  478SOL    HW1 2333   1.545   5.410   3.267
  478SOL    HW2 2334   1.502   5.291   3.371
  479SOL     OW 2335   3.185   1.617   1.331
  479SOL    HW1 2336   3.106   1.561   1.310
  479SOL    HW2 2337   3.194   1.689   1.263
  480SOL     OW 2338   1.481   6.640   2.417
  480SOL    HW1 2339   1.439   6.583   2.488
  480SOL    HW2 2340   1.487   6.589   2.332
  481SOL     OW 2341   2.895   6.675   1.435
  481SOL    HW1 2342   2.847   6.623   1.364
  481SOL    HW2 2343   2.866   6.643   1.525
  482SOL     OW 2344   5.770   5.131   1.450
  482SOL    HW1 2345   5.724   5.068   1.513
  482SOL    HW2 2346   5.760   5.098   1.356
  483SOL     OW 2347   6.006   1.811   1.024
  483SOL    HW1 2348   5.910   1.802   0.997
  483SOL    HW2 2349   6.059   1.849   0.948
  484SOL     OW 2350   6.916   2.395   5.380
  484SOL    HW1 2351   6.862   2.461   5.432
  484SOL    HW2 2352   6.856   2.321   5.349
  485SOL     OW 2353   3.843   5.555   2.102
  485SOL    HW1 2354   3.772   5.570   2.034
  485SOL    HW2 2355   3.930   5.538   2.056
  486SOL     OW 2356   0.258   0.750   6.687
  486SOL    HW1 2357   0.191   0.822   6.707
  486SOL    HW2 2358   0.213   0.661   6.687
  487SOL     OW 2359   6.346   2.996   6.657
  487SOL    HW1 2360   6.348   2.903   6.693
  487SOL    HW2 2361   6.264   3.043   6.690
  488SOL     OW 2362   0.467   3.223   2.516
  488SOL    HW1 2363   0.528   3.241   2.439
  488SOL    HW2 2364   0.378   3.192   2.482
  489SOL     OW 2365   3.157   6.058   5.818
  489SOL    HW1 2366   3.115   6.147   5.837
  489SOL    HW2 2367   3.123   6.024   5.730
  490SOL     OW 2368   5.063   6.342   4.366
  490SOL    HW1 2369   5.098   6.432   4.389
  490SOL    HW2 2370   4.963   6.345   4.360
  491SOL     OW 2371   0.231   2.361   3.305
  491SOL    HW1 2372   0.134   2.363   3.330
  491SOL    HW2 2373   0.247   2.421   3.227
  492SOL     OW 2374   1.803   0.944   4.981
  492SOL    HW1 2375   1.873   0.996   5.030
  492SOL    HW2 2376   1.729   0.919   5.044
  493SOL     OW 2377   6.235   4.008   4.073
  493SOL    HW1 2378   6.260   3.914   4.094
  493SOL    HW2 2379   6.183   4.047   4.148
  494SOL     OW 2380   6.691   1.559   6.745
  494SOL    HW1 2381   6.640   1.474   6.732
  494SOL    HW2 2382   6.641   1.619   6.808
  495SOL     OW 2383   3.935   4.797   0.985
  495SOL    HW1 2384   3.887   4.835   1.065
  495SOL    HW2 2385   3.939   4.866   0.913
  496SOL     OW 2386   6.263   3.429   3.647
  496SOL    HW1 2387   6.288   3.340   3.608
  496SOL    HW2 2388   6.340   3.465   3.700
  497SOL     OW 2389   4.263   0.140   3.879
  497SOL    HW1 2390   4.191   0.074   3.902
  497SOL    HW2 2391   4.328   0.147   3.955
  498SOL     OW 2392   1.016   3.420   2.934
  498SOL    HW1 2393   1.009   3.378   2.844
  498SOL    HW2 2394   1.106   3.464   2.943
  499SOL     OW 2395   3.271   1.518   5.333
  499SOL    HW1 2396   3.272   1.598   5.273
  499SOL    HW2 2397   3.208   1.534   5.409
  500SOL     OW 2398   1.184   3.873   2.597
  500SOL    HW1 2399   1.151   3.785   2.562
  500SOL    HW2 2400   1.273   3.893   2.556
  501SOL     OW 2401   0.862   4.826   6.454
  501SOL    HW1 2402   0.775   4.831   6.502
  501SOL    HW2 2403   0.846   4.815   6.356
  502SOL     OW 2404   3.007   5.239   6.380
  502SOL    HW1 2405   3.027   5.278   6.290
  502SOL    HW2 2406   3.086   5.252   6.440
  503SOL     OW 2407   5.624   5.758   4.718
  503SOL    HW1 2408   5.679   5.719   4.792
  503SOL    HW2 2409   5.659   5.848   4.694
  504SOL     OW 2410   1.908   5.599   4.214
  504SOL    HW1 2411   1.954   5.562   4.296
  504SOL    HW2 2412   1.970   5.662   4.168
  505SOL     OW 2413   4.282   6.993   5.670
  505SOL    HW1 2414   4.309   0.042   5.731
  505SOL    HW2 2415   4.209   6.940   5.713
  506SOL     OW 2416   2.238   3.733   6.922
  506SOL    HW1 2417   2.337   3.732   6.909
  506SOL    HW2 2418   2.213   3.804   6.988
  507SOL     OW 2419   3.393   1.518   4.167
  507SOL    HW1 2420   3.371   1.606   4.125
  507SOL    HW2 2421   3.395   1.447   4.096
  508SOL     OW 2422   6.155   4.532   4.023
  508SOL    HW1 2423   6.088   4.472   4.066
  508SOL    HW2 2424   6.145   4.625   4.058
  509SOL     OW 2425   4.675   2.252   2.063
  509SOL    HW1 2426   4.667   2.341   2.019
  509SOL    HW2 2427   4.764   2.212   2.042
  510SOL     OW 2428   0.093   3.968   4.393
  510SOL    HW1 2429   0.140   4.001   4.311
  510SOL    HW2 2430   0.073   3.870   4.381
  511SOL     OW 2431   0.451   6.446   1.185
  511SOL    HW1 2432   0.369   6.466   1.239
  511SOL    HW2 2433   0.472   6.348   1.193
  512SOL     OW 2434   0.453   3.918   6.446
  512SOL    HW1 2435   0.381   3.907   6.515
  512SOL    HW2 2436   0.413   3.947   6.359
  513SOL     OW 2437   6.904   5.749   4.345
  513SOL    HW1 2438   7.002   5.739   4.327
  513SOL    HW2 2439   6.861   5.659   4.350
  514SOL     OW 2440   5.923   1.600   3.673
  514SOL    HW1 2441   5.975   1.564   3.751
  514SOL    HW2 2442   5.952   1.553   3.590
  515SOL     OW 2443   1.942   6.225   0.416
  515SOL    HW1 2444   1.858   6.249   0.466
  515SOL    HW2 2445   2.021   6.256   0.468
  516SOL     OW 2446   1.200   5.097   2.445
  516SOL    HW1 2447   1.122   5.036   2.428
  516SOL    HW2 2448   1.245   5.071   2.530
  517SOL     OW 2449   4.804   0.766   6.733
  517SOL    HW1 2450   4.792   0.688   6.795
  517SOL    HW2 2451   4.877   0.745   6.668
  518SOL     OW 2452   2.420   2.047   0.489
  518SOL    HW1 2453   2.466   1.962   0.461
  518SOL    HW2 2454   2.333   2.025   0.532
  519SOL     OW 2455   0.558   6.802   1.013
  519SOL    HW1 2456   0.609   6.729   1.060
  519SOL    HW2 2457   0.461   6.791   1.031
  520SOL     OW 2458   6.289   4.358   5.022
  520SOL    HW1 2459   6.370   4.363   5.081
  520SOL    HW2 2460   6.305   4.412   4.939
  521SOL     OW 2461   6.674   0.807   1.018
  521SOL    HW1 2462   6.613   0.773   0.947
  521SOL    HW2 2463   6.624   0.870   1.077
  522SOL     OW 2464   3.599   3.477   5.341
  522SOL    HW1 2465   3.620   3.399   5.400
  522SOL    HW2 2466   3.682   3.506   5.294
  523SOL     OW 2467   6.569   6.343   5.053
  523SOL    HW1 2468   6.497   6.296   5.002
  523SOL    HW2 2469   6.648   6.283   5.062
  524SOL     OW 2470   3.941   1.541   5.591
  524SOL    HW1 2471   4.009   1.611   5.611
  524SOL    HW2 2472   3.881   1.572   5.517
  525SOL     OW 2473   2.520   2.933   6.689
  525SOL    HW1 2474   2.554   3.025   6.668
  525SOL    HW2 2475   2.577   2.865   6.642
  526SOL     OW 2476   4.453   5.927   4.680
  526SOL    HW1 2477   4.493   5.997   4.739
  526SOL    HW2 2478   4.401   5.971   4.607
  527SOL     OW 2479   1.057   2.019   6.887
  527SOL    HW1 2480   0.988   1.947   6.883
  527SOL    HW2 2481   1.083   2.045   6.794
  528SOL     OW 2482   2.387   0.682   5.489
  528SOL    HW1 2483   2.472   0.657   5.535
  528SOL    HW2 2484   2.309   0.648   5.542
  529SOL     OW 2485   6.938   4.543   4.384
  529SOL    HW1 2486   6.906   4.455   4.351
  529SOL    HW2 2487   6.860   4.603   4.402
  530SOL     OW 2488   1.452   2.893   5.088
  530SOL    HW1 2489   1.491   2.833   5.019
  530SOL    HW2 2490   1.353   2.900   5.074
  531SOL     OW 2491   0.121   0.656   0.260
  531SOL    HW1 2492   0.134   0.579   0.197
  531SOL    HW2 2493   0.080   0.733   0.212
  532SOL     OW 2494   2.177   0.324   5.305
  532SOL    HW1 2495   2.209   0.390   5.374
  532SOL    HW2 2496   2.082   0.299   5.325
  533SOL     OW 2497   5.525   0.133   4.380
  533SOL    HW1 2498   5.563   0.220   4.350
  533SOL    HW2 2499   5.575   0.100   4.460
  534SOL     OW 2500   4.031   5.825   2.042
  534SOL    HW1 2501   4.102   5.758   2.018
  534SOL    HW2 2502   4.008   5.816   2.139
  535SOL     OW 2503   6.715   4.216   2.919
  535SOL    HW1 2504   6.737   4.167   3.003
  535SOL    HW2 2505   6.660   4.296   2.940
  536SOL     OW 2506   1.253   5.587   0.633
  536SOL    HW1 2507   1.181   5.633   0.581
  536SOL    HW2 2508   1.308   5.654   0.682
  537SOL     OW 2509   2.498   0.687   2.736
  537SOL    HW1 2510   2.482   0.593   2.705
  537SOL    HW2 2511   2.594   0.711   2.723
  538SOL     OW 2512   1.400   4.520   3.590
  538SOL    HW1 2513   1.495   4.504   3.617
  538SOL    HW2 2514   1.346   4.437   3.609
  539SOL     OW 2515   1.388   5.182   1.089
  539SOL    HW1 2516   1.335   5.142   1.013
  539SOL    HW2 2517   1.327   5.235   1.147
  540SOL     OW 2518   1.465   2.495   1.339
  540SOL    HW1 2519   1.430   2.509   1.246
  540SOL    HW2 2520   1.480   2.584   1.383
  541SOL     OW 2521   3.998   5.442   5.077
  541SOL    HW1 2522   3.899   5.444   5.086
  541SOL    HW2 2523   4.023   5.403   4.988
  542SOL     OW 2524   5.924   6.021   6.865
  542SOL    HW1 2525   5.887   6.111   6.845
  542SOL    HW2 2526   5.882   5.985   6.949
  543SOL     OW 2527   0.028   6.131   6.983
  543SOL    HW1 2528   0.052   6.227   6.978
  543SOL    HW2 2529   0.100   6.081   0.004
  544SOL     OW 2530   1.302   5.626   6.994
  544SOL    HW1 2531   1.383   5.640   0.025
  544SOL    HW2 2532   1.315   5.547   6.935
  545SOL     OW 2533   3.508   2.148   4.008
  545SOL    HW1 2534   3.493   2.074   4.074
  545SOL    HW2 2535   3.444   2.138   3.932
  546SOL     OW 2536   1.294   3.171   6.832
  546SOL    HW1 2537   1.330   3.142   6.744
  546SOL    HW2 2538   1.307   3.270   6.842
  547SOL     OW 2539   3.191   2.410   0.084
  547SOL    HW1 2540   3.192   2.329   0.025
  547SOL    HW2 2541   3.133   2.393   0.164
  548SOL     OW 2542   3.286   3.336   5.072
  548SOL    HW1 2543   3.197   3.381   5.076
  548SOL    HW2 2544   3.298   3.294   4.983
  549SOL     OW 2545   0.460   3.869   1.534
  549SOL    HW1 2546   0.361   3.878   1.544
  549SOL    HW2 2547   0.489   3.777   1.559
  550SOL     OW 2548   7.009   3.793   1.472
  550SOL    HW1 2549   0.009   3.786   1.568
  550SOL    HW2 2550   0.037   3.729   1.418
  551SOL     OW 2551   6.912   2.048   6.614
  551SOL    HW1 2552   6.917   2.096   6.701
  551SOL    HW2 2553   6.954   1.958   6.622
  552SOL     OW 2554   4.959   5.717   0.789
  552SOL    HW1 2555   4.989   5.745   0.697
  552SOL    HW2 2556   4.997   5.627   0.810
  553SOL     OW 2557   1.344   1.791   1.510
  553SOL    HW1 2558   1.280   1.844   1.566
  553SOL    HW2 2559   1.386   1.851   1.442
  554SOL     OW 2560   5.244   5.697   5.015
  554SOL    HW1 2561   5.250   5.634   5.093
  554SOL    HW2 2562   5.324   5.684   4.956
  555SOL     OW 2563   1.843   4.334   4.540
  555SOL    HW1 2564   1.761   4.276   4.540
  555SOL    HW2 2565   1.845   4.388   4.456
  556SOL     OW 2566   5.832   3.323   2.781
  556SOL    HW1 2567   5.759   3.390   2.766
  556SOL    HW2 2568   5.873   3.338   2.871
  557SOL     OW 2569   6.859   5.434   6.190
  557SOL    HW1 2570   6.816   5.510   6.238
  557SOL    HW2 2571   6.953   5.457   6.168
  558SOL     OW 2572   4.377   3.719   5.544
  558SOL    HW1 2573   4.402   3.671   5.460
  558SOL    HW2 2574   4.455   3.723   5.605
  559SOL     OW 2575   6.046   5.913   6.070
  559SOL    HW1 2576   6.117   5.845   6.088
  559SOL    HW2 2577   6.047   5.982   6.142
  560SOL     OW 2578   3.952   6.478   0.013
  560SOL    HW1 2579   3.925   6.447   6.948
  560SOL    HW2 2580   4.035   6.430   0.041
  561SOL     OW 2581   5.267   6.304   1.149
  561SOL    HW1 2582   5.295   6.383   1.204
  561SOL    HW2 2583   5.189   6.330   1.091
  562SOL     OW 2584   6.450   0.869   6.806
  562SOL    HW1 2585   6.435   0.812   6.725
  562SOL    HW2 2586   6.367   0.869   6.861
  563SOL     OW 2587   3.354   0.096   4.832
  563SOL    HW1 2588   3.315   0.010   4.865
  563SOL    HW2 2589   3.383   0.085   4.737
  564SOL     OW 2590   7.007   1.800   6.628
  564SOL    HW1 2591   6.966   1.712   6.656
  564SOL    HW2 2592   0.032   1.787   6.544
  565SOL     OW 2593   4.624   4.467   5.201
  565SOL    HW1 2594   4.598   4.378   5.238
  565SOL    HW2 2595   4.723   4.469   5.186
  566SOL     OW 2596   5.368   5.070   2.179
  566SOL    HW1 2597   5.329   5.137   2.242
  566SOL    HW2 2598   5.446   5.025   2.222
  567SOL     OW 2599   3.960   3.728   4.276
  567SOL    HW1 2600   3.890   3.657   4.275
  567SOL    HW2 2601   4.040   3.695   4.325
  568SOL     OW 2602   1.923   1.289   6.012
  568SOL    HW1 2603   1.913   1.383   5.978
  568SOL    HW2 2604   1.903   1.286   6.110
  569SOL     OW 2605   2.479   3.620   0.052
  569SOL    HW1 2606   2.460   3.640   0.148
  569SOL    HW2 2607   2.460   3.523   0.035
  570SOL     OW 2608   0.400   6.156   1.277
  570SOL    HW1 2609   0.436   6.148   1.370
  570SOL    HW2 2610   0.417   6.070   1.228
  571SOL     OW 2611   4.468   5.494   2.906
  571SOL    HW1 2612   4.537   5.431   2.943
  571SOL    HW2 2613   4.388   5.493   2.966
  572SOL     OW 2614   2.039   4.148   4.637
  572SOL    HW1 2615   2.029   4.176   4.733
  572SOL    HW2 2616   1.983   4.207   4.579
  573SOL     OW 2617   3.817   2.513   6.273
  573SOL    HW1 2618   3.868   2.572   6.335
  573SOL    HW2 2619   3.788   2.431   6.323
  574SOL     OW 2620   2.825   1.385   4.250
  574SOL    HW1 2621   2.762   1.460   4.269
  574SOL    HW2 2622   2.918   1.415   4.270
  575SOL     OW 2623   5.506   2.208   6.403
  575SOL    HW1 2624   5.417   2.253   6.397
  575SOL    HW2 2625   5.568   2.248   6.335
  576SOL     OW 2626   0.823   2.241   2.605
  576SOL    HW1 2627   0.808   2.326   2.654
  576SOL    HW2 2628   0.804   2.255   2.508
  577SOL     OW 2629   2.989   2.264   4.200
  577SOL    HW1 2630   2.896   2.296   4.218
  577SOL    HW2 2631   3.052   2.307   4.265
  578SOL     OW 2632   0.303   3.462   4.540
  578SOL    HW1 2633   0.330   3.383   4.594
  578SOL    HW2 2634   0.206   3.457   4.518
  579SOL     OW 2635   3.789   3.491   0.590
  579SOL    HW1 2636   3.809   3.401   0.552
  579SOL    HW2 2637   3.874   3.545   0.597
  580SOL     OW 2638   0.540   5.913   6.965
  580SOL    HW1 2639   0.479   5.852   6.914
  580SOL    HW2 2640   0.617   5.861   7.002
  581SOL     OW 2641   3.620   3.345   2.276
  581SOL    HW1 2642   3.560   3.425   2.266
  581SOL    HW2 2643   3.577   3.266   2.233
  582SOL     OW 2644   6.297   4.373   2.039
  582SOL    HW1 2645   6.248   4.389   1.953
  582SOL    HW2 2646   6.393   4.399   2.028
  583SOL     OW 2647   2.354   5.676   6.732
  583SOL    HW1 2648   2.262   5.713   6.744
  583SOL    HW2 2649   2.404   5.732   6.665
  584SOL     OW 2650   0.690   5.341   4.953
  584SOL    HW1 2651   0.708   5.248   4.983
  584SOL    HW2 2652   0.749   5.363   4.875
  585SOL     OW 2653   6.261   1.537   5.714
  585SOL    HW1 2654   6.213   1.549   5.627
  585SOL    HW2 2655   6.346   1.488   5.699
  586SOL     OW 2656   2.581   5.895   0.780
  586SOL    HW1 2657   2.659   5.883   0.719
  586SOL    HW2 2658   2.580   5.821   0.848
  587SOL     OW 2659   1.233   3.655   5.915
  587SOL    HW1 2660   1.299   3.704   5.857
  587SOL    HW2 2661   1.273   3.567   5.943
  588SOL     OW 2662   2.230   0.152   1.575
  588SOL    HW1 2663   2.238   0.074   1.514
  588SOL    HW2 2664   2.309   0.154   1.637
  589SOL     OW 2665   4.464   5.024   2.304
  589SOL    HW1 2666   4.533   5.044   2.373
  589SOL    HW2 2667   4.376   5.007   2.349
  590SOL     OW 2668   6.487   2.000   1.706
  590SOL    HW1 2669   6.532   2.012   1.618
  590SOL    HW2 2670   6.514   1.911   1.745
  591SOL     OW 2671   2.991   6.563   2.661
  591SOL    HW1 2672   3.051   6.589   2.585
  591SOL    HW2 2673   3.015   6.472   2.693
  592SOL     OW 2674   5.423   0.586   6.655
  592SOL    HW1 2675   5.396   0.528   6.731
  592SOL    HW2 2676   5.514   0.559   6.622
  593SOL     OW 2677   6.042   1.303   4.142
  593SOL    HW1 2678   5.981   1.225   4.129
  593SOL    HW2 2679   6.135   1.271   4.155
  594SOL     OW 2680   5.209   2.998   1.776
  594SOL    HW1 2681   5.109   2.990   1.771
  594SOL    HW2 2682   5.244   3.028   1.687
  595SOL     OW 2683   4.805   6.852   3.998
  595SOL    HW1 2684   4.737   6.916   3.961
  595SOL    HW2 2685   4.758   6.773   4.037
  596SOL     OW 2686   0.778   4.087   2.545
  596SOL    HW1 2687   0.827   4.040   2.471
  596SOL    HW2 2688   0.764   4.183   2.521
  597SOL     OW 2689   4.279   2.243   6.125
  597SOL    HW1 2690   4.322   2.185   6.055
  597SOL    HW2 2691   4.211   2.302   6.082
  598SOL     OW 2692   2.975   3.882   1.070
  598SOL    HW1 2693   2.923   3.810   1.024
  598SOL    HW2 2694   2.962   3.874   1.169
  599SOL     OW 2695   0.000   6.804   3.405
  599SOL    HW1 2696   0.007   6.705   3.420
  599SOL    HW2 2697   0.023   6.825   3.310
  600SOL     OW 2698   2.261   1.082   1.558
  600SOL    HW1 2699   2.288   0.991   1.588
  600SOL    HW2 2700   2.334   1.147   1.575
  601SOL     OW 2701   2.444   4.792   3.417
  601SOL    HW1 2702   2.532   4.831   3.391
  601SOL    HW2 2703   2.396   4.761   3.336
  602SOL     OW 2704   0.460   0.762   1.827
  602SOL    HW1 2705   0.380   0.742   1.771
  602SOL    HW2 2706   0.518   0.681   1.832
  603SOL     OW 2707   3.891   2.181   3.038
  603SOL    HW1 2708   3.862   2.180   2.942
  603SOL    HW2 2709   3.987   2.155   3.043
  604SOL     OW 2710   0.764   4.290   5.491
  604SOL    HW1 2711   0.858   4.264   5.512
  604SOL    HW2 2712   0.743   4.268   5.396
  605SOL     OW 2713   6.081   6.763   4.715
  605SOL    HW1 2714   6.071   6.664   4.709
  605SOL    HW2 2715   6.160   6.785   4.772
  606SOL     OW 2716   3.645   6.762   2.846
  606SOL    HW1 2717   3.689   6.741   2.933
  606SOL    HW2 2718   3.638   6.861   2.835
  607SOL     OW 2719   4.198   0.885   3.860
  607SOL    HW1 2720   4.120   0.826   3.843
  607SOL    HW2 2721   4.176   0.950   3.933
  608SOL     OW 2722   5.003   1.919   1.845
  608SOL    HW1 2723   5.070   1.941   1.916
  608SOL    HW2 2724   5.038   1.843   1.790
  609SOL     OW 2725   3.025   3.406   4.713
  609SOL    HW1 2726   3.042   3.490   4.764
  609SOL    HW2 2727   3.031   3.328   4.775
  610SOL     OW 2728   5.922   1.623   4.844
  610SOL    HW1 2729   5.903   1.525   4.835
  610SOL    HW2 2730   5.858   1.674   4.786
  611SOL     OW 2731   6.018   6.884   0.160
  611SOL    HW1 2732   5.964   6.846   0.235
  611SOL    HW2 2733   5.957   6.909   0.085
  612SOL     OW 2734   2.762   5.240   5.834
  612SOL    HW1 2735   2.688   5.268   5.773
  612SOL    HW2 2736   2.803   5.155   5.799
  613SOL     OW 2737   3.389   1.498   6.791
  613SOL    HW1 2738   3.322   1.531   6.857
  613SOL    HW2 2739   3.442   1.575   6.756
  614SOL     OW 2740   5.501   3.514   1.206
  614SOL    HW1 2741   5.546   3.452   1.270
  614SOL    HW2 2742   5.440   3.576   1.255
  615SOL     OW 2743   5.087   0.154   1.029
  615SOL    HW1 2744   5.069   0.222   1.099
  615SOL    HW2 2745   5.106   0.066   1.072
  616SOL     OW 2746   5.554   0.543   4.650
  616SOL    HW1 2747   5.535   0.485   4.729
  616SOL    HW2 2748   5.644   0.585   4.659
  617SOL     OW 2749   6.881   5.828   5.690
  617SOL    HW1 2750   6.895   5.737   5.654
  617SOL    HW2 2751   6.789   5.835   5.729
  618SOL     OW 2752   5.796   4.866   0.054
  618SOL    HW1 2753   5.810   4.945   0.114
  618SOL    HW2 2754   5.714   4.816   0.083
  619SOL     OW 2755   2.838   6.750   5.825
  619SOL    HW1 2756   2.877   6.660   5.845
  619SOL    HW2 2757   2.742   6.739   5.798
  620SOL     OW 2758   5.056   1.759   2.686
  620SOL    HW1 2759   5.018   1.674   2.650
  620SOL    HW2 2760   4.982   1.818   2.719
  621SOL     OW 2761   2.806   0.438   6.719
  621SOL    HW1 2762   2.824   0.343   6.742
  621SOL    HW2 2763   2.709   0.458   6.730
  622SOL     OW 2764   0.324   3.119   5.600
  622SOL    HW1 2765   0.224   3.131   5.600
  622SOL    HW2 2766   0.349   3.054   5.671
  623SOL     OW 2767   6.740   0.141   3.101
  623SOL    HW1 2768   6.704   0.091   3.022
  623SOL    HW2 2769   6.666   0.160   3.165
  624SOL     OW 2770   6.829   1.269   5.778
  624SOL    HW1 2771   6.854   1.363   5.799
  624SOL    HW2 2772   6.757   1.239   5.840
  625SOL     OW 2773   3.620   1.058   1.217
  625SOL    HW1 2774   3.642   0.966   1.185
  625SOL    HW2 2775   3.593   1.055   1.314
  626SOL     OW 2776   6.928   6.036   3.371
  626SOL    HW1 2777   6.964   5.963   3.430
  626SOL    HW2 2778   7.003   6.098   3.345
  627SOL     OW 2779   6.497   6.035   0.691
  627SOL    HW1 2780   6.465   5.984   0.771
  627SOL    HW2 2781   6.515   5.972   0.616
  628SOL     OW 2782   3.780   4.907   6.049
  628SOL    HW1 2783   3.877   4.892   6.031
  628SOL    HW2 2784   3.726   4.880   5.969
  629SOL     OW 2785   1.112   6.849   6.894
  629SOL    HW1 2786   1.177   6.914   6.854
  629SOL    HW2 2787   1.145   6.820   6.984
  630SOL     OW 2788   6.863   1.547   0.996
  630SOL    HW1 2789   6.840   1.577   0.904
  630SOL    HW2 2790   6.959   1.519   0.999
  631SOL     OW 2791   1.582   2.873   3.504
  631SOL    HW1 2792   1.610   2.960   3.464
  631SOL    HW2 2793   1.651   2.803   3.484
  632SOL     OW 2794   2.570   4.113   0.588
  632SOL    HW1 2795   2.550   4.096   0.492
  632SOL    HW2 2796   2.662   4.080   0.610
  633SOL     OW 2797   1.689   5.611   0.572
  633SOL    HW1 2798   1.762   5.565   0.623
  633SOL    HW2 2799   1.620   5.543   0.546
  634SOL     OW 2800   2.985   3.178   4.905
  634SOL    HW1 2801   2.958   3.188   5.000
  634SOL    HW2 2802   2.904   3.168   4.847
  635SOL     OW 2803   5.641   0.074   6.329
  635SOL    HW1 2804   5.695   0.082   6.413
  635SOL    HW2 2805   5.630   7.004   6.306
  636SOL     OW 2806   2.794   0.960   5.145
  636SOL    HW1 2807   2.696   0.980   5.152
  636SOL    HW2 2808   2.846   1.044   5.160
  637SOL     OW 2809   0.216   1.194   2.882
  637SOL    HW1 2810   0.272   1.129   2.833
  637SOL    HW2 2811   0.130   1.208   2.833
  638SOL     OW 2812   6.306   3.106   5.333
  638SOL    HW1 2813   6.226   3.132   5.279
  638SOL    HW2 2814   6.366   3.047   5.279
  639SOL     OW 2815   5.899   4.418   2.069
  639SOL    HW1 2816   5.893   4.322   2.096
  639SOL    HW2 2817   5.983   4.458   2.106
  640SOL     OW 2818   0.224   3.158   2.395
  640SOL    HW1 2819   0.126   3.175   2.398
  640SOL    HW2 2820   0.241   3.060   2.389
  641SOL     OW 2821   2.671   5.409   4.889
  641SOL    HW1 2822   2.611   5.396   4.811
  641SOL    HW2 2823   2.757   5.358   4.874
  642SOL     OW 2824   0.139   5.419   4.917
  642SOL    HW1 2825   0.166   5.477   4.994
  642SOL    HW2 2826   0.219   5.368   4.885
  643SOL     OW 2827   4.479   5.095   0.681
  643SOL    HW1 2828   4.418   5.141   0.618
  643SOL    HW2 2829   4.435   5.013   0.717
  644SOL     OW 2830   6.657   6.272   5.505
  644SOL    HW1 2831   6.727   6.271   5.434
  644SOL    HW2 2832   6.625   6.366   5.519
  645SOL     OW 2833   4.022   5.894   2.323
  645SOL    HW1 2834   4.078   5.830   2.375
  645SOL    HW2 2835   3.938   5.913   2.373
  646SOL     OW 2836   3.660   2.103   4.636
  646SOL    HW1 2837   3.587   2.102   4.704
  646SOL    HW2 2838   3.623   2.128   4.547
  647SOL     OW 2839   3.568   2.599   6.359
  647SOL    HW1 2840   3.647   2.572   6.304
  647SOL    HW2 2841   3.590   2.681   6.412
  648SOL     OW 2842   6.275   1.363   3.431
  648SOL    HW1 2843   6.352   1.423   3.408
  648SOL    HW2 2844   6.297   1.269   3.404
  649SOL     OW 2845   2.816   5.291   0.422
  649SOL    HW1 2846   2.831   5.381   0.381
  649SOL    HW2 2847   2.849   5.220   0.359
  650SOL     OW 2848   0.318   3.458   0.942
  650SOL    HW1 2849   0.402   3.456   0.888
  650SOL    HW2 2850   0.296   3.366   0.974
  651SOL     OW 2851   0.575   0.303   3.529
  651SOL    HW1 2852   0.549   0.208   3.511
  651SOL    HW2 2853   0.670   0.306   3.561
  652SOL     OW 2854   4.216   5.342   1.025
  652SOL    HW1 2855   4.208   5.259   1.080
  652SOL    HW2 2856   4.252   5.416   1.081
  653SOL     OW 2857   1.511   6.270   2.413
  653SOL    HW1 2858   1.488   6.325   2.333
  653SOL    HW2 2859   1.498   6.324   2.496
  654SOL     OW 2860   0.688   0.151   5.685
  654SOL    HW1 2861   0.786   0.170   5.690
  654SOL    HW2 2862   0.638   0.215   5.743
  655SOL     OW 2863   0.740   3.929   1.401
  655SOL    HW1 2864   0.759   3.929   1.500
  655SOL    HW2 2865   0.655   3.978   1.384
  656SOL     OW 2866   3.015   6.196   6.782
  656SOL    HW1 2867   3.090   6.131   6.770
  656SOL    HW2 2868   2.962   6.201   6.697
  657SOL     OW 2869   3.711   3.272   3.234
  657SOL    HW1 2870   3.794   3.223   3.208
  657SOL    HW2 2871   3.731   3.333   3.310
  658SOL     OW 2872   0.955   1.453   3.991
  658SOL    HW1 2873   0.965   1.488   3.898
  658SOL    HW2 2874   1.013   1.373   4.004
  659SOL     OW 2875   1.890   5.607   6.687
  659SOL    HW1 2876   1.950   5.540   6.731
  659SOL    HW2 2877   1.858   5.571   6.600
  660SOL     OW 2878   5.438   4.355   2.888
  660SOL    HW1 2879   5.528   4.318   2.908
  660SOL    HW2 2880   5.432   4.449   2.922
  661SOL     OW 2881   4.339   5.308   3.858
  661SOL    HW1 2882   4.274   5.279   3.788
  661SOL    HW2 2883   4.314   5.398   3.893
  662SOL     OW 2884   4.794   3.734   0.080
  662SOL    HW1 2885   4.753   3.811   0.031
  662SOL    HW2 2886   4.723   3.674   0.115
  663SOL     OW 2887   7.004   4.359   0.428
  663SOL    HW1 2888   6.924   4.377   0.486
  663SOL    HW2 2889   0.057   4.408   0.464
  664SOL     OW 2890   1.650   7.020   6.031
  664SOL    HW1 2891   1.746   7.023   6.060
  664SOL    HW2 2892   1.643   0.026   5.937
  665SOL     OW 2893   3.142   4.904   2.942
  665SOL    HW1 2894   3.153   4.815   2.898
  665SOL    HW2 2895   3.101   4.968   2.877
  666SOL     OW 2896   3.243   0.885   6.779
  666SOL    HW1 2897   3.164   0.888   6.841
  666SOL    HW2 2898   3.271   0.791   6.765
  667SOL     OW 2899   1.812   3.171   2.123
  667SOL    HW1 2900   1.714   3.186   2.108
  667SOL    HW2 2901   1.840   3.088   2.075
  668SOL     OW 2902   4.870   0.233   0.861
  668SOL    HW1 2903   4.959   0.197   0.889
  668SOL    HW2 2904   4.797   0.186   0.911
  669SOL     OW 2905   0.873   5.911   2.804
  669SOL    HW1 2906   0.953   5.856   2.781
  669SOL    HW2 2907   0.827   5.940   2.720
  670SOL     OW 2908   3.561   3.493   3.112
  670SOL    HW1 2909   3.607   3.581   3.118
  670SOL    HW2 2910   3.628   3.421   3.095
  671SOL     OW 2911   1.876   0.624   6.571
  671SOL    HW1 2912   1.941   0.677   6.516
  671SOL    HW2 2913   1.790   0.674   6.578
  672SOL     OW 2914   0.807   2.426   2.791
  672SOL    HW1 2915   0.787   2.484   2.869
  672SOL    HW2 2916   0.852   2.342   2.822
  673SOL     OW 2917   4.941   0.430   0.238
  673SOL    HW1 2918   5.033   0.418   0.275
  673SOL    HW2 2919   4.874   0.413   0.310
  674SOL     OW 2920   6.942   2.300   4.763
  674SOL    HW1 2921   6.962   2.264   4.854
  674SOL    HW2 2922   7.024   2.292   4.705
  675SOL     OW 2923   6.180   6.786   3.789
  675SOL    HW1 2924   6.225   6.720   3.850
  675SOL    HW2 2925   6.202   6.879   3.818
  676SOL     OW 2926   2.785   5.382   4.362
  676SOL    HW1 2927   2.822   5.306   4.415
  676SOL    HW2 2928   2.690   5.363   4.337
  677SOL     OW 2929   4.789   6.585   0.858
  677SOL    HW1 2930   4.723   6.632   0.800
  677SOL    HW2 2931   4.882   6.599   0.823
  678SOL     OW 2932   2.304   1.190   5.527
  678SOL    HW1 2933   2.285   1.095   5.501
  678SOL    HW2 2934   2.264   1.208   5.617
  679SOL     OW 2935   6.213   0.845   2.248
  679SOL    HW1 2936   6.146   0.917   2.266
  679SOL    HW2 2937   6.205   0.773   2.318
  680SOL     OW 2938   5.843   4.469   4.473
  680SOL    HW1 2939   5.894   4.458   4.558
  680SOL    HW2 2940   5.845   4.565   4.445
  681SOL     OW 2941   1.200   6.616   2.021
  681SOL    HW1 2942   1.207   6.529   1.971
  681SOL    HW2 2943   1.200   6.597   2.119
  682SOL     OW 2944   0.074   0.108   6.136
  682SOL    HW1 2945   0.000   0.175   6.138
  682SOL    HW2 2946   0.035   0.015   6.138
  683SOL     OW 2947   5.113   1.871   1.100
  683SOL    HW1 2948   5.168   1.829   1.029
  683SOL    HW2 2949   5.017   1.874   1.071
  684SOL     OW 2950   0.453   6.013   5.993
  684SOL    HW1 2951   0.534   6.009   5.934
  684SOL    HW2 2952   0.394   5.935   5.973
  685SOL     OW 2953   6.253   0.412   6.509
  685SOL    HW1 2954   6.172   0.457   6.548
  685SOL    HW2 2955   6.305   0.368   6.581
  686SOL     OW 2956   5.624   4.723   3.045
  686SOL    HW1 2957   5.619   4.815   3.083
  686SOL    HW2 2958   5.716   4.707   3.008
  687SOL     OW 2959   5.882   2.346   5.711
  687SOL    HW1 2960   5.943   2.356   5.632
  687SOL    HW2 2961   5.864   2.436   5.750
  688SOL     OW 2962   6.804   3.308   5.060
  688SOL    HW1 2963   6.792   3.405   5.079
  688SOL    HW2 2964   6.763   3.254   5.134
  689SOL     OW 2965   5.932   4.224   4.804
  689SOL    HW1 2966   5.865   4.264   4.866
  689SOL    HW2 2967   6.007   4.184   4.857
  690SOL     OW 2968   0.373   3.334   3.815
  690SOL    HW1 2969   0.447   3.363   3.754
  690SOL    HW2 2970   0.342   3.242   3.789
  691SOL     OW 2971   6.857   3.327   6.612
  691SOL    HW1 2972   6.778   3.274   6.584
  691SOL    HW2 2973   6.918   3.341   6.534
  692SOL     OW 2974   2.598   0.235   3.088
  692SOL    HW1 2975   2.600   0.136   3.101
  692SOL    HW2 2976   2.572   0.255   2.994
  693SOL     OW 2977   6.334   1.696   2.423
  693SOL    HW1 2978   6.306   1.612   2.376
  693SOL    HW2 2979   6.252   1.745   2.455
  694SOL     OW 2980   1.271   6.954   2.252
  694SOL    HW1 2981   1.357   6.904   2.245
  694SOL    HW2 2982   1.272   7.014   2.332
  695SOL     OW 2983   4.676   5.705   6.344
  695SOL    HW1 2984   4.626   5.659   6.271
  695SOL    HW2 2985   4.642   5.798   6.354
  696SOL     OW 2986   5.418   6.505   2.967
  696SOL    HW1 2987   5.387   6.561   3.044
  696SOL    HW2 2988   5.475   6.561   2.906
  697SOL     OW 2989   1.600   3.830   3.872
  697SOL    HW1 2990   1.654   3.914   3.869
  697SOL    HW2 2991   1.516   3.847   3.924
  698SOL     OW 2992   5.242   5.851   4.191
  698SOL    HW1 2993   5.272   5.942   4.162
  698SOL    HW2 2994   5.214   5.799   4.111
  699SOL     OW 2995   0.855   4.154   6.781
  699SOL    HW1 2996   0.953   4.172   6.785
  699SOL    HW2 2997   0.809   4.202   6.856
  700SOL     OW 2998   2.068   1.706   4.293
  700SOL    HW1 2999   2.100   1.617   4.260
  700SOL    HW2 3000   1.996   1.694   4.361
  701SOL     OW 3001   1.071   4.841   5.973
  701SOL    HW1 3002   1.041   4.757   5.928
  701SOL    HW2 3003   0.992   4.900   5.990
  702SOL     OW 3004   5.410   6.113   4.762
  702SOL    HW1 3005   5.470   6.127   4.840
  702SOL    HW2 3006   5.339   6.046   4.785
  703SOL     OW 3007   4.613   4.082   6.401
  703SOL    HW1 3008   4.535   4.138   6.432
  703SOL    HW2 3009   4.579   3.994   6.368
  704SOL     OW 3010   2.426   0.339   1.803
  704SOL    HW1 3011   2.493   0.413   1.799
  704SOL    HW2 3012   2.450   0.268   1.737
  705SOL     OW 3013   6.992   2.099   3.574
  705SOL    HW1 3014   0.063   2.119   3.585
  705SOL    HW2 3015   6.974   2.073   3.479
  706SOL     OW 3016   5.115   2.634   3.793
  706SOL    HW1 3017   5.122   2.540   3.760
  706SOL    HW2 3018   5.200   2.683   3.772
  707SOL     OW 3019   4.605   1.865   2.686
  707SOL    HW1 3020   4.689   1.840   2.734
  707SOL    HW2 3021   4.614   1.843   2.589
  708SOL     OW 3022   4.646   0.349   1.987
  708SOL    HW1 3023   4.632   0.436   1.940
  708SOL    HW2 3024   4.669   0.367   2.083
  709SOL     OW 3025   0.957   5.315   0.143
  709SOL    HW1 3026   0.935   5.323   0.046
  709SOL    HW2 3027   0.909   5.236   0.182
  710SOL     OW 3028   2.929   3.306   2.399
  710SOL    HW1 3029   2.917   3.209   2.421
  710SOL    HW2 3030   2.942   3.317   2.301
  711SOL     OW 3031   0.939   1.179   4.840
  711SOL    HW1 3032   0.944   1.257   4.902
  711SOL    HW2 3033   0.857   1.185   4.784
  712SOL     OW 3034   1.091   3.702   2.253
  712SOL    HW1 3035   1.141   3.778   2.212
  712SOL    HW2 3036   1.043   3.651   2.182
  713SOL     OW 3037   3.257   3.791   3.834
  713SOL    HW1 3038   3.272   3.693   3.840
  713SOL    HW2 3039   3.311   3.838   3.904
  714SOL     OW 3040   5.094   5.192   5.614
  714SOL    HW1 3041   5.079   5.211   5.711
  714SOL    HW2 3042   5.043   5.257   5.559
  715SOL     OW 3043   4.933   0.821   6.223
  715SOL    HW1 3044   4.859   0.887   6.234
  715SOL    HW2 3045   5.020   0.869   6.221
  716SOL     OW 3046   6.683   5.333   1.954
  716SOL    HW1 3047   6.691   5.410   1.891
  716SOL    HW2 3048   6.773   5.289   1.966
  717SOL     OW 3049   5.966   2.947   0.272
  717SOL    HW1 3050   5.899   3.011   0.307
  717SOL    HW2 3051   6.058   2.986   0.281
  718SOL     OW 3052   2.372   2.901   6.920
  718SOL    HW1 3053   2.409   2.949   7.000
  718SOL    HW2 3054   2.418   2.934   6.838
  719SOL     OW 3055   4.856   5.002   0.380
  719SOL    HW1 3056   4.919   5.053   0.438
  719SOL    HW2 3057   4.762   5.035   0.395
  720SOL     OW 3058   2.908   1.038   6.111
  720SOL    HW1 3059   2.850   1.075   6.039
  720SOL    HW2 3060   2.889   0.941   6.123
  721SOL     OW 3061   1.326   6.348   5.456
  721SOL    HW1 3062   1.378   6.269   5.425
  721SOL    HW2 3063   1.237   6.318   5.490
  722SOL     OW 3064   4.320   6.562   5.350
  722SOL    HW1 3065   4.367   6.624   5.287
  722SOL    HW2 3066   4.361   6.568   5.441
  723SOL     OW 3067   1.703   3.404   1.893
  723SOL    HW1 3068   1.677   3.323   1.945
  723SOL    HW2 3069   1.707   3.483   1.954
  724SOL     OW 3070   6.507   0.392   4.446
  724SOL    HW1 3071   6.428   0.363   4.392
  724SOL    HW2 3072   6.477   0.412   4.540
  725SOL     OW 3073   2.703   4.779   1.446
  725SOL    HW1 3074   2.775   4.798   1.513
  725SOL    HW2 3075   2.614   4.776   1.492
  726SOL     OW 3076   4.514   6.621   5.892
  726SOL    HW1 3077   4.586   6.559   5.926
  726SOL    HW2 3078   4.493   6.598   5.797
  727SOL     OW 3079   2.378   4.281   3.693
  727SOL    HW1 3080   2.374   4.272   3.594
  727SOL    HW2 3081   2.430   4.363   3.718
  728SOL     OW 3082   0.042   3.110   5.208
  728SOL    HW1 3083   0.088   3.085   5.123
  728SOL    HW2 3084   6.974   3.078   5.206
  729SOL     OW 3085   3.299   0.791   0.642
  729SOL    HW1 3086   3.273   0.698   0.619
  729SOL    HW2 3087   3.219   0.851   0.632
  730SOL     OW 3088   5.466   1.306   5.111
  730SOL    HW1 3089   5.513   1.392   5.090
  730SOL    HW2 3090   5.381   1.301   5.059
  731SOL     OW 3091   6.615   2.985   4.393
  731SOL    HW1 3092   6.712   2.969   4.409
  731SOL    HW2 3093   6.568   2.898   4.379
  732SOL     OW 3094   6.699   3.161   3.481
  732SOL    HW1 3095   6.737   3.195   3.567
  732SOL    HW2 3096   6.773   3.126   3.423
  733SOL     OW 3097   4.469   4.822   4.408
  733SOL    HW1 3098   4.386   4.775   4.380
  733SOL    HW2 3099   4.504   4.877   4.331
  734SOL     OW 3100   0.970   4.997   0.168
  734SOL    HW1 3101   0.891   4.991   0.229
  734SOL    HW2 3102   0.940   4.986   0.073
  735SOL     OW 3103   2.484   4.922   6.887
  735SOL    HW1 3104   2.519   5.001   6.936
  735SOL    HW2 3105   2.429   4.865   6.949
  736SOL     OW 3106   5.754   1.144   2.828
  736SOL    HW1 3107   5.726   1.068   2.770
  736SOL    HW2 3108   5.711   1.228   2.795
  737SOL     OW 3109   5.756   4.038   0.671
  737SOL    HW1 3110   5.795   4.124   0.640
  737SOL    HW2 3111   5.732   3.981   0.592
  738SOL     OW 3112   0.738   4.424   3.102
  738SOL    HW1 3113   0.648   4.464   3.120
  738SOL    HW2 3114   0.807   4.495   3.103
  739SOL     OW 3115   4.387   6.177   6.415
  739SOL    HW1 3116   4.367   6.192   6.319
  739SOL    HW2 3117   4.477   6.134   6.424
  740SOL     OW 3118   5.363   0.344   0.610
  740SOL    HW1 3119   5.310   0.284   0.671
  740SOL    HW2 3120   5.369   0.435   0.651
  741SOL     OW 3121   2.629   0.395   4.044
  741SOL    HW1 3122   2.660   0.316   3.992
  741SOL    HW2 3123   2.608   0.470   3.981
  742SOL     OW 3124   1.533   6.848   2.230
  742SOL    HW1 3125   1.554   6.753   2.251
  742SOL    HW2 3126   1.618   6.900   2.220
  743SOL     OW 3127   1.860   3.106   4.722
  743SOL    HW1 3128   1.819   3.170   4.787
  743SOL    HW2 3129   1.883   3.154   4.638
  744SOL     OW 3130   0.292   5.501   1.142
  744SOL    HW1 3131   0.258   5.588   1.106
  744SOL    HW2 3132   0.216   5.446   1.175
  745SOL     OW 3133   1.804   5.844   3.303
  745SOL    HW1 3134   1.833   5.748   3.303
  745SOL    HW2 3135   1.854   5.893   3.231
  746SOL     OW 3136   2.898   0.743   4.079
  746SOL    HW1 3137   2.931   0.814   4.017
  746SOL    HW2 3138   2.953   0.744   4.162
  747SOL     OW 3139   6.124   4.222   1.450
  747SOL    HW1 3140   6.104   4.311   1.410
  747SOL    HW2 3141   6.209   4.186   1.412
  748SOL     OW 3142   3.858   2.987   2.206
  748SOL    HW1 3143   3.883   2.974   2.110
  748SOL    HW2 3144   3.910   3.064   2.243
  749SOL     OW 3145   6.590   1.529   5.003
  749SOL    HW1 3146   6.524   1.602   4.988
  749SOL    HW2 3147   6.680   1.569   5.024
  750SOL     OW 3148   2.897   3.544   1.371
  750SOL    HW1 3149   2.809   3.497   1.375
  750SOL    HW2 3150   2.971   3.477   1.367
  751SOL     OW 3151   5.110   1.200   0.661
  751SOL    HW1 3152   5.198   1.193   0.708
  751SOL    HW2 3153   5.071   1.291   0.677
  752SOL     OW 3154   4.666   1.248   1.906
  752SOL    HW1 3155   4.744   1.204   1.952
  752SOL    HW2 3156   4.602   1.177   1.875
  753SOL     OW 3157   2.744   1.324   2.412
  753SOL    HW1 3158   2.729   1.391   2.339
  753SOL    HW2 3159   2.807   1.362   2.479
  754SOL     OW 3160   5.152   5.799   6.928
  754SOL    HW1 3161   5.212   5.781   6.850
  754SOL    HW2 3162   5.066   5.750   6.916
  755SOL     OW 3163   6.913   5.890   3.129
  755SOL    HW1 3164   6.992   5.865   3.073
  755SOL    HW2 3165   6.942   5.944   3.208
  756SOL     OW 3166   3.451   6.427   3.700
  756SOL    HW1 3167   3.484   6.502   3.643
  756SOL    HW2 3168   3.524   6.398   3.762
  757SOL     OW 3169   6.614   0.970   4.975
  757SOL    HW1 3170   6.567   1.039   5.031
  757SOL    HW2 3171   6.645   1.013   4.890
  758SOL     OW 3172   4.410   2.098   2.088
  758SOL    HW1 3173   4.389   2.075   1.992
  758SOL    HW2 3174   4.495   2.150   2.092
  759SOL     OW 3175   1.773   0.605   0.559
  759SOL    HW1 3176   1.682   0.567   0.571
  759SOL    HW2 3177   1.822   0.554   0.488
  760SOL     OW 3178   4.625   2.257   5.817
  760SOL    HW1 3179   4.716   2.216   5.826
  760SOL    HW2 3180   4.558   2.198   5.862
  761SOL     OW 3181   5.652   1.589   0.151
  761SOL    HW1 3182   5.727   1.636   0.197
  761SOL    HW2 3183   5.596   1.542   0.218
  762SOL     OW 3184   2.099   5.219   4.150
  762SOL    HW1 3185   2.034   5.290   4.174
  762SOL    HW2 3186   2.117   5.222   4.051
  763SOL     OW 3187   5.942   5.280   6.755
  763SOL    HW1 3188   5.890   5.200   6.785
  763SOL    HW2 3189   5.883   5.342   6.705
  764SOL     OW 3190   4.753   1.183   2.912
  764SOL    HW1 3191   4.809   1.243   2.854
  764SOL    HW2 3192   4.774   1.087   2.890
  765SOL     OW 3193   6.659   6.559   3.351
  765SOL    HW1 3194   6.664   6.653   3.317
  765SOL    HW2 3195   6.565   6.539   3.379
  766SOL     OW 3196   0.319   6.424   6.990
  766SOL    HW1 3197   0.320   6.382   0.054
  766SOL    HW2 3198   0.332   6.353   6.920
  767SOL     OW 3199   5.764   0.107   1.313
  767SOL    HW1 3200   5.734   0.137   1.223
  767SOL    HW2 3201   5.860   0.080   1.309
  768SOL     OW 3202   2.997   6.802   3.476
  768SOL    HW1 3203   2.936   6.725   3.457
  768SOL    HW2 3204   2.969   6.846   3.562
  769SOL     OW 3205   2.989   0.652   6.867
  769SOL    HW1 3206   2.964   0.563   6.906
  769SOL    HW2 3207   3.016   0.640   6.771
  770SOL     OW 3208   2.909   5.174   3.461
  770SOL    HW1 3209   2.825   5.216   3.428
  770SOL    HW2 3210   2.955   5.127   3.386
  771SOL     OW 3211   0.122   5.622   4.369
  771SOL    HW1 3212   0.216   5.620   4.402
  771SOL    HW2 3213   0.114   5.569   4.286
  772SOL     OW 3214   6.791   4.334   5.149
  772SOL    HW1 3215   6.804   4.273   5.070
  772SOL    HW2 3216   6.745   4.418   5.119
  773SOL     OW 3217   0.351   3.641   1.775
  773SOL    HW1 3218   0.423   3.610   1.713
  773SOL    HW2 3219   0.301   3.562   1.812
  774SOL     OW 3220   1.601   1.376   1.496
  774SOL    HW1 3221   1.599   1.318   1.577
  774SOL    HW2 3222   1.682   1.355   1.442
  775SOL     OW 3223   1.295   2.145   4.416
  775SOL    HW1 3224   1.305   2.046   4.426
  775SOL    HW2 3225   1.199   2.170   4.431
  776SOL     OW 3226   2.211   0.309   5.598
  776SOL    HW1 3227   2.186   0.297   5.694
  776SOL    HW2 3228   2.310   0.322   5.591
  777SOL     OW 3229   4.172   0.533   0.245
  777SOL    HW1 3230   4.098   0.467   0.231
  777SOL    HW2 3231   4.134   0.625   0.250
  778SOL     OW 3232   4.271   5.825   4.146
  778SOL    HW1 3233   4.340   5.858   4.082
  778SOL    HW2 3234   4.289   5.862   4.237
  779SOL     OW 3235   1.019   1.019   2.575
  779SOL    HW1 3236   1.096   1.073   2.609
  779SOL    HW2 3237   1.051   0.927   2.552
  780SOL     OW 3238   5.038   3.418   5.306
  780SOL    HW1 3239   5.081   3.393   5.393
  780SOL    HW2 3240   5.074   3.359   5.234
  781SOL     OW 3241   1.026   2.124   6.591
  781SOL    HW1 3242   0.948   2.130   6.529
  781SOL    HW2 3243   1.069   2.035   6.583
  782SOL     OW 3244   0.308   4.135   0.895
  782SOL    HW1 3245   0.372   4.124   0.972
  782SOL    HW2 3246   0.218   4.161   0.930
  783SOL     OW 3247   2.283   4.026   0.330
  783SOL    HW1 3248   2.202   4.004   0.385
  783SOL    HW2 3249   2.322   3.941   0.294
  784SOL     OW 3250   5.166   6.248   3.593
  784SOL    HW1 3251   5.243   6.186   3.574
  784SOL    HW2 3252   5.089   6.196   3.627
  785SOL     OW 3253   5.884   2.259   4.132
  785SOL    HW1 3254   5.911   2.221   4.220
  785SOL    HW2 3255   5.916   2.353   4.124
  786SOL     OW 3256   6.349   0.132   0.076
  786SOL    HW1 3257   6.430   0.093   0.120
  786SOL    HW2 3258   6.299   0.060   0.028
  787SOL     OW 3259   4.158   1.414   6.647
  787SOL    HW1 3260   4.188   1.346   6.581
  787SOL    HW2 3261   4.059   1.407   6.661
  788SOL     OW 3262   0.746   4.741   3.950
  788SOL    HW1 3263   0.714   4.723   3.857
  788SOL    HW2 3264   0.723   4.835   3.976
  789SOL     OW 3265   6.096   3.572   0.974
  789SOL    HW1 3266   5.998   3.562   0.958
  789SOL    HW2 3267   6.145   3.494   0.934
  790SOL     OW 3268   3.587   0.930   4.008
  790SOL    HW1 3269   3.522   0.867   3.966
  790SOL    HW2 3270   3.641   0.882   4.077
  791SOL     OW 3271   3.907   2.168   4.474
  791SOL    HW1 3272   3.876   2.150   4.567
  791SOL    HW2 3273   3.830   2.162   4.411
  792SOL     OW 3274   5.645   0.059   3.436
  792SOL    HW1 3275   5.617   7.016   3.370
  792SOL    HW2 3276   5.739   0.043   3.464
  793SOL     OW 3277   6.736   0.032   6.023
  793SOL    HW1 3278   6.713   6.967   6.054
  793SOL    HW2 3279   6.704   0.045   5.929
  794SOL     OW 3280   3.627   5.296   4.913
  794SOL    HW1 3281   3.629   5.203   4.874
  794SOL    HW2 3282   3.603   5.361   4.841
  795SOL     OW 3283   4.837   4.961   6.231
  795SOL    HW1 3284   4.804   5.042   6.279
  795SOL    HW2 3285   4.936   4.951   6.246
  796SOL     OW 3286   0.659   1.887   6.208
  796SOL    HW1 3287   0.595   1.936   6.148
  796SOL    HW2 3288   0.753   1.908   6.181
  797SOL     OW 3289   5.946   2.608   5.337
  797SOL    HW1 3290   5.857   2.638   5.302
  797SOL    HW2 3291   6.018   2.668   5.303
  798SOL     OW 3292   6.325   0.944   5.232
  798SOL    HW1 3293   6.328   0.942   5.332
  798SOL    HW2 3294   6.398   0.887   5.194
  799SOL     OW 3295   6.780   3.774   3.732
  799SOL    HW1 3296   6.860   3.823   3.766
  799SOL    HW2 3297   6.751   3.814   3.645
  800SOL     OW 3298   6.637   1.560   1.971
  800SOL    HW1 3299   6.706   1.527   2.036
  800SOL    HW2 3300   6.670   1.547   1.878
  801SOL     OW 3301   0.426   1.996   3.953
  801SOL    HW1 3302   0.423   1.975   3.855
  801SOL    HW2 3303   0.339   1.970   3.995
  802SOL     OW 3304   5.626   1.254   1.078
  802SOL    HW1 3305   5.535   1.267   1.038
  802SOL    HW2 3306   5.659   1.341   1.115
  803SOL     OW 3307   1.624   0.314   4.778
  803SOL    HW1 3308   1.559   0.313   4.701
  803SOL    HW2 3309   1.639   0.221   4.810
  804SOL     OW 3310   6.227   6.838   1.443
  804SOL    HW1 3311   6.129   6.847   1.460
  804SOL    HW2 3312   6.246   6.853   1.346
  805SOL     OW 3313   1.230   3.560   5.578
  805SOL    HW1 3314   1.295   3.623   5.621
  805SOL    HW2 3315   1.256   3.546   5.482
  806SOL     OW 3316   4.868   0.969   0.901
  806SOL    HW1 3317   4.877   0.958   0.802
  806SOL    HW2 3318   4.784   0.923   0.931
  807SOL     OW 3319   1.134   0.351   2.854
  807SOL    HW1 3320   1.079   0.290   2.797
  807SOL    HW2 3321   1.111   0.446   2.833
  808SOL     OW 3322   6.051   3.356   5.400
  808SOL    HW1 3323   5.953   3.351   5.382
  808SOL    HW2 3324   6.071   3.308   5.486
  809SOL     OW 3325   0.683   5.279   6.468
  809SOL    HW1 3326   0.599   5.229   6.446
  809SOL    HW2 3327   0.761   5.231   6.429
  810SOL     OW 3328   6.580   5.038   6.699
  810SOL    HW1 3329   6.644   5.083   6.760
  810SOL    HW2 3330   6.628   4.964   6.651
  811SOL     OW 3331   4.517   5.042   3.626
  811SOL    HW1 3332   4.552   5.113   3.687
  811SOL    HW2 3333   4.489   4.963   3.680
  812SOL     OW 3334   0.736   0.358   2.594
  812SOL    HW1 3335   0.799   0.283   2.574
  812SOL    HW2 3336   0.770   0.410   2.673
  813SOL     OW 3337   5.892   5.691   1.973
  813SOL    HW1 3338   5.954   5.615   1.956
  813SOL    HW2 3339   5.889   5.751   1.893
  814SOL     OW 3340   5.644   5.648   1.381
  814SOL    HW1 3341   5.677   5.592   1.457
  814SOL    HW2 3342   5.549   5.624   1.361
  815SOL     OW 3343   0.649   1.785   7.003
  815SOL    HW1 3344   0.577   1.830   6.950
  815SOL    HW2 3345   0.616   1.697   0.009
  816SOL     OW 3346   5.914   0.575   1.070
  816SOL    HW1 3347   6.011   0.586   1.052
  816SOL    HW2 3348   5.901   0.551   1.167
  817SOL     OW 3349   0.668   1.800   1.948
  817SOL    HW1 3350   0.582   1.793   1.897
  817SOL    HW2 3351   0.710   1.889   1.929
  818SOL     OW 3352   6.314   1.768   2.107
  818SOL    HW1 3353   6.343   1.711   2.030
  818SOL    HW2 3354   6.297   1.861   2.075
  819SOL     OW 3355   0.441   4.747   3.114
  819SOL    HW1 3356   0.481   4.784   3.031
  819SOL    HW2 3357   0.342   4.740   3.103
  820SOL     OW 3358   1.511   2.786   4.767
  820SOL    HW1 3359   1.538   2.815   4.675
  820SOL    HW2 3360   1.592   2.785   4.826
  821SOL     OW 3361   1.348   3.968   0.322
  821SOL    HW1 3362   1.354   3.952   0.421
  821SOL    HW2 3363   1.342   3.880   0.275
  822SOL     OW 3364   1.596   3.647   4.991
  822SOL    HW1 3365   1.690   3.679   4.987
  822SOL    HW2 3366   1.588   3.574   5.059
  823SOL     OW 3367   3.067   3.399   0.850
  823SOL    HW1 3368   3.090   3.483   0.899
  823SOL    HW2 3369   3.105   3.321   0.899
  824SOL     OW 3370   6.033   2.028   6.090
  824SOL    HW1 3371   6.113   2.082   6.064
  824SOL    HW2 3372   6.060   1.956   6.153
  825SOL     OW 3373   1.433   4.299   1.803
  825SOL    HW1 3374   1.479   4.233   1.862
  825SOL    HW2 3375   1.501   4.343   1.743
  826SOL     OW 3376   0.986   4.603   5.825
  826SOL    HW1 3377   1.013   4.521   5.875
  826SOL    HW2 3378   0.902   4.585   5.774
  827SOL     OW 3379   3.983   5.474   0.976
  827SOL    HW1 3380   4.074   5.432   0.972
  827SOL    HW2 3381   3.978   5.548   0.909
  828SOL     OW 3382   6.368   6.877   5.368
  828SOL    HW1 3383   6.390   6.922   5.282
  828SOL    HW2 3384   6.351   6.780   5.352
  829SOL     OW 3385   3.908   3.089   5.035
  829SOL    HW1 3386   3.869   3.179   5.017
  829SOL    HW2 3387   3.834   3.025   5.058
  830SOL     OW 3388   4.619   3.953   5.832
  830SOL    HW1 3389   4.637   3.894   5.754
  830SOL    HW2 3390   4.587   4.042   5.801
  831SOL     OW 3391   6.557   0.137   4.872
  831SOL    HW1 3392   6.565   0.073   4.796
  831SOL    HW2 3393   6.487   0.205   4.852
  832SOL     OW 3394   2.174   1.253   5.778
  832SOL    HW1 3395   2.079   1.219   5.781
  832SOL    HW2 3396   2.173   1.351   5.761
  833SOL     OW 3397   0.788   6.760   5.575
  833SOL    HW1 3398   0.764   6.837   5.516
  833SOL    HW2 3399   0.794   6.791   5.670
  834SOL     OW 3400   3.354   4.497   5.735
  834SOL    HW1 3401   3.282   4.470   5.671
  834SOL    HW2 3402   3.417   4.559   5.689
  835SOL     OW 3403   4.487   0.918   3.392
  835SOL    HW1 3404   4.520   0.959   3.307
  835SOL    HW2 3405   4.561   0.920   3.460
  836SOL     OW 3406   2.637   0.496   0.011
  836SOL    HW1 3407   2.714   0.442   0.044
  836SOL    HW2 3408   2.584   0.529   0.089
  837SOL     OW 3409   3.795   0.970   4.999
  837SOL    HW1 3410   3.894   0.981   5.000
  837SOL    HW2 3411   3.763   0.949   5.091
  838SOL     OW 3412   1.294   4.641   2.352
  838SOL    HW1 3413   1.352   4.561   2.368
  838SOL    HW2 3414   1.212   4.634   2.408
  839SOL     OW 3415   3.455   0.936   1.831
  839SOL    HW1 3416   3.430   1.000   1.758
  839SOL    HW2 3417   3.403   0.958   1.914
  840SOL     OW 3418   0.708   1.612   6.301
  840SOL    HW1 3419   0.789   1.629   6.356
  840SOL    HW2 3420   0.665   1.699   6.277
  841SOL     OW 3421   0.315   3.619   0.503
  841SOL    HW1 3422   0.361   3.685   0.562
  841SOL    HW2 3423   0.216   3.636   0.504
  842SOL     OW 3424   3.516   5.576   3.512
  842SOL    HW1 3425   3.553   5.574   3.605
  842SOL    HW2 3426   3.420   5.603   3.515
  843SOL     OW 3427   6.556   4.054   2.309
  843SOL    HW1 3428   6.473   4.069   2.255
  843SOL    HW2 3429   6.556   4.116   2.388
  844SOL     OW 3430   5.352   5.549   0.221
  844SOL    HW1 3431   5.333   5.490   0.299
  844SOL    HW2 3432   5.286   5.532   0.148
  845SOL     OW 3433   1.774   5.287   4.525
  845SOL    HW1 3434   1.873   5.278   4.526
  845SOL    HW2 3435   1.735   5.220   4.462
  846SOL     OW 3436   5.131   3.121   6.919
  846SOL    HW1 3437   5.170   3.122   7.011
  846SOL    HW2 3438   5.158   3.204   6.871
  847SOL     OW 3439   5.399   4.067   1.912
  847SOL    HW1 3440   5.363   4.160   1.901
  847SOL    HW2 3441   5.483   4.070   1.967
  848SOL     OW 3442   6.386   0.101   5.478
  848SOL    HW1 3443   6.318   0.123   5.547
  848SOL    HW2 3444   6.382   0.003   5.457
  849SOL     OW 3445   0.665   5.568   4.182
  849SOL    HW1 3446   0.655   5.573   4.083
  849SOL    HW2 3447   0.761   5.556   4.206
  850SOL     OW 3448   3.698   0.731   3.500
  850SOL    HW1 3449   3.627   0.663   3.482
  850SOL    HW2 3450   3.683   0.771   3.591
  851SOL     OW 3451   0.360   0.569   5.100
  851SOL    HW1 3452   0.422   0.588   5.177
  851SOL    HW2 3453   0.266   0.586   5.129
  852SOL     OW 3454   2.853   4.456   5.884
  852SOL    HW1 3455   2.871   4.363   5.917
  852SOL    HW2 3456   2.761   4.483   5.910
  853SOL     OW 3457   1.447   3.737   1.114
  853SOL    HW1 3458   1.374   3.714   1.049
  853SOL    HW2 3459   1.491   3.822   1.086
  854SOL     OW 3460   6.464   5.170   1.960
  854SOL    HW1 3461   6.546   5.222   1.983
  854SOL    HW2 3462   6.384   5.230   1.967
  855SOL     OW 3463   5.213   0.605   0.961
  855SOL    HW1 3464   5.149   0.608   0.884
  855SOL    HW2 3465   5.162   0.590   1.046
  856SOL     OW 3466   0.977   1.495   5.244
  856SOL    HW1 3467   1.003   1.426   5.176
  856SOL    HW2 3468   0.913   1.455   5.309
  857SOL     OW 3469   6.131   3.932   1.734
  857SOL    HW1 3470   6.156   3.924   1.638
  857SOL    HW2 3471   6.033   3.952   1.742
  858SOL     OW 3472   3.440   3.525   1.302
  858SOL    HW1 3473   3.500   3.544   1.224
  858SOL    HW2 3474   3.353   3.573   1.289
  859SOL     OW 3475   0.085   4.939   0.801
  859SOL    HW1 3476   0.117   4.956   0.707
  859SOL    HW2 3477   0.147   4.985   0.865
  860SOL     OW 3478   2.273   4.623   0.751
  860SOL    HW1 3479   2.244   4.702   0.698
  860SOL    HW2 3480   2.369   4.602   0.731
  861SOL     OW 3481   3.617   4.684   6.166
  861SOL    HW1 3482   3.675   4.763   6.186
  861SOL    HW2 3483   3.596   4.682   6.068
  862SOL     OW 3484   4.742   4.176   3.757
  862SOL    HW1 3485   4.709   4.229   3.679
  862SOL    HW2 3486   4.814   4.227   3.804
  863SOL     OW 3487   5.728   1.835   0.977
  863SOL    HW1 3488   5.642   1.790   1.000
  863SOL    HW2 3489   5.735   1.921   1.027
  864SOL     OW 3490   6.626   4.467   2.513
  864SOL    HW1 3491   6.675   4.451   2.427
  864SOL    HW2 3492   6.538   4.511   2.493
  865SOL     OW 3493   1.805   0.868   3.917
  865SOL    HW1 3494   1.804   0.768   3.909
  865SOL    HW2 3495   1.896   0.898   3.943
  866SOL     OW 3496   3.924   1.089   0.897
  866SOL    HW1 3497   3.839   1.066   0.849
  866SOL    HW2 3498   4.001   1.081   0.833
  867SOL     OW 3499   2.072   1.535   6.232
  867SOL    HW1 3500   2.012   1.498   6.161
  867SOL    HW2 3501   2.017   1.562   6.312
  868SOL     OW 3502   6.056   3.049   3.333
  868SOL    HW1 3503   6.040   3.077   3.428
  868SOL    HW2 3504   6.107   3.121   3.285
  869SOL     OW 3505   6.762   4.240   1.316
  869SOL    HW1 3506   6.797   4.155   1.277
  869SOL    HW2 3507   6.824   4.271   1.388
  870SOL     OW 3508   6.742   2.514   0.477
  870SOL    HW1 3509   6.672   2.524   0.547
  870SOL    HW2 3510   6.816   2.456   0.511
  871SOL     OW 3511   6.250   4.084   0.667
  871SOL    HW1 3512   6.253   4.014   0.738
  871SOL    HW2 3513   6.183   4.058   0.598
  872SOL     OW 3514   6.058   2.200   1.976
  872SOL    HW1 3515   6.131   2.238   1.919
  872SOL    HW2 3516   6.003   2.274   2.014
  873SOL     OW 3517   4.001   6.837   4.715
  873SOL    HW1 3518   4.039   6.916   4.764
  873SOL    HW2 3519   4.054   6.820   4.632
  874SOL     OW 3520   0.108   4.007   6.466
  874SOL    HW1 3521   0.099   4.105   6.448
  874SOL    HW2 3522   0.070   3.955   6.389
  875SOL     OW 3523   5.788   5.079   6.450
  875SOL    HW1 3524   5.754   5.085   6.543
  875SOL    HW2 3525   5.877   5.033   6.449
  876SOL     OW 3526   1.023   1.968   0.961
  876SOL    HW1 3527   0.944   1.998   0.907
  876SOL    HW2 3528   1.055   1.880   0.927
  877SOL     OW 3529   5.865   6.007   0.525
  877SOL    HW1 3530   5.789   5.967   0.474
  877SOL    HW2 3531   5.906   6.080   0.471
  878SOL     OW 3532   3.618   2.357   0.328
  878SOL    HW1 3533   3.701   2.381   0.278
  878SOL    HW2 3534   3.643   2.304   0.410
  879SOL     OW 3535   4.301   1.821   2.634
  879SOL    HW1 3536   4.394   1.840   2.603
  879SOL    HW2 3537   4.237   1.880   2.585
  880SOL     OW 3538   4.387   5.262   1.849
  880SOL    HW1 3539   4.362   5.260   1.946
  880SOL    HW2 3540   4.486   5.273   1.840
  881SOL     OW 3541   4.697   5.004   3.905
  881SOL    HW1 3542   4.744   5.047   3.982
  881SOL    HW2 3543   4.645   5.073   3.855
  882SOL     OW 3544   0.968   2.157   4.460
  882SOL    HW1 3545   0.960   2.199   4.551
  882SOL    HW2 3546   0.952   2.226   4.390
  883SOL     OW 3547   3.587   4.294   6.924
  883SOL    HW1 3548   3.554   4.200   6.916
  883SOL    HW2 3549   3.543   4.351   6.854
  884SOL     OW 3550   4.001   4.029   1.875
  884SOL    HW1 3551   3.917   4.081   1.865
  884SOL    HW2 3552   3.999   3.979   1.962
  885SOL     OW 3553   4.515   6.356   6.127
  885SOL    HW1 3554   4.498   6.371   6.029
  885SOL    HW2 3555   4.500   6.442   6.176
  886SOL     OW 3556   3.757   1.736   6.992
  886SOL    HW1 3557   3.840   1.784   7.020
  886SOL    HW2 3558   3.678   1.776   0.012
  887SOL     OW 3559   5.666   6.861   5.841
  887SOL    HW1 3560   5.618   6.805   5.773
  887SOL    HW2 3561   5.641   6.957   5.828
  888SOL     OW 3562   6.416   6.534   2.960
  888SOL    HW1 3563   6.379   6.577   3.042
  888SOL    HW2 3564   6.515   6.525   2.969
  889SOL     OW 3565   0.833   0.286   4.487
  889SOL    HW1 3566   0.847   0.195   4.448
  889SOL    HW2 3567   0.902   0.349   4.452
  890SOL     OW 3568   1.898   4.447   2.306
  890SOL    HW1 3569   1.902   4.485   2.398
  890SOL    HW2 3570   1.963   4.496   2.248
  891SOL     OW 3571   5.549   3.888   6.177
  891SOL    HW1 3572   5.542   3.807   6.235
  891SOL    HW2 3573   5.526   3.969   6.231
  892SOL     OW 3574   2.465   5.144   1.167
  892SOL    HW1 3575   2.447   5.112   1.260
  892SOL    HW2 3576   2.490   5.065   1.110
  893SOL     OW 3577   1.784   6.561   1.658
  893SOL    HW1 3578   1.856   6.630   1.670
  893SOL    HW2 3579   1.822   6.470   1.677
  894SOL     OW 3580   0.913   5.495   4.260
  894SOL    HW1 3581   1.010   5.515   4.243
  894SOL    HW2 3582   0.904   5.401   4.293
  895SOL     OW 3583   2.527   1.043   4.403
  895SOL    HW1 3584   2.462   1.116   4.382
  895SOL    HW2 3585   2.477   0.961   4.431
  896SOL     OW 3586   4.976   6.942   3.533
  896SOL    HW1 3587   5.049   7.011   3.537
  896SOL    HW2 3588   4.890   6.983   3.564
  897SOL     OW 3589   5.112   1.805   6.402
  897SOL    HW1 3590   5.146   1.889   6.361
  897SOL    HW2 3591   5.018   1.819   6.433
  898SOL     OW 3592   5.734   5.810   4.056
  898SOL    HW1 3593   5.686   5.884   4.007
  898SOL    HW2 3594   5.715   5.817   4.154
  899SOL     OW 3595   1.103   4.376   0.247
  899SOL    HW1 3596   1.060   4.456   0.289
  899SOL    HW2 3597   1.180   4.347   0.303
  900SOL     OW 3598   0.498   5.956   3.473
  900SOL    HW1 3599   0.560   6.033   3.459
  900SOL    HW2 3600   0.418   5.987   3.524
  901SOL     OW 3601   5.369   1.764   3.398
  901SOL    HW1 3602   5.407   1.795   3.485
  901SOL    HW2 3603   5.297   1.827   3.368
  902SOL     OW 3604   0.985   6.167   6.975
  902SOL    HW1 3605   0.976   6.264   6.955
  902SOL    HW2 3606   1.075   6.135   6.945
  903SOL     OW 3607   0.634   4.790   6.607
  903SOL    HW1 3608   0.557   4.853   6.593
  903SOL    HW2 3609   0.667   4.798   6.701
  904SOL     OW 3610   1.536   0.964   3.770
  904SOL    HW1 3611   1.628   0.939   3.801
  904SOL    HW2 3612   1.526   0.942   3.673
  905SOL     OW 3613   6.240   2.125   5.121
  905SOL    HW1 3614   6.226   2.136   5.022
  905SOL    HW2 3615   6.334   2.151   5.144
  906SOL     OW 3616   6.317   4.007   5.557
  906SOL    HW1 3617   6.298   3.958   5.642
  906SOL    HW2 3618   6.342   3.942   5.485
  907SOL     OW 3619   0.227   3.079   1.991
  907SOL    HW1 3620   0.142   3.117   2.029
  907SOL    HW2 3621   0.241   3.116   1.899
  908SOL     OW 3622   2.498   0.826   3.361
  908SOL    HW1 3623   2.456   0.738   3.344
  908SOL    HW2 3624   2.598   0.815   3.368
  909SOL     OW 3625   4.379   6.780   1.020
  909SOL    HW1 3626   4.318   6.851   1.054
  909SOL    HW2 3627   4.402   6.798   0.925
  910SOL     OW 3628   1.932   1.601   2.023
  910SOL    HW1 3629   1.907   1.672   2.088
  910SOL    HW2 3630   1.849   1.558   1.986
  911SOL     OW 3631   0.506   3.990   0.723
  911SOL    HW1 3632   0.596   4.029   0.740
  911SOL    HW2 3633   0.438   4.035   0.781
  912SOL     OW 3634   0.876   0.813   6.298
  912SOL    HW1 3635   0.837   0.895   6.341
  912SOL    HW2 3636   0.905   0.749   6.370
  913SOL     OW 3637   2.101   1.176   1.975
  913SOL    HW1 3638   2.046   1.169   2.059
  913SOL    HW2 3639   2.066   1.249   1.918
  914SOL     OW 3640   3.111   5.894   2.120
  914SOL    HW1 3641   3.114   5.798   2.147
  914SOL    HW2 3642   3.204   5.925   2.099
  915SOL     OW 3643   1.434   2.604   0.313
  915SOL    HW1 3644   1.500   2.678   0.326
  915SOL    HW2 3645   1.447   2.565   0.222
  916SOL     OW 3646   1.458   2.882   2.228
  916SOL    HW1 3647   1.541   2.834   2.200
  916SOL    HW2 3648   1.398   2.894   2.149
  917SOL     OW 3649   3.555   1.623   6.571
  917SOL    HW1 3650   3.641   1.579   6.546
  917SOL    HW2 3651   3.525   1.682   6.496
  918SOL     OW 3652   0.614   1.709   5.195
  918SOL    HW1 3653   0.524   1.667   5.206
  918SOL    HW2 3654   0.621   1.749   5.104
  919SOL     OW 3655   1.326   0.017   1.036
  919SOL    HW1 3656   1.253   0.077   1.070
  919SOL    HW2 3657   1.288   6.981   0.968
  920SOL     OW 3658   1.632   1.204   3.311
  920SOL    HW1 3659   1.577   1.276   3.267
  920SOL    HW2 3660   1.725   1.239   3.326
  921SOL     OW 3661   3.590   4.359   0.627
  921SOL    HW1 3662   3.545   4.438   0.586
  921SOL    HW2 3663   3.674   4.389   0.672
  922SOL     OW 3664   2.038   5.170   6.351
  922SOL    HW1 3665   2.126   5.203   6.385
  922SOL    HW2 3666   1.969   5.241   6.361
  923SOL     OW 3667   4.025   1.124   6.773
  923SOL    HW1 3668   4.017   1.095   6.678
  923SOL    HW2 3669   3.972   1.208   6.786
  924SOL     OW 3670   6.627   4.835   2.599
  924SOL    HW1 3671   6.583   4.774   2.533
  924SOL    HW2 3672   6.569   4.915   2.615
  925SOL     OW 3673   6.781   2.009   3.013
  925SOL    HW1 3674   6.757   1.944   2.941
  925SOL    HW2 3675   6.778   2.102   2.977
  926SOL     OW 3676   4.728   6.236   0.651
  926SOL    HW1 3677   4.753   6.140   0.668
  926SOL    HW2 3678   4.701   6.279   0.737
  927SOL     OW 3679   4.725   5.551   4.897
  927SOL    HW1 3680   4.806   5.528   4.951
  927SOL    HW2 3681   4.721   5.651   4.884
  928SOL     OW 3682   0.292   1.213   0.984
  928SOL    HW1 3683   0.238   1.204   1.068
  928SOL    HW2 3684   0.282   1.130   0.929
  929SOL     OW 3685   0.003   2.828   2.217
  929SOL    HW1 3686   0.007   2.795   2.311
  929SOL    HW2 3687   0.032   2.756   2.155
  930SOL     OW 3688   5.780   5.409   2.432
  930SOL    HW1 3689   5.813   5.467   2.358
  930SOL    HW2 3690   5.761   5.466   2.512
  931SOL     OW 3691   1.607   2.991   1.798
  931SOL    HW1 3692   1.626   2.962   1.704
  931SOL    HW2 3693   1.692   3.016   1.843
  932SOL     OW 3694   4.126   6.241   1.420
  932SOL    HW1 3695   4.161   6.190   1.342
  932SOL    HW2 3696   4.203   6.284   1.468
  933SOL     OW 3697   1.265   6.779   3.738
  933SOL    HW1 3698   1.215   6.853   3.693
  933SOL    HW2 3699   1.358   6.774   3.701
  934SOL     OW 3700   3.528   0.708   5.394
  934SOL    HW1 3701   3.493   0.690   5.486
  934SOL    HW2 3702   3.459   0.758   5.342
  935SOL     OW 3703   1.332   3.934   5.492
  935SOL    HW1 3704   1.414   3.963   5.543
  935SOL    HW2 3705   1.280   4.014   5.466
  936SOL     OW 3706   0.460   2.128   1.539
  936SOL    HW1 3707   0.377   2.101   1.489
  936SOL    HW2 3708   0.540   2.106   1.483
  937SOL     OW 3709   5.413   2.102   3.700
  937SOL    HW1 3710   5.317   2.099   3.674
  937SOL    HW2 3711   5.464   2.157   3.634
  938SOL     OW 3712   0.165   1.145   6.803
  938SOL    HW1 3713   0.087   1.099   6.761
  938SOL    HW2 3714   0.250   1.105   6.768
  939SOL     OW 3715   6.470   1.006   5.487
  939SOL    HW1 3716   6.562   1.032   5.460
  939SOL    HW2 3717   6.471   0.916   5.530
  940SOL     OW 3718   6.964   0.501   4.395
  940SOL    HW1 3719   6.912   0.547   4.467
  940SOL    HW2 3720   6.924   0.411   4.377
  941SOL     OW 3721   5.501   2.404   5.414
  941SOL    HW1 3722   5.544   2.391   5.504
  941SOL    HW2 3723   5.409   2.366   5.416
  942SOL     OW 3724   4.514   0.472   4.979
  942SOL    HW1 3725   4.435   0.440   5.032
  942SOL    HW2 3726   4.494   0.563   4.943
  943SOL     OW 3727   5.437   2.017   0.461
  943SOL    HW1 3728   5.513   1.969   0.416
  943SOL    HW2 3729   5.355   1.959   0.456
  944SOL     OW 3730   4.936   4.279   5.087
  944SOL    HW1 3731   4.839   4.254   5.083
  944SOL    HW2 3732   4.969   4.270   5.181
  945SOL     OW 3733   5.459   3.392   5.969
  945SOL    HW1 3734   5.463   3.322   6.041
  945SOL    HW2 3735   5.549   3.400   5.927
  946SOL     OW 3736   5.853   3.883   6.778
  946SOL    HW1 3737   5.948   3.852   6.784
  946SOL    HW2 3738   5.843   3.942   6.698
  947SOL     OW 3739   0.814   3.080   5.527
  947SOL    HW1 3740   0.754   3.075   5.448
  947SOL    HW2 3741   0.760   3.091   5.611
  948SOL     OW 3742   3.986   1.614   0.467
  948SOL    HW1 3743   3.945   1.579   0.383
  948SOL    HW2 3744   4.076   1.573   0.480
  949SOL     OW 3745   5.655   6.169   0.002
  949SOL    HW1 3746   5.657   6.235   6.953
  949SOL    HW2 3747   5.568   6.121   0.002
  950SOL     OW 3748   4.206   5.169   0.805
  950SOL    HW1 3749   4.205   5.220   0.719
  950SOL    HW2 3750   4.245   5.227   0.878
  951SOL     OW 3751   0.644   3.067   4.131
  951SOL    HW1 3752   0.545   3.076   4.136
  951SOL    HW2 3753   0.685   3.107   4.214
  952SOL     OW 3754   5.184   1.853   1.454
  952SOL    HW1 3755   5.110   1.879   1.392
  952SOL    HW2 3756   5.219   1.935   1.500
  953SOL     OW 3757   3.876   6.614   5.888
  953SOL    HW1 3758   3.881   6.650   5.794
  953SOL    HW2 3759   3.873   6.690   5.952
  954SOL     OW 3760   6.587   0.453   1.405
  954SOL    HW1 3761   6.608   0.546   1.434
  954SOL    HW2 3762   6.634   0.388   1.465
  955SOL     OW 3763   0.367   6.810   2.437
  955SOL    HW1 3764   0.306   6.735   2.414
  955SOL    HW2 3765   0.434   6.822   2.363
  956SOL     OW 3766   1.385   2.554   0.563
  956SOL    HW1 3767   1.430   2.567   0.474
  956SOL    HW2 3768   1.391   2.640   0.615
  957SOL     OW 3769   2.105   6.782   4.907
  957SOL    HW1 3770   2.145   6.756   4.995
  957SOL    HW2 3771   2.011   6.813   4.921
  958SOL     OW 3772   4.995   2.974   0.286
  958SOL    HW1 3773   5.005   3.066   0.326
  958SOL    HW2 3774   5.058   2.964   0.209
  959SOL     OW 3775   1.543   3.291   1.542
  959SOL    HW1 3776   1.450   3.323   1.523
  959SOL    HW2 3777   1.608   3.343   1.486
  960SOL     OW 3778   1.895   5.289   5.348
  960SOL    HW1 3779   1.910   5.198   5.387
  960SOL    HW2 3780   1.915   5.358   5.417
  961SOL     OW 3781   3.751   0.170   0.273
  961SOL    HW1 3782   3.686   0.242   0.252
  961SOL    HW2 3783   3.807   0.197   0.351
  962SOL     OW 3784   1.313   6.472   3.803
  962SOL    HW1 3785   1.267   6.561   3.804
  962SOL    HW2 3786   1.253   6.403   3.763
  963SOL     OW 3787   6.174   0.016   2.131
  963SOL    HW1 3788   6.160   6.965   2.069
  963SOL    HW2 3789   6.244   0.077   2.094
  964SOL     OW 3790   5.388   3.381   1.575
  964SOL    HW1 3791   5.309   3.343   1.527
  964SOL    HW2 3792   5.411   3.321   1.652
  965SOL     OW 3793   1.397   1.572   7.008
  965SOL    HW1 3794   1.456   1.638   0.028
  965SOL    HW2 3795   1.305   1.610   6.999
  966SOL     OW 3796   6.796   2.860   2.083
  966SOL    HW1 3797   6.885   2.863   2.127
  966SOL    HW2 3798   6.740   2.788   2.125
  967SOL     OW 3799   0.944   5.863   2.375
  967SOL    HW1 3800   1.022   5.920   2.349
  967SOL    HW2 3801   0.890   5.908   2.446
  968SOL     OW 3802   0.034   4.167   0.995
  968SOL    HW1 3803   6.987   4.205   0.939
  968SOL    HW2 3804   0.055   4.230   1.070
  969SOL     OW 3805   4.103   6.570   6.789
  969SOL    HW1 3806   4.092   6.613   6.879
  969SOL    HW2 3807   4.038   6.496   6.779
  970SOL     OW 3808   4.566   2.700   5.652
  970SOL    HW1 3809   4.599   2.632   5.717
  970SOL    HW2 3810   4.475   2.673   5.619
  971SOL     OW 3811   0.034   2.852   0.331
  971SOL    HW1 3812   6.973   2.890   0.302
  971SOL    HW2 3813   0.021   2.758   0.364
  972SOL     OW 3814   5.677   6.816   0.533
  972SOL    HW1 3815   5.652   6.908   0.561
  972SOL    HW2 3816   5.625   6.749   0.586
  973SOL     OW 3817   5.527   3.418   5.565
  973SOL    HW1 3818   5.500   3.340   5.622
  973SOL    HW2 3819   5.519   3.502   5.619
  974SOL     OW 3820   2.891   0.917   4.864
  974SOL    HW1 3821   2.841   0.948   4.944
  974SOL    HW2 3822   2.857   0.963   4.782
  975SOL     OW 3823   3.065   0.051   5.569
  975SOL    HW1 3824   3.061   0.048   5.469
  975SOL    HW2 3825   3.157   0.079   5.597
  976SOL     OW 3826   0.222   5.278   3.463
  976SOL    HW1 3827   0.294   5.265   3.531
  976SOL    HW2 3828   0.151   5.209   3.476
  977SOL     OW 3829   1.192   2.951   1.454
  977SOL    HW1 3830   1.165   2.879   1.390
  977SOL    HW2 3831   1.146   2.935   1.542
  978SOL     OW 3832   5.512   3.493   5.064
  978SOL    HW1 3833   5.589   3.505   5.001
  978SOL    HW2 3834   5.469   3.581   5.082
  979SOL     OW 3835   5.757   1.421   3.401
  979SOL    HW1 3836   5.703   1.492   3.356
  979SOL    HW2 3837   5.854   1.445   3.398
  980SOL     OW 3838   6.729   0.341   4.887
  980SOL    HW1 3839   6.666   0.264   4.900
  980SOL    HW2 3840   6.814   0.323   4.936
  981SOL     OW 3841   6.727   3.153   5.579
  981SOL    HW1 3842   6.774   3.226   5.628
  981SOL    HW2 3843   6.794   3.096   5.531
  982SOL     OW 3844   1.582   3.496   1.372
  982SOL    HW1 3845   1.654   3.561   1.346
  982SOL    HW2 3846   1.539   3.461   1.289
  983SOL     OW 3847   5.566   2.079   3.098
  983SOL    HW1 3848   5.654   2.042   3.128
  983SOL    HW2 3849   5.582   2.156   3.036
  984SOL     OW 3850   4.996   2.449   5.749
  984SOL    HW1 3851   5.022   2.405   5.663
  984SOL    HW2 3852   5.078   2.470   5.802
  985SOL     OW 3853   2.530   4.970   0.667
  985SOL    HW1 3854   2.596   5.044   0.673
  985SOL    HW2 3855   2.563   4.902   0.601
  986SOL     OW 3856   4.342   4.633   6.972
  986SOL    HW1 3857   4.402   4.654   0.022
  986SOL    HW2 3858   4.250   4.668   6.991
  987SOL     OW 3859   3.436   6.633   2.288
  987SOL    HW1 3860   3.467   6.584   2.206
  987SOL    HW2 3861   3.434   6.570   2.365
  988SOL     OW 3862   3.574   3.245   1.612
  988SOL    HW1 3863   3.526   3.234   1.525
  988SOL    HW2 3864   3.602   3.340   1.622
  989SOL     OW 3865   0.488   0.375   4.589
  989SOL    HW1 3866   0.514   0.310   4.519
  989SOL    HW2 3867   0.395   0.356   4.620
  990SOL     OW 3868   4.640   5.941   2.559
  990SOL    HW1 3869   4.610   6.035   2.541
  990SOL    HW2 3870   4.688   5.938   2.647
  991SOL     OW 3871   6.120   1.651   5.163
  991SOL    HW1 3872   6.200   1.650   5.102
  991SOL    HW2 3873   6.051   1.713   5.127
  992SOL     OW 3874   6.917   3.019   1.394
  992SOL    HW1 3875   6.824   3.023   1.429
  992SOL    HW2 3876   6.947   3.110   1.367
  993SOL     OW 3877   4.082   5.853   4.462
  993SOL    HW1 3878   4.105   5.762   4.497
  993SOL    HW2 3879   4.165   5.898   4.431
  994SOL     OW 3880   3.075   3.300   2.171
  994SOL    HW1 3881   3.096   3.392   2.204
  994SOL    HW2 3882   3.116   3.287   2.080
  995SOL     OW 3883   0.383   1.233   4.679
  995SOL    HW1 3884   0.414   1.279   4.596
  995SOL    HW2 3885   0.295   1.188   4.662
  996SOL     OW 3886   0.778   3.495   0.803
  996SOL    HW1 3887   0.794   3.543   0.717
  996SOL    HW2 3888   0.866   3.479   0.849
  997SOL     OW 3889   0.455   1.148   0.758
  997SOL    HW1 3890   0.537   1.096   0.781
  997SOL    HW2 3891   0.406   1.102   0.684
  998SOL     OW 3892   5.066   6.869   4.004
  998SOL    HW1 3893   5.102   6.791   3.953
  998SOL    HW2 3894   4.967   6.865   4.006
  999SOL     OW 3895   6.639   5.432   1.608
  999SOL    HW1 3896   6.620   5.474   1.696
  999SOL    HW2 3897   6.647   5.503   1.538
 1000SOL     OW 3898   4.553   2.324   4.339
 1000SOL    HW1 3899   4.551   2.341   4.240
 1000SOL    HW2 3900   4.476   2.372   4.382
 1001SOL     OW 3901   3.955   1.257   5.784
 1001SOL    HW1 3902   4.049   1.241   5.814
 1001SOL    HW2 3903   3.925   1.348   5.811
 1002SOL     OW 3904   0.395   1.265   6.961
 1002SOL    HW1 3905   0.311   1.227   7.000
 1002SOL    HW2 3906   0.373   1.341   6.901
 1003SOL     OW 3907   4.830   4.567   3.457
 1003SOL    HW1 3908   4.798   4.659   3.479
 1003SOL    HW2 3909   4.884   4.569   3.373
 1004SOL     OW 3910   6.114   5.753   0.527
 1004SOL    HW1 3911   6.081   5.846   0.544
 1004SOL    HW2 3912   6.153   5.748   0.435
 1005SOL     OW 3913   6.796   5.345   3.514
 1005SOL    HW1 3914   6.713   5.355   3.569
 1005SOL    HW2 3915   6.770   5.322   3.420
 1006SOL     OW 3916   2.068   3.955   0.505
 1006SOL    HW1 3917   2.091   3.858   0.513
 1006SOL    HW2 3918   1.983   3.966   0.454
 1007SOL     OW 3919   1.262   0.941   3.374
 1007SOL    HW1 3920   1.233   0.963   3.467
 1007SOL    HW2 3921   1.231   0.849   3.351
 1008SOL     OW 3922   2.576   2.073   4.539
 1008SOL    HW1 3923   2.483   2.106   4.525
 1008SOL    HW2 3924   2.573   1.976   4.565
 1009SOL     OW 3925   2.731   5.766   5.494
 1009SOL    HW1 3926   2.820   5.806   5.515
 1009SOL    HW2 3927   2.728   5.741   5.397
 1010SOL     OW 3928   4.639   0.482   6.418
 1010SOL    HW1 3929   4.707   0.478   6.346
 1010SOL    HW2 3930   4.609   0.576   6.432
 1011SOL     OW 3931   3.405   5.892   3.556
 1011SOL    HW1 3932   3.380   5.982   3.521
 1011SOL    HW2 3933   3.459   5.902   3.639
 1012SOL     OW 3934   3.734   5.442   0.425
 1012SOL    HW1 3935   3.746   5.541   0.426
 1012SOL    HW2 3936   3.701   5.411   0.514
 1013SOL     OW 3937   0.515   0.878   0.091
 1013SOL    HW1 3938   0.551   0.788   0.115
 1013SOL    HW2 3939   0.427   0.892   0.135
 1014SOL     OW 3940   5.092   0.590   6.593
 1014SOL    HW1 3941   5.104   0.536   6.510
 1014SOL    HW2 3942   5.181   0.627   6.622
 1015SOL     OW 3943   3.467   0.083   4.572
 1015SOL    HW1 3944   3.563   0.111   4.581
 1015SOL    HW2 3945   3.440   0.089   4.476
 1016SOL     OW 3946   4.204   2.253   2.210
 1016SOL    HW1 3947   4.168   2.330   2.157
 1016SOL    HW2 3948   4.278   2.209   2.160
 1017SOL     OW 3949   5.069   1.056   6.448
 1017SOL    HW1 3950   5.122   1.131   6.488
 1017SOL    HW2 3951   5.121   1.014   6.374
 1018SOL     OW 3952   1.284   2.560   1.627
 1018SOL    HW1 3953   1.274   2.467   1.592
 1018SOL    HW2 3954   1.294   2.624   1.551
 1019SOL     OW 3955   6.049   1.222   0.554
 1019SOL    HW1 3956   6.028   1.155   0.483
 1019SOL    HW2 3957   5.965   1.252   0.598
 1020SOL     OW 3958   3.332   1.862   1.474
 1020SOL    HW1 3959   3.276   1.804   1.533
 1020SOL    HW2 3960   3.407   1.901   1.528
 1021SOL     OW 3961   6.388   1.015   0.637
 1021SOL    HW1 3962   6.332   1.090   0.671
 1021SOL    HW2 3963   6.359   0.991   0.544
 1022SOL     OW 3964   3.414   2.598   0.041
 1022SOL    HW1 3965   3.323   2.557   0.053
 1022SOL    HW2 3966   3.436   2.653   0.122
 1023SOL     OW 3967   6.290   0.705   4.548
 1023SOL    HW1 3968   6.298   0.724   4.450
 1023SOL    HW2 3969   6.361   0.641   4.576
 1024SOL     OW 3970   6.580   1.399   4.402
 1024SOL    HW1 3971   6.482   1.411   4.421
 1024SOL    HW2 3972   6.593   1.380   4.305
 1025SOL     OW 3973   3.281   4.123   1.582
 1025SOL    HW1 3974   3.279   4.222   1.565
 1025SOL    HW2 3975   3.201   4.080   1.541
 1026SOL     OW 3976   0.921   2.824   6.351
 1026SOL    HW1 3977   0.869   2.900   6.389
 1026SOL    HW2 3978   0.912   2.744   6.410
 1027SOL     OW 3979   2.523   4.602   1.664
 1027SOL    HW1 3980   2.462   4.572   1.590
 1027SOL    HW2 3981   2.606   4.547   1.664
 1028SOL     OW 3982   0.649   6.004   0.916
 1028SOL    HW1 3983   0.697   5.970   0.997
 1028SOL    HW2 3984   0.688   6.092   0.890
 1029SOL     OW 3985   3.460   1.181   5.433
 1029SOL    HW1 3986   3.552   1.192   5.471
 1029SOL    HW2 3987   3.457   1.220   5.341
 1030SOL     OW 3988   3.852   4.316   5.367
 1030SOL    HW1 3989   3.879   4.287   5.459
 1030SOL    HW2 3990   3.856   4.416   5.361
 1031SOL     OW 3991   2.104   5.212   1.058
 1031SOL    HW1 3992   2.089   5.139   1.125
 1031SOL    HW2 3993   2.177   5.186   0.996
 1032SOL     OW 3994   1.409   1.489   5.174
 1032SOL    HW1 3995   1.440   1.580   5.147
 1032SOL    HW2 3996   1.467   1.420   5.130
 1033SOL     OW 3997   2.323   6.159   3.162
 1033SOL    HW1 3998   2.324   6.147   3.262
 1033SOL    HW2 3999   2.243   6.213   3.136
 1034SOL     OW 4000   1.087   0.077   1.932
 1034SOL    HW1 4001   1.031   0.129   1.868
 1034SOL    HW2 4002   1.165   0.132   1.962
 1035SOL     OW 4003   3.122   0.524   3.747
 1035SOL    HW1 4004   3.043   0.528   3.808
 1035SOL    HW2 4005   3.100   0.469   3.667
 1036SOL     OW 4006   4.378   6.850   6.612
 1036SOL    HW1 4007   4.389   6.767   6.666
 1036SOL    HW2 4008   4.424   6.838   6.523
 1037SOL     OW 4009   2.829   1.897   6.606
 1037SOL    HW1 4010   2.865   1.911   6.514
 1037SOL    HW2 4011   2.902   1.865   6.666
 1038SOL     OW 4012   2.729   1.322   5.027
 1038SOL    HW1 4013   2.750   1.354   4.935
 1038SOL    HW2 4014   2.637   1.282   5.029
 1039SOL     OW 4015   3.973   2.221   3.328
 1039SOL    HW1 4016   3.950   2.160   3.404
 1039SOL    HW2 4017   3.915   2.199   3.249
 1040SOL     OW 4018   5.424   3.600   4.642
 1040SOL    HW1 4019   5.378   3.541   4.708
 1040SOL    HW2 4020   5.372   3.601   4.556
 1041SOL     OW 4021   1.670   6.926   4.477
 1041SOL    HW1 4022   1.753   6.923   4.422
 1041SOL    HW2 4023   1.656   6.837   4.521
 1042SOL     OW 4024   4.494   3.907   1.098
 1042SOL    HW1 4025   4.515   3.998   1.132
 1042SOL    HW2 4026   4.398   3.886   1.115
 1043SOL     OW 4027   3.459   6.869   6.593
 1043SOL    HW1 4028   3.501   6.800   6.534
 1043SOL    HW2 4029   3.469   6.841   6.689
 1044SOL     OW 4030   3.728   4.065   2.155
 1044SOL    HW1 4031   3.801   3.998   2.141
 1044SOL    HW2 4032   3.709   4.075   2.252
 1045SOL     OW 4033   3.830   1.271   2.988
 1045SOL    HW1 4034   3.752   1.264   3.049
 1045SOL    HW2 4035   3.906   1.216   3.023
 1046SOL     OW 4036   3.739   1.136   2.255
 1046SOL    HW1 4037   3.730   1.228   2.218
 1046SOL    HW2 4038   3.835   1.106   2.247
 1047SOL     OW 4039   0.678   5.530   1.951
 1047SOL    HW1 4040   0.718   5.601   1.893
 1047SOL    HW2 4041   0.580   5.545   1.960
 1048SOL     OW 4042   6.445   4.739   5.353
 1048SOL    HW1 4043   6.363   4.693   5.319
 1048SOL    HW2 4044   6.419   4.804   5.424
 1049SOL     OW 4045   0.563   3.483   4.758
 1049SOL    HW1 4046   0.486   3.431   4.721
 1049SOL    HW2 4047   0.647   3.432   4.745
 1050SOL     OW 4048   2.966   0.644   0.282
 1050SOL    HW1 4049   3.025   0.716   0.317
 1050SOL    HW2 4050   2.904   0.682   0.213
 1051SOL     OW 4051   4.783   4.478   2.425
 1051SOL    HW1 4052   4.721   4.403   2.446
 1051SOL    HW2 4053   4.867   4.442   2.385
 1052SOL     OW 4054   4.166   0.300   4.552
 1052SOL    HW1 4055   4.197   0.355   4.475
 1052SOL    HW2 4056   4.069   0.317   4.568
 1053SOL     OW 4057   3.592   5.097   3.542
 1053SOL    HW1 4058   3.509   5.054   3.577
 1053SOL    HW2 4059   3.655   5.027   3.509
 1054SOL     OW 4060   4.313   6.015   4.332
 1054SOL    HW1 4061   4.262   6.071   4.267
 1054SOL    HW2 4062   4.410   6.041   4.329
 1055SOL     OW 4063   3.946   5.397   3.881
 1055SOL    HW1 4064   4.015   5.376   3.812
 1055SOL    HW2 4065   3.855   5.384   3.843
 1056SOL     OW 4066   2.081   5.726   6.035
 1056SOL    HW1 4067   2.123   5.670   5.964
 1056SOL    HW2 4068   2.028   5.799   5.992
 1057SOL     OW 4069   3.666   3.829   1.191
 1057SOL    HW1 4070   3.670   3.771   1.273
 1057SOL    HW2 4071   3.755   3.872   1.177
 1058SOL     OW 4072   2.897   6.589   1.855
 1058SOL    HW1 4073   2.812   6.555   1.814
 1058SOL    HW2 4074   2.907   6.550   1.946
 1059SOL     OW 4075   3.469   0.274   0.333
 1059SOL    HW1 4076   3.400   0.206   0.309
 1059SOL    HW2 4077   3.438   0.364   0.301
 1060SOL     OW 4078   2.326   1.299   4.483
 1060SOL    HW1 4079   2.354   1.390   4.513
 1060SOL    HW2 4080   2.229   1.300   4.459
 1061SOL     OW 4081   3.131   5.862   1.293
 1061SOL    HW1 4082   3.130   5.927   1.369
 1061SOL    HW2 4083   3.045   5.812   1.290
 1062SOL     OW 4084   4.979   4.801   5.343
 1062SOL    HW1 4085   5.066   4.809   5.293
 1062SOL    HW2 4086   4.946   4.892   5.367
 1063SOL     OW 4087   2.692   3.053   6.036
 1063SOL    HW1 4088   2.643   3.115   6.098
 1063SOL    HW2 4089   2.626   3.007   5.977
 1064SOL     OW 4090   0.256   3.415   1.952
 1064SOL    HW1 4091   0.201   3.446   2.029
 1064SOL    HW2 4092   0.197   3.368   1.886
 1065SOL     OW 4093   4.244   4.832   5.553
 1065SOL    HW1 4094   4.191   4.754   5.518
 1065SOL    HW2 4095   4.260   4.897   5.479
 1066SOL     OW 4096   4.144   6.664   3.128
 1066SOL    HW1 4097   4.063   6.675   3.071
 1066SOL    HW2 4098   4.177   6.753   3.158
 1067SOL     OW 4099   2.455   2.946   0.857
 1067SOL    HW1 4100   2.481   2.918   0.765
 1067SOL    HW2 4101   2.519   3.016   0.890
 1068SOL     OW 4102   0.473   4.466   0.583
 1068SOL    HW1 4103   0.538   4.418   0.641
 1068SOL    HW2 4104   0.380   4.448   0.616
 1069SOL     OW 4105   3.706   3.602   2.067
 1069SOL    HW1 4106   3.715   3.659   1.985
 1069SOL    HW2 4107   3.727   3.507   2.044
 1070SOL     OW 4108   2.607   6.486   0.886
 1070SOL    HW1 4109   2.562   6.418   0.943
 1070SOL    HW2 4110   2.683   6.444   0.836
 1071SOL     OW 4111   4.675   5.851   3.630
 1071SOL    HW1 4112   4.662   5.752   3.637
 1071SOL    HW2 4113   4.732   5.872   3.551
 1072SOL     OW 4114   3.590   5.477   2.705
 1072SOL    HW1 4115   3.494   5.450   2.701
 1072SOL    HW2 4116   3.648   5.401   2.675
 1073SOL     OW 4117   2.537   5.495   3.006
 1073SOL    HW1 4118   2.573   5.465   2.917
 1073SOL    HW2 4119   2.610   5.541   3.057
 1074SOL     OW 4120   1.310   5.506   2.566
 1074SOL    HW1 4121   1.336   5.601   2.549
 1074SOL    HW2 4122   1.391   5.454   2.594
 1075SOL     OW 4123   0.945   4.222   3.145
 1075SOL    HW1 4124   0.968   4.148   3.208
 1075SOL    HW2 4125   0.888   4.290   3.192
 1076SOL     OW 4126   6.936   4.301   2.774
 1076SOL    HW1 4127   7.026   4.304   2.817
 1076SOL    HW2 4128   6.872   4.250   2.833
 1077SOL     OW 4129   5.575   1.155   1.670
 1077SOL    HW1 4130   5.487   1.201   1.662
 1077SOL    HW2 4131   5.566   1.060   1.642
 1078SOL     OW 4132   0.525   3.362   1.921
 1078SOL    HW1 4133   0.428   3.384   1.934
 1078SOL    HW2 4134   0.579   3.407   1.993
 1079SOL     OW 4135   2.288   5.430   3.081
 1079SOL    HW1 4136   2.387   5.421   3.068
 1079SOL    HW2 4137   2.267   5.519   3.121
 1080SOL     OW 4138   1.808   5.911   4.031
 1080SOL    HW1 4139   1.762   5.978   3.973
 1080SOL    HW2 4140   1.814   5.947   4.124
 1081SOL     OW 4141   1.934   1.014   0.297
 1081SOL    HW1 4142   1.890   0.970   0.375
 1081SOL    HW2 4143   1.868   1.026   0.223
 1082SOL     OW 4144   2.019   6.881   0.567
 1082SOL    HW1 4145   2.023   6.918   0.474
 1082SOL    HW2 4146   1.926   6.890   0.602
 1083SOL     OW 4147   3.290   2.383   1.735
 1083SOL    HW1 4148   3.383   2.348   1.730
 1083SOL    HW2 4149   3.225   2.307   1.732
 1084SOL     OW 4150   6.548   3.322   0.967
 1084SOL    HW1 4151   6.611   3.294   1.040
 1084SOL    HW2 4152   6.571   3.273   0.883
 1085SOL     OW 4153   1.393   4.973   3.454
 1085SOL    HW1 4154   1.478   4.930   3.422
 1085SOL    HW2 4155   1.413   5.034   3.531
 1086SOL     OW 4156   3.712   4.926   2.177
 1086SOL    HW1 4157   3.801   4.925   2.133
 1086SOL    HW2 4158   3.653   4.857   2.136
 1087SOL     OW 4159   3.749   3.513   4.624
 1087SOL    HW1 4160   3.829   3.463   4.591
 1087SOL    HW2 4161   3.679   3.513   4.553
 1088SOL     OW 4162   5.833   4.454   2.396
 1088SOL    HW1 4163   5.917   4.490   2.357
 1088SOL    HW2 4164   5.807   4.370   2.347
 1089SOL     OW 4165   6.604   6.829   3.255
 1089SOL    HW1 4166   6.696   6.853   3.227
 1089SOL    HW2 4167   6.565   6.903   3.310
 1090SOL     OW 4168   1.652   1.738   6.177
 1090SOL    HW1 4169   1.587   1.752   6.251
 1090SOL    HW2 4170   1.608   1.685   6.104
 1091SOL     OW 4171   1.058   2.934   5.579
 1091SOL    HW1 4172   0.966   2.965   5.554
 1091SOL    HW2 4173   1.071   2.944   5.677
 1092SOL     OW 4174   2.131   4.748   1.209
 1092SOL    HW1 4175   2.111   4.701   1.123
 1092SOL    HW2 4176   2.130   4.682   1.284
 1093SOL     OW 4177   0.131   2.291   1.561
 1093SOL    HW1 4178   0.170   2.205   1.592
 1093SOL    HW2 4179   0.039   2.275   1.524
 1094SOL     OW 4180   0.783   6.892   2.077
 1094SOL    HW1 4181   0.767   6.952   1.998
 1094SOL    HW2 4182   0.862   6.925   2.129
 1095SOL     OW 4183   6.690   3.589   5.718
 1095SOL    HW1 4184   6.730   3.680   5.717
 1095SOL    HW2 4185   6.762   3.520   5.711
 1096SOL     OW 4186   3.773   3.721   1.844
 1096SOL    HW1 4187   3.794   3.635   1.796
 1096SOL    HW2 4188   3.833   3.793   1.811
 1097SOL     OW 4189   2.743   4.127   5.691
 1097SOL    HW1 4190   2.646   4.128   5.668
 1097SOL    HW2 4191   2.775   4.221   5.706
 1098SOL     OW 4192   4.242   0.584   2.800
 1098SOL    HW1 4193   4.206   0.673   2.773
 1098SOL    HW2 4194   4.278   0.589   2.894
 1099SOL     OW 4195   3.346   0.594   2.878
 1099SOL    HW1 4196   3.440   0.623   2.862
 1099SOL    HW2 4197   3.336   0.498   2.852
 1100SOL     OW 4198   6.800   0.954   6.814
 1100SOL    HW1 4199   6.735   0.891   6.857
 1100SOL    HW2 4200   6.759   0.993   6.731
 1101SOL     OW 4201   5.615   3.395   1.427
 1101SOL    HW1 4202   5.680   3.337   1.477
 1101SOL    HW2 4203   5.523   3.380   1.464
 1102SOL     OW 4204   0.000   4.486   3.874
 1102SOL    HW1 4205   0.076   4.453   3.930
 1102SOL    HW2 4206   6.955   4.417   3.873
 1103SOL     OW 4207   0.309   3.346   0.524
 1103SOL    HW1 4208   0.210   3.347   0.539
 1103SOL    HW2 4209   0.343   3.440   0.525
 1104SOL     OW 4210   2.748   5.273   6.499
 1104SOL    HW1 4211   2.691   5.193   6.485
 1104SOL    HW2 4212   2.844   5.245   6.500
 1105SOL     OW 4213   3.885   5.498   1.218
 1105SOL    HW1 4214   3.924   5.481   1.127
 1105SOL    HW2 4215   3.913   5.588   1.250
 1106SOL     OW 4216   1.246   1.025   6.188
 1106SOL    HW1 4217   1.201   1.011   6.276
 1106SOL    HW2 4218   1.235   1.121   6.160
 1107SOL     OW 4219   6.772   0.236   0.864
 1107SOL    HW1 4220   6.848   0.243   0.929
 1107SOL    HW2 4221   6.688   0.263   0.910
 1108SOL     OW 4222   1.060   0.780   0.087
 1108SOL    HW1 4223   1.122   0.764   0.164
 1108SOL    HW2 4224   0.970   0.806   0.122
 1109SOL     OW 4225   5.213   1.003   3.710
 1109SOL    HW1 4226   5.266   0.944   3.649
 1109SOL    HW2 4227   5.190   0.953   3.793
 1110SOL     OW 4228   3.548   2.773   2.085
 1110SOL    HW1 4229   3.608   2.770   2.005
 1110SOL    HW2 4230   3.572   2.698   2.147
 1111SOL     OW 4231   4.603   0.128   6.673
 1111SOL    HW1 4232   4.701   0.123   6.689
 1111SOL    HW2 4233   4.554   0.085   6.749
 1112SOL     OW 4234   0.775   1.212   2.388
 1112SOL    HW1 4235   0.838   1.287   2.364
 1112SOL    HW2 4236   0.816   1.125   2.362
 1113SOL     OW 4237   5.998   4.198   1.689
 1113SOL    HW1 4238   6.044   4.187   1.600
 1113SOL    HW2 4239   5.915   4.253   1.676
 1114SOL     OW 4240   5.612   0.908   5.513
 1114SOL    HW1 4241   5.702   0.952   5.508
 1114SOL    HW2 4242   5.565   0.938   5.597
 1115SOL     OW 4243   2.575   4.330   0.796
 1115SOL    HW1 4244   2.560   4.259   0.728
 1115SOL    HW2 4245   2.568   4.291   0.887
 1116SOL     OW 4246   3.829   6.550   6.304
 1116SOL    HW1 4247   3.923   6.516   6.298
 1116SOL    HW2 4248   3.787   6.518   6.389
 1117SOL     OW 4249   2.335   2.445   0.928
 1117SOL    HW1 4250   2.329   2.387   0.847
 1117SOL    HW2 4251   2.396   2.522   0.910
 1118SOL     OW 4252   1.684   2.715   2.190
 1118SOL    HW1 4253   1.777   2.750   2.205
 1118SOL    HW2 4254   1.665   2.712   2.092
 1119SOL     OW 4255   3.092   3.754   2.471
 1119SOL    HW1 4256   3.109   3.662   2.435
 1119SOL    HW2 4257   3.174   3.786   2.518
 1120SOL     OW 4258   4.845   1.010   4.268
 1120SOL    HW1 4259   4.796   1.084   4.222
 1120SOL    HW2 4260   4.781   0.959   4.326
 1121SOL     OW 4261   5.249   3.175   2.728
 1121SOL    HW1 4262   5.265   3.081   2.699
 1121SOL    HW2 4263   5.303   3.193   2.810
 1122SOL     OW 4264   4.500   5.127   6.979
 1122SOL    HW1 4265   4.564   5.194   6.940
 1122SOL    HW2 4266   4.547   5.074   0.023
 1123SOL     OW 4267   4.042   1.259   1.684
 1123SOL    HW1 4268   3.964   1.282   1.626
 1123SOL    HW2 4269   4.066   1.163   1.672
 1124SOL     OW 4270   1.658   5.053   4.420
 1124SOL    HW1 4271   1.643   5.045   4.519
 1124SOL    HW2 4272   1.746   5.011   4.396
 1125SOL     OW 4273   2.917   3.157   5.186
 1125SOL    HW1 4274   2.978   3.139   5.264
 1125SOL    HW2 4275   2.824   3.128   5.208
 1126SOL     OW 4276   6.550   0.284   2.146
 1126SOL    HW1 4277   6.591   0.352   2.208
 1126SOL    HW2 4278   6.565   0.192   2.183
 1127SOL     OW 4279   1.822   5.660   6.342
 1127SOL    HW1 4280   1.754   5.631   6.275
 1127SOL    HW2 4281   1.887   5.722   6.298
 1128SOL     OW 4282   2.442   1.758   4.210
 1128SOL    HW1 4283   2.398   1.767   4.299
 1128SOL    HW2 4284   2.402   1.823   4.146
 1129SOL     OW 4285   4.613   7.008   6.237
 1129SOL    HW1 4286   4.677   6.972   6.169
 1129SOL    HW2 4287   4.611   0.081   6.232
 1130SOL     OW 4288   0.380   5.519   6.148
 1130SOL    HW1 4289   0.441   5.486   6.076
 1130SOL    HW2 4290   0.432   5.530   6.233
 1131SOL     OW 4291   0.505   4.914   5.427
 1131SOL    HW1 4292   0.419   4.911   5.377
 1131SOL    HW2 4293   0.582   4.908   5.363
 1132SOL     OW 4294   5.390   0.166   5.360
 1132SOL    HW1 4295   5.452   0.190   5.286
 1132SOL    HW2 4296   5.300   0.145   5.323
 1133SOL     OW 4297   0.125   2.640   6.728
 1133SOL    HW1 4298   0.119   2.659   6.826
 1133SOL    HW2 4299   0.190   2.703   6.685
 1134SOL     OW 4300   6.518   2.567   6.002
 1134SOL    HW1 4301   6.457   2.571   6.081
 1134SOL    HW2 4302   6.476   2.616   5.926
 1135SOL     OW 4303   6.464   1.614   3.882
 1135SOL    HW1 4304   6.432   1.701   3.843
 1135SOL    HW2 4305   6.532   1.631   3.952
 1136SOL     OW 4306   3.425   5.273   4.052
 1136SOL    HW1 4307   3.448   5.370   4.058
 1136SOL    HW2 4308   3.339   5.256   4.100
 1137SOL     OW 4309   1.567   0.896   5.923
 1137SOL    HW1 4310   1.478   0.941   5.933
 1137SOL    HW2 4311   1.638   0.965   5.914
 1138SOL     OW 4312   0.622   4.189   6.030
 1138SOL    HW1 4313   0.619   4.203   5.931
 1138SOL    HW2 4314   0.594   4.095   6.051
 1139SOL     OW 4315   0.878   6.521   1.271
 1139SOL    HW1 4316   0.941   6.544   1.345
 1139SOL    HW2 4317   0.880   6.423   1.254
 1140SOL     OW 4318   3.429   1.763   3.624
 1140SOL    HW1 4319   3.351   1.820   3.649
 1140SOL    HW2 4320   3.397   1.685   3.570
 1141SOL     OW 4321   6.839   6.043   5.532
 1141SOL    HW1 4322   6.843   5.963   5.592
 1141SOL    HW2 4323   6.793   6.118   5.580
 1142SOL     OW 4324   6.232   0.915   4.192
 1142SOL    HW1 4325   6.170   0.967   4.133
 1142SOL    HW2 4326   6.225   0.948   4.286
 1143SOL     OW 4327   4.472   1.713   1.882
 1143SOL    HW1 4328   4.530   1.755   1.812
 1143SOL    HW2 4329   4.521   1.637   1.925
 1144SOL     OW 4330   1.015   6.977   5.479
 1144SOL    HW1 4331   1.064   6.907   5.530
 1144SOL    HW2 4332   1.048   6.978   5.384
 1145SOL     OW 4333   1.965   4.877   4.733
 1145SOL    HW1 4334   1.999   4.897   4.825
 1145SOL    HW2 4335   1.990   4.783   4.708
 1146SOL     OW 4336   6.355   1.723   1.047
 1146SOL    HW1 4337   6.318   1.700   0.956
 1146SOL    HW2 4338   6.354   1.641   1.104
 1147SOL     OW 4339   6.540   3.535   2.255
 1147SOL    HW1 4340   6.481   3.479   2.313
 1147SOL    HW2 4341   6.536   3.630   2.286
 1148SOL     OW 4342   5.221   1.275   6.508
 1148SOL    HW1 4343   5.177   1.333   6.577
 1148SOL    HW2 4344   5.284   1.330   6.453
 1149SOL     OW 4345   6.164   2.753   3.597
 1149SOL    HW1 4346   6.175   2.683   3.526
 1149SOL    HW2 4347   6.139   2.709   3.684
 1150SOL     OW 4348   1.225   5.174   5.527
 1150SOL    HW1 4349   1.305   5.176   5.587
 1150SOL    HW2 4350   1.248   5.214   5.439
 1151SOL     OW 4351   3.429   5.209   6.923
 1151SOL    HW1 4352   3.387   5.126   6.885
 1151SOL    HW2 4353   3.358   5.265   6.966
 1152SOL     OW 4354   0.539   1.343   4.132
 1152SOL    HW1 4355   0.544   1.439   4.160
 1152SOL    HW2 4356   0.444   1.318   4.115
 1153SOL     OW 4357   2.491   4.775   2.800
 1153SOL    HW1 4358   2.490   4.693   2.743
 1153SOL    HW2 4359   2.557   4.840   2.763
 1154SOL     OW 4360   1.849   4.205   2.107
 1154SOL    HW1 4361   1.864   4.283   2.047
 1154SOL    HW2 4362   1.867   4.231   2.202
 1155SOL     OW 4363   3.992   6.717   2.521
 1155SOL    HW1 4364   4.088   6.730   2.499
 1155SOL    HW2 4365   3.936   6.745   2.443
 1156SOL     OW 4366   1.304   1.760   3.731
 1156SOL    HW1 4367   1.266   1.721   3.815
 1156SOL    HW2 4368   1.363   1.837   3.754
 1157SOL     OW 4369   1.093   3.746   4.470
 1157SOL    HW1 4370   1.145   3.830   4.483
 1157SOL    HW2 4371   1.155   3.667   4.469
 1158SOL     OW 4372   4.274   5.875   6.355
 1158SOL    HW1 4373   4.182   5.852   6.384
 1158SOL    HW2 4374   4.294   5.971   6.375
 1159SOL     OW 4375   5.757   4.748   2.652
 1159SOL    HW1 4376   5.794   4.822   2.596
 1159SOL    HW2 4377   5.789   4.660   2.616
 1160SOL     OW 4378   2.538   2.613   0.836
 1160SOL    HW1 4379   2.533   2.679   0.761
 1160SOL    HW2 4380   2.577   2.658   0.916
 1161SOL     OW 4381   4.113   0.841   4.224
 1161SOL    HW1 4382   4.138   0.915   4.161
 1161SOL    HW2 4383   4.194   0.806   4.269
 1162SOL     OW 4384   4.117   4.767   1.405
 1162SOL    HW1 4385   4.125   4.761   1.504
 1162SOL    HW2 4386   4.164   4.849   1.372
 1163SOL     OW 4387   5.424   1.112   2.203
 1163SOL    HW1 4388   5.391   1.127   2.110
 1163SOL    HW2 4389   5.452   1.017   2.213
 1164SOL     OW 4390   6.108   3.538   4.069
 1164SOL    HW1 4391   6.175   3.604   4.035
 1164SOL    HW2 4392   6.134   3.446   4.040
 1165SOL     OW 4393   1.697   4.844   2.382
 1165SOL    HW1 4394   1.612   4.892   2.363
 1165SOL    HW2 4395   1.684   4.746   2.366
 1166SOL     OW 4396   3.437   2.349   6.496
 1166SOL    HW1 4397   3.340   2.357   6.516
 1166SOL    HW2 4398   3.463   2.418   6.428
 1167SOL     OW 4399   4.003   1.970   5.142
 1167SOL    HW1 4400   3.944   1.962   5.062
 1167SOL    HW2 4401   4.010   2.066   5.169
 1168SOL     OW 4402   6.064   6.587   3.067
 1168SOL    HW1 4403   6.099   6.673   3.029
 1168SOL    HW2 4404   6.024   6.532   2.993
 1169SOL     OW 4405   0.856   3.749   1.203
 1169SOL    HW1 4406   0.948   3.786   1.216
 1169SOL    HW2 4407   0.792   3.796   1.264
 1170SOL     OW 4408   3.150   0.123   1.400
 1170SOL    HW1 4409   3.215   0.157   1.468
 1170SOL    HW2 4410   3.172   0.162   1.311
 1171SOL     OW 4411   3.106   0.406   0.226
 1171SOL    HW1 4412   3.070   0.349   0.300
 1171SOL    HW2 4413   3.104   0.502   0.253
 1172SOL     OW 4414   3.100   3.705   4.800
 1172SOL    HW1 4415   3.083   3.793   4.845
 1172SOL    HW2 4416   3.057   3.704   4.710
 1173SOL     OW 4417   4.802   0.544   6.222
 1173SOL    HW1 4418   4.813   0.512   6.128
 1173SOL    HW2 4419   4.835   0.638   6.229
 1174SOL     OW 4420   3.393   6.060   6.907
 1174SOL    HW1 4421   3.357   6.125   6.974
 1174SOL    HW2 4422   3.415   5.974   6.953
 1175SOL     OW 4423   0.079   5.173   4.671
 1175SOL    HW1 4424   0.027   5.179   4.757
 1175SOL    HW2 4425   0.118   5.263   4.649
 1176SOL     OW 4426   6.326   3.390   1.184
 1176SOL    HW1 4427   6.384   3.374   1.104
 1176SOL    HW2 4428   6.322   3.488   1.203
 1177SOL     OW 4429   5.822   3.417   0.050
 1177SOL    HW1 4430   5.814   3.396   0.148
 1177SOL    HW2 4431   5.791   3.511   0.034
 1178SOL     OW 4432   5.210   4.070   2.266
 1178SOL    HW1 4433   5.230   4.150   2.209
 1178SOL    HW2 4434   5.222   4.094   2.362
 1179SOL     OW 4435   2.289   5.816   5.714
 1179SOL    HW1 4436   2.228   5.747   5.753
 1179SOL    HW2 4437   2.360   5.771   5.659
 1180SOL     OW 4438   1.693   1.359   3.896
 1180SOL    HW1 4439   1.782   1.405   3.894
 1180SOL    HW2 4440   1.697   1.281   3.958
 1181SOL     OW 4441   2.071   4.279   2.768
 1181SOL    HW1 4442   1.986   4.249   2.811
 1181SOL    HW2 4443   2.116   4.347   2.825
 1182SOL     OW 4444   1.202   3.669   3.828
 1182SOL    HW1 4445   1.273   3.683   3.759
 1182SOL    HW2 4446   1.158   3.580   3.812
 1183SOL     OW 4447   4.808   5.812   0.370
 1183SOL    HW1 4448   4.878   5.823   0.440
 1183SOL    HW2 4449   4.756   5.897   0.361
 1184SOL     OW 4450   3.655   3.203   5.883
 1184SOL    HW1 4451   3.564   3.190   5.922
 1184SOL    HW2 4452   3.667   3.141   5.806
 1185SOL     OW 4453   2.739   1.570   6.748
 1185SOL    HW1 4454   2.706   1.481   6.716
 1185SOL    HW2 4455   2.660   1.627   6.772
 1186SOL     OW 4456   3.333   0.564   4.986
 1186SOL    HW1 4457   3.374   0.644   4.940
 1186SOL    HW2 4458   3.301   0.500   4.917
 1187SOL     OW 4459   0.665   1.796   5.443
 1187SOL    HW1 4460   0.626   1.888   5.439
 1187SOL    HW2 4461   0.679   1.761   5.350
 1188SOL     OW 4462   1.520   0.728   4.929
 1188SOL    HW1 4463   1.481   0.816   4.954
 1188SOL    HW2 4464   1.469   0.691   4.850
 1189SOL     OW 4465   0.427   0.871   1.024
 1189SOL    HW1 4466   0.435   0.921   0.938
 1189SOL    HW2 4467   0.335   0.884   1.061
 1190SOL     OW 4468   4.289   4.841   2.594
 1190SOL    HW1 4469   4.230   4.831   2.514
 1190SOL    HW2 4470   4.339   4.756   2.609
 1191SOL     OW 4471   3.212   4.561   0.937
 1191SOL    HW1 4472   3.231   4.529   1.030
 1191SOL    HW2 4473   3.189   4.482   0.879
 1192SOL     OW 4474   4.553   4.765   2.809
 1192SOL    HW1 4475   4.468   4.714   2.795
 1192SOL    HW2 4476   4.593   4.788   2.721
 1193SOL     OW 4477   4.363   6.918   3.657
 1193SOL    HW1 4478   4.329   6.830   3.626
 1193SOL    HW2 4479   4.331   6.990   3.595
 1194SOL     OW 4480   6.210   1.271   1.351
 1194SOL    HW1 4481   6.122   1.305   1.320
 1194SOL    HW2 4482   6.227   1.180   1.313
 1195SOL     OW 4483   3.480   6.274   0.073
 1195SOL    HW1 4484   3.432   6.362   0.070
 1195SOL    HW2 4485   3.412   6.200   0.080
 1196SOL     OW 4486   0.991   4.982   3.249
 1196SOL    HW1 4487   1.052   5.041   3.195
 1196SOL    HW2 4488   1.029   4.890   3.252
 1197SOL     OW 4489   3.368   5.065   6.512
 1197SOL    HW1 4490   3.310   4.998   6.465
 1197SOL    HW2 4491   3.457   5.071   6.466
 1198SOL     OW 4492   3.703   1.466   2.318
 1198SOL    HW1 4493   3.617   1.508   2.346
 1198SOL    HW2 4494   3.697   1.438   2.222
 1199SOL     OW 4495   3.125   3.928   4.134
 1199SOL    HW1 4496   3.047   3.921   4.072
 1199SOL    HW2 4497   3.181   4.006   4.108
 1200SOL     OW 4498   4.120   3.331   1.279
 1200SOL    HW1 4499   4.117   3.294   1.186
 1200SOL    HW2 4500   4.150   3.259   1.342
 1201SOL     OW 4501   1.223   1.136   4.917
 1201SOL    HW1 4502   1.284   1.180   4.852
 1201SOL    HW2 4503   1.130   1.171   4.904
 1202SOL     OW 4504   6.143   0.057   4.802
 1202SOL    HW1 4505   6.218   7.025   4.831
 1202SOL    HW2 4506   6.062   0.038   4.858
 1203SOL     OW 4507   6.346   6.441   1.770
 1203SOL    HW1 4508   6.255   6.445   1.810
 1203SOL    HW2 4509   6.346   6.489   1.682
 1204SOL     OW 4510   1.396   6.922   6.925
 1204SOL    HW1 4511   1.393   6.837   6.873
 1204SOL    HW2 4512   1.415   6.999   6.864
 1205SOL     OW 4513   0.720   3.286   5.148
 1205SOL    HW1 4514   0.735   3.384   5.143
 1205SOL    HW2 4515   0.641   3.261   5.091
 1206SOL     OW 4516   0.273   2.045   4.573
 1206SOL    HW1 4517   0.296   2.097   4.491
 1206SOL    HW2 4518   0.334   1.966   4.580
 1207SOL     OW 4519   5.909   6.424   6.878
 1207SOL    HW1 4520   5.975   6.492   6.911
 1207SOL    HW2 4521   5.952   6.367   6.808
 1208SOL     OW 4522   3.232   3.657   3.056
 1208SOL    HW1 4523   3.237   3.683   2.959
 1208SOL    HW2 4524   3.136   3.648   3.083
 1209SOL     OW 4525   6.587   4.205   4.722
 1209SOL    HW1 4526   6.591   4.164   4.813
 1209SOL    HW2 4527   6.550   4.139   4.657
 1210SOL     OW 4528   2.680   6.884   2.772
 1210SOL    HW1 4529   2.710   6.835   2.690
 1210SOL    HW2 4530   2.755   6.937   2.809
 1211SOL     OW 4531   1.173   3.264   3.411
 1211SOL    HW1 4532   1.243   3.314   3.361
 1211SOL    HW2 4533   1.087   3.268   3.360
 1212SOL     OW 4534   0.973   4.013   3.546
 1212SOL    HW1 4535   1.019   4.068   3.617
 1212SOL    HW2 4536   0.884   3.983   3.580
 1213SOL     OW 4537   5.375   3.311   5.338
 1213SOL    HW1 4538   5.370   3.336   5.242
 1213SOL    HW2 4539   5.452   3.357   5.381
 1214SOL     OW 4540   1.409   2.283   1.974
 1214SOL    HW1 4541   1.354   2.237   1.905
 1214SOL    HW2 4542   1.461   2.357   1.931
 1215SOL     OW 4543   6.992   5.270   2.147
 1215SOL    HW1 4544   6.997   5.367   2.170
 1215SOL    HW2 4545   7.000   5.258   2.048
 1216SOL     OW 4546   2.744   0.308   1.798
 1216SOL    HW1 4547   2.687   0.390   1.799
 1216SOL    HW2 4548   2.689   0.229   1.772
 1217SOL     OW 4549   2.082   1.933   2.564
 1217SOL    HW1 4550   2.082   1.858   2.630
 1217SOL    HW2 4551   1.997   1.985   2.573
 1218SOL     OW 4552   0.197   3.574   3.315
 1218SOL    HW1 4553   0.257   3.627   3.376
 1218SOL    HW2 4554   0.212   3.477   3.331
 1219SOL     OW 4555   2.623   6.058   3.906
 1219SOL    HW1 4556   2.649   6.150   3.879
 1219SOL    HW2 4557   2.678   5.991   3.857
 1220SOL     OW 4558   5.831   4.459   2.680
 1220SOL    HW1 4559   5.758   4.418   2.735
 1220SOL    HW2 4560   5.807   4.452   2.583
 1221SOL     OW 4561   4.874   4.177   6.369
 1221SOL    HW1 4562   4.783   4.135   6.370
 1221SOL    HW2 4563   4.878   4.246   6.296
 1222SOL     OW 4564   6.287   4.975   1.225
 1222SOL    HW1 4565   6.348   4.933   1.292
 1222SOL    HW2 4566   6.334   4.985   1.138
 1223SOL     OW 4567   6.701   4.867   5.312
 1223SOL    HW1 4568   6.609   4.829   5.308
 1223SOL    HW2 4569   6.759   4.809   5.370
 1224SOL     OW 4570   4.472   4.593   1.070
 1224SOL    HW1 4571   4.451   4.557   0.979
 1224SOL    HW2 4572   4.567   4.625   1.073
 1225SOL     OW 4573   3.686   2.083   6.891
 1225SOL    HW1 4574   3.602   2.136   6.879
 1225SOL    HW2 4575   3.679   1.997   6.840
 1226SOL     OW 4576   5.279   5.604   0.676
 1226SOL    HW1 4577   5.373   5.581   0.650
 1226SOL    HW2 4578   5.240   5.529   0.729
 1227SOL     OW 4579   5.164   4.760   6.769
 1227SOL    HW1 4580   5.234   4.721   6.710
 1227SOL    HW2 4581   5.149   4.700   6.848
 1228SOL     OW 4582   3.995   3.935   4.098
 1228SOL    HW1 4583   4.036   3.992   4.169
 1228SOL    HW2 4584   3.993   3.840   4.130
 1229SOL     OW 4585   2.356   5.876   3.142
 1229SOL    HW1 4586   2.368   5.973   3.163
 1229SOL    HW2 4587   2.436   5.825   3.174
 1230SOL     OW 4588   5.452   5.587   1.049
 1230SOL    HW1 4589   5.478   5.501   1.093
 1230SOL    HW2 4590   5.456   5.576   0.950
 1231SOL     OW 4591   2.357   1.592   6.918
 1231SOL    HW1 4592   2.310   1.518   6.870
 1231SOL    HW2 4593   2.289   1.656   6.955
 1232SOL     OW 4594   3.111   1.296   5.340
 1232SOL    HW1 4595   3.043   1.361   5.306
 1232SOL    HW2 4596   3.201   1.338   5.340
 1233SOL     OW 4597   6.761   5.452   4.940
 1233SOL    HW1 4598   6.680   5.510   4.934
 1233SOL    HW2 4599   6.826   5.477   4.867
 1234SOL     OW 4600   6.114   4.857   0.154
 1234SOL    HW1 4601   6.094   4.767   0.115
 1234SOL    HW2 4602   6.192   4.850   0.216
 1235SOL     OW 4603   6.018   4.922   1.062
 1235SOL    HW1 4604   6.007   4.942   0.965
 1235SOL    HW2 4605   6.100   4.967   1.096
 1236SOL     OW 4606   1.667   1.042   2.362
 1236SOL    HW1 4607   1.570   1.046   2.386
 1236SOL    HW2 4608   1.711   0.966   2.410
 1237SOL     OW 4609   0.945   0.489   4.335
 1237SOL    HW1 4610   0.859   0.523   4.296
 1237SOL    HW2 4611   0.990   0.562   4.385
 1238SOL     OW 4612   0.658   0.460   4.797
 1238SOL    HW1 4613   0.594   0.429   4.867
 1238SOL    HW2 4614   0.620   0.443   4.706
 1239SOL     OW 4615   4.913   4.884   4.152
 1239SOL    HW1 4616   4.939   4.822   4.078
 1239SOL    HW2 4617   4.943   4.846   4.239
 1240SOL     OW 4618   0.689   3.597   1.036
 1240SOL    HW1 4619   0.699   3.568   0.940
 1240SOL    HW2 4620   0.750   3.674   1.054
 1241SOL     OW 4621   4.028   4.874   6.029
 1241SOL    HW1 4622   4.097   4.914   6.089
 1241SOL    HW2 4623   4.031   4.918   5.939
 1242SOL     OW 4624   2.293   5.213   0.865
 1242SOL    HW1 4625   2.294   5.312   0.884
 1242SOL    HW2 4626   2.315   5.198   0.769
 1243SOL     OW 4627   1.050   3.482   3.660
 1243SOL    HW1 4628   1.061   3.390   3.696
 1243SOL    HW2 4629   1.099   3.490   3.573
 1244SOL     OW 4630   6.150   6.993   5.088
 1244SOL    HW1 4631   6.247   7.012   5.105
 1244SOL    HW2 4632   6.100   0.053   5.081
 1245SOL     OW 4633   4.756   6.398   1.490
 1245SOL    HW1 4634   4.828   6.436   1.549
 1245SOL    HW2 4635   4.782   6.411   1.394
 1246SOL     OW 4636   5.508   2.017   1.255
 1246SOL    HW1 4637   5.446   2.069   1.197
 1246SOL    HW2 4638   5.598   2.013   1.211
 1247SOL     OW 4639   6.181   6.679   2.366
 1247SOL    HW1 4640   6.119   6.702   2.291
 1247SOL    HW2 4641   6.199   6.581   2.365
 1248SOL     OW 4642   0.793   6.737   4.467
 1248SOL    HW1 4643   0.714   6.798   4.460
 1248SOL    HW2 4644   0.871   6.787   4.506
 1249SOL     OW 4645   5.808   6.151   6.462
 1249SOL    HW1 4646   5.767   6.238   6.489
 1249SOL    HW2 4647   5.748   6.076   6.488
 1250SOL     OW 4648   0.750   4.579   4.833
 1250SOL    HW1 4649   0.815   4.546   4.764
 1250SOL    HW2 4650   0.662   4.533   4.821
 1251SOL     OW 4651   2.955   0.272   2.809
 1251SOL    HW1 4652   2.905   0.313   2.733
 1251SOL    HW2 4653   2.938   0.173   2.812
 1252SOL     OW 4654   2.209   5.226   6.667
 1252SOL    HW1 4655   2.245   5.133   6.663
 1252SOL    HW2 4656   2.284   5.291   6.678
 1253SOL     OW 4657   2.886   6.648   7.008
 1253SOL    HW1 4658   2.930   6.629   0.069
 1253SOL    HW2 4659   2.952   6.637   6.934
 1254SOL     OW 4660   6.520   1.668   3.093
 1254SOL    HW1 4661   6.558   1.599   3.032
 1254SOL    HW2 4662   6.420   1.662   3.092
 1255SOL     OW 4663   5.840   1.799   5.994
 1255SOL    HW1 4664   5.915   1.835   6.050
 1255SOL    HW2 4665   5.857   1.819   5.898
 1256SOL     OW 4666   0.380   5.709   4.594
 1256SOL    HW1 4667   0.425   5.791   4.556
 1256SOL    HW2 4668   0.326   5.735   4.673
 1257SOL     OW 4669   6.853   6.382   3.425
 1257SOL    HW1 4670   6.795   6.456   3.391
 1257SOL    HW2 4671   6.810   6.294   3.404
 1258SOL     OW 4672   4.404   5.851   6.102
 1258SOL    HW1 4673   4.374   5.848   6.197
 1258SOL    HW2 4674   4.474   5.921   6.091
 1259SOL     OW 4675   5.505   7.025   5.524
 1259SOL    HW1 4676   5.452   6.941   5.521
 1259SOL    HW2 4677   5.462   0.068   5.466
 1260SOL     OW 4678   3.076   1.106   1.048
 1260SOL    HW1 4679   3.117   1.194   1.023
 1260SOL    HW2 4680   3.117   1.074   1.133
 1261SOL     OW 4681   0.255   4.310   5.306
 1261SOL    HW1 4682   0.352   4.336   5.308
 1261SOL    HW2 4683   0.244   4.228   5.249
 1262SOL     OW 4684   4.357   5.737   1.775
 1262SOL    HW1 4685   4.456   5.742   1.761
 1262SOL    HW2 4686   4.316   5.822   1.743
 1263SOL     OW 4687   6.776   1.895   0.433
 1263SOL    HW1 4688   6.813   1.908   0.525
 1263SOL    HW2 4689   6.787   1.979   0.380
 1264SOL     OW 4690   6.497   2.400   4.594
 1264SOL    HW1 4691   6.580   2.345   4.597
 1264SOL    HW2 4692   6.519   2.495   4.618
 1265SOL     OW 4693   6.449   5.824   4.834
 1265SOL    HW1 4694   6.352   5.841   4.852
 1265SOL    HW2 4695   6.467   5.726   4.839
 1266SOL     OW 4696   2.868   0.851   3.668
 1266SOL    HW1 4697   2.814   0.768   3.684
 1266SOL    HW2 4698   2.916   0.877   3.752
 1267SOL     OW 4699   0.186   4.758   3.060
 1267SOL    HW1 4700   0.117   4.725   2.995
 1267SOL    HW2 4701   0.141   4.781   3.147
 1268SOL     OW 4702   5.883   4.541   6.891
 1268SOL    HW1 4703   5.870   4.639   6.875
 1268SOL    HW2 4704   5.977   4.515   6.865
 1269SOL     OW 4705   6.963   4.945   6.087
 1269SOL    HW1 4706   6.913   4.927   6.172
 1269SOL    HW2 4707   0.033   4.923   6.100
 1270SOL     OW 4708   1.511   1.967   4.711
 1270SOL    HW1 4709   1.544   1.886   4.759
 1270SOL    HW2 4710   1.502   1.948   4.613
 1271SOL     OW 4711   5.303   2.602   3.414
 1271SOL    HW1 4712   5.225   2.558   3.369
 1271SOL    HW2 4713   5.370   2.533   3.438
 1272SOL     OW 4714   6.179   0.120   1.472
 1272SOL    HW1 4715   6.230   0.087   1.551
 1272SOL    HW2 4716   6.160   0.044   1.411
 1273SOL     OW 4717   2.770   6.299   5.817
 1273SOL    HW1 4718   2.785   6.200   5.824
 1273SOL    HW2 4719   2.672   6.317   5.813
 1274SOL     OW 4720   5.878   2.060   2.133
 1274SOL    HW1 4721   5.953   2.102   2.082
 1274SOL    HW2 4722   5.812   2.131   2.160
 1275SOL     OW 4723   3.822   1.852   3.951
 1275SOL    HW1 4724   3.817   1.939   3.903
 1275SOL    HW2 4725   3.741   1.797   3.930
 1276SOL     OW 4726   6.283   0.198   2.805
 1276SOL    HW1 4727   6.282   0.179   2.903
 1276SOL    HW2 4728   6.198   0.246   2.780
 1277SOL     OW 4729   0.520   1.870   4.993
 1277SOL    HW1 4730   0.434   1.854   5.041
 1277SOL    HW2 4731   0.530   1.968   4.974
 1278SOL     OW 4732   2.557   1.391   5.887
 1278SOL    HW1 4733   2.476   1.333   5.881
 1278SOL    HW2 4734   2.633   1.338   5.923
 1279SOL     OW 4735   2.307   5.107   0.608
 1279SOL    HW1 4736   2.265   5.063   0.529
 1279SOL    HW2 4737   2.384   5.052   0.641
 1280SOL     OW 4738   1.853   5.933   2.715
 1280SOL    HW1 4739   1.830   5.960   2.808
 1280SOL    HW2 4740   1.869   6.015   2.659
 1281SOL     OW 4741   0.880   6.904   4.173
 1281SOL    HW1 4742   0.794   6.854   4.170
 1281SOL    HW2 4743   0.957   6.840   4.167
 1282SOL     OW 4744   1.096   0.276   2.476
 1282SOL    HW1 4745   1.028   0.230   2.419
 1282SOL    HW2 4746   1.092   0.240   2.569
 1283SOL     OW 4747   4.699   4.134   5.153
 1283SOL    HW1 4748   4.685   4.036   5.170
 1283SOL    HW2 4749   4.734   4.177   5.236
 1284SOL     OW 4750   2.893   1.800   2.531
 1284SOL    HW1 4751   2.981   1.842   2.552
 1284SOL    HW2 4752   2.820   1.869   2.540
 1285SOL     OW 4753   5.755   2.754   6.389
 1285SOL    HW1 4754   5.838   2.730   6.439
 1285SOL    HW2 4755   5.686   2.683   6.404
 1286SOL     OW 4756   6.067   6.204   1.717
 1286SOL    HW1 4757   5.968   6.203   1.706
 1286SOL    HW2 4758   6.097   6.120   1.762
 1287SOL     OW 4759   6.048   4.817   6.144
 1287SOL    HW1 4760   6.128   4.809   6.203
 1287SOL    HW2 4761   5.965   4.807   6.199
 1288SOL     OW 4762   6.514   2.788   3.554
 1288SOL    HW1 4763   6.518   2.688   3.547
 1288SOL    HW2 4764   6.463   2.825   3.476
 1289SOL     OW 4765   6.950   5.286   2.858
 1289SOL    HW1 4766   6.950   5.371   2.912
 1289SOL    HW2 4767   6.886   5.296   2.781
 1290SOL     OW 4768   0.070   6.965   1.249
 1290SOL    HW1 4769   0.019   6.967   1.163
 1290SOL    HW2 4770   0.118   6.878   1.257
 1291SOL     OW 4771   1.521   6.805   0.616
 1291SOL    HW1 4772   1.545   6.729   0.554
 1291SOL    HW2 4773   1.490   6.768   0.703
 1292SOL     OW 4774   0.735   5.871   6.322
 1292SOL    HW1 4775   0.826   5.864   6.362
 1292SOL    HW2 4776   0.669   5.821   6.379
 1293SOL     OW 4777   6.287   2.845   5.862
 1293SOL    HW1 4778   6.334   2.891   5.937
 1293SOL    HW2 4779   6.353   2.790   5.810
 1294SOL     OW 4780   0.356   1.823   3.368
 1294SOL    HW1 4781   0.446   1.852   3.400
 1294SOL    HW2 4782   0.332   1.736   3.412
 1295SOL     OW 4783   4.556   3.399   1.631
 1295SOL    HW1 4784   4.595   3.464   1.697
 1295SOL    HW2 4785   4.527   3.449   1.549
 1296SOL     OW 4786   3.664   2.545   7.017
 1296SOL    HW1 4787   3.564   2.554   7.023
 1296SOL    HW2 4788   3.691   2.544   6.921
 1297SOL     OW 4789   6.303   1.202   6.776
 1297SOL    HW1 4790   6.228   1.139   6.794
 1297SOL    HW2 4791   6.338   1.237   6.863
 1298SOL     OW 4792   6.283   3.175   3.533
 1298SOL    HW1 4793   6.306   3.157   3.438
 1298SOL    HW2 4794   6.199   3.125   3.557
 1299SOL     OW 4795   1.288   3.189   4.395
 1299SOL    HW1 4796   1.352   3.128   4.441
 1299SOL    HW2 4797   1.195   3.167   4.422
 1300SOL     OW 4798   3.342   3.439   1.775
 1300SOL    HW1 4799   3.288   3.375   1.720
 1300SOL    HW2 4800   3.413   3.480   1.717
 1301SOL     OW 4801   0.340   0.601   2.586
 1301SOL    HW1 4802   0.282   0.547   2.648
 1301SOL    HW2 4803   0.404   0.539   2.539
 1302SOL     OW 4804   2.711   5.663   5.767
 1302SOL    HW1 4805   2.706   5.710   5.679
 1302SOL    HW2 4806   2.791   5.603   5.769
 1303SOL     OW 4807   3.473   0.202   0.998
 1303SOL    HW1 4808   3.492   0.292   1.036
 1303SOL    HW2 4809   3.491   0.132   1.067
 1304SOL     OW 4810   3.519   0.707   6.238
 1304SOL    HW1 4811   3.542   0.678   6.331
 1304SOL    HW2 4812   3.445   0.774   6.241
 1305SOL     OW 4813   6.114   6.396   3.829
 1305SOL    HW1 4814   6.182   6.459   3.866
 1305SOL    HW2 4815   6.148   6.357   3.743
 1306SOL     OW 4816   1.590   4.932   4.674
 1306SOL    HW1 4817   1.640   4.884   4.747
 1306SOL    HW2 4818   1.568   4.867   4.601
 1307SOL     OW 4819   1.389   1.897   4.437
 1307SOL    HW1 4820   1.470   1.899   4.379
 1307SOL    HW2 4821   1.375   1.803   4.470
 1308SOL     OW 4822   4.676   6.259   2.859
 1308SOL    HW1 4823   4.598   6.203   2.887
 1308SOL    HW2 4824   4.760   6.212   2.884
 1309SOL     OW 4825   5.921   3.097   4.810
 1309SOL    HW1 4826   5.970   3.052   4.734
 1309SOL    HW2 4827   5.915   3.195   4.792
 1310SOL     OW 4828   4.922   3.892   5.522
 1310SOL    HW1 4829   4.888   3.983   5.548
 1310SOL    HW2 4830   4.951   3.894   5.426
 1311SOL     OW 4831   5.389   5.298   5.306
 1311SOL    HW1 4832   5.489   5.296   5.309
 1311SOL    HW2 4833   5.354   5.212   5.344
 1312SOL     OW 4834   6.150   0.209   2.405
 1312SOL    HW1 4835   6.170   0.111   2.404
 1312SOL    HW2 4836   6.200   0.255   2.331
 1313SOL     OW 4837   3.153   4.943   5.161
 1313SOL    HW1 4838   3.122   5.013   5.225
 1313SOL    HW2 4839   3.125   4.853   5.194
 1314SOL     OW 4840   5.515   1.871   5.220
 1314SOL    HW1 4841   5.574   1.902   5.295
 1314SOL    HW2 4842   5.424   1.851   5.254
 1315SOL     OW 4843   2.270   0.229   3.557
 1315SOL    HW1 4844   2.360   0.196   3.529
 1315SOL    HW2 4845   2.259   0.324   3.529
 1316SOL     OW 4846   3.100   6.289   2.721
 1316SOL    HW1 4847   3.040   6.218   2.682
 1316SOL    HW2 4848   3.195   6.258   2.718
 1317SOL     OW 4849   6.964   4.114   3.991
 1317SOL    HW1 4850   7.022   4.132   4.070
 1317SOL    HW2 4851   6.911   4.196   3.970
 1318SOL     OW 4852   0.574   6.248   1.480
 1318SOL    HW1 4853   0.646   6.214   1.420
 1318SOL    HW2 4854   0.574   6.348   1.479
 1319SOL     OW 4855   6.163   0.768   6.995
 1319SOL    HW1 4856   6.208   0.678   6.990
 1319SOL    HW2 4857   6.138   0.786   0.064
 1320SOL     OW 4858   5.612   6.130   5.482
 1320SOL    HW1 4859   5.705   6.162   5.502
 1320SOL    HW2 4860   5.601   6.038   5.520
 1321SOL     OW 4861   3.108   1.525   6.927
 1321SOL    HW1 4862   3.103   1.437   6.879
 1321SOL    HW2 4863   3.133   1.509   7.022
 1322SOL     OW 4864   5.390   1.460   6.087
 1322SOL    HW1 4865   5.308   1.484   6.035
 1322SOL    HW2 4866   5.424   1.541   6.134
 1323SOL     OW 4867   6.109   0.925   3.810
 1323SOL    HW1 4868   6.070   1.012   3.841
 1323SOL    HW2 4869   6.034   0.863   3.784
 1324SOL     OW 4870   1.143   3.460   0.269
 1324SOL    HW1 4871   1.191   3.377   0.241
 1324SOL    HW2 4872   1.078   3.438   0.343
 1325SOL     OW 4873   3.477   5.335   3.398
 1325SOL    HW1 4874   3.480   5.411   3.463
 1325SOL    HW2 4875   3.531   5.258   3.434
 1326SOL     OW 4876   5.076   4.153   4.626
 1326SOL    HW1 4877   5.094   4.180   4.721
 1326SOL    HW2 4878   5.050   4.233   4.573
 1327SOL     OW 4879   2.981   5.733   3.599
 1327SOL    HW1 4880   2.936   5.816   3.565
 1327SOL    HW2 4881   2.924   5.692   3.670
 1328SOL     OW 4882   1.668   1.592   0.135
 1328SOL    HW1 4883   1.596   1.566   0.200
 1328SOL    HW2 4884   1.673   1.524   0.062
 1329SOL     OW 4885   0.827   0.405   1.691
 1329SOL    HW1 4886   0.811   0.482   1.630
 1329SOL    HW2 4887   0.877   0.334   1.642
 1330SOL     OW 4888   5.009   6.526   0.573
 1330SOL    HW1 4889   5.046   6.496   0.661
 1330SOL    HW2 4890   4.990   6.624   0.577
 1331SOL     OW 4891   0.144   1.436   2.342
 1331SOL    HW1 4892   0.077   1.506   2.320
 1331SOL    HW2 4893   0.205   1.469   2.413
 1332SOL     OW 4894   4.015   1.682   1.018
 1332SOL    HW1 4895   3.983   1.731   0.937
 1332SOL    HW2 4896   4.010   1.583   1.001
 1333SOL     OW 4897   3.958   3.348   4.537
 1333SOL    HW1 4898   4.008   3.350   4.450
 1333SOL    HW2 4899   3.973   3.260   4.582
 1334SOL     OW 4900   0.576   4.357   3.682
 1334SOL    HW1 4901   0.520   4.395   3.609
 1334SOL    HW2 4902   0.670   4.345   3.651
 1335SOL     OW 4903   2.559   5.554   1.852
 1335SOL    HW1 4904   2.565   5.461   1.887
 1335SOL    HW2 4905   2.483   5.602   1.896
 1336SOL     OW 4906   0.073   0.498   4.841
 1336SOL    HW1 4907   0.010   0.519   4.765
 1336SOL    HW2 4908   0.136   0.574   4.853
 1337SOL     OW 4909   2.982   0.547   6.546
 1337SOL    HW1 4910   2.960   0.513   6.454
 1337SOL    HW2 4911   2.920   0.505   6.613
 1338SOL     OW 4912   3.550   5.656   1.225
 1338SOL    HW1 4913   3.584   5.746   1.253
 1338SOL    HW2 4914   3.451   5.661   1.212
 1339SOL     OW 4915   0.378   4.929   5.909
 1339SOL    HW1 4916   0.474   4.903   5.900
 1339SOL    HW2 4917   0.347   4.912   6.003
 1340SOL     OW 4918   1.877   1.255   6.292
 1340SOL    HW1 4919   1.908   1.320   6.362
 1340SOL    HW2 4920   1.897   1.162   6.322
 1341SOL     OW 4921   5.920   2.000   4.015
 1341SOL    HW1 4922   5.838   1.947   3.995
 1341SOL    HW2 4923   5.895   2.083   4.064
 1342SOL     OW 4924   0.386   6.455   1.863
 1342SOL    HW1 4925   0.372   6.417   1.771
 1342SOL    HW2 4926   0.415   6.550   1.855
 1343SOL     OW 4927   3.382   5.010   3.685
 1343SOL    HW1 4928   3.317   5.060   3.743
 1343SOL    HW2 4929   3.454   4.970   3.741
 1344SOL     OW 4930   5.394   1.441   2.894
 1344SOL    HW1 4931   5.303   1.457   2.932
 1344SOL    HW2 4932   5.437   1.529   2.872
 1345SOL     OW 4933   0.975   6.897   3.255
 1345SOL    HW1 4934   1.031   6.816   3.272
 1345SOL    HW2 4935   1.014   6.975   3.304
 1346SOL     OW 4936   0.168   0.770   3.965
 1346SOL    HW1 4937   0.212   0.804   4.048
 1346SOL    HW2 4938   0.187   0.672   3.955
 1347SOL     OW 4939   5.213   0.581   3.495
 1347SOL    HW1 4940   5.298   0.617   3.535
 1347SOL    HW2 4941   5.139   0.647   3.508
 1348SOL     OW 4942   4.819   6.111   4.675
 1348SOL    HW1 4943   4.825   6.079   4.770
 1348SOL    HW2 4944   4.779   6.039   4.618
 1349SOL     OW 4945   4.967   2.485   0.254
 1349SOL    HW1 4946   5.005   2.534   0.177
 1349SOL    HW2 4947   4.897   2.541   0.299
 1350SOL     OW 4948   3.669   0.215   4.856
 1350SOL    HW1 4949   3.694   0.174   4.769
 1350SOL    HW2 4950   3.742   0.275   4.887
 1351SOL     OW 4951   0.963   1.540   4.645
 1351SOL    HW1 4952   1.046   1.498   4.680
 1351SOL    HW2 4953   0.984   1.592   4.562
 1352SOL     OW 4954   0.628   6.549   3.924
 1352SOL    HW1 4955   0.720   6.537   3.960
 1352SOL    HW2 4956   0.565   6.566   4.001
 1353SOL     OW 4957   1.969   2.380   4.473
 1353SOL    HW1 4958   1.877   2.379   4.512
 1353SOL    HW2 4959   1.962   2.385   4.373
 1354SOL     OW 4960   0.514   6.807   0.500
 1354SOL    HW1 4961   0.528   6.824   0.403
 1354SOL    HW2 4962   0.417   6.786   0.517
 1355SOL     OW 4963   4.119   3.407   7.017
 1355SOL    HW1 4964   4.129   3.339   6.944
 1355SOL    HW2 4965   4.046   3.378   0.052
 1356SOL     OW 4966   3.278   2.848   1.673
 1356SOL    HW1 4967   3.179   2.861   1.664
 1356SOL    HW2 4968   3.303   2.848   1.769
 1357SOL     OW 4969   2.960   3.074   5.898
 1357SOL    HW1 4970   2.951   2.983   5.858
 1357SOL    HW2 4971   2.881   3.093   5.956
 1358SOL     OW 4972   2.172   3.861   5.764
 1358SOL    HW1 4973   2.106   3.797   5.725
 1358SOL    HW2 4974   2.251   3.868   5.702
 1359SOL     OW 4975   0.028   0.909   0.157
 1359SOL    HW1 4976   7.005   0.878   0.238
 1359SOL    HW2 4977   6.992   0.958   0.096
 1360SOL     OW 4978   3.590   3.140   4.489
 1360SOL    HW1 4979   3.523   3.189   4.546
 1360SOL    HW2 4980   3.550   3.121   4.400
 1361SOL     OW 4981   0.782   6.150   1.267
 1361SOL    HW1 4982   0.782   6.190   1.175
 1361SOL    HW2 4983   0.813   6.055   1.261
 1362SOL     OW 4984   2.839   2.175   6.215
 1362SOL    HW1 4985   2.893   2.187   6.131
 1362SOL    HW2 4986   2.776   2.252   6.226
 1363SOL     OW 4987   6.642   6.793   1.187
 1363SOL    HW1 4988   6.569   6.844   1.141
 1363SOL    HW2 4989   6.729   6.812   1.142
 1364SOL     OW 4990   1.137   3.924   1.152
 1364SOL    HW1 4991   1.065   3.987   1.182
 1364SOL    HW2 4992   1.181   3.883   1.232
 1365SOL     OW 4993   0.527   3.793   5.352
 1365SOL    HW1 4994   0.469   3.830   5.425
 1365SOL    HW2 4995   0.499   3.699   5.332
 1366SOL     OW 4996   4.212   0.358   0.830
 1366SOL    HW1 4997   4.204   0.451   0.866
 1366SOL    HW2 4998   4.301   0.348   0.784
 1367SOL     OW 4999   1.511   0.106   4.406
 1367SOL    HW1 5000   1.493   0.097   4.308
 1367SOL    HW2 5001   1.564   0.028   4.438
 1368SOL     OW 5002   1.303   6.899   4.790
 1368SOL    HW1 5003   1.332   6.834   4.720
 1368SOL    HW2 5004   1.306   6.991   4.753
 1369SOL     OW 5005   2.817   5.876   3.870
 1369SOL    HW1 5006   2.863   5.811   3.930
 1369SOL    HW2 5007   2.883   5.914   3.805
 1370SOL     OW 5008   0.042   2.486   3.082
 1370SOL    HW1 5009   0.006   2.447   3.168
 1370SOL    HW2 5010   0.123   2.540   3.102
 1371SOL     OW 5011   6.187   2.354   5.723
 1371SOL    HW1 5012   6.139   2.362   5.811
 1371SOL    HW2 5013   6.130   2.392   5.650
 1372SOL     OW 5014   5.597   2.878   1.296
 1372SOL    HW1 5015   5.577   2.923   1.208
 1372SOL    HW2 5016   5.514   2.835   1.331
 1373SOL     OW 5017   5.808   2.980   1.861
 1373SOL    HW1 5018   5.832   3.077   1.857
 1373SOL    HW2 5019   5.720   2.965   1.817
 1374SOL     OW 5020   4.017   3.755   1.689
 1374SOL    HW1 5021   4.057   3.782   1.776
 1374SOL    HW2 5022   4.083   3.771   1.615
 1375SOL     OW 5023   5.566   4.705   4.772
 1375SOL    HW1 5024   5.574   4.650   4.688
 1375SOL    HW2 5025   5.542   4.645   4.848
 1376SOL     OW 5026   3.069   4.568   6.069
 1376SOL    HW1 5027   3.017   4.552   5.984
 1376SOL    HW2 5028   3.146   4.506   6.073
 1377SOL     OW 5029   2.275   1.793   2.977
 1377SOL    HW1 5030   2.317   1.752   3.058
 1377SOL    HW2 5031   2.327   1.767   2.896
 1378SOL     OW 5032   5.446   2.733   4.145
 1378SOL    HW1 5033   5.512   2.746   4.219
 1378SOL    HW2 5034   5.422   2.822   4.106
 1379SOL     OW 5035   4.764   5.525   0.340
 1379SOL    HW1 5036   4.752   5.622   0.359
 1379SOL    HW2 5037   4.678   5.487   0.305
 1380SOL     OW 5038   0.352   5.945   2.669
 1380SOL    HW1 5039   0.330   5.870   2.731
 1380SOL    HW2 5040   0.353   6.031   2.719
 1381SOL     OW 5041   6.147   2.281   6.105
 1381SOL    HW1 5042   6.196   2.318   6.184
 1381SOL    HW2 5043   6.132   2.354   6.038
 1382SOL     OW 5044   4.755   2.371   0.104
 1382SOL    HW1 5045   4.839   2.346   0.153
 1382SOL    HW2 5046   4.753   2.470   0.088
 1383SOL     OW 5047   6.815   0.557   0.707
 1383SOL    HW1 5048   6.839   0.572   0.803
 1383SOL    HW2 5049   6.715   0.554   0.697
 1384SOL     OW 5050   5.960   1.942   1.735
 1384SOL    HW1 5051   5.966   1.992   1.821
 1384SOL    HW2 5052   6.043   1.956   1.682
 1385SOL     OW 5053   0.349   5.971   1.522
 1385SOL    HW1 5054   0.252   5.994   1.533
 1385SOL    HW2 5055   0.402   6.014   1.596
 1386SOL     OW 5056   2.133   5.717   4.109
 1386SOL    HW1 5057   2.099   5.751   4.021
 1386SOL    HW2 5058   2.115   5.786   4.180
 1387SOL     OW 5059   2.485   6.110   1.506
 1387SOL    HW1 5060   2.488   6.013   1.483
 1387SOL    HW2 5061   2.576   6.141   1.533
 1388SOL     OW 5062   6.903   0.389   2.013
 1388SOL    HW1 5063   6.815   0.345   1.994
 1388SOL    HW2 5064   6.944   0.349   2.095
 1389SOL     OW 5065   6.085   1.067   2.260
 1389SOL    HW1 5066   6.119   1.159   2.241
 1389SOL    HW2 5067   5.985   1.067   2.257
 1390SOL     OW 5068   1.502   1.747   5.101
 1390SOL    HW1 5069   1.437   1.714   5.033
 1390SOL    HW2 5070   1.456   1.812   5.163
 1391SOL     OW 5071   0.244   3.322   3.376
 1391SOL    HW1 5072   0.223   3.285   3.466
 1391SOL    HW2 5073   0.225   3.253   3.306
 1392SOL     OW 5074   4.819   4.549   4.442
 1392SOL    HW1 5075   4.805   4.525   4.538
 1392SOL    HW2 5076   4.737   4.529   4.389
 1393SOL     OW 5077   3.253   5.965   6.058
 1393SOL    HW1 5078   3.224   5.993   5.967
 1393SOL    HW2 5079   3.342   6.005   6.079
 1394SOL     OW 5080   1.430   5.871   6.225
 1394SOL    HW1 5081   1.474   5.934   6.161
 1394SOL    HW2 5082   1.332   5.867   6.204
 1395SOL     OW 5083   3.565   4.388   5.868
 1395SOL    HW1 5084   3.492   4.440   5.824
 1395SOL    HW2 5085   3.528   4.302   5.902
 1396SOL     OW 5086   6.218   6.257   3.632
 1396SOL    HW1 5087   6.282   6.213   3.570
 1396SOL    HW2 5088   6.166   6.187   3.682
 1397SOL     OW 5089   4.497   6.100   5.548
 1397SOL    HW1 5090   4.520   6.189   5.587
 1397SOL    HW2 5091   4.428   6.055   5.604
 1398SOL     OW 5092   2.066   1.161   4.480
 1398SOL    HW1 5093   2.124   1.140   4.559
 1398SOL    HW2 5094   2.004   1.084   4.464
 1399SOL     OW 5095   3.447   5.967   1.701
 1399SOL    HW1 5096   3.445   6.061   1.734
 1399SOL    HW2 5097   3.459   5.904   1.778
 1400SOL     OW 5098   2.188   6.588   2.463
 1400SOL    HW1 5099   2.177   6.625   2.555
 1400SOL    HW2 5100   2.187   6.489   2.467
 1401SOL     OW 5101   6.710   1.082   4.732
 1401SOL    HW1 5102   6.696   1.164   4.788
 1401SOL    HW2 5103   6.806   1.057   4.732
 1402SOL     OW 5104   6.694   3.052   0.150
 1402SOL    HW1 5105   6.752   3.106   0.211
 1402SOL    HW2 5106   6.642   2.986   0.205
 1403SOL     OW 5107   3.579   0.404   2.632
 1403SOL    HW1 5108   3.493   0.375   2.675
 1403SOL    HW2 5109   3.646   0.426   2.703
 1404SOL     OW 5110   5.423   1.688   0.695
 1404SOL    HW1 5111   5.411   1.732   0.605
 1404SOL    HW2 5112   5.374   1.741   0.764
 1405SOL     OW 5113   3.015   2.864   1.267
 1405SOL    HW1 5114   3.113   2.866   1.245
 1405SOL    HW2 5115   2.999   2.798   1.341
 1406SOL     OW 5116   1.300   4.130   1.361
 1406SOL    HW1 5117   1.345   4.142   1.273
 1406SOL    HW2 5118   1.316   4.037   1.395
 1407SOL     OW 5119   6.249   2.653   3.109
 1407SOL    HW1 5120   6.162   2.688   3.145
 1407SOL    HW2 5121   6.302   2.728   3.071
 1408SOL     OW 5122   6.372   0.023   6.237
 1408SOL    HW1 5123   6.457   0.029   6.290
 1408SOL    HW2 5124   6.294   0.037   6.298
 1409SOL     OW 5125   0.557   1.708   4.750
 1409SOL    HW1 5126   0.545   1.774   4.823
 1409SOL    HW2 5127   0.496   1.731   4.674
 1410SOL     OW 5128   6.990   3.033   6.923
 1410SOL    HW1 5129   7.024   3.093   6.995
 1410SOL    HW2 5130   6.917   2.974   6.960
 1411SOL     OW 5131   1.553   6.937   1.561
 1411SOL    HW1 5132   1.520   6.859   1.507
 1411SOL    HW2 5133   1.482   7.008   1.564
 1412SOL     OW 5134   1.267   3.234   0.122
 1412SOL    HW1 5135   1.251   3.151   0.175
 1412SOL    HW2 5136   1.267   3.212   0.025
 1413SOL     OW 5137   2.965   0.340   4.067
 1413SOL    HW1 5138   2.966   0.389   4.154
 1413SOL    HW2 5139   3.050   0.289   4.056
 1414SOL     OW 5140   2.854   0.848   1.514
 1414SOL    HW1 5141   2.854   0.812   1.607
 1414SOL    HW2 5142   2.881   0.944   1.515
 1415SOL     OW 5143   4.319   6.164   6.143
 1415SOL    HW1 5144   4.389   6.236   6.145
 1415SOL    HW2 5145   4.331   6.110   6.059
 1416SOL     OW 5146   4.392   5.884   3.132
 1416SOL    HW1 5147   4.350   5.810   3.079
 1416SOL    HW2 5148   4.379   5.971   3.084
 1417SOL     OW 5149   3.024   2.541   6.127
 1417SOL    HW1 5150   3.026   2.589   6.039
 1417SOL    HW2 5151   2.977   2.598   6.194
 1418SOL     OW 5152   3.134   4.070   2.678
 1418SOL    HW1 5153   3.065   4.021   2.625
 1418SOL    HW2 5154   3.208   4.099   2.618
 1419SOL     OW 5155   4.737   6.388   4.638
 1419SOL    HW1 5156   4.784   6.303   4.662
 1419SOL    HW2 5157   4.776   6.464   4.689
 1420SOL     OW 5158   0.085   5.584   2.181
 1420SOL    HW1 5159   0.179   5.548   2.182
 1420SOL    HW2 5160   0.072   5.647   2.257
 1421SOL     OW 5161   3.600   1.047   2.665
 1421SOL    HW1 5162   3.561   1.123   2.613
 1421SOL    HW2 5163   3.689   1.074   2.702
 1422SOL     OW 5164   2.977   6.277   0.086
 1422SOL    HW1 5165   2.908   6.324   0.032
 1422SOL    HW2 5166   3.006   6.336   0.162
 1423SOL     OW 5167   4.925   0.644   2.819
 1423SOL    HW1 5168   4.888   0.718   2.875
 1423SOL    HW2 5169   4.999   0.599   2.868
 1424SOL     OW 5170   6.113   4.843   2.963
 1424SOL    HW1 5171   6.176   4.895   3.020
 1424SOL    HW2 5172   6.067   4.905   2.899
 1425SOL     OW 5173   2.061   0.095   4.848
 1425SOL    HW1 5174   2.045   0.142   4.935
 1425SOL    HW2 5175   1.978   0.047   4.821
 1426SOL     OW 5176   1.250   1.689   5.898
 1426SOL    HW1 5177   1.324   1.712   5.835
 1426SOL    HW2 5178   1.252   1.591   5.918
 1427SOL     OW 5179   6.143   0.821   4.758
 1427SOL    HW1 5180   6.172   0.823   4.854
 1427SOL    HW2 5181   6.202   0.759   4.706
 1428SOL     OW 5182   5.483   1.078   0.248
 1428SOL    HW1 5183   5.429   1.160   0.228
 1428SOL    HW2 5184   5.561   1.103   0.305
 1429SOL     OW 5185   5.601   0.246   0.514
 1429SOL    HW1 5186   5.518   0.284   0.555
 1429SOL    HW2 5187   5.576   0.181   0.442
 1430SOL     OW 5188   1.886   4.499   3.920
 1430SOL    HW1 5189   1.881   4.441   3.839
 1430SOL    HW2 5190   1.965   4.472   3.976
 1431SOL     OW 5191   1.371   0.583   1.008
 1431SOL    HW1 5192   1.460   0.542   1.029
 1431SOL    HW2 5193   1.378   0.640   0.927
 1432SOL     OW 5194   2.616   0.475   2.152
 1432SOL    HW1 5195   2.589   0.482   2.056
 1432SOL    HW2 5196   2.624   0.379   2.177
 1433SOL     OW 5197   4.804   0.983   3.969
 1433SOL    HW1 5198   4.807   0.923   4.049
 1433SOL    HW2 5199   4.768   1.072   3.995
 1434SOL     OW 5200   1.128   0.688   5.247
 1434SOL    HW1 5201   1.100   0.660   5.155
 1434SOL    HW2 5202   1.091   0.623   5.314
 1435SOL     OW 5203   6.982   1.685   3.210
 1435SOL    HW1 5204   0.053   1.704   3.198
 1435SOL    HW2 5205   6.933   1.715   3.128
 1436SOL     OW 5206   4.133   3.812   0.486
 1436SOL    HW1 5207   4.174   3.886   0.539
 1436SOL    HW2 5208   4.204   3.747   0.460
 1437SOL     OW 5209   4.000   1.073   2.223
 1437SOL    HW1 5210   4.050   0.992   2.253
 1437SOL    HW2 5211   4.005   1.081   2.124
 1438SOL     OW 5212   2.259   0.507   0.869
 1438SOL    HW1 5213   2.182   0.445   0.887
 1438SOL    HW2 5214   2.344   0.455   0.869
 1439SOL     OW 5215   0.612   5.527   2.856
 1439SOL    HW1 5216   0.588   5.550   2.950
 1439SOL    HW2 5217   0.706   5.556   2.837
 1440SOL     OW 5218   2.383   3.155   1.705
 1440SOL    HW1 5219   2.297   3.204   1.718
 1440SOL    HW2 5220   2.374   3.092   1.629
 1441SOL     OW 5221   5.168   6.084   0.693
 1441SOL    HW1 5222   5.208   6.031   0.768
 1441SOL    HW2 5223   5.238   6.099   0.622
 1442SOL     OW 5224   5.302   5.757   0.429
 1442SOL    HW1 5225   5.301   5.713   0.339
 1442SOL    HW2 5226   5.276   5.690   0.499
 1443SOL     OW 5227   0.242   3.082   3.228
 1443SOL    HW1 5228   0.318   3.043   3.176
 1443SOL    HW2 5229   0.164   3.095   3.168
 1444SOL     OW 5230   6.822   4.998   6.976
 1444SOL    HW1 5231   6.871   4.994   0.037
 1444SOL    HW2 5232   6.783   5.089   6.964
 1445SOL     OW 5233   0.930   3.902   1.589
 1445SOL    HW1 5234   0.975   3.845   1.520
 1445SOL    HW2 5235   0.987   3.904   1.672
 1446SOL     OW 5236   6.228   6.850   1.157
 1446SOL    HW1 5237   6.306   6.904   1.125
 1446SOL    HW2 5238   6.187   6.802   1.079
 1447SOL     OW 5239   5.644   5.269   4.450
 1447SOL    HW1 5240   5.554   5.309   4.431
 1447SOL    HW2 5241   5.659   5.265   4.549
 1448SOL     OW 5242   1.017   3.293   5.467
 1448SOL    HW1 5243   0.923   3.261   5.458
 1448SOL    HW2 5244   1.032   3.325   5.561
 1449SOL     OW 5245   2.158   3.189   3.444
 1449SOL    HW1 5246   2.197   3.124   3.379
 1449SOL    HW2 5247   2.163   3.281   3.406
 1450SOL     OW 5248   2.634   2.420   3.765
 1450SOL    HW1 5249   2.577   2.465   3.696
 1450SOL    HW2 5250   2.718   2.387   3.722
 1451SOL     OW 5251   2.829   1.226   2.684
 1451SOL    HW1 5252   2.830   1.164   2.605
 1451SOL    HW2 5253   2.896   1.195   2.751
 1452SOL     OW 5254   5.205   3.003   6.686
 1452SOL    HW1 5255   5.173   3.053   6.767
 1452SOL    HW2 5256   5.127   2.984   6.626
 1453SOL     OW 5257   6.799   4.574   5.499
 1453SOL    HW1 5258   6.826   4.652   5.555
 1453SOL    HW2 5259   6.881   4.530   5.462
 1454SOL     OW 5260   3.319   2.131   3.776
 1454SOL    HW1 5261   3.250   2.173   3.718
 1454SOL    HW2 5262   3.403   2.117   3.723
 1455SOL     OW 5263   0.465   5.956   1.779
 1455SOL    HW1 5264   0.479   5.947   1.878
 1455SOL    HW2 5265   0.376   5.918   1.755
 1456SOL     OW 5266   6.556   5.062   4.292
 1456SOL    HW1 5267   6.556   5.148   4.342
 1456SOL    HW2 5268   6.625   5.001   4.330
 1457SOL     OW 5269   1.042   5.617   6.223
 1457SOL    HW1 5270   1.088   5.559   6.155
 1457SOL    HW2 5271   1.083   5.602   6.312
 1458SOL     OW 5272   5.145   5.204   5.118
 1458SOL    HW1 5273   5.072   5.244   5.174
 1458SOL    HW2 5274   5.220   5.174   5.178
 1459SOL     OW 5275   5.882   6.683   5.287
 1459SOL    HW1 5276   5.795   6.699   5.240
 1459SOL    HW2 5277   5.879   6.592   5.330
 1460SOL     OW 5278   1.241   6.560   4.788
 1460SOL    HW1 5279   1.202   6.527   4.702
 1460SOL    HW2 5280   1.169   6.566   4.858
 1461SOL     OW 5281   6.546   3.189   4.046
 1461SOL    HW1 5282   6.505   3.197   3.956
 1461SOL    HW2 5283   6.608   3.266   4.062
 1462SOL     OW 5284   0.190   0.949   1.551
 1462SOL    HW1 5285   0.286   0.932   1.529
 1462SOL    HW2 5286   0.176   1.047   1.563
 1463SOL     OW 5287   2.327   5.531   6.949
 1463SOL    HW1 5288   2.346   5.587   6.868
 1463SOL    HW2 5289   2.265   5.457   6.924
 1464SOL     OW 5290   1.106   4.108   3.818
 1464SOL    HW1 5291   1.199   4.134   3.844
 1464SOL    HW2 5292   1.091   4.012   3.841
 1465SOL     OW 5293   0.696   3.226   3.899
 1465SOL    HW1 5294   0.668   3.162   3.971
 1465SOL    HW2 5295   0.653   3.315   3.914
 1466SOL     OW 5296   5.497   2.307   2.519
 1466SOL    HW1 5297   5.502   2.298   2.419
 1466SOL    HW2 5298   5.401   2.305   2.547
 1467SOL     OW 5299   0.583   0.837   4.036
 1467SOL    HW1 5300   0.557   0.862   4.129
 1467SOL    HW2 5301   0.518   0.878   3.972
 1468SOL     OW 5302   2.901   5.305   2.659
 1468SOL    HW1 5303   2.974   5.289   2.593
 1468SOL    HW2 5304   2.934   5.363   2.733
 1469SOL     OW 5305   5.909   3.755   3.260
 1469SOL    HW1 5306   5.892   3.708   3.173
 1469SOL    HW2 5307   5.865   3.705   3.334
 1470SOL     OW 5308   6.059   1.766   1.947
 1470SOL    HW1 5309   6.126   1.694   1.961
 1470SOL    HW2 5310   6.067   1.803   1.854
 1471SOL     OW 5311   4.516   6.802   1.337
 1471SOL    HW1 5312   4.550   6.788   1.244
 1471SOL    HW2 5313   4.421   6.831   1.334
 1472SOL     OW 5314   1.951   0.124   6.037
 1472SOL    HW1 5315   1.960   0.124   6.136
 1472SOL    HW2 5316   1.926   0.215   6.005
 1473SOL     OW 5317   1.538   5.864   3.771
 1473SOL    HW1 5318   1.554   5.776   3.725
 1473SOL    HW2 5319   1.457   5.856   3.830
 1474SOL     OW 5320   2.733   5.001   1.016
 1474SOL    HW1 5321   2.649   4.977   0.966
 1474SOL    HW2 5322   2.734   4.953   1.103
 1475SOL     OW 5323   5.514   0.363   6.096
 1475SOL    HW1 5324   5.472   0.409   6.175
 1475SOL    HW2 5325   5.609   0.341   6.117
 1476SOL     OW 5326   5.061   0.666   0.690
 1476SOL    HW1 5327   5.107   0.754   0.687
 1476SOL    HW2 5328   4.968   0.676   0.653
 1477SOL     OW 5329   3.483   4.818   1.557
 1477SOL    HW1 5330   3.429   4.811   1.473
 1477SOL    HW2 5331   3.427   4.792   1.635
 1478SOL     OW 5332   4.838   5.396   7.022
 1478SOL    HW1 5333   4.754   5.441   0.025
 1478SOL    HW2 5334   4.868   5.332   0.067
 1479SOL     OW 5335   4.094   3.561   1.439
 1479SOL    HW1 5336   4.175   3.599   1.483
 1479SOL    HW2 5337   4.122   3.496   1.368
 1480SOL     OW 5338   2.952   0.476   4.304
 1480SOL    HW1 5339   2.855   0.463   4.286
 1480SOL    HW2 5340   2.967   0.480   4.403
 1481SOL     OW 5341   5.317   3.005   6.370
 1481SOL    HW1 5342   5.309   2.948   6.288
 1481SOL    HW2 5343   5.361   2.952   6.443
 1482SOL     OW 5344   5.505   1.374   1.453
 1482SOL    HW1 5345   5.562   1.303   1.413
 1482SOL    HW2 5346   5.409   1.347   1.446
 1483SOL     OW 5347   5.736   0.916   0.020
 1483SOL    HW1 5348   5.646   0.936   0.059
 1483SOL    HW2 5349   5.725   0.874   6.957
 1484SOL     OW 5350   3.553   5.610   5.199
 1484SOL    HW1 5351   3.508   5.603   5.289
 1484SOL    HW2 5352   3.536   5.701   5.161
 1485SOL     OW 5353   5.375   2.823   3.273
 1485SOL    HW1 5354   5.331   2.757   3.334
 1485SOL    HW2 5355   5.462   2.852   3.314
 1486SOL     OW 5356   4.832   6.345   3.592
 1486SOL    HW1 5357   4.881   6.352   3.678
 1486SOL    HW2 5358   4.742   6.389   3.601
 1487SOL     OW 5359   6.660   0.643   0.184
 1487SOL    HW1 5360   6.671   0.726   0.238
 1487SOL    HW2 5361   6.651   0.667   0.087
 1488SOL     OW 5362   6.663   2.289   2.605
 1488SOL    HW1 5363   6.759   2.296   2.579
 1488SOL    HW2 5364   6.638   2.193   2.613
 1489SOL     OW 5365   2.979   4.181   0.492
 1489SOL    HW1 5366   2.910   4.221   0.552
 1489SOL    HW2 5367   2.936   4.151   0.407
 1490SOL     OW 5368   6.408   2.549   1.949
 1490SOL    HW1 5369   6.399   2.590   2.039
 1490SOL    HW2 5370   6.491   2.585   1.905
 1491SOL     OW 5371   5.953   2.558   4.167
 1491SOL    HW1 5372   5.976   2.579   4.262
 1491SOL    HW2 5373   5.917   2.640   4.122
 1492SOL     OW 5374   6.035   1.494   3.452
 1492SOL    HW1 5375   6.059   1.574   3.396
 1492SOL    HW2 5376   6.098   1.419   3.431
 1493SOL     OW 5377   5.455   1.672   6.241
 1493SOL    HW1 5378   5.463   1.766   6.274
 1493SOL    HW2 5379   5.386   1.624   6.295
 1494SOL     OW 5380   6.551   4.916   6.118
 1494SOL    HW1 5381   6.544   4.817   6.133
 1494SOL    HW2 5382   6.459   4.953   6.101
 1495SOL     OW 5383   6.750   4.019   4.396
 1495SOL    HW1 5384   6.798   3.947   4.446
 1495SOL    HW2 5385   6.652   4.014   4.415
 1496SOL     OW 5386   6.474   6.436   5.954
 1496SOL    HW1 5387   6.482   6.343   5.990
 1496SOL    HW2 5388   6.421   6.492   6.018
 1497SOL     OW 5389   6.330   2.640   2.201
 1497SOL    HW1 5390   6.426   2.666   2.212
 1497SOL    HW2 5391   6.297   2.597   2.285
 1498SOL     OW 5392   3.161   3.450   0.566
 1498SOL    HW1 5393   3.102   3.513   0.515
 1498SOL    HW2 5394   3.112   3.419   0.647
 1499SOL     OW 5395   0.050   4.328   4.767
 1499SOL    HW1 5396   0.140   4.357   4.800
 1499SOL    HW2 5397   0.059   4.289   4.675
 1500SOL     OW 5398   0.488   6.054   2.214
 1500SOL    HW1 5399   0.474   6.144   2.173
 1500SOL    HW2 5400   0.527   5.992   2.145
 1501SOL     OW 5401   5.924   1.546   0.664
 1501SOL    HW1 5402   5.918   1.510   0.757
 1501SOL    HW2 5403   5.954   1.473   0.602
 1502SOL     OW 5404   6.421   0.339   6.059
 1502SOL    HW1 5405   6.429   0.260   6.120
 1502SOL    HW2 5406   6.423   0.308   5.964
 1503SOL     OW 5407   0.555   4.912   1.386
 1503SOL    HW1 5408   0.475   4.971   1.386
 1503SOL    HW2 5409   0.573   4.881   1.292
 1504SOL     OW 5410   2.120   6.935   2.287
 1504SOL    HW1 5411   2.214   6.936   2.253
 1504SOL    HW2 5412   2.067   6.868   2.235
 1505SOL     OW 5413   6.430   5.033   5.107
 1505SOL    HW1 5414   6.448   4.936   5.127
 1505SOL    HW2 5415   6.500   5.067   5.044
 1506SOL     OW 5416   0.665   1.456   0.690
 1506SOL    HW1 5417   0.751   1.493   0.724
 1506SOL    HW2 5418   0.593   1.473   0.758
 1507SOL     OW 5419   1.764   2.843   3.873
 1507SOL    HW1 5420   1.824   2.862   3.951
 1507SOL    HW2 5421   1.758   2.744   3.858
 1508SOL     OW 5422   1.874   0.780   1.381
 1508SOL    HW1 5423   1.884   0.811   1.286
 1508SOL    HW2 5424   1.921   0.693   1.393
 1509SOL     OW 5425   4.985   1.003   4.617
 1509SOL    HW1 5426   5.065   0.956   4.581
 1509SOL    HW2 5427   5.010   1.095   4.647
 1510SOL     OW 5428   3.504   6.350   4.564
 1510SOL    HW1 5429   3.536   6.369   4.657
 1510SOL    HW2 5430   3.421   6.294   4.568
 1511SOL     OW 5431   3.093   3.515   5.058
 1511SOL    HW1 5432   3.000   3.510   5.094
 1511SOL    HW2 5433   3.096   3.581   4.983
 1512SOL     OW 5434   5.605   6.559   1.046
 1512SOL    HW1 5435   5.704   6.555   1.065
 1512SOL    HW2 5436   5.576   6.654   1.039
 1513SOL     OW 5437   2.488   0.181   5.885
 1513SOL    HW1 5438   2.537   0.242   5.822
 1513SOL    HW2 5439   2.448   0.233   5.959
 1514SOL     OW 5440   2.900   2.727   6.289
 1514SOL    HW1 5441   2.977   2.790   6.302
 1514SOL    HW2 5442   2.823   2.777   6.249
 1515SOL     OW 5443   4.504   0.569   2.352
 1515SOL    HW1 5444   4.451   0.635   2.298
 1515SOL    HW2 5445   4.517   0.605   2.444
 1516SOL     OW 5446   5.772   0.238   5.381
 1516SOL    HW1 5447   5.756   0.141   5.362
 1516SOL    HW2 5448   5.860   0.250   5.426
 1517SOL     OW 5449   3.320   6.210   4.064
 1517SOL    HW1 5450   3.240   6.262   4.093
 1517SOL    HW2 5451   3.350   6.150   4.138
 1518SOL     OW 5452   0.742   2.977   6.497
 1518SOL    HW1 5453   0.724   2.895   6.552
 1518SOL    HW2 5454   0.820   3.026   6.536
 1519SOL     OW 5455   6.569   5.438   6.752
 1519SOL    HW1 5456   6.593   5.392   6.666
 1519SOL    HW2 5457   6.518   5.521   6.731
 1520SOL     OW 5458   0.378   6.221   3.097
 1520SOL    HW1 5459   0.475   6.198   3.096
 1520SOL    HW2 5460   0.338   6.203   3.006
 1521SOL     OW 5461   2.288   5.228   6.101
 1521SOL    HW1 5462   2.324   5.139   6.075
 1521SOL    HW2 5463   2.310   5.247   6.197
 1522SOL     OW 5464   5.907   6.044   3.985
 1522SOL    HW1 5465   5.843   6.119   4.006
 1522SOL    HW2 5466   5.859   5.957   3.992
 1523SOL     OW 5467   3.578   6.343   0.777
 1523SOL    HW1 5468   3.536   6.365   0.865
 1523SOL    HW2 5469   3.642   6.268   0.788
 1524SOL     OW 5470   2.383   1.763   2.711
 1524SOL    HW1 5471   2.350   1.724   2.626
 1524SOL    HW2 5472   2.472   1.723   2.734
 1525SOL     OW 5473   5.601   4.115   0.015
 1525SOL    HW1 5474   5.559   4.092   6.954
 1525SOL    HW2 5475   5.691   4.073   0.021
 1526SOL     OW 5476   1.113   1.691   0.686
 1526SOL    HW1 5477   1.042   1.646   0.740
 1526SOL    HW2 5478   1.188   1.718   0.746
 1527SOL     OW 5479   4.311   2.089   3.571
 1527SOL    HW1 5480   4.283   2.145   3.493
 1527SOL    HW2 5481   4.246   2.014   3.583
 1528SOL     OW 5482   3.650   4.146   2.418
 1528SOL    HW1 5483   3.668   4.244   2.423
 1528SOL    HW2 5484   3.642   4.109   2.510
 1529SOL     OW 5485   4.226   1.530   5.945
 1529SOL    HW1 5486   4.133   1.560   5.928
 1529SOL    HW2 5487   4.237   1.436   5.912
 1530SOL     OW 5488   3.049   6.497   1.045
 1530SOL    HW1 5489   3.080   6.444   0.966
 1530SOL    HW2 5490   3.021   6.589   1.015
 1531SOL     OW 5491   4.589   6.693   4.347
 1531SOL    HW1 5492   4.617   6.663   4.256
 1531SOL    HW2 5493   4.669   6.706   4.405
 1532SOL     OW 5494   3.471   5.606   6.831
 1532SOL    HW1 5495   3.377   5.578   6.813
 1532SOL    HW2 5496   3.524   5.602   6.747
 1533SOL     OW 5497   5.692   5.982   0.961
 1533SOL    HW1 5498   5.626   6.026   1.022
 1533SOL    HW2 5499   5.644   5.917   0.902
 1534SOL     OW 5500   3.470   4.426   6.726
 1534SOL    HW1 5501   3.483   4.374   6.642
 1534SOL    HW2 5502   3.374   4.455   6.733
 1535SOL     OW 5503   5.617   4.810   4.173
 1535SOL    HW1 5504   5.568   4.762   4.100
 1535SOL    HW2 5505   5.630   4.749   4.251
 1536SOL     OW 5506   4.840   3.599   6.867
 1536SOL    HW1 5507   4.844   3.593   6.967
 1536SOL    HW2 5508   4.879   3.686   6.837
 1537SOL     OW 5509   2.628   5.091   3.023
 1537SOL    HW1 5510   2.642   5.061   2.929
 1537SOL    HW2 5511   2.531   5.112   3.037
 1538SOL     OW 5512   2.792   1.414   0.664
 1538SOL    HW1 5513   2.785   1.509   0.633
 1538SOL    HW2 5514   2.735   1.401   0.745
 1539SOL     OW 5515   5.986   3.238   0.883
 1539SOL    HW1 5516   5.911   3.279   0.935
 1539SOL    HW2 5517   6.061   3.215   0.945
 1540SOL     OW 5518   3.419   6.937   3.845
 1540SOL    HW1 5519   3.421   7.014   3.910
 1540SOL    HW2 5520   3.420   6.973   3.751
 1541SOL     OW 5521   3.917   3.314   5.892
 1541SOL    HW1 5522   3.981   3.257   5.944
 1541SOL    HW2 5523   3.824   3.281   5.905
 1542SOL     OW 5524   0.270   6.580   2.296
 1542SOL    HW1 5525   0.301   6.494   2.336
 1542SOL    HW2 5526   0.311   6.592   2.205
 1543SOL     OW 5527   2.806   4.721   0.199
 1543SOL    HW1 5528   2.882   4.708   0.136
 1543SOL    HW2 5529   2.840   4.722   0.293
 1544SOL     OW 5530   3.767   3.678   3.961
 1544SOL    HW1 5531   3.708   3.655   3.883
 1544SOL    HW2 5532   3.860   3.647   3.942
 1545SOL     OW 5533   5.802   6.137   1.717
 1545SOL    HW1 5534   5.753   6.111   1.634
 1545SOL    HW2 5535   5.736   6.166   1.786
 1546SOL     OW 5536   5.614   6.489   6.121
 1546SOL    HW1 5537   5.604   6.474   6.022
 1546SOL    HW2 5538   5.613   6.588   6.139
 1547SOL     OW 5539   2.097   3.454   6.632
 1547SOL    HW1 5540   2.106   3.406   6.544
 1547SOL    HW2 5541   2.154   3.409   6.700
 1548SOL     OW 5542   6.453   2.101   0.292
 1548SOL    HW1 5543   6.411   2.010   0.293
 1548SOL    HW2 5544   6.455   2.138   0.385
 1549SOL     OW 5545   5.104   0.734   4.749
 1549SOL    HW1 5546   5.161   0.810   4.716
 1549SOL    HW2 5547   5.112   0.657   4.685
 1550SOL     OW 5548   3.968   3.041   4.339
 1550SOL    HW1 5549   3.993   3.138   4.350
 1550SOL    HW2 5550   4.010   3.006   4.255
 1551SOL     OW 5551   6.548   4.882   5.634
 1551SOL    HW1 5552   6.492   4.809   5.675
 1551SOL    HW2 5553   6.645   4.858   5.644
 1552SOL     OW 5554   2.107   4.216   1.216
 1552SOL    HW1 5555   2.183   4.231   1.279
 1552SOL    HW2 5556   2.096   4.296   1.157
 1553SOL     OW 5557   1.850   1.565   6.031
 1553SOL    HW1 5558   1.910   1.636   5.996
 1553SOL    HW2 5559   1.757   1.580   5.998
 1554SOL     OW 5560   3.367   1.744   4.013
 1554SOL    HW1 5561   3.285   1.701   3.974
 1554SOL    HW2 5562   3.447   1.720   3.958
 1555SOL     OW 5563   6.405   4.439   6.097
 1555SOL    HW1 5564   6.370   4.358   6.145
 1555SOL    HW2 5565   6.447   4.411   6.010
 1556SOL     OW 5566   2.027   0.830   5.745
 1556SOL    HW1 5567   2.066   0.761   5.685
 1556SOL    HW2 5568   2.100   0.878   5.794
 1557SOL     OW 5569   0.239   2.920   6.111
 1557SOL    HW1 5570   0.286   2.986   6.170
 1557SOL    HW2 5571   0.178   2.863   6.166
 1558SOL     OW 5572   0.043   6.874   4.709
 1558SOL    HW1 5573   0.117   6.907   4.769
 1558SOL    HW2 5574   0.044   6.774   4.709
 1559SOL     OW 5575   1.480   1.810   6.379
 1559SOL    HW1 5576   1.423   1.873   6.327
 1559SOL    HW2 5577   1.440   1.718   6.375
 1560SOL     OW 5578   6.962   0.417   6.594
 1560SOL    HW1 5579   6.890   0.470   6.549
 1560SOL    HW2 5580   0.025   0.446   6.559
 1561SOL     OW 5581   5.565   5.887   1.688
 1561SOL    HW1 5582   5.597   5.896   1.782
 1561SOL    HW2 5583   5.564   5.790   1.662
 1562SOL     OW 5584   6.272   0.615   3.740
 1562SOL    HW1 5585   6.199   0.634   3.675
 1562SOL    HW2 5586   6.253   0.660   3.827
 1563SOL     OW 5587   3.959   6.729   5.056
 1563SOL    HW1 5588   4.038   6.784   5.029
 1563SOL    HW2 5589   3.938   6.662   4.985
 1564SOL     OW 5590   0.775   2.316   2.335
 1564SOL    HW1 5591   0.730   2.249   2.275
 1564SOL    HW2 5592   0.730   2.404   2.325
 1565SOL     OW 5593   5.787   4.764   1.413
 1565SOL    HW1 5594   5.875   4.806   1.389
 1565SOL    HW2 5595   5.739   4.822   1.479
 1566SOL     OW 5596   6.300   4.540   3.134
 1566SOL    HW1 5597   6.225   4.477   3.114
 1566SOL    HW2 5598   6.315   4.546   3.232
 1567SOL     OW 5599   6.104   5.986   5.163
 1567SOL    HW1 5600   6.042   6.054   5.123
 1567SOL    HW2 5601   6.142   6.021   5.248
 1568SOL     OW 5602   0.527   0.022   0.022
 1568SOL    HW1 5603   0.621   7.024   7.024
 1568SOL    HW2 5604   0.465   7.020   6.976
 1569SOL     OW 5605   3.626   6.593   4.646
 1569SOL    HW1 5606   3.647   6.620   4.552
 1569SOL    HW2 5607   3.527   6.587   4.658
 1570SOL     OW 5608   3.239   1.968   1.957
 1570SOL    HW1 5609   3.183   2.038   1.914
 1570SOL    HW2 5610   3.330   2.005   1.976
 1571SOL     OW 5611   6.834   3.906   0.921
 1571SOL    HW1 5612   6.928   3.873   0.930
 1571SOL    HW2 5613   6.774   3.853   0.980
 1572SOL     OW 5614   1.383   5.801   2.530
 1572SOL    HW1 5615   1.414   5.874   2.469
 1572SOL    HW2 5616   1.408   5.824   2.624
 1573SOL     OW 5617   3.834   0.331   0.760
 1573SOL    HW1 5618   3.771   0.265   0.802
 1573SOL    HW2 5619   3.905   0.355   0.826
 1574SOL     OW 5620   6.201   2.838   2.530
 1574SOL    HW1 5621   6.116   2.857   2.482
 1574SOL    HW2 5622   6.279   2.855   2.469
 1575SOL     OW 5623   3.412   2.240   0.138
 1575SOL    HW1 5624   3.495   2.271   0.185
 1575SOL    HW2 5625   3.339   2.306   0.153
 1576SOL     OW 5626   6.475   5.645   3.389
 1576SOL    HW1 5627   6.399   5.705   3.414
 1576SOL    HW2 5628   6.536   5.634   3.468
 1577SOL     OW 5629   1.490   0.642   0.215
 1577SOL    HW1 5630   1.492   0.545   0.191
 1577SOL    HW2 5631   1.580   0.683   0.196
 1578SOL     OW 5632   5.509   5.660   4.294
 1578SOL    HW1 5633   5.476   5.624   4.207
 1578SOL    HW2 5634   5.593   5.612   4.321
 1579SOL     OW 5635   0.388   0.071   3.247
 1579SOL    HW1 5636   0.400   0.166   3.218
 1579SOL    HW2 5637   0.327   0.024   3.184
 1580SOL     OW 5638   3.337   3.930   5.838
 1580SOL    HW1 5639   3.366   3.866   5.767
 1580SOL    HW2 5640   3.257   3.982   5.806
 1581SOL     OW 5641   6.298   4.185   3.879
 1581SOL    HW1 5642   6.259   4.128   3.952
 1581SOL    HW2 5643   6.350   4.260   3.920
 1582SOL     OW 5644   6.167   5.494   4.536
 1582SOL    HW1 5645   6.074   5.521   4.560
 1582SOL    HW2 5646   6.181   5.397   4.558
 1583SOL     OW 5647   2.316   2.045   2.681
 1583SOL    HW1 5648   2.231   2.020   2.636
 1583SOL    HW2 5649   2.360   1.963   2.717
 1584SOL     OW 5650   2.140   0.419   6.106
 1584SOL    HW1 5651   2.101   0.372   6.185
 1584SOL    HW2 5652   2.084   0.499   6.083
 1585SOL     OW 5653   6.123   1.390   5.097
 1585SOL    HW1 5654   6.120   1.488   5.116
 1585SOL    HW2 5655   6.033   1.350   5.112
 1586SOL     OW 5656   3.744   3.967   2.929
 1586SOL    HW1 5657   3.825   3.966   2.987
 1586SOL    HW2 5658   3.703   4.058   2.930
 1587SOL     OW 5659   2.358   6.488   6.260
 1587SOL    HW1 5660   2.368   6.490   6.161
 1587SOL    HW2 5661   2.447   6.473   6.303
 1588SOL     OW 5662   5.891   3.794   1.364
 1588SOL    HW1 5663   5.840   3.709   1.352
 1588SOL    HW2 5664   5.944   3.813   1.281
 1589SOL     OW 5665   5.087   3.963   3.633
 1589SOL    HW1 5666   4.994   3.925   3.627
 1589SOL    HW2 5667   5.123   3.977   3.541
 1590SOL     OW 5668   2.223   0.073   5.420
 1590SOL    HW1 5669   2.241   0.168   5.396
 1590SOL    HW2 5670   2.162   0.069   5.499
 1591SOL     OW 5671   0.516   4.107   1.339
 1591SOL    HW1 5672   0.452   4.055   1.397
 1591SOL    HW2 5673   0.527   4.199   1.377
 1592SOL     OW 5674   2.951   3.505   3.773
 1592SOL    HW1 5675   2.916   3.503   3.866
 1592SOL    HW2 5676   3.009   3.425   3.757
 1593SOL     OW 5677   1.197   5.215   4.944
 1593SOL    HW1 5678   1.185   5.314   4.951
 1593SOL    HW2 5679   1.225   5.191   4.851
 1594SOL     OW 5680   0.888   4.654   3.194
 1594SOL    HW1 5681   0.971   4.609   3.225
 1594SOL    HW2 5682   0.839   4.691   3.273
 1595SOL     OW 5683   0.183   5.132   5.647
 1595SOL    HW1 5684   0.096   5.088   5.670
 1595SOL    HW2 5685   0.257   5.064   5.651
 1596SOL     OW 5686   2.889   4.871   6.819
 1596SOL    HW1 5687   2.899   4.900   6.724
 1596SOL    HW2 5688   2.878   4.952   6.877
 1597SOL     OW 5689   2.509   6.676   0.719
 1597SOL    HW1 5690   2.526   6.602   0.784
 1597SOL    HW2 5691   2.413   6.703   0.722
 1598SOL     OW 5692   6.783   5.899   1.771
 1598SOL    HW1 5693   6.787   5.880   1.869
 1598SOL    HW2 5694   6.711   5.844   1.729
 1599SOL     OW 5695   3.130   4.553   0.265
 1599SOL    HW1 5696   3.212   4.498   0.280
 1599SOL    HW2 5697   3.149   4.624   0.197
 1600SOL     OW 5698   3.257   1.132   5.203
 1600SOL    HW1 5699   3.196   1.202   5.241
 1600SOL    HW2 5700   3.339   1.176   5.167
 1601SOL     OW 5701   0.967   4.820   4.864
 1601SOL    HW1 5702   1.037   4.829   4.934
 1601SOL    HW2 5703   0.958   4.724   4.837
 1602SOL     OW 5704   0.340   4.354   2.136
 1602SOL    HW1 5705   0.247   4.319   2.137
 1602SOL    HW2 5706   0.405   4.278   2.145
 1603SOL     OW 5707   6.034   6.670   1.242
 1603SOL    HW1 5708   6.033   6.576   1.205
 1603SOL    HW2 5709   6.127   6.707   1.236
 1604SOL     OW 5710   0.295   5.829   5.043
 1604SOL    HW1 5711   0.270   5.733   5.057
 1604SOL    HW2 5712   0.302   5.875   5.131
 1605SOL     OW 5713   5.012   6.477   2.868
 1605SOL    HW1 5714   4.983   6.562   2.824
 1605SOL    HW2 5715   5.109   6.461   2.850
 1606SOL     OW 5716   4.879   6.989   5.544
 1606SOL    HW1 5717   4.804   0.027   5.560
 1606SOL    HW2 5718   4.868   6.948   5.454
 1607SOL     OW 5719   4.719   3.049   0.742
 1607SOL    HW1 5720   4.659   2.999   0.804
 1607SOL    HW2 5721   4.724   3.145   0.770
 1608SOL     OW 5722   2.151   0.315   0.450
 1608SOL    HW1 5723   2.246   0.326   0.423
 1608SOL    HW2 5724   2.146   0.255   0.530
 1609SOL     OW 5725   5.444   1.282   5.364
 1609SOL    HW1 5726   5.461   1.280   5.265
 1609SOL    HW2 5727   5.414   1.192   5.395
 1610SOL     OW 5728   5.780   6.279   4.021
 1610SOL    HW1 5729   5.760   6.367   3.977
 1610SOL    HW2 5730   5.723   6.269   4.102
 1611SOL     OW 5731   3.835   3.463   1.416
 1611SOL    HW1 5732   3.817   3.391   1.350
 1611SOL    HW2 5733   3.934   3.481   1.420
 1612SOL     OW 5734   3.252   1.144   4.418
 1612SOL    HW1 5735   3.323   1.194   4.467
 1612SOL    HW2 5736   3.294   1.079   4.355
 1613SOL     OW 5737   1.488   6.586   0.871
 1613SOL    HW1 5738   1.532   6.676   0.880
 1613SOL    HW2 5739   1.559   6.516   0.858
 1614SOL     OW 5740   0.492   3.127   6.486
 1614SOL    HW1 5741   0.505   3.193   6.413
 1614SOL    HW2 5742   0.576   3.076   6.501
 1615SOL     OW 5743   6.093   5.229   6.216
 1615SOL    HW1 5744   6.055   5.173   6.143
 1615SOL    HW2 5745   6.164   5.177   6.264
 1616SOL     OW 5746   2.261   1.732   5.797
 1616SOL    HW1 5747   2.318   1.796   5.744
 1616SOL    HW2 5748   2.320   1.670   5.848
 1617SOL     OW 5749   4.825   0.587   4.211
 1617SOL    HW1 5750   4.890   0.659   4.186
 1617SOL    HW2 5751   4.792   0.541   4.129
 1618SOL     OW 5752   5.449   2.338   1.292
 1618SOL    HW1 5753   5.466   2.307   1.199
 1618SOL    HW2 5754   5.388   2.274   1.338
 1619SOL     OW 5755   2.021   2.894   4.734
 1619SOL    HW1 5756   2.096   2.934   4.787
 1619SOL    HW2 5757   1.941   2.954   4.738
 1620SOL     OW 5758   3.732   5.787   1.907
 1620SOL    HW1 5759   3.740   5.759   1.811
 1620SOL    HW2 5760   3.823   5.789   1.949
 1621SOL     OW 5761   2.218   1.508   1.895
 1621SOL    HW1 5762   2.242   1.504   1.798
 1621SOL    HW2 5763   2.199   1.603   1.921
 1622SOL     OW 5764   1.977   2.079   4.762
 1622SOL    HW1 5765   2.045   2.088   4.689
 1622SOL    HW2 5766   1.994   2.150   4.831
 1623SOL     OW 5767   2.697   2.384   4.862
 1623SOL    HW1 5768   2.712   2.432   4.948
 1623SOL    HW2 5769   2.695   2.285   4.879
 1624SOL     OW 5770   2.582   0.515   0.532
 1624SOL    HW1 5771   2.663   0.493   0.586
 1624SOL    HW2 5772   2.513   0.558   0.590
 1625SOL     OW 5773   7.001   5.535   2.650
 1625SOL    HW1 5774   6.931   5.516   2.581
 1625SOL    HW2 5775   0.054   5.577   2.606
 1626SOL     OW 5776   2.060   3.270   5.823
 1626SOL    HW1 5777   2.152   3.307   5.840
 1626SOL    HW2 5778   2.065   3.200   5.751
 1627SOL     OW 5779   5.227   3.230   4.020
 1627SOL    HW1 5780   5.258   3.140   4.052
 1627SOL    HW2 5781   5.130   3.227   3.999
 1628SOL     OW 5782   2.949   3.053   0.283
 1628SOL    HW1 5783   2.973   3.037   0.187
 1628SOL    HW2 5784   3.009   3.124   0.320
 1629SOL     OW 5785   4.209   1.911   3.150
 1629SOL    HW1 5786   4.165   1.906   3.061
 1629SOL    HW2 5787   4.255   1.999   3.159
 1630SOL     OW 5788   0.247   4.893   4.624
 1630SOL    HW1 5789   0.210   4.975   4.667
 1630SOL    HW2 5790   0.324   4.858   4.677
 1631SOL     OW 5791   0.479   6.789   5.809
 1631SOL    HW1 5792   0.481   6.702   5.858
 1631SOL    HW2 5793   0.568   6.835   5.819
 1632SOL     OW 5794   5.527   6.948   1.223
 1632SOL    HW1 5795   5.607   7.005   1.241
 1632SOL    HW2 5796   5.537   6.903   1.135
 1633SOL     OW 5797   5.616   2.927   3.389
 1633SOL    HW1 5798   5.620   2.961   3.482
 1633SOL    HW2 5799   5.679   2.979   3.331
 1634SOL     OW 5800   3.787   0.841   0.135
 1634SOL    HW1 5801   3.728   0.915   0.103
 1634SOL    HW2 5802   3.777   0.762   0.075
 1635SOL     OW 5803   1.161   5.182   4.272
 1635SOL    HW1 5804   1.162   5.201   4.174
 1635SOL    HW2 5805   1.070   5.198   4.308
 1636SOL     OW 5806   2.780   6.505   1.253
 1636SOL    HW1 5807   2.832   6.424   1.225
 1636SOL    HW2 5808   2.735   6.544   1.172
 1637SOL     OW 5809   0.168   3.240   2.889
 1637SOL    HW1 5810   0.254   3.192   2.869
 1637SOL    HW2 5811   0.187   3.322   2.941
 1638SOL     OW 5812   1.510   3.019   5.347
 1638SOL    HW1 5813   1.557   2.978   5.425
 1638SOL    HW2 5814   1.500   2.951   5.274
 1639SOL     OW 5815   4.779   4.693   2.623
 1639SOL    HW1 5816   4.776   4.594   2.608
 1639SOL    HW2 5817   4.800   4.711   2.719
 1640SOL     OW 5818   5.526   0.386   1.243
 1640SOL    HW1 5819   5.585   0.373   1.322
 1640SOL    HW2 5820   5.575   0.361   1.160
 1641SOL     OW 5821   6.928   2.986   5.493
 1641SOL    HW1 5822   6.990   2.951   5.423
 1641SOL    HW2 5823   6.908   2.914   5.559
 1642SOL     OW 5824   0.209   2.314   1.243
 1642SOL    HW1 5825   0.117   2.312   1.281
 1642SOL    HW2 5826   0.228   2.227   1.196
 1643SOL     OW 5827   3.732   0.766   6.077
 1643SOL    HW1 5828   3.642   0.749   6.118
 1643SOL    HW2 5829   3.804   0.748   6.144
 1644SOL     OW 5830   3.161   0.351   0.912
 1644SOL    HW1 5831   3.077   0.395   0.881
 1644SOL    HW2 5832   3.225   0.345   0.836
 1645SOL     OW 5833   2.111   6.525   5.970
 1645SOL    HW1 5834   2.069   6.437   5.992
 1645SOL    HW2 5835   2.098   6.545   5.873
 1646SOL     OW 5836   1.234   3.711   0.270
 1646SOL    HW1 5837   1.164   3.779   0.295
 1646SOL    HW2 5838   1.190   3.623   0.252
 1647SOL     OW 5839   6.071   3.036   3.605
 1647SOL    HW1 5840   6.072   3.046   3.705
 1647SOL    HW2 5841   6.121   2.954   3.580
 1648SOL     OW 5842   4.142   0.039   2.597
 1648SOL    HW1 5843   4.114   7.022   2.683
 1648SOL    HW2 5844   4.093   0.126   2.587
 1649SOL     OW 5845   2.950   6.890   2.590
 1649SOL    HW1 5846   3.015   6.861   2.661
 1649SOL    HW2 5847   2.903   6.809   2.553
 1650SOL     OW 5848   3.298   6.659   3.857
 1650SOL    HW1 5849   3.345   6.741   3.892
 1650SOL    HW2 5850   3.352   6.620   3.782
 1651SOL     OW 5851   1.437   6.721   1.392
 1651SOL    HW1 5852   1.380   6.769   1.326
 1651SOL    HW2 5853   1.386   6.706   1.476
 1652SOL     OW 5854   2.883   3.141   1.540
 1652SOL    HW1 5855   2.888   3.061   1.480
 1652SOL    HW2 5856   2.787   3.169   1.550
 1653SOL     OW 5857   0.955   5.065   0.474
 1653SOL    HW1 5858   0.979   4.986   0.531
 1653SOL    HW2 5859   1.029   5.081   0.408
 1654SOL     OW 5860   0.482   2.298   3.327
 1654SOL    HW1 5861   0.382   2.309   3.325
 1654SOL    HW2 5862   0.525   2.382   3.296
 1655SOL     OW 5863   5.084   4.749   5.692
 1655SOL    HW1 5864   5.100   4.811   5.769
 1655SOL    HW2 5865   5.003   4.778   5.642
 1656SOL     OW 5866   0.486   4.494   3.142
 1656SOL    HW1 5867   0.415   4.442   3.094
 1656SOL    HW2 5868   0.463   4.591   3.140
 1657SOL     OW 5869   0.617   0.267   4.989
 1657SOL    HW1 5870   0.550   0.193   4.985
 1657SOL    HW2 5871   0.632   0.294   5.084
 1658SOL     OW 5872   5.999   6.153   2.397
 1658SOL    HW1 5873   5.990   6.073   2.456
 1658SOL    HW2 5874   6.092   6.157   2.361
 1659SOL     OW 5875   4.687   1.991   6.262
 1659SOL    HW1 5876   4.588   1.990   6.278
 1659SOL    HW2 5877   4.727   2.068   6.311
 1660SOL     OW 5878   2.028   6.085   3.362
 1660SOL    HW1 5879   2.080   6.015   3.411
 1660SOL    HW2 5880   2.038   6.070   3.263
 1661SOL     OW 5881   3.249   0.067   2.732
 1661SOL    HW1 5882   3.181   0.097   2.666
 1661SOL    HW2 5883   3.327   0.028   2.684
 1662SOL     OW 5884   0.087   0.443   3.066
 1662SOL    HW1 5885   0.001   0.425   3.017
 1662SOL    HW2 5886   0.157   0.380   3.034
 1663SOL     OW 5887   2.530   0.095   3.470
 1663SOL    HW1 5888   2.585   0.017   3.439
 1663SOL    HW2 5889   2.512   0.156   3.392
 1664SOL     OW 5890   2.593   5.416   4.632
 1664SOL    HW1 5891   2.527   5.489   4.615
 1664SOL    HW2 5892   2.585   5.346   4.562
 1665SOL     OW 5893   1.030   0.436   4.838
 1665SOL    HW1 5894   1.041   0.503   4.911
 1665SOL    HW2 5895   0.979   0.477   4.762
 1666SOL     OW 5896   5.334   3.752   6.780
 1666SOL    HW1 5897   5.409   3.741   6.715
 1666SOL    HW2 5898   5.284   3.666   6.788
 1667SOL     OW 5899   6.606   0.999   6.333
 1667SOL    HW1 5900   6.697   1.022   6.299
 1667SOL    HW2 5901   6.537   1.050   6.282
 1668SOL     OW 5902   2.708   0.420   5.113
 1668SOL    HW1 5903   2.722   0.369   5.198
 1668SOL    HW2 5904   2.762   0.504   5.116
 1669SOL     OW 5905   5.995   6.467   6.426
 1669SOL    HW1 5906   5.973   6.410   6.506
 1669SOL    HW2 5907   5.937   6.440   6.349
 1670SOL     OW 5908   6.149   3.966   6.199
 1670SOL    HW1 5909   6.193   3.967   6.289
 1670SOL    HW2 5910   6.050   3.972   6.210
 1671SOL     OW 5911   6.247   4.747   0.464
 1671SOL    HW1 5912   6.254   4.846   0.456
 1671SOL    HW2 5913   6.171   4.723   0.524
 1672SOL     OW 5914   2.143   5.241   2.289
 1672SOL    HW1 5915   2.236   5.230   2.324
 1672SOL    HW2 5916   2.078   5.201   2.354
 1673SOL     OW 5917   6.601   1.794   3.320
 1673SOL    HW1 5918   6.561   1.743   3.243
 1673SOL    HW2 5919   6.621   1.888   3.290
 1674SOL     OW 5920   1.835   5.448   6.068
 1674SOL    HW1 5921   1.825   5.547   6.079
 1674SOL    HW2 5922   1.861   5.427   5.974
 1675SOL     OW 5923   4.694   2.586   0.391
 1675SOL    HW1 5924   4.613   2.532   0.370
 1675SOL    HW2 5925   4.699   2.665   0.329
 1676SOL     OW 5926   2.356   1.347   4.086
 1676SOL    HW1 5927   2.334   1.249   4.095
 1676SOL    HW2 5928   2.443   1.357   4.039
 1677SOL     OW 5929   6.504   0.732   5.583
 1677SOL    HW1 5930   6.510   0.750   5.682
 1677SOL    HW2 5931   6.470   0.639   5.568
 1678SOL     OW 5932   4.821   0.150   1.219
 1678SOL    HW1 5933   4.756   0.121   1.149
 1678SOL    HW2 5934   4.893   0.081   1.229
 1679SOL     OW 5935   6.054   4.049   0.464
 1679SOL    HW1 5936   6.055   4.092   0.374
 1679SOL    HW2 5937   6.081   3.953   0.454
 1680SOL     OW 5938   1.311   2.439   5.095
 1680SOL    HW1 5939   1.378   2.444   5.169
 1680SOL    HW2 5940   1.227   2.396   5.129
 1681SOL     OW 5941   5.099   5.517   1.178
 1681SOL    HW1 5942   5.060   5.452   1.243
 1681SOL    HW2 5943   5.055   5.606   1.190
 1682SOL     OW 5944   6.451   3.502   5.589
 1682SOL    HW1 5945   6.518   3.544   5.650
 1682SOL    HW2 5946   6.391   3.573   5.551
 1683SOL     OW 5947   5.655   6.258   6.758
 1683SOL    HW1 5948   5.694   6.197   6.690
 1683SOL    HW2 5949   5.720   6.332   6.777
 1684SOL     OW 5950   0.035   6.031   4.792
 1684SOL    HW1 5951   7.010   6.034   4.707
 1684SOL    HW2 5952   0.014   6.112   4.847
 1685SOL     OW 5953   1.440   1.632   0.544
 1685SOL    HW1 5954   1.349   1.672   0.531
 1685SOL    HW2 5955   1.467   1.582   0.462
 1686SOL     OW 5956   2.108   5.776   6.718
 1686SOL    HW1 5957   2.019   5.744   6.684
 1686SOL    HW2 5958   2.139   5.853   6.662
 1687SOL     OW 5959   2.204   6.481   1.964
 1687SOL    HW1 5960   2.157   6.569   1.973
 1687SOL    HW2 5961   2.252   6.459   2.049
 1688SOL     OW 5962   0.171   1.934   4.084
 1688SOL    HW1 5963   0.135   1.891   4.001
 1688SOL    HW2 5964   0.148   2.032   4.083
 1689SOL     OW 5965   3.457   1.174   2.243
 1689SOL    HW1 5966   3.551   1.146   2.259
 1689SOL    HW2 5967   3.438   1.258   2.294
 1690SOL     OW 5968   0.737   2.061   0.860
 1690SOL    HW1 5969   0.737   2.089   0.764
 1690SOL    HW2 5970   0.750   2.141   0.918
 1691SOL     OW 5971   4.566   4.384   2.905
 1691SOL    HW1 5972   4.564   4.398   3.004
 1691SOL    HW2 5973   4.603   4.293   2.884
 1692SOL     OW 5974   1.663   0.325   3.373
 1692SOL    HW1 5975   1.732   0.361   3.309
 1692SOL    HW2 5976   1.705   0.310   3.462
 1693SOL     OW 5977   2.391   2.175   3.917
 1693SOL    HW1 5978   2.396   2.085   3.960
 1693SOL    HW2 5979   2.404   2.165   3.818
 1694SOL     OW 5980   4.633   6.316   5.665
 1694SOL    HW1 5981   4.648   6.296   5.762
 1694SOL    HW2 5982   4.713   6.364   5.628
 1695SOL     OW 5983   3.140   1.195   6.038
 1695SOL    HW1 5984   3.064   1.150   6.083
 1695SOL    HW2 5985   3.149   1.161   5.944
 1696SOL     OW 5986   3.250   5.522   1.475
 1696SOL    HW1 5987   3.239   5.424   1.489
 1696SOL    HW2 5988   3.257   5.541   1.377
 1697SOL     OW 5989   1.431   1.030   2.465
 1697SOL    HW1 5990   1.412   0.980   2.549
 1697SOL    HW2 5991   1.400   1.125   2.475
 1698SOL     OW 5992   5.300   1.879   0.884
 1698SOL    HW1 5993   5.352   1.950   0.837
 1698SOL    HW2 5994   5.203   1.893   0.869
 1699SOL     OW 5995   2.345   3.940   0.722
 1699SOL    HW1 5996   2.397   4.013   0.679
 1699SOL    HW2 5997   2.372   3.931   0.818
 1700SOL     OW 5998   6.433   2.994   5.116
 1700SOL    HW1 5999   6.511   2.934   5.129
 1700SOL    HW2 6000   6.456   3.065   5.049
 1701SOL     OW 6001   5.783   3.382   5.105
 1701SOL    HW1 6002   5.726   3.299   5.102
 1701SOL    HW2 6003   5.761   3.434   5.188
 1702SOL     OW 6004   4.920   2.962   1.863
 1702SOL    HW1 6005   4.907   2.982   1.766
 1702SOL    HW2 6006   4.832   2.957   1.909
 1703SOL     OW 6007   1.268   3.706   6.804
 1703SOL    HW1 6008   1.290   3.700   6.902
 1703SOL    HW2 6009   1.353   3.716   6.752
 1704SOL     OW 6010   0.459   0.862   1.495
 1704SOL    HW1 6011   0.538   0.872   1.556
 1704SOL    HW2 6012   0.482   0.901   1.405
 1705SOL     OW 6013   3.616   3.407   2.577
 1705SOL    HW1 6014   3.623   3.449   2.486
 1705SOL    HW2 6015   3.585   3.476   2.643
 1706SOL     OW 6016   2.630   0.556   6.489
 1706SOL    HW1 6017   2.595   0.591   6.576
 1706SOL    HW2 6018   2.648   0.632   6.427
 1707SOL     OW 6019   5.768   1.166   3.106
 1707SOL    HW1 6020   5.679   1.212   3.102
 1707SOL    HW2 6021   5.787   1.125   3.016
 1708SOL     OW 6022   0.191   4.715   2.071
 1708SOL    HW1 6023   0.212   4.626   2.029
 1708SOL    HW2 6024   0.270   4.776   2.060
 1709SOL     OW 6025   3.408   6.099   4.326
 1709SOL    HW1 6026   3.502   6.078   4.298
 1709SOL    HW2 6027   3.366   6.016   4.365
 1710SOL     OW 6028   0.534   6.013   4.160
 1710SOL    HW1 6029   0.487   6.100   4.171
 1710SOL    HW2 6030   0.468   5.938   4.168
 1711SOL     OW 6031   2.107   4.388   5.728
 1711SOL    HW1 6032   2.068   4.326   5.796
 1711SOL    HW2 6033   2.090   4.483   5.754
 1712SOL     OW 6034   1.627   4.749   0.843
 1712SOL    HW1 6035   1.701   4.806   0.879
 1712SOL    HW2 6036   1.541   4.774   0.886
 1713SOL     OW 6037   1.920   3.439   0.383
 1713SOL    HW1 6038   1.924   3.361   0.321
 1713SOL    HW2 6039   1.832   3.487   0.371
 1714SOL     OW 6040   3.502   1.718   1.072
 1714SOL    HW1 6041   3.451   1.797   1.038
 1714SOL    HW2 6042   3.594   1.747   1.097
 1715SOL     OW 6043   0.275   3.066   3.744
 1715SOL    HW1 6044   0.221   3.042   3.663
 1715SOL    HW2 6045   0.371   3.042   3.729
 1716SOL     OW 6046   6.974   6.940   0.157
 1716SOL    HW1 6047   0.029   6.919   0.211
 1716SOL    HW2 6048   6.987   6.906   0.063
 1717SOL     OW 6049   3.173   0.056   0.319
 1717SOL    HW1 6050   3.087   0.054   0.269
 1717SOL    HW2 6051   3.245   0.015   0.264
 1718SOL     OW 6052   1.224   4.925   5.462
 1718SOL    HW1 6053   1.142   4.872   5.482
 1718SOL    HW2 6054   1.210   5.020   5.486
 1719SOL     OW 6055   2.183   3.346   1.560
 1719SOL    HW1 6056   2.118   3.332   1.634
 1719SOL    HW2 6057   2.135   3.342   1.472
 1720SOL     OW 6058   6.195   1.304   2.222
 1720SOL    HW1 6059   6.257   1.289   2.298
 1720SOL    HW2 6060   6.176   1.402   2.213
 1721SOL     OW 6061   1.792   6.135   3.487
 1721SOL    HW1 6062   1.877   6.113   3.438
 1721SOL    HW2 6063   1.716   6.084   3.447
 1722SOL     OW 6064   5.694   6.792   1.711
 1722SOL    HW1 6065   5.668   6.717   1.772
 1722SOL    HW2 6066   5.675   6.767   1.617
 1723SOL     OW 6067   6.044   1.172   2.606
 1723SOL    HW1 6068   5.949   1.183   2.578
 1723SOL    HW2 6069   6.100   1.148   2.527
 1724SOL     OW 6070   5.074   0.581   7.011
 1724SOL    HW1 6071   5.140   0.650   6.983
 1724SOL    HW2 6072   5.038   0.534   6.931
 1725SOL     OW 6073   4.061   5.132   2.167
 1725SOL    HW1 6074   3.962   5.136   2.173
 1725SOL    HW2 6075   4.098   5.101   2.255
 1726SOL     OW 6076   7.000   4.691   4.745
 1726SOL    HW1 6077   0.050   4.639   4.706
 1726SOL    HW2 6078   7.021   4.716   4.839
 1727SOL     OW 6079   3.361   3.067   5.358
 1727SOL    HW1 6080   3.293   3.004   5.321
 1727SOL    HW2 6081   3.369   3.053   5.457
 1728SOL     OW 6082   4.146   4.781   3.631
 1728SOL    HW1 6083   4.192   4.806   3.546
 1728SOL    HW2 6084   4.202   4.715   3.681
 1729SOL     OW 6085   1.974   3.509   2.731
 1729SOL    HW1 6086   1.970   3.467   2.822
 1729SOL    HW2 6087   2.012   3.601   2.738
 1730SOL     OW 6088   5.574   2.510   4.436
 1730SOL    HW1 6089   5.636   2.502   4.514
 1730SOL    HW2 6090   5.564   2.420   4.392
 1731SOL     OW 6091   1.082   5.716   0.454
 1731SOL    HW1 6092   1.144   5.707   0.376
 1731SOL    HW2 6093   0.992   5.681   0.430
 1732SOL     OW 6094   0.658   4.816   6.876
 1732SOL    HW1 6095   0.739   4.799   6.931
 1732SOL    HW2 6096   0.581   4.837   6.936
 1733SOL     OW 6097   1.144   4.193   0.634
 1733SOL    HW1 6098   1.187   4.222   0.720
 1733SOL    HW2 6099   1.099   4.105   0.647
 1734SOL     OW 6100   4.762   3.161   1.380
 1734SOL    HW1 6101   4.786   3.256   1.400
 1734SOL    HW2 6102   4.712   3.122   1.457
 1735SOL     OW 6103   5.795   6.244   0.840
 1735SOL    HW1 6104   5.712   6.191   0.856
 1735SOL    HW2 6105   5.874   6.193   0.873
 1736SOL     OW 6106   2.983   3.644   0.482
 1736SOL    HW1 6107   3.024   3.736   0.480
 1736SOL    HW2 6108   2.887   3.652   0.508
 1737SOL     OW 6109   1.107   6.244   3.667
 1737SOL    HW1 6110   1.204   6.221   3.677
 1737SOL    HW2 6111   1.052   6.186   3.728
 1738SOL     OW 6112   1.098   1.607   1.423
 1738SOL    HW1 6113   1.086   1.697   1.382
 1738SOL    HW2 6114   1.123   1.618   1.520
 1739SOL     OW 6115   4.372   2.156   5.851
 1739SOL    HW1 6116   4.302   2.193   5.790
 1739SOL    HW2 6117   4.380   2.057   5.837
 1740SOL     OW 6118   0.727   0.925   5.674
 1740SOL    HW1 6119   0.773   0.945   5.587
 1740SOL    HW2 6120   0.755   0.993   5.742
 1741SOL     OW 6121   2.489   0.651   2.347
 1741SOL    HW1 6122   2.486   0.595   2.264
 1741SOL    HW2 6123   2.584   0.665   2.374
 1742SOL     OW 6124   6.050   6.049   4.257
 1742SOL    HW1 6125   6.105   5.983   4.205
 1742SOL    HW2 6126   5.973   6.079   4.200
 1743SOL     OW 6127   4.539   0.865   0.424
 1743SOL    HW1 6128   4.562   0.879   0.520
 1743SOL    HW2 6129   4.606   0.912   0.366
 1744SOL     OW 6130   3.075   6.931   1.563
 1744SOL    HW1 6131   3.049   6.858   1.500
 1744SOL    HW2 6132   3.126   7.002   1.514
 1745SOL     OW 6133   6.118   3.081   5.074
 1745SOL    HW1 6134   6.132   3.172   5.035
 1745SOL    HW2 6135   6.162   3.013   5.015
 1746SOL     OW 6136   2.497   1.102   5.767
 1746SOL    HW1 6137   2.460   1.117   5.675
 1746SOL    HW2 6138   2.588   1.061   5.760
 1747SOL     OW 6139   4.956   0.222   6.338
 1747SOL    HW1 6140   4.870   0.260   6.304
 1747SOL    HW2 6141   5.025   0.293   6.342
 1748SOL     OW 6142   5.846   1.706   1.712
 1748SOL    HW1 6143   5.905   1.630   1.739
 1748SOL    HW2 6144   5.893   1.793   1.730
 1749SOL     OW 6145   4.721   6.987   5.973
 1749SOL    HW1 6146   4.779   6.906   5.975
 1749SOL    HW2 6147   4.649   6.975   5.905
 1750SOL     OW 6148   4.975   0.493   3.665
 1750SOL    HW1 6149   4.973   0.591   3.651
 1750SOL    HW2 6150   5.030   0.471   3.745
 1751SOL     OW 6151   1.997   5.824   3.861
 1751SOL    HW1 6152   1.936   5.862   3.930
 1751SOL    HW2 6153   1.944   5.781   3.789
 1752SOL     OW 6154   6.416   2.390   6.960
 1752SOL    HW1 6155   6.469   2.339   6.892
 1752SOL    HW2 6156   6.360   2.327   7.014
 1753SOL     OW 6157   2.748   0.052   2.540
 1753SOL    HW1 6158   2.816   7.007   2.558
 1753SOL    HW2 6159   2.664   0.010   2.507
 1754SOL     OW 6160   3.733   2.494   1.460
 1754SOL    HW1 6161   3.689   2.407   1.436
 1754SOL    HW2 6162   3.832   2.482   1.462
 1755SOL     OW 6163   5.234   3.765   0.402
 1755SOL    HW1 6164   5.174   3.691   0.373
 1755SOL    HW2 6165   5.205   3.851   0.358
 1756SOL     OW 6166   5.779   5.597   4.352
 1756SOL    HW1 6167   5.789   5.515   4.408
 1756SOL    HW2 6168   5.832   5.672   4.392
 1757SOL     OW 6169   3.647   0.706   4.725
 1757SOL    HW1 6170   3.588   0.688   4.646
 1757SOL    HW2 6171   3.590   0.732   4.803
 1758SOL     OW 6172   2.436   1.641   3.181
 1758SOL    HW1 6173   2.435   1.593   3.269
 1758SOL    HW2 6174   2.459   1.576   3.109
 1759SOL     OW 6175   0.646   5.533   6.003
 1759SOL    HW1 6176   0.698   5.454   6.036
 1759SOL    HW2 6177   0.670   5.614   6.057
 1760SOL     OW 6178   5.217   0.701   2.109
 1760SOL    HW1 6179   5.160   0.622   2.131
 1760SOL    HW2 6180   5.181   0.782   2.155
 1761SOL     OW 6181   5.782   2.834   1.523
 1761SOL    HW1 6182   5.721   2.847   1.445
 1761SOL    HW2 6183   5.836   2.752   1.510
 1762SOL     OW 6184   5.724   2.650   0.707
 1762SOL    HW1 6185   5.682   2.608   0.788
 1762SOL    HW2 6186   5.700   2.747   0.704
 1763SOL     OW 6187   2.135   3.780   3.826
 1763SOL    HW1 6188   2.158   3.805   3.920
 1763SOL    HW2 6189   2.038   3.756   3.821
 1764SOL     OW 6190   6.259   2.800   4.713
 1764SOL    HW1 6191   6.231   2.719   4.663
 1764SOL    HW2 6192   6.194   2.874   4.696
 1765SOL     OW 6193   2.331   2.684   6.247
 1765SOL    HW1 6194   2.383   2.607   6.283
 1765SOL    HW2 6195   2.372   2.715   6.161
 1766SOL     OW 6196   5.812   3.104   5.372
 1766SOL    HW1 6197   5.875   3.033   5.338
 1766SOL    HW2 6198   5.774   3.075   5.460
 1767SOL     OW 6199   6.621   3.704   1.873
 1767SOL    HW1 6200   6.699   3.746   1.826
 1767SOL    HW2 6201   6.538   3.716   1.817
 1768SOL     OW 6202   5.877   6.544   3.769
 1768SOL    HW1 6203   5.863   6.504   3.678
 1768SOL    HW2 6204   5.954   6.499   3.814
 1769SOL     OW 6205   5.746   1.014   3.861
 1769SOL    HW1 6206   5.721   1.106   3.829
 1769SOL    HW2 6207   5.680   0.984   3.929
 1770SOL     OW 6208   3.391   5.288   5.064
 1770SOL    HW1 6209   3.330   5.228   5.012
 1770SOL    HW2 6210   3.483   5.283   5.026
 1771SOL     OW 6211   4.590   6.451   6.953
 1771SOL    HW1 6212   4.686   6.471   6.971
 1771SOL    HW2 6213   4.577   6.436   6.855
 1772SOL     OW 6214   3.412   6.224   2.771
 1772SOL    HW1 6215   3.443   6.315   2.744
 1772SOL    HW2 6216   3.476   6.155   2.738
 1773SOL     OW 6217   0.890   5.823   6.735
 1773SOL    HW1 6218   0.872   5.818   6.834
 1773SOL    HW2 6219   0.872   5.916   6.703
 1774SOL     OW 6220   3.473   5.052   2.290
 1774SOL    HW1 6221   3.555   4.996   2.300
 1774SOL    HW2 6222   3.442   5.049   2.194
 1775SOL     OW 6223   0.956   4.882   1.283
 1775SOL    HW1 6224   0.994   4.944   1.214
 1775SOL    HW2 6225   0.882   4.928   1.332
 1776SOL     OW 6226   3.439   5.842   5.091
 1776SOL    HW1 6227   3.371   5.787   5.139
 1776SOL    HW2 6228   3.403   5.867   5.001
 1777SOL     OW 6229   3.148   5.306   7.004
 1777SOL    HW1 6230   3.158   5.294   0.076
 1777SOL    HW2 6231   3.109   5.223   6.964
 1778SOL     OW 6232   6.318   3.826   5.775
 1778SOL    HW1 6233   6.355   3.835   5.867
 1778SOL    HW2 6234   6.313   3.729   5.750
 1779SOL     OW 6235   3.776   0.240   5.405
 1779SOL    HW1 6236   3.840   0.233   5.482
 1779SOL    HW2 6237   3.798   0.322   5.352
 1780SOL     OW 6238   3.535   3.126   6.698
 1780SOL    HW1 6239   3.480   3.046   6.724
 1780SOL    HW2 6240   3.521   3.145   6.601
 1781SOL     OW 6241   3.782   5.283   3.550
 1781SOL    HW1 6242   3.833   5.249   3.471
 1781SOL    HW2 6243   3.714   5.215   3.578
 1782SOL     OW 6244   3.473   1.936   4.337
 1782SOL    HW1 6245   3.524   1.854   4.365
 1782SOL    HW2 6246   3.401   1.955   4.403
 1783SOL     OW 6247   1.985   5.748   6.950
 1783SOL    HW1 6248   1.919   5.673   6.955
 1783SOL    HW2 6249   2.023   5.752   6.857
 1784SOL     OW 6250   3.718   6.584   5.425
 1784SOL    HW1 6251   3.654   6.640   5.478
 1784SOL    HW2 6252   3.745   6.504   5.478
 1785SOL     OW 6253   6.560   4.510   1.673
 1785SOL    HW1 6254   6.503   4.428   1.678
 1785SOL    HW2 6255   6.502   4.591   1.684
 1786SOL     OW 6256   3.818   2.365   1.138
 1786SOL    HW1 6257   3.723   2.365   1.107
 1786SOL    HW2 6258   3.879   2.353   1.060
 1787SOL     OW 6259   3.773   0.623   5.862
 1787SOL    HW1 6260   3.772   0.684   5.783
 1787SOL    HW2 6261   3.758   0.677   5.945
 1788SOL     OW 6262   1.933   4.595   5.916
 1788SOL    HW1 6263   1.934   4.689   5.882
 1788SOL    HW2 6264   1.850   4.549   5.884
 1789SOL     OW 6265   5.732   0.454   0.433
 1789SOL    HW1 6266   5.685   0.367   0.449
 1789SOL    HW2 6267   5.808   0.462   0.498
 1790SOL     OW 6268   3.360   6.858   2.970
 1790SOL    HW1 6269   3.391   6.807   2.890
 1790SOL    HW2 6270   3.378   6.805   3.053
 1791SOL     OW 6271   0.143   6.584   2.720
 1791SOL    HW1 6272   0.098   6.532   2.793
 1791SOL    HW2 6273   0.242   6.571   2.727
 1792SOL     OW 6274   1.028   3.971   5.312
 1792SOL    HW1 6275   1.056   4.058   5.351
 1792SOL    HW2 6276   1.093   3.945   5.240
 1793SOL     OW 6277   0.640   0.658   3.824
 1793SOL    HW1 6278   0.608   0.713   3.901
 1793SOL    HW2 6279   0.647   0.715   3.743
 1794SOL     OW 6280   4.717   6.228   6.257
 1794SOL    HW1 6281   4.636   6.259   6.207
 1794SOL    HW2 6282   4.703   6.244   6.355
 1795SOL     OW 6283   0.449   3.167   0.054
 1795SOL    HW1 6284   0.385   3.233   0.093
 1795SOL    HW2 6285   0.529   3.159   0.114
 1796SOL     OW 6286   3.483   0.410   6.575
 1796SOL    HW1 6287   3.404   0.350   6.585
 1796SOL    HW2 6288   3.555   0.381   6.639
 1797SOL     OW 6289   0.427   0.406   0.446
 1797SOL    HW1 6290   0.476   0.394   0.532
 1797SOL    HW2 6291   0.491   0.399   0.369
 1798SOL     OW 6292   6.030   2.782   3.242
 1798SOL    HW1 6293   6.028   2.879   3.267
 1798SOL    HW2 6294   5.945   2.758   3.195
 1799SOL     OW 6295   2.204   1.614   6.579
 1799SOL    HW1 6296   2.147   1.574   6.651
 1799SOL    HW2 6297   2.145   1.655   6.509
 1800SOL     OW 6298   4.126   5.044   2.412
 1800SOL    HW1 6299   4.157   5.096   2.492
 1800SOL    HW2 6300   4.062   4.973   2.442
 1801SOL     OW 6301   5.534   6.819   0.972
 1801SOL    HW1 6302   5.449   6.777   0.938
 1801SOL    HW2 6303   5.571   6.879   0.902
 1802SOL     OW 6304   5.280   5.114   4.031
 1802SOL    HW1 6305   5.358   5.084   4.086
 1802SOL    HW2 6306   5.217   5.167   4.089
 1803SOL     OW 6307   5.891   5.796   0.852
 1803SOL    HW1 6308   5.922   5.794   0.947
 1803SOL    HW2 6309   5.835   5.878   0.838
 1804SOL     OW 6310   3.395   3.231   5.968
 1804SOL    HW1 6311   3.358   3.258   5.879
 1804SOL    HW2 6312   3.324   3.183   6.020
 1805SOL     OW 6313   4.997   2.724   6.775
 1805SOL    HW1 6314   5.000   2.745   6.677
 1805SOL    HW2 6315   4.910   2.754   6.813
 1806SOL     OW 6316   0.545   0.199   1.016
 1806SOL    HW1 6317   0.592   0.111   1.015
 1806SOL    HW2 6318   0.465   0.193   1.077
 1807SOL     OW 6319   5.360   1.807   5.468
 1807SOL    HW1 6320   5.344   1.714   5.502
 1807SOL    HW2 6321   5.435   1.849   5.520
 1808SOL     OW 6322   2.093   4.460   4.117
 1808SOL    HW1 6323   2.110   4.558   4.107
 1808SOL    HW2 6324   2.180   4.411   4.124
 1809SOL     OW 6325   3.310   6.931   6.233
 1809SOL    HW1 6326   3.238   6.989   6.194
 1809SOL    HW2 6327   3.395   6.983   6.240
 1810SOL     OW 6328   3.617   6.024   2.679
 1810SOL    HW1 6329   3.684   5.994   2.611
 1810SOL    HW2 6330   3.605   5.952   2.747
 1811SOL     OW 6331   6.389   5.539   2.313
 1811SOL    HW1 6332   6.295   5.570   2.328
 1811SOL    HW2 6333   6.450   5.586   2.378
 1812SOL     OW 6334   4.233   5.113   6.599
 1812SOL    HW1 6335   4.142   5.104   6.561
 1812SOL    HW2 6336   4.264   5.208   6.591
 1813SOL     OW 6337   6.379   5.080   5.563
 1813SOL    HW1 6338   6.411   5.169   5.531
 1813SOL    HW2 6339   6.458   5.022   5.584
 1814SOL     OW 6340   5.067   6.388   2.493
 1814SOL    HW1 6341   5.033   6.340   2.412
 1814SOL    HW2 6342   5.158   6.354   2.516
 1815SOL     OW 6343   0.069   1.258   2.615
 1815SOL    HW1 6344   0.006   1.304   2.553
 1815SOL    HW2 6345   0.163   1.276   2.586
 1816SOL     OW 6346   0.889   4.182   0.194
 1816SOL    HW1 6347   0.822   4.246   0.232
 1816SOL    HW2 6348   0.981   4.221   0.203
 1817SOL     OW 6349   1.289   5.213   1.964
 1817SOL    HW1 6350   1.377   5.207   1.917
 1817SOL    HW2 6351   1.245   5.300   1.941
 1818SOL     OW 6352   2.506   1.155   2.993
 1818SOL    HW1 6353   2.568   1.116   2.924
 1818SOL    HW2 6354   2.542   1.242   3.024
 1819SOL     OW 6355   1.660   4.582   2.297
 1819SOL    HW1 6356   1.579   4.534   2.331
 1819SOL    HW2 6357   1.736   4.519   2.289
 1820SOL     OW 6358   5.588   0.529   2.785
 1820SOL    HW1 6359   5.497   0.539   2.826
 1820SOL    HW2 6360   5.650   0.596   2.826
 1821SOL     OW 6361   2.093   1.429   3.183
 1821SOL    HW1 6362   2.142   1.437   3.096
 1821SOL    HW2 6363   2.095   1.334   3.214
 1822SOL     OW 6364   3.491   3.563   1.575
 1822SOL    HW1 6365   3.519   3.658   1.562
 1822SOL    HW2 6366   3.458   3.525   1.488
 1823SOL     OW 6367   4.239   0.144   2.352
 1823SOL    HW1 6368   4.186   0.099   2.423
 1823SOL    HW2 6369   4.319   0.188   2.392
 1824SOL     OW 6370   5.363   2.756   1.636
 1824SOL    HW1 6371   5.423   2.818   1.686
 1824SOL    HW2 6372   5.327   2.687   1.698
 1825SOL     OW 6373   1.391   1.134   1.283
 1825SOL    HW1 6374   1.370   1.167   1.374
 1825SOL    HW2 6375   1.460   1.061   1.289
 1826SOL     OW 6376   3.102   6.344   6.482
 1826SOL    HW1 6377   3.096   6.285   6.402
 1826SOL    HW2 6378   3.187   6.325   6.531
 1827SOL     OW 6379   5.973   6.748   1.715
 1827SOL    HW1 6380   6.011   6.797   1.793
 1827SOL    HW2 6381   5.876   6.770   1.705
 1828SOL     OW 6382   1.649   2.209   0.333
 1828SOL    HW1 6383   1.613   2.257   0.413
 1828SOL    HW2 6384   1.577   2.151   0.294
 1829SOL     OW 6385   6.275   5.521   1.076
 1829SOL    HW1 6386   6.197   5.528   1.015
 1829SOL    HW2 6387   6.245   5.487   1.165
 1830SOL     OW 6388   5.610   6.406   3.671
 1830SOL    HW1 6389   5.629   6.344   3.747
 1830SOL    HW2 6390   5.687   6.404   3.607
 1831SOL     OW 6391   4.966   0.783   3.323
 1831SOL    HW1 6392   5.046   0.758   3.268
 1831SOL    HW2 6393   4.955   0.882   3.323
 1832SOL     OW 6394   5.313   2.565   0.625
 1832SOL    HW1 6395   5.253   2.642   0.605
 1832SOL    HW2 6396   5.275   2.511   0.700
 1833SOL     OW 6397   5.952   1.874   5.677
 1833SOL    HW1 6398   5.959   1.967   5.712
 1833SOL    HW2 6399   5.883   1.870   5.605
 1834SOL     OW 6400   2.801   3.464   0.779
 1834SOL    HW1 6401   2.783   3.393   0.711
 1834SOL    HW2 6402   2.889   3.448   0.822
 1835SOL     OW 6403   1.398   4.637   0.188
 1835SOL    HW1 6404   1.319   4.654   0.128
 1835SOL    HW2 6405   1.368   4.637   0.283
 1836SOL     OW 6406   0.402   6.077   0.495
 1836SOL    HW1 6407   0.321   6.019   0.486
 1836SOL    HW2 6408   0.388   6.143   0.569
 1837SOL     OW 6409   1.035   2.673   4.775
 1837SOL    HW1 6410   1.017   2.674   4.874
 1837SOL    HW2 6411   1.110   2.611   4.756
 1838SOL     OW 6412   0.314   2.795   3.996
 1838SOL    HW1 6413   0.297   2.761   3.903
 1838SOL    HW2 6414   0.390   2.744   4.037
 1839SOL     OW 6415   7.009   2.156   6.009
 1839SOL    HW1 6416   0.016   2.140   6.103
 1839SOL    HW2 6417   0.058   2.144   5.945
 1840SOL     OW 6418   1.511   4.973   0.388
 1840SOL    HW1 6419   1.515   4.920   0.473
 1840SOL    HW2 6420   1.420   5.012   0.377
 1841SOL     OW 6421   1.656   3.048   3.153
 1841SOL    HW1 6422   1.625   3.083   3.242
 1841SOL    HW2 6423   1.587   3.067   3.084
 1842SOL     OW 6424   1.277   4.841   6.842
 1842SOL    HW1 6425   1.263   4.930   6.886
 1842SOL    HW2 6426   1.361   4.843   6.788
 1843SOL     OW 6427   3.375   2.111   4.732
 1843SOL    HW1 6428   3.298   2.153   4.683
 1843SOL    HW2 6429   3.346   2.084   4.823
 1844SOL     OW 6430   5.274   3.770   3.756
 1844SOL    HW1 6431   5.238   3.752   3.848
 1844SOL    HW2 6432   5.215   3.836   3.710
 1845SOL     OW 6433   4.053   0.307   0.152
 1845SOL    HW1 6434   4.103   0.338   0.071
 1845SOL    HW2 6435   4.095   0.222   0.185
 1846SOL     OW 6436   3.256   1.153   5.588
 1846SOL    HW1 6437   3.177   1.136   5.530
 1846SOL    HW2 6438   3.339   1.154   5.533
 1847SOL     OW 6439   1.698   6.906   0.373
 1847SOL    HW1 6440   1.699   6.820   0.423
 1847SOL    HW2 6441   1.649   6.894   0.287
 1848SOL     OW 6442   3.122   6.747   2.207
 1848SOL    HW1 6443   3.198   6.813   2.201
 1848SOL    HW2 6444   3.118   6.694   2.123
 1849SOL     OW 6445   2.803   1.093   6.405
 1849SOL    HW1 6446   2.721   1.148   6.388
 1849SOL    HW2 6447   2.866   1.104   6.328
 1850SOL     OW 6448   5.415   1.528   1.908
 1850SOL    HW1 6449   5.398   1.502   2.003
 1850SOL    HW2 6450   5.499   1.582   1.903
 1851SOL     OW 6451   6.597   3.421   3.476
 1851SOL    HW1 6452   6.630   3.327   3.485
 1851SOL    HW2 6453   6.670   3.484   3.504
 1852SOL     OW 6454   5.538   3.392   0.005
 1852SOL    HW1 6455   5.536   3.430   6.939
 1852SOL    HW2 6456   5.615   3.431   0.056
 1853SOL     OW 6457   1.799   4.506   0.743
 1853SOL    HW1 6458   1.740   4.580   0.776
 1853SOL    HW2 6459   1.816   4.518   0.645
 1854SOL     OW 6460   3.057   5.439   3.966
 1854SOL    HW1 6461   3.018   5.401   4.050
 1854SOL    HW2 6462   3.011   5.525   3.944
 1855SOL     OW 6463   5.522   4.521   1.849
 1855SOL    HW1 6464   5.616   4.491   1.866
 1855SOL    HW2 6465   5.501   4.601   1.906
 1856SOL     OW 6466   4.868   2.655   6.000
 1856SOL    HW1 6467   4.950   2.656   5.942
 1856SOL    HW2 6468   4.806   2.583   5.969
 1857SOL     OW 6469   4.482   1.716   3.777
 1857SOL    HW1 6470   4.469   1.683   3.684
 1857SOL    HW2 6471   4.533   1.803   3.775
 1858SOL     OW 6472   5.058   3.990   3.304
 1858SOL    HW1 6473   4.961   4.004   3.325
 1858SOL    HW2 6474   5.101   4.078   3.284
 1859SOL     OW 6475   5.442   1.334   3.340
 1859SOL    HW1 6476   5.515   1.402   3.343
 1859SOL    HW2 6477   5.353   1.380   3.337
 1860SOL     OW 6478   4.452   1.756   5.127
 1860SOL    HW1 6479   4.534   1.787   5.078
 1860SOL    HW2 6480   4.374   1.760   5.065
 1861SOL     OW 6481   5.766   6.192   2.081
 1861SOL    HW1 6482   5.799   6.286   2.078
 1861SOL    HW2 6483   5.691   6.181   2.015
 1862SOL     OW 6484   1.631   1.851   0.348
 1862SOL    HW1 6485   1.536   1.876   0.332
 1862SOL    HW2 6486   1.658   1.778   0.285
 1863SOL     OW 6487   2.342   2.720   1.603
 1863SOL    HW1 6488   2.295   2.635   1.630
 1863SOL    HW2 6489   2.425   2.730   1.657
 1864SOL     OW 6490   1.023   6.609   3.801
 1864SOL    HW1 6491   0.986   6.562   3.881
 1864SOL    HW2 6492   1.018   6.707   3.815
 1865SOL     OW 6493   5.159   2.013   6.893
 1865SOL    HW1 6494   5.089   1.981   6.830
 1865SOL    HW2 6495   5.227   2.067   6.844
 1866SOL     OW 6496   5.349   5.175   2.715
 1866SOL    HW1 6497   5.357   5.275   2.721
 1866SOL    HW2 6498   5.305   5.140   2.797
 1867SOL     OW 6499   1.124   4.751   6.489
 1867SOL    HW1 6500   1.130   4.666   6.541
 1867SOL    HW2 6501   1.030   4.785   6.490
 1868SOL     OW 6502   6.134   4.366   5.523
 1868SOL    HW1 6503   6.112   4.448   5.577
 1868SOL    HW2 6504   6.053   4.308   5.516
 1869SOL     OW 6505   6.097   1.458   4.608
 1869SOL    HW1 6506   6.178   1.432   4.661
 1869SOL    HW2 6507   6.058   1.542   4.645
 1870SOL     OW 6508   2.385   4.299   4.414
 1870SOL    HW1 6509   2.398   4.387   4.459
 1870SOL    HW2 6510   2.347   4.234   4.480
 1871SOL     OW 6511   1.235   0.187   0.686
 1871SOL    HW1 6512   1.160   0.187   0.620
 1871SOL    HW2 6513   1.227   0.267   0.745
 1872SOL     OW 6514   2.472   4.971   0.250
 1872SOL    HW1 6515   2.523   4.903   0.303
 1872SOL    HW2 6516   2.516   5.061   0.259
 1873SOL     OW 6517   4.919   1.003   0.619
 1873SOL    HW1 6518   4.987   1.071   0.647
 1873SOL    HW2 6519   4.949   0.958   0.535
 1874SOL     OW 6520   1.389   3.315   2.709
 1874SOL    HW1 6521   1.395   3.396   2.768
 1874SOL    HW2 6522   1.293   3.298   2.684
 1875SOL     OW 6523   1.264   6.817   0.824
 1875SOL    HW1 6524   1.227   6.869   0.747
 1875SOL    HW2 6525   1.207   6.735   0.839
 1876SOL     OW 6526   2.315   0.046   4.723
 1876SOL    HW1 6527   2.320   6.975   4.700
 1876SOL    HW2 6528   2.225   0.067   4.762
 1877SOL     OW 6529   0.091   6.747   3.704
 1877SOL    HW1 6530   0.040   6.682   3.647
 1877SOL    HW2 6531   0.188   6.725   3.702
 1878SOL     OW 6532   5.575   2.350   5.685
 1878SOL    HW1 6533   5.669   2.324   5.708
 1878SOL    HW2 6534   5.515   2.272   5.700
 1879SOL     OW 6535   1.453   4.785   5.538
 1879SOL    HW1 6536   1.382   4.845   5.501
 1879SOL    HW2 6537   1.424   4.748   5.625
 1880SOL     OW 6538   6.137   0.445   5.208
 1880SOL    HW1 6539   6.220   0.499   5.192
 1880SOL    HW2 6540   6.093   0.475   5.293
 1881SOL     OW 6541   6.823   2.363   6.713
 1881SOL    HW1 6542   6.838   2.449   6.762
 1881SOL    HW2 6543   6.897   2.349   6.647
 1882SOL     OW 6544   1.160   6.178   6.408
 1882SOL    HW1 6545   1.095   6.239   6.454
 1882SOL    HW2 6546   1.123   6.085   6.407
 1883SOL     OW 6547   0.136   2.214   4.110
 1883SOL    HW1 6548   0.062   2.274   4.142
 1883SOL    HW2 6549   0.149   2.227   4.011
 1884SOL     OW 6550   0.128   3.095   0.883
 1884SOL    HW1 6551   0.191   3.031   0.838
 1884SOL    HW2 6552   0.039   3.092   0.838
 1885SOL     OW 6553   1.839   1.189   4.691
 1885SOL    HW1 6554   1.922   1.220   4.738
 1885SOL    HW2 6555   1.852   1.199   4.592
 1886SOL     OW 6556   1.122   6.629   3.127
 1886SOL    HW1 6557   1.116   6.544   3.076
 1886SOL    HW2 6558   1.121   6.610   3.225
 1887SOL     OW 6559   2.361   6.467   5.879
 1887SOL    HW1 6560   2.375   6.411   5.798
 1887SOL    HW2 6561   2.266   6.462   5.909
 1888SOL     OW 6562   2.863   1.193   3.034
 1888SOL    HW1 6563   2.815   1.272   3.071
 1888SOL    HW2 6564   2.951   1.220   2.997
 1889SOL     OW 6565   0.478   3.420   2.953
 1889SOL    HW1 6566   0.516   3.482   2.885
 1889SOL    HW2 6567   0.391   3.457   2.986
 1890SOL     OW 6568   0.774   5.917   4.465
 1890SOL    HW1 6569   0.764   5.848   4.537
 1890SOL    HW2 6570   0.863   5.905   4.420
 1891SOL     OW 6571   3.366   3.096   3.648
 1891SOL    HW1 6572   3.337   3.101   3.553
 1891SOL    HW2 6573   3.317   3.023   3.694
 1892SOL     OW 6574   0.775   0.720   2.581
 1892SOL    HW1 6575   0.694   0.703   2.524
 1892SOL    HW2 6576   0.769   0.811   2.620
 1893SOL     OW 6577   3.778   3.340   4.275
 1893SOL    HW1 6578   3.746   3.299   4.189
 1893SOL    HW2 6579   3.795   3.267   4.341
 1894SOL     OW 6580   3.165   3.054   4.459
 1894SOL    HW1 6581   3.170   3.152   4.478
 1894SOL    HW2 6582   3.212   3.003   4.531
 1895SOL     OW 6583   1.844   6.211   0.166
 1895SOL    HW1 6584   1.890   6.202   0.255
 1895SOL    HW2 6585   1.748   6.235   0.180
 1896SOL     OW 6586   5.321   2.880   1.017
 1896SOL    HW1 6587   5.390   2.952   1.029
 1896SOL    HW2 6588   5.241   2.901   1.074
 1897SOL     OW 6589   1.603   4.233   4.646
 1897SOL    HW1 6590   1.512   4.224   4.604
 1897SOL    HW2 6591   1.607   4.177   4.729
 1898SOL     OW 6592   1.799   6.451   3.266
 1898SOL    HW1 6593   1.890   6.421   3.295
 1898SOL    HW2 6594   1.774   6.534   3.316
 1899SOL     OW 6595   0.096   0.804   2.300
 1899SOL    HW1 6596   0.006   0.844   2.319
 1899SOL    HW2 6597   0.156   0.816   2.379
 1900SOL     OW 6598   2.595   6.347   0.076
 1900SOL    HW1 6599   2.631   6.300   7.022
 1900SOL    HW2 6600   2.590   6.445   0.058
 1901SOL     OW 6601   2.878   3.552   1.802
 1901SOL    HW1 6602   2.940   3.495   1.748
 1901SOL    HW2 6603   2.862   3.509   1.891
 1902SOL     OW 6604   1.138   0.278   4.394
 1902SOL    HW1 6605   1.198   0.266   4.314
 1902SOL    HW2 6606   1.078   0.356   4.379
 1903SOL     OW 6607   1.099   2.564   3.988
 1903SOL    HW1 6608   1.143   2.580   4.077
 1903SOL    HW2 6609   1.169   2.554   3.918
 1904SOL     OW 6610   6.042   5.695   1.581
 1904SOL    HW1 6611   5.996   5.738   1.658
 1904SOL    HW2 6612   6.022   5.746   1.497
 1905SOL     OW 6613   0.883   1.824   3.986
 1905SOL    HW1 6614   0.890   1.924   3.980
 1905SOL    HW2 6615   0.931   1.792   4.067
 1906SOL     OW 6616   1.499   6.861   4.996
 1906SOL    HW1 6617   1.564   6.786   5.007
 1906SOL    HW2 6618   1.459   6.857   4.904
 1907SOL     OW 6619   5.285   2.991   0.600
 1907SOL    HW1 6620   5.337   2.912   0.632
 1907SOL    HW2 6621   5.196   2.961   0.565
 1908SOL     OW 6622   3.279   1.296   1.011
 1908SOL    HW1 6623   3.308   1.256   1.098
 1908SOL    HW2 6624   3.340   1.371   0.986
 1909SOL     OW 6625   6.523   4.974   4.600
 1909SOL    HW1 6626   6.496   4.878   4.611
 1909SOL    HW2 6627   6.445   5.026   4.568
 1910SOL     OW 6628   0.702   5.938   5.496
 1910SOL    HW1 6629   0.703   5.982   5.406
 1910SOL    HW2 6630   0.787   5.887   5.509
 1911SOL     OW 6631   6.230   5.438   4.255
 1911SOL    HW1 6632   6.154   5.471   4.200
 1911SOL    HW2 6633   6.209   5.450   4.353
 1912SOL     OW 6634   3.400   4.935   2.036
 1912SOL    HW1 6635   3.474   4.908   1.974
 1912SOL    HW2 6636   3.334   4.861   2.043
 1913SOL     OW 6637   4.111   4.336   6.749
 1913SOL    HW1 6638   4.033   4.274   6.760
 1913SOL    HW2 6639   4.134   4.376   6.838
 1914SOL     OW 6640   3.064   4.640   6.567
 1914SOL    HW1 6641   3.077   4.549   6.606
 1914SOL    HW2 6642   2.974   4.675   6.592
 1915SOL     OW 6643   3.809   2.767   6.114
 1915SOL    HW1 6644   3.815   2.674   6.149
 1915SOL    HW2 6645   3.901   2.804   6.101
 1916SOL     OW 6646   4.128   0.855   2.736
 1916SOL    HW1 6647   4.076   0.857   2.821
 1916SOL    HW2 6648   4.124   0.945   2.692
 1917SOL     OW 6649   1.923   4.110   1.376
 1917SOL    HW1 6650   1.996   4.173   1.349
 1917SOL    HW2 6651   1.854   4.161   1.428
 1918SOL     OW 6652   5.662   2.669   3.871
 1918SOL    HW1 6653   5.736   2.605   3.849
 1918SOL    HW2 6654   5.593   2.623   3.926
 1919SOL     OW 6655   6.812   2.779   6.590
 1919SOL    HW1 6656   6.720   2.816   6.575
 1919SOL    HW2 6657   6.880   2.845   6.557
 1920SOL     OW 6658   4.835   3.113   1.109
 1920SOL    HW1 6659   4.817   3.125   1.206
 1920SOL    HW2 6660   4.797   3.191   1.058
 1921SOL     OW 6661   2.353   2.387   6.936
 1921SOL    HW1 6662   2.336   2.382   0.008
 1921SOL    HW2 6663   2.350   2.482   6.906
 1922SOL     OW 6664   3.137   2.985   2.984
 1922SOL    HW1 6665   3.117   3.018   3.076
 1922SOL    HW2 6666   3.094   3.046   2.917
 1923SOL     OW 6667   3.445   1.010   4.267
 1923SOL    HW1 6668   3.469   0.975   4.176
 1923SOL    HW2 6669   3.493   0.956   4.337
 1924SOL     OW 6670   4.643   1.227   0.394
 1924SOL    HW1 6671   4.699   1.145   0.404
 1924SOL    HW2 6672   4.702   1.307   0.389
 1925SOL     OW 6673   1.457   3.445   1.116
 1925SOL    HW1 6674   1.528   3.429   1.048
 1925SOL    HW2 6675   1.409   3.530   1.095
 1926SOL     OW 6676   3.968   0.493   2.062
 1926SOL    HW1 6677   4.018   0.462   2.142
 1926SOL    HW2 6678   3.929   0.584   2.080
 1927SOL     OW 6679   1.990   4.966   1.164
 1927SOL    HW1 6680   1.915   4.971   1.229
 1927SOL    HW2 6681   2.061   4.903   1.198
 1928SOL     OW 6682   5.699   4.311   2.903
 1928SOL    HW1 6683   5.750   4.225   2.897
 1928SOL    HW2 6684   5.748   4.376   2.961
 1929SOL     OW 6685   3.051   6.852   3.052
 1929SOL    HW1 6686   3.094   6.808   3.130
 1929SOL    HW2 6687   3.090   6.815   2.967
 1930SOL     OW 6688   3.925   3.262   0.138
 1930SOL    HW1 6689   3.843   3.300   0.095
 1930SOL    HW2 6690   3.898   3.208   0.218
 1931SOL     OW 6691   6.841   2.175   4.357
 1931SOL    HW1 6692   6.755   2.149   4.314
 1931SOL    HW2 6693   6.891   2.238   4.297
 1932SOL     OW 6694   4.930   1.984   2.289
 1932SOL    HW1 6695   4.876   1.921   2.233
 1932SOL    HW2 6696   4.872   2.024   2.360
 1933SOL     OW 6697   0.994   0.644   1.363
 1933SOL    HW1 6698   1.010   0.574   1.294
 1933SOL    HW2 6699   1.080   0.693   1.381
 1934SOL     OW 6700   6.828   0.644   6.454
 1934SOL    HW1 6701   6.865   0.736   6.470
 1934SOL    HW2 6702   6.752   0.649   6.389
 1935SOL     OW 6703   6.050   5.069   3.548
 1935SOL    HW1 6704   6.123   5.021   3.499
 1935SOL    HW2 6705   6.057   5.047   3.646
 1936SOL     OW 6706   4.821   2.893   6.143
 1936SOL    HW1 6707   4.728   2.923   6.117
 1936SOL    HW2 6708   4.852   2.822   6.080
 1937SOL     OW 6709   6.061   5.037   6.972
 1937SOL    HW1 6710   6.066   4.966   0.016
 1937SOL    HW2 6711   6.097   5.001   6.886
 1938SOL     OW 6712   6.379   3.046   0.031
 1938SOL    HW1 6713   6.474   3.078   0.025
 1938SOL    HW2 6714   6.375   2.949   0.007
 1939SOL     OW 6715   0.865   0.630   4.707
 1939SOL    HW1 6716   0.801   0.569   4.754
 1939SOL    HW2 6717   0.891   0.705   4.767
 1940SOL     OW 6718   0.335   5.146   0.699
 1940SOL    HW1 6719   0.374   5.084   0.767
 1940SOL    HW2 6720   0.323   5.236   0.739
 1941SOL     OW 6721   5.394   1.813   4.828
 1941SOL    HW1 6722   5.339   1.746   4.877
 1941SOL    HW2 6723   5.335   1.867   4.768
 1942SOL     OW 6724   6.795   4.475   1.798
 1942SOL    HW1 6725   6.731   4.512   1.730
 1942SOL    HW2 6726   6.848   4.401   1.757
 1943SOL     OW 6727   1.021   2.890   3.416
 1943SOL    HW1 6728   1.085   2.962   3.446
 1943SOL    HW2 6729   1.066   2.801   3.423
 1944SOL     OW 6730   0.584   3.360   3.619
 1944SOL    HW1 6731   0.682   3.373   3.610
 1944SOL    HW2 6732   0.538   3.390   3.535
 1945SOL     OW 6733   5.152   1.153   2.062
 1945SOL    HW1 6734   5.176   1.240   2.017
 1945SOL    HW2 6735   5.192   1.077   2.011
 1946SOL     OW 6736   6.539   6.381   0.812
 1946SOL    HW1 6737   6.458   6.341   0.770
 1946SOL    HW2 6738   6.608   6.399   0.742
 1947SOL     OW 6739   6.163   5.106   3.009
 1947SOL    HW1 6740   6.140   5.124   2.914
 1947SOL    HW2 6741   6.117   5.173   3.068
 1948SOL     OW 6742   5.232   3.280   3.760
 1948SOL    HW1 6743   5.210   3.273   3.857
 1948SOL    HW2 6744   5.279   3.197   3.731
 1949SOL     OW 6745   3.599   4.306   6.443
 1949SOL    HW1 6746   3.653   4.338   6.521
 1949SOL    HW2 6747   3.505   4.290   6.473
 1950SOL     OW 6748   3.929   3.922   3.102
 1950SOL    HW1 6749   3.901   3.978   3.180
 1950SOL    HW2 6750   3.964   3.834   3.134
 1951SOL     OW 6751   6.091   5.482   6.245
 1951SOL    HW1 6752   6.090   5.384   6.228
 1951SOL    HW2 6753   6.005   5.509   6.289
 1952SOL     OW 6754   5.886   5.543   0.083
 1952SOL    HW1 6755   5.957   5.502   0.026
 1952SOL    HW2 6756   5.821   5.592   0.025
 1953SOL     OW 6757   1.421   1.193   6.798
 1953SOL    HW1 6758   1.433   1.103   6.840
 1953SOL    HW2 6759   1.503   1.216   6.745
 1954SOL     OW 6760   4.354   6.677   1.676
 1954SOL    HW1 6761   4.436   6.619   1.679
 1954SOL    HW2 6762   4.359   6.736   1.595
 1955SOL     OW 6763   0.099   2.657   4.149
 1955SOL    HW1 6764   0.149   2.733   4.106
 1955SOL    HW2 6765   0.160   2.609   4.211
 1956SOL     OW 6766   5.517   0.890   1.620
 1956SOL    HW1 6767   5.583   0.840   1.564
 1956SOL    HW2 6768   5.486   0.831   1.695
 1957SOL     OW 6769   6.501   2.456   4.171
 1957SOL    HW1 6770   6.508   2.363   4.136
 1957SOL    HW2 6771   6.417   2.498   4.138
 1958SOL     OW 6772   3.790   1.488   0.673
 1958SOL    HW1 6773   3.847   1.482   0.755
 1958SOL    HW2 6774   3.841   1.531   0.599
 1959SOL     OW 6775   1.038   2.561   5.267
 1959SOL    HW1 6776   1.106   2.621   5.311
 1959SOL    HW2 6777   0.995   2.504   5.337
 1960SOL     OW 6778   5.901   4.121   3.865
 1960SOL    HW1 6779   5.949   4.072   3.791
 1960SOL    HW2 6780   5.908   4.068   3.949
 1961SOL     OW 6781   0.554   3.636   3.788
 1961SOL    HW1 6782   0.526   3.704   3.719
 1961SOL    HW2 6783   0.635   3.588   3.756
 1962SOL     OW 6784   0.723   0.897   2.109
 1962SOL    HW1 6785   0.817   0.930   2.110
 1962SOL    HW2 6786   0.665   0.965   2.064
 1963SOL     OW 6787   0.702   2.604   6.848
 1963SOL    HW1 6788   0.696   2.512   6.810
 1963SOL    HW2 6789   0.797   2.624   6.871
 1964SOL     OW 6790   5.551   3.633   0.649
 1964SOL    HW1 6791   5.621   3.574   0.608
 1964SOL    HW2 6792   5.535   3.711   0.589
 1965SOL     OW 6793   6.123   4.097   3.691
 1965SOL    HW1 6794   6.125   4.151   3.607
 1965SOL    HW2 6795   6.183   4.140   3.759
 1966SOL     OW 6796   1.337   4.510   6.861
 1966SOL    HW1 6797   1.269   4.527   6.932
 1966SOL    HW2 6798   1.393   4.592   6.848
 1967SOL     OW 6799   6.100   3.378   5.052
 1967SOL    HW1 6800   6.171   3.419   5.109
 1967SOL    HW2 6801   6.025   3.347   5.110
 1968SOL     OW 6802   2.800   1.217   5.585
 1968SOL    HW1 6803   2.746   1.138   5.614
 1968SOL    HW2 6804   2.746   1.300   5.598
 1969SOL     OW 6805   1.846   5.799   0.844
 1969SOL    HW1 6806   1.809   5.868   0.782
 1969SOL    HW2 6807   1.828   5.825   0.938
 1970SOL     OW 6808   5.501   5.068   4.181
 1970SOL    HW1 6809   5.537   4.975   4.175
 1970SOL    HW2 6810   5.577   5.132   4.193
 1971SOL     OW 6811   1.763   4.521   4.733
 1971SOL    HW1 6812   1.714   4.560   4.656
 1971SOL    HW2 6813   1.792   4.428   4.711
 1972SOL     OW 6814   6.281   2.465   2.458
 1972SOL    HW1 6815   6.186   2.496   2.461
 1972SOL    HW2 6816   6.318   2.464   2.551
 1973SOL     OW 6817   3.120   2.202   0.990
 1973SOL    HW1 6818   3.074   2.226   0.905
 1973SOL    HW2 6819   3.191   2.135   0.972
 1974SOL     OW 6820   2.553   6.722   5.064
 1974SOL    HW1 6821   2.485   6.655   5.034
 1974SOL    HW2 6822   2.537   6.808   5.016
 1975SOL     OW 6823   1.952   3.072   3.217
 1975SOL    HW1 6824   1.942   3.169   3.237
 1975SOL    HW2 6825   1.862   3.032   3.200
 1976SOL     OW 6826   1.167   1.026   5.291
 1976SOL    HW1 6827   1.154   0.927   5.300
 1976SOL    HW2 6828   1.254   1.044   5.246
 1977SOL     OW 6829   2.033   3.945   6.499
 1977SOL    HW1 6830   1.968   4.008   6.541
 1977SOL    HW2 6831   2.050   3.868   6.561
 1978SOL     OW 6832   3.165   0.386   2.499
 1978SOL    HW1 6833   3.146   0.291   2.474
 1978SOL    HW2 6834   3.103   0.447   2.451
 1979SOL     OW 6835   6.198   4.370   6.472
 1979SOL    HW1 6836   6.153   4.458   6.488
 1979SOL    HW2 6837   6.203   4.352   6.374
 1980SOL     OW 6838   3.806   0.698   0.877
 1980SOL    HW1 6839   3.865   0.740   0.808
 1980SOL    HW2 6840   3.733   0.647   0.832
 1981SOL     OW 6841   3.798   1.795   2.158
 1981SOL    HW1 6842   3.789   1.890   2.188
 1981SOL    HW2 6843   3.894   1.770   2.154
 1982SOL     OW 6844   1.608   2.935   6.139
 1982SOL    HW1 6845   1.563   2.991   6.069
 1982SOL    HW2 6846   1.706   2.950   6.136
 1983SOL     OW 6847   0.013   1.049   1.978
 1983SOL    HW1 6848   6.976   1.119   2.008
 1983SOL    HW2 6849   6.993   0.960   1.974
 1984SOL     OW 6850   4.378   3.511   5.956
 1984SOL    HW1 6851   4.366   3.522   5.858
 1984SOL    HW2 6852   4.317   3.574   6.005
 1985SOL     OW 6853   6.474   4.009   4.256
 1985SOL    HW1 6854   6.405   4.042   4.192
 1985SOL    HW2 6855   6.566   4.031   4.222
 1986SOL     OW 6856   3.153   3.532   2.340
 1986SOL    HW1 6857   3.241   3.566   2.307
 1986SOL    HW2 6858   3.168   3.451   2.396
 1987SOL     OW 6859   2.349   0.668   1.898
 1987SOL    HW1 6860   2.287   0.624   1.962
 1987SOL    HW2 6861   2.332   0.767   1.897
 1988SOL     OW 6862   0.467   1.496   2.089
 1988SOL    HW1 6863   0.460   1.404   2.127
 1988SOL    HW2 6864   0.459   1.563   2.162
 1989SOL     OW 6865   2.943   5.358   5.149
 1989SOL    HW1 6866   2.861   5.392   5.194
 1989SOL    HW2 6867   2.997   5.436   5.116
 1990SOL     OW 6868   4.088   0.543   6.822
 1990SOL    HW1 6869   4.116   0.451   6.849
 1990SOL    HW2 6870   4.158   0.609   6.850
 1991SOL     OW 6871   2.776   5.266   1.429
 1991SOL    HW1 6872   2.827   5.282   1.514
 1991SOL    HW2 6873   2.678   5.271   1.448
 1992SOL     OW 6874   0.963   6.607   2.770
 1992SOL    HW1 6875   0.870   6.597   2.734
 1992SOL    HW2 6876   1.010   6.519   2.765
 1993SOL     OW 6877   2.055   1.974   2.926
 1993SOL    HW1 6878   2.080   2.067   2.950
 1993SOL    HW2 6879   2.137   1.916   2.927
 1994SOL     OW 6880   3.807   2.824   0.977
 1994SOL    HW1 6881   3.767   2.758   1.040
 1994SOL    HW2 6882   3.891   2.786   0.937
 1995SOL     OW 6883   5.607   1.689   4.131
 1995SOL    HW1 6884   5.651   1.746   4.062
 1995SOL    HW2 6885   5.658   1.694   4.216
 1996SOL     OW 6886   4.629   0.938   0.665
 1996SOL    HW1 6887   4.603   0.986   0.748
 1996SOL    HW2 6888   4.708   0.983   0.623
 1997SOL     OW 6889   3.360   1.374   3.920
 1997SOL    HW1 6890   3.302   1.436   3.866
 1997SOL    HW2 6891   3.407   1.311   3.859
 1998SOL     OW 6892   2.317   3.888   1.606
 1998SOL    HW1 6893   2.310   3.945   1.524
 1998SOL    HW2 6894   2.411   3.890   1.640
 1999SOL     OW 6895   0.768   7.015   6.955
 1999SOL    HW1 6896   0.787   6.918   6.967
 1999SOL    HW2 6897   0.769   0.012   6.858
 2000SOL     OW 6898   4.188   4.306   6.012
 2000SOL    HW1 6899   4.151   4.310   6.105
 2000SOL    HW2 6900   4.288   4.314   6.015
 2001SOL     OW 6901   1.403   2.233   1.362
 2001SOL    HW1 6902   1.431   2.326   1.341
 2001SOL    HW2 6903   1.482   2.172   1.358
 2002SOL     OW 6904   0.023   5.441   1.216
 2002SOL    HW1 6905   0.038   5.390   1.301
 2002SOL    HW2 6906   6.960   5.417   1.178
 2003SOL     OW 6907   5.595   5.247   1.998
 2003SOL    HW1 6908   5.559   5.334   2.030
 2003SOL    HW2 6909   5.524   5.198   1.948
 2004SOL     OW 6910   3.428   6.565   3.027
 2004SOL    HW1 6911   3.492   6.607   3.092
 2004SOL    HW2 6912   3.476   6.544   2.942
 2005SOL     OW 6913   1.389   6.398   0.256
 2005SOL    HW1 6914   1.368   6.467   0.325
 2005SOL    HW2 6915   1.376   6.306   0.294
 2006SOL     OW 6916   5.505   6.450   2.271
 2006SOL    HW1 6917   5.479   6.363   2.313
 2006SOL    HW2 6918   5.439   6.521   2.298
 2007SOL     OW 6919   5.334   4.894   6.037
 2007SOL    HW1 6920   5.323   4.898   6.137
 2007SOL    HW2 6921   5.391   4.970   6.007
 2008SOL     OW 6922   2.162   3.644   3.164
 2008SOL    HW1 6923   2.084   3.617   3.108
 2008SOL    HW2 6924   2.149   3.738   3.196
 2009SOL     OW 6925   6.239   6.949   2.415
 2009SOL    HW1 6926   6.301   6.943   2.336
 2009SOL    HW2 6927   6.201   6.859   2.435
 2010SOL     OW 6928   6.687   2.036   2.012
 2010SOL    HW1 6929   6.667   1.993   2.101
 2010SOL    HW2 6930   6.624   2.112   1.998
 2011SOL     OW 6931   0.538   0.075   4.704
 2011SOL    HW1 6932   0.523   0.082   4.605
 2011SOL    HW2 6933   0.606   0.142   4.732
 2012SOL     OW 6934   0.468   3.146   1.213
 2012SOL    HW1 6935   0.535   3.219   1.210
 2012SOL    HW2 6936   0.382   3.177   1.173
 2013SOL     OW 6937   0.108   2.701   1.999
 2013SOL    HW1 6938   0.162   2.750   1.931
 2013SOL    HW2 6939   0.068   2.619   1.959
 2014SOL     OW 6940   3.894   1.129   4.187
 2014SOL    HW1 6941   3.827   1.137   4.113
 2014SOL    HW2 6942   3.845   1.116   4.274
 2015SOL     OW 6943   4.195   6.720   1.893
 2015SOL    HW1 6944   4.212   6.812   1.928
 2015SOL    HW2 6945   4.247   6.706   1.809
 2016SOL     OW 6946   2.055   0.722   4.404
 2016SOL    HW1 6947   2.062   0.744   4.502
 2016SOL    HW2 6948   2.094   0.631   4.388
 2017SOL     OW 6949   3.355   6.122   3.800
 2017SOL    HW1 6950   3.354   6.209   3.751
 2017SOL    HW2 6951   3.338   6.138   3.897
 2018SOL     OW 6952   0.756   0.645   4.127
 2018SOL    HW1 6953   0.706   0.728   4.103
 2018SOL    HW2 6954   0.697   0.566   4.113
 2019SOL     OW 6955   5.555   5.592   6.598
 2019SOL    HW1 6956   5.464   5.580   6.640
 2019SOL    HW2 6957   5.546   5.650   6.517
 2020SOL     OW 6958   1.886   6.842   0.072
 2020SOL    HW1 6959   1.955   6.770   0.070
 2020SOL    HW2 6960   1.805   6.812   0.022
 2021SOL     OW 6961   0.047   5.945   4.321
 2021SOL    HW1 6962   6.990   5.890   4.318
 2021SOL    HW2 6963   0.044   6.005   4.401
 2022SOL     OW 6964   1.750   3.297   4.287
 2022SOL    HW1 6965   1.815   3.246   4.344
 2022SOL    HW2 6966   1.699   3.361   4.344
 2023SOL     OW 6967   6.631   6.106   6.428
 2023SOL    HW1 6968   6.621   6.136   6.333
 2023SOL    HW2 6969   6.639   6.006   6.430
 2024SOL     OW 6970   0.316   5.530   3.810
 2024SOL    HW1 6971   0.221   5.515   3.782
 2024SOL    HW2 6972   0.352   5.445   3.850
 2025SOL     OW 6973   1.946   6.096   4.743
 2025SOL    HW1 6974   2.017   6.042   4.790
 2025SOL    HW2 6975   1.874   6.035   4.711
 2026SOL     OW 6976   6.961   0.483   5.961
 2026SOL    HW1 6977   6.966   0.504   6.059
 2026SOL    HW2 6978   6.973   0.384   5.948
 2027SOL     OW 6979   7.014   6.228   2.307
 2027SOL    HW1 6980   0.013   6.302   2.245
 2027SOL    HW2 6981   6.982   6.266   2.393
 2028SOL     OW 6982   3.291   5.577   4.706
 2028SOL    HW1 6983   3.315   5.481   4.720
 2028SOL    HW2 6984   3.206   5.597   4.755
 2029SOL     OW 6985   6.039   2.857   6.715
 2029SOL    HW1 6986   6.018   2.941   6.666
 2029SOL    HW2 6987   6.036   2.873   6.814
 2030SOL     OW 6988   2.437   6.689   2.322
 2030SOL    HW1 6989   2.363   6.687   2.389
 2030SOL    HW2 6990   2.502   6.761   2.347
 2031SOL     OW 6991   0.713   6.112   4.750
 2031SOL    HW1 6992   0.808   6.143   4.749
 2031SOL    HW2 6993   0.708   6.018   4.718
 2032SOL     OW 6994   2.479   2.939   5.892
 2032SOL    HW1 6995   2.403   2.992   5.930
 2032SOL    HW2 6996   2.468   2.842   5.916
 2033SOL     OW 6997   2.314   1.431   0.571
 2033SOL    HW1 6998   2.336   1.518   0.615
 2033SOL    HW2 6999   2.215   1.417   0.571
 2034SOL     OW 7000   0.704   4.258   5.241
 2034SOL    HW1 7001   0.668   4.199   5.168
 2034SOL    HW2 7002   0.769   4.323   5.203
 2035SOL     OW 7003   5.343   5.943   3.191
 2035SOL    HW1 7004   5.357   6.042   3.198
 2035SOL    HW2 7005   5.339   5.917   3.095
 2036SOL     OW 7006   0.327   4.539   6.407
 2036SOL    HW1 7007   0.244   4.594   6.414
 2036SOL    HW2 7008   0.388   4.580   6.339
 2037SOL     OW 7009   1.167   2.441   0.049
 2037SOL    HW1 7010   1.255   2.481   0.023
 2037SOL    HW2 7011   1.095   2.478   7.017
 2038SOL     OW 7012   0.771   1.129   5.884
 2038SOL    HW1 7013   0.790   1.226   5.870
 2038SOL    HW2 7014   0.731   1.115   5.974
 2039SOL     OW 7015   5.040   6.039   3.321
 2039SOL    HW1 7016   5.058   6.037   3.222
 2039SOL    HW2 7017   4.988   6.121   3.343
 2040SOL     OW 7018   2.617   1.982   0.251
 2040SOL    HW1 7019   2.585   1.908   0.310
 2040SOL    HW2 7020   2.594   2.070   0.294
 2041SOL     OW 7021   2.694   6.504   6.774
 2041SOL    HW1 7022   2.734   6.545   6.692
 2041SOL    HW2 7023   2.716   6.560   6.853
 2042SOL     OW 7024   6.110   0.868   5.960
 2042SOL    HW1 7025   6.115   0.928   5.880
 2042SOL    HW2 7026   6.196   0.818   5.970
 2043SOL     OW 7027   0.786   4.145   0.602
 2043SOL    HW1 7028   0.714   4.124   0.536
 2043SOL    HW2 7029   0.873   4.106   0.572
 2044SOL     OW 7030   4.377   0.569   1.674
 2044SOL    HW1 7031   4.444   0.590   1.603
 2044SOL    HW2 7032   4.304   0.513   1.635
 2045SOL     OW 7033   2.042   5.920   4.271
 2045SOL    HW1 7034   1.975   5.981   4.230
 2045SOL    HW2 7035   2.093   5.969   4.342
 2046SOL     OW 7036   0.587   3.259   5.860
 2046SOL    HW1 7037   0.621   3.330   5.798
 2046SOL    HW2 7038   0.649   3.181   5.859
 2047SOL     OW 7039   0.053   0.157   0.881
 2047SOL    HW1 7040   0.042   0.191   0.975
 2047SOL    HW2 7041   0.091   0.229   0.824
 2048SOL     OW 7042   2.113   1.452   4.227
 2048SOL    HW1 7043   2.054   1.375   4.203
 2048SOL    HW2 7044   2.198   1.446   4.174
 2049SOL     OW 7045   4.783   2.928   4.880
 2049SOL    HW1 7046   4.715   2.871   4.925
 2049SOL    HW2 7047   4.815   2.999   4.943
 2050SOL     OW 7048   0.395   0.954   3.888
 2050SOL    HW1 7049   0.447   1.039   3.876
 2050SOL    HW2 7050   0.299   0.977   3.908
 2051SOL     OW 7051   3.502   5.734   0.617
 2051SOL    HW1 7052   3.534   5.714   0.710
 2051SOL    HW2 7053   3.574   5.712   0.551
 2052SOL     OW 7054   1.103   3.765   0.678
 2052SOL    HW1 7055   1.097   3.820   0.761
 2052SOL    HW2 7056   1.191   3.718   0.675
 2053SOL     OW 7057   6.181   4.943   2.646
 2053SOL    HW1 7058   6.094   4.934   2.694
 2053SOL    HW2 7059   6.164   4.942   2.547
 2054SOL     OW 7060   3.114   3.931   3.124
 2054SOL    HW1 7061   3.038   3.889   3.173
 2054SOL    HW2 7062   3.182   3.861   3.101
 2055SOL     OW 7063   4.295   2.645   5.584
 2055SOL    HW1 7064   4.234   2.693   5.521
 2055SOL    HW2 7065   4.340   2.569   5.537
 2056SOL     OW 7066   3.192   5.050   1.483
 2056SOL    HW1 7067   3.238   5.132   1.449
 2056SOL    HW2 7068   3.192   5.051   1.583
 2057SOL     OW 7069   5.815   3.355   4.378
 2057SOL    HW1 7070   5.810   3.434   4.440
 2057SOL    HW2 7071   5.860   3.383   4.293
 2058SOL     OW 7072   6.185   6.657   3.538
 2058SOL    HW1 7073   6.219   6.695   3.452
 2058SOL    HW2 7074   6.230   6.702   3.615
 2059SOL     OW 7075   1.994   2.021   5.404
 2059SOL    HW1 7076   1.924   2.047   5.338
 2059SOL    HW2 7077   1.963   1.944   5.459
 2060SOL     OW 7078   1.961   2.320   6.511
 2060SOL    HW1 7079   2.040   2.354   6.562
 2060SOL    HW2 7080   1.989   2.245   6.452
 2061SOL     OW 7081   2.083   2.395   2.905
 2061SOL    HW1 7082   2.008   2.437   2.956
 2061SOL    HW2 7083   2.169   2.443   2.928
 2062SOL     OW 7084   6.285   4.981   4.275
 2062SOL    HW1 7085   6.220   5.055   4.256
 2062SOL    HW2 7086   6.377   5.010   4.247
 2063SOL     OW 7087   0.912   2.382   4.298
 2063SOL    HW1 7088   0.884   2.469   4.338
 2063SOL    HW2 7089   0.918   2.390   4.199
 2064SOL     OW 7090   0.680   3.746   4.205
 2064SOL    HW1 7091   0.594   3.785   4.172
 2064SOL    HW2 7092   0.665   3.652   4.234
 2065SOL     OW 7093   3.995   3.574   5.904
 2065SOL    HW1 7094   3.979   3.476   5.890
 2065SOL    HW2 7095   3.909   3.623   5.898
 2066SOL     OW 7096   1.019   3.062   5.236
 2066SOL    HW1 7097   1.046   3.120   5.159
 2066SOL    HW2 7098   1.001   3.120   5.316
 2067SOL     OW 7099   6.573   4.836   1.869
 2067SOL    HW1 7100   6.580   4.750   1.921
 2067SOL    HW2 7101   6.476   4.861   1.861
 2068SOL     OW 7102   4.461   6.833   4.113
 2068SOL    HW1 7103   4.377   6.878   4.144
 2068SOL    HW2 7104   4.537   6.861   4.171
 2069SOL     OW 7105   6.945   1.139   3.639
 2069SOL    HW1 7106   7.007   1.061   3.632
 2069SOL    HW2 7107   6.971   1.208   3.571
 2070SOL     OW 7108   1.608   5.342   1.069
 2070SOL    HW1 7109   1.535   5.276   1.084
 2070SOL    HW2 7110   1.590   5.395   0.986
 2071SOL     OW 7111   0.050   2.516   5.158
 2071SOL    HW1 7112   0.106   2.446   5.113
 2071SOL    HW2 7113   7.010   2.472   5.217
 2072SOL     OW 7114   5.649   4.227   5.381
 2072SOL    HW1 7115   5.597   4.176   5.450
 2072SOL    HW2 7116   5.650   4.177   5.295
 2073SOL     OW 7117   3.506   5.420   6.483
 2073SOL    HW1 7118   3.417   5.457   6.509
 2073SOL    HW2 7119   3.553   5.385   6.564
 2074SOL     OW 7120   2.589   4.530   5.988
 2074SOL    HW1 7121   2.597   4.591   6.067
 2074SOL    HW2 7122   2.497   4.493   5.982
 2075SOL     OW 7123   6.270   2.466   1.559
 2075SOL    HW1 7124   6.356   2.511   1.533
 2075SOL    HW2 7125   6.227   2.427   1.478
 2076SOL     OW 7126   6.807   6.689   4.483
 2076SOL    HW1 7127   6.725   6.661   4.532
 2076SOL    HW2 7128   6.797   6.785   4.454
 2077SOL     OW 7129   6.273   4.434   0.409
 2077SOL    HW1 7130   6.315   4.396   0.492
 2077SOL    HW2 7131   6.265   4.533   0.419
 2078SOL     OW 7132   0.780   3.022   5.977
 2078SOL    HW1 7133   0.763   2.936   6.027
 2078SOL    HW2 7134   0.796   3.096   6.043
 2079SOL     OW 7135   5.502   1.254   3.060
 2079SOL    HW1 7136   5.470   1.310   2.983
 2079SOL    HW2 7137   5.467   1.292   3.146
 2080SOL     OW 7138   2.381   3.325   6.719
 2080SOL    HW1 7139   2.467   3.278   6.738
 2080SOL    HW2 7140   2.398   3.404   6.660
 2081SOL     OW 7141   6.692   6.205   2.220
 2081SOL    HW1 7142   6.760   6.137   2.248
 2081SOL    HW2 7143   6.736   6.280   2.171
 2082SOL     OW 7144   6.509   5.395   4.193
 2082SOL    HW1 7145   6.414   5.426   4.206
 2082SOL    HW2 7146   6.544   5.359   4.280
 2083SOL     OW 7147   0.238   6.342   4.091
 2083SOL    HW1 7148   0.222   6.274   4.019
 2083SOL    HW2 7149   0.275   6.425   4.049
 2084SOL     OW 7150   0.077   1.888   1.029
 2084SOL    HW1 7151   0.003   1.899   0.962
 2084SOL    HW2 7152   0.123   1.801   1.013
 2085SOL     OW 7153   6.726   6.181   0.659
 2085SOL    HW1 7154   6.743   6.162   0.562
 2085SOL    HW2 7155   6.657   6.117   0.694
 2086SOL     OW 7156   4.928   0.473   6.803
 2086SOL    HW1 7157   4.970   0.510   6.720
 2086SOL    HW2 7158   4.962   0.381   6.820
 2087SOL     OW 7159   3.980   1.569   6.901
 2087SOL    HW1 7160   3.893   1.615   6.920
 2087SOL    HW2 7161   3.967   1.504   6.825
 2088SOL     OW 7162   7.015   4.658   6.024
 2088SOL    HW1 7163   6.976   4.749   6.016
 2088SOL    HW2 7164   6.979   4.613   6.105
 2089SOL     OW 7165   2.799   4.017   6.219
 2089SOL    HW1 7166   2.860   3.939   6.233
 2089SOL    HW2 7167   2.851   4.102   6.232
 2090SOL     OW 7168   5.230   3.025   0.144
 2090SOL    HW1 7169   5.267   2.951   0.088
 2090SOL    HW2 7170   5.296   3.050   0.215
 2091SOL     OW 7171   5.264   6.398   0.471
 2091SOL    HW1 7172   5.271   6.301   0.447
 2091SOL    HW2 7173   5.185   6.412   0.531
 2092SOL     OW 7174   3.426   3.529   2.168
 2092SOL    HW1 7175   3.366   3.497   2.095
 2092SOL    HW2 7176   3.465   3.617   2.142
 2093SOL     OW 7177   4.431   0.691   1.138
 2093SOL    HW1 7178   4.512   0.632   1.140
 2093SOL    HW2 7179   4.404   0.713   1.232
 2094SOL     OW 7180   5.472   2.250   0.367
 2094SOL    HW1 7181   5.474   2.162   0.413
 2094SOL    HW2 7182   5.482   2.324   0.434
 2095SOL     OW 7183   5.296   5.232   4.617
 2095SOL    HW1 7184   5.320   5.302   4.550
 2095SOL    HW2 7185   5.270   5.148   4.569
 2096SOL     OW 7186   3.863   6.852   2.335
 2096SOL    HW1 7187   3.925   6.885   2.264
 2096SOL    HW2 7188   3.830   6.929   2.389
 2097SOL     OW 7189   0.910   5.647   5.836
 2097SOL    HW1 7190   0.862   5.641   5.923
 2097SOL    HW2 7191   0.959   5.734   5.831
 2098SOL     OW 7192   2.658   6.812   3.689
 2098SOL    HW1 7193   2.582   6.876   3.699
 2098SOL    HW2 7194   2.625   6.729   3.644
 2099SOL     OW 7195   4.060   1.887   7.025
 2099SOL    HW1 7196   4.037   1.879   0.095
 2099SOL    HW2 7197   4.160   1.895   7.014
 2100SOL     OW 7198   4.414   0.528   0.136
 2100SOL    HW1 7199   4.420   0.456   0.067
 2100SOL    HW2 7200   4.320   0.531   0.171
 2101SOL     OW 7201   1.516   0.185   2.660
 2101SOL    HW1 7202   1.459   0.266   2.672
 2101SOL    HW2 7203   1.496   0.119   2.732
 2102SOL     OW 7204   3.971   2.361   1.526
 2102SOL    HW1 7205   4.025   2.442   1.550
 2102SOL    HW2 7206   3.973   2.296   1.602
 2103SOL     OW 7207   1.010   6.865   0.641
 2103SOL    HW1 7208   0.940   6.908   0.584
 2103SOL    HW2 7209   1.027   6.772   0.609
 2104SOL     OW 7210   1.949   3.782   2.998
 2104SOL    HW1 7211   1.851   3.766   2.983
 2104SOL    HW2 7212   1.995   3.793   2.910
 2105SOL     OW 7213   5.618   0.275   4.789
 2105SOL    HW1 7214   5.646   0.209   4.718
 2105SOL    HW2 7215   5.679   0.267   4.868
 2106SOL     OW 7216   3.781   2.854   1.422
 2106SOL    HW1 7217   3.719   2.867   1.499
 2106SOL    HW2 7218   3.767   2.763   1.384
 2107SOL     OW 7219   5.112   4.694   4.814
 2107SOL    HW1 7220   5.129   4.785   4.777
 2107SOL    HW2 7221   5.162   4.626   4.761
 2108SOL     OW 7222   5.105   6.651   5.187
 2108SOL    HW1 7223   5.164   6.671   5.108
 2108SOL    HW2 7224   5.153   6.675   5.271
 2109SOL     OW 7225   2.656   6.149   1.906
 2109SOL    HW1 7226   2.744   6.187   1.879
 2109SOL    HW2 7227   2.670   6.064   1.956
 2110SOL     OW 7228   3.613   5.774   0.216
 2110SOL    HW1 7229   3.628   5.737   0.124
 2110SOL    HW2 7230   3.517   5.800   0.226
 2111SOL     OW 7231   1.327   2.437   5.958
 2111SOL    HW1 7232   1.336   2.357   6.018
 2111SOL    HW2 7233   1.263   2.415   5.884
 2112SOL     OW 7234   1.239   6.874   6.603
 2112SOL    HW1 7235   1.297   6.924   6.538
 2112SOL    HW2 7236   1.292   6.800   6.645
 2113SOL     OW 7237   6.457   1.653   5.341
 2113SOL    HW1 7238   6.430   1.747   5.361
 2113SOL    HW2 7239   6.535   1.628   5.397
 2114SOL     OW 7240   2.008   0.789   5.435
 2114SOL    HW1 7241   1.949   0.766   5.358
 2114SOL    HW2 7242   2.053   0.706   5.469
 2115SOL     OW 7243   6.681   6.158   3.317
 2115SOL    HW1 7244   6.611   6.090   3.294
 2115SOL    HW2 7245   6.765   6.111   3.345
 2116SOL     OW 7246   1.880   1.440   0.011
 2116SOL    HW1 7247   1.818   1.367   0.041
 2116SOL    HW2 7248   1.914   1.490   0.090
 2117SOL     OW 7249   6.691   2.578   2.903
 2117SOL    HW1 7250   6.651   2.583   2.811
 2117SOL    HW2 7251   6.617   2.576   2.970
 2118SOL     OW 7252   0.266   2.611   2.691
 2118SOL    HW1 7253   0.209   2.693   2.698
 2118SOL    HW2 7254   0.361   2.637   2.673
 2119SOL     OW 7255   0.295   2.931   0.238
 2119SOL    HW1 7256   0.199   2.913   0.260
 2119SOL    HW2 7257   0.301   2.967   0.145
 2120SOL     OW 7258   5.402   2.083   0.732
 2120SOL    HW1 7259   5.339   2.160   0.739
 2120SOL    HW2 7260   5.414   2.058   0.636
 2121SOL     OW 7261   2.022   6.662   1.350
 2121SOL    HW1 7262   2.115   6.636   1.326
 2121SOL    HW2 7263   1.958   6.592   1.317
 2122SOL     OW 7264   6.470   0.975   4.626
 2122SOL    HW1 7265   6.540   1.033   4.666
 2122SOL    HW2 7266   6.513   0.907   4.566
 2123SOL     OW 7267   1.082   5.475   2.996
 2123SOL    HW1 7268   1.145   5.415   2.946
 2123SOL    HW2 7269   1.132   5.521   3.069
 2124SOL     OW 7270   4.632   3.419   6.421
 2124SOL    HW1 7271   4.731   3.407   6.429
 2124SOL    HW2 7272   4.595   3.348   6.360
 2125SOL     OW 7273   1.164   5.554   4.241
 2125SOL    HW1 7274   1.204   5.492   4.308
 2125SOL    HW2 7275   1.236   5.590   4.181
 2126SOL     OW 7276   2.697   3.414   0.226
 2126SOL    HW1 7277   2.659   3.432   0.316
 2126SOL    HW2 7278   2.770   3.345   0.233
 2127SOL     OW 7279   1.215   3.370   3.979
 2127SOL    HW1 7280   1.276   3.376   4.059
 2127SOL    HW2 7281   1.167   3.283   3.981
 2128SOL     OW 7282   5.535   3.127   2.494
 2128SOL    HW1 7283   5.544   3.035   2.455
 2128SOL    HW2 7284   5.460   3.127   2.560
 2129SOL     OW 7285   5.045   4.531   4.185
 2129SOL    HW1 7286   4.990   4.447   4.191
 2129SOL    HW2 7287   5.035   4.570   4.094
 2130SOL     OW 7288   1.784   0.663   1.819
 2130SOL    HW1 7289   1.744   0.587   1.767
 2130SOL    HW2 7290   1.781   0.747   1.764
 2131SOL     OW 7291   5.844   0.735   6.404
 2131SOL    HW1 7292   5.815   0.796   6.329
 2131SOL    HW2 7293   5.931   0.768   6.441
 2132SOL     OW 7294   2.632   2.577   0.147
 2132SOL    HW1 7295   2.607   2.486   0.181
 2132SOL    HW2 7296   2.608   2.584   0.051
 2133SOL     OW 7297   3.596   1.983   1.155
 2133SOL    HW1 7298   3.647   1.961   1.238
 2133SOL    HW2 7299   3.506   2.019   1.180
 2134SOL     OW 7300   1.652   6.494   5.252
 2134SOL    HW1 7301   1.608   6.564   5.309
 2134SOL    HW2 7302   1.750   6.513   5.247
 2135SOL     OW 7303   1.129   6.349   4.063
 2135SOL    HW1 7304   1.201   6.294   4.022
 2135SOL    HW2 7305   1.142   6.352   4.163
 2136SOL     OW 7306   1.353   4.563   3.908
 2136SOL    HW1 7307   1.411   4.630   3.861
 2136SOL    HW2 7308   1.319   4.602   3.993
 2137SOL     OW 7309   0.251   0.496   3.946
 2137SOL    HW1 7310   0.302   0.471   4.028
 2137SOL    HW2 7311   0.295   0.455   3.865
 2138SOL     OW 7312   1.029   2.243   5.786
 2138SOL    HW1 7313   1.042   2.148   5.758
 2138SOL    HW2 7314   1.020   2.247   5.886
 2139SOL     OW 7315   2.893   7.022   4.174
 2139SOL    HW1 7316   2.961   0.066   4.191
 2139SOL    HW2 7317   2.869   6.976   4.259
 2140SOL     OW 7318   1.284   5.874   3.899
 2140SOL    HW1 7319   1.197   5.870   3.849
 2140SOL    HW2 7320   1.289   5.960   3.948
 2141SOL     OW 7321   6.256   2.212   6.693
 2141SOL    HW1 7322   6.219   2.132   6.739
 2141SOL    HW2 7323   6.339   2.242   6.740
 2142SOL     OW 7324   3.479   1.042   3.460
 2142SOL    HW1 7325   3.491   0.966   3.524
 2142SOL    HW2 7326   3.407   1.020   3.394
 2143SOL     OW 7327   3.814   6.300   0.129
 2143SOL    HW1 7328   3.852   6.391   0.111
 2143SOL    HW2 7329   3.715   6.301   0.113
 2144SOL     OW 7330   1.111   0.909   1.729
 2144SOL    HW1 7331   1.074   0.985   1.782
 2144SOL    HW2 7332   1.191   0.940   1.677
 2145SOL     OW 7333   2.693   5.726   2.709
 2145SOL    HW1 7334   2.632   5.744   2.632
 2145SOL    HW2 7335   2.701   5.808   2.765
 2146SOL     OW 7336   2.686   1.777   1.023
 2146SOL    HW1 7337   2.651   1.850   1.081
 2146SOL    HW2 7338   2.611   1.738   0.970
 2147SOL     OW 7339   0.173   1.020   4.483
 2147SOL    HW1 7340   0.230   0.967   4.546
 2147SOL    HW2 7341   0.139   1.102   4.529
 2148SOL     OW 7342   5.760   3.709   4.450
 2148SOL    HW1 7343   5.860   3.715   4.450
 2148SOL    HW2 7344   5.729   3.683   4.541
 2149SOL     OW 7345   3.116   0.311   3.250
 2149SOL    HW1 7346   3.155   0.320   3.159
 2149SOL    HW2 7347   3.020   0.284   3.243
 2150SOL     OW 7348   4.468   0.123   3.486
 2150SOL    HW1 7349   4.490   0.189   3.414
 2150SOL    HW2 7350   4.505   0.156   3.574
 2151SOL     OW 7351   3.890   4.319   5.646
 2151SOL    HW1 7352   3.839   4.405   5.639
 2151SOL    HW2 7353   3.889   4.287   5.741
 2152SOL     OW 7354   6.777   6.544   2.468
 2152SOL    HW1 7355   6.875   6.563   2.465
 2152SOL    HW2 7356   6.763   6.446   2.481
 2153SOL     OW 7357   4.884   1.889   3.437
 2153SOL    HW1 7358   4.898   1.984   3.409
 2153SOL    HW2 7359   4.896   1.881   3.536
 2154SOL     OW 7360   4.088   6.525   5.183
 2154SOL    HW1 7361   4.058   6.617   5.157
 2154SOL    HW2 7362   4.152   6.532   5.260
 2155SOL     OW 7363   6.333   3.742   6.845
 2155SOL    HW1 7364   6.274   3.707   6.918
 2155SOL    HW2 7365   6.428   3.740   6.875
 2156SOL     OW 7366   0.008   0.562   1.597
 2156SOL    HW1 7367   0.000   0.642   1.537
 2156SOL    HW2 7368   6.966   0.568   1.669
 2157SOL     OW 7369   6.468   0.924   4.071
 2157SOL    HW1 7370   6.490   1.020   4.085
 2157SOL    HW2 7371   6.379   0.904   4.111
 2158SOL     OW 7372   4.933   0.201   3.654
 2158SOL    HW1 7373   4.930   0.165   3.747
 2158SOL    HW2 7374   4.935   0.301   3.657
 2159SOL     OW 7375   2.479   0.733   5.218
 2159SOL    HW1 7376   2.445   0.742   5.311
 2159SOL    HW2 7377   2.409   0.688   5.162
 2160SOL     OW 7378   2.945   2.650   0.601
 2160SOL    HW1 7379   3.035   2.616   0.576
 2160SOL    HW2 7380   2.917   2.722   0.537
 2161SOL     OW 7381   5.207   2.234   3.961
 2161SOL    HW1 7382   5.161   2.310   4.007
 2161SOL    HW2 7383   5.216   2.157   4.024
 2162SOL     OW 7384   1.954   1.027   1.182
 2162SOL    HW1 7385   2.017   1.090   1.229
 2162SOL    HW2 7386   1.860   1.049   1.209
 2163SOL     OW 7387   2.284   1.473   1.006
 2163SOL    HW1 7388   2.337   1.390   1.024
 2163SOL    HW2 7389   2.327   1.551   1.052
 2164SOL     OW 7390   6.545   0.126   1.285
 2164SOL    HW1 7391   6.468   0.113   1.347
 2164SOL    HW2 7392   6.614   0.184   1.330
 2165SOL     OW 7393   3.063   0.009   2.053
 2165SOL    HW1 7394   3.051   6.946   2.010
 2165SOL    HW2 7395   3.141   0.006   2.115
 2166SOL     OW 7396   5.699   2.585   6.010
 2166SOL    HW1 7397   5.754   2.649   6.063
 2166SOL    HW2 7398   5.743   2.568   5.921
 2167SOL     OW 7399   3.114   1.022   1.308
 2167SOL    HW1 7400   3.186   1.092   1.312
 2167SOL    HW2 7401   3.076   1.008   1.399
 2168SOL     OW 7402   6.048   6.487   4.602
 2168SOL    HW1 7403   6.117   6.444   4.544
 2168SOL    HW2 7404   5.966   6.505   4.547
 2169SOL     OW 7405   5.562   1.246   6.132
 2169SOL    HW1 7406   5.494   1.318   6.121
 2169SOL    HW2 7407   5.627   1.250   6.056
 2170SOL     OW 7408   5.246   4.486   4.696
 2170SOL    HW1 7409   5.327   4.476   4.639
 2170SOL    HW2 7410   5.167   4.444   4.650
 2171SOL     OW 7411   6.896   3.473   0.270
 2171SOL    HW1 7412   6.886   3.568   0.299
 2171SOL    HW2 7413   6.947   3.470   0.184
 2172SOL     OW 7414   2.223   0.320   1.982
 2172SOL    HW1 7415   2.300   0.330   1.919
 2172SOL    HW2 7416   2.147   0.378   1.951
 2173SOL     OW 7417   4.737   2.315   4.765
 2173SOL    HW1 7418   4.738   2.215   4.770
 2173SOL    HW2 7419   4.734   2.353   4.857
 2174SOL     OW 7420   1.329   5.396   4.731
 2174SOL    HW1 7421   1.317   5.297   4.744
 2174SOL    HW2 7422   1.382   5.413   4.648
 2175SOL     OW 7423   1.821   6.020   5.684
 2175SOL    HW1 7424   1.845   5.982   5.594
 2175SOL    HW2 7425   1.838   6.118   5.685
 2176SOL     OW 7426   1.773   2.495   2.842
 2176SOL    HW1 7427   1.783   2.399   2.868
 2176SOL    HW2 7428   1.848   2.521   2.780
 2177SOL     OW 7429   0.848   2.273   1.243
 2177SOL    HW1 7430   0.750   2.262   1.224
 2177SOL    HW2 7431   0.860   2.337   1.319
 2178SOL     OW 7432   6.388   6.543   1.255
 2178SOL    HW1 7433   6.328   6.566   1.332
 2178SOL    HW2 7434   6.480   6.525   1.290
 2179SOL     OW 7435   1.386   4.140   4.226
 2179SOL    HW1 7436   1.485   4.150   4.238
 2179SOL    HW2 7437   1.361   4.171   4.134
 2180SOL     OW 7438   3.346   2.554   1.527
 2180SOL    HW1 7439   3.307   2.647   1.531
 2180SOL    HW2 7440   3.344   2.513   1.618
 2181SOL     OW 7441   3.314   6.600   1.326
 2181SOL    HW1 7442   3.227   6.641   1.299
 2181SOL    HW2 7443   3.383   6.616   1.256
 2182SOL     OW 7444   4.749   2.609   1.182
 2182SOL    HW1 7445   4.844   2.584   1.200
 2182SOL    HW2 7446   4.746   2.693   1.128
 2183SOL     OW 7447   3.389   2.084   0.702
 2183SOL    HW1 7448   3.439   2.050   0.622
 2183SOL    HW2 7449   3.296   2.107   0.675
 2184SOL     OW 7450   4.847   3.129   6.645
 2184SOL    HW1 7451   4.920   3.062   6.634
 2184SOL    HW2 7452   4.865   3.209   6.587
 2185SOL     OW 7453   6.925   6.716   1.990
 2185SOL    HW1 7454   6.989   6.703   1.914
 2185SOL    HW2 7455   6.966   6.680   2.074
 2186SOL     OW 7456   0.426   4.439   3.456
 2186SOL    HW1 7457   0.474   4.502   3.396
 2186SOL    HW2 7458   0.407   4.354   3.407
 2187SOL     OW 7459   6.355   1.310   0.394
 2187SOL    HW1 7460   6.442   1.347   0.362
 2187SOL    HW2 7461   6.305   1.269   0.318
 2188SOL     OW 7462   4.787   1.258   4.036
 2188SOL    HW1 7463   4.772   1.311   3.952
 2188SOL    HW2 7464   4.865   1.295   4.085
 2189SOL     OW 7465   2.897   0.163   6.778
 2189SOL    HW1 7466   2.928   0.163   6.683
 2189SOL    HW2 7467   2.866   0.072   6.803
 2190SOL     OW 7468   4.796   2.834   1.024
 2190SOL    HW1 7469   4.812   2.925   1.064
 2190SOL    HW2 7470   4.870   2.813   0.960
 2191SOL     OW 7471   2.478   1.777   0.405
 2191SOL    HW1 7472   2.466   1.745   0.311
 2191SOL    HW2 7473   2.393   1.766   0.456
 2192SOL     OW 7474   3.913   5.528   2.562
 2192SOL    HW1 7475   3.828   5.580   2.555
 2192SOL    HW2 7476   3.904   5.440   2.516
 2193SOL     OW 7477   6.662   6.048   4.693
 2193SOL    HW1 7478   6.646   6.134   4.643
 2193SOL    HW2 7479   6.679   5.975   4.628
 2194SOL     OW 7480   2.838   0.139   2.021
 2194SOL    HW1 7481   2.924   0.090   2.034
 2194SOL    HW2 7482   2.837   0.178   1.929
 2195SOL     OW 7483   0.879   4.684   1.930
 2195SOL    HW1 7484   0.849   4.650   1.840
 2195SOL    HW2 7485   0.799   4.711   1.983
 2196SOL     OW 7486   4.207   3.259   0.645
 2196SOL    HW1 7487   4.259   3.226   0.567
 2196SOL    HW2 7488   4.174   3.181   0.699
 2197SOL     OW 7489   4.332   4.112   6.933
 2197SOL    HW1 7490   4.265   4.143   7.000
 2197SOL    HW2 7491   4.413   4.171   6.938
 2198SOL     OW 7492   6.491   4.612   0.648
 2198SOL    HW1 7493   6.433   4.680   0.692
 2198SOL    HW2 7494   6.438   4.530   0.628
 2199SOL     OW 7495   4.600   1.072   3.193
 2199SOL    HW1 7496   4.573   1.026   3.109
 2199SOL    HW2 7497   4.700   1.081   3.196
 2200SOL     OW 7498   2.843   6.885   4.404
 2200SOL    HW1 7499   2.846   6.909   4.501
 2200SOL    HW2 7500   2.869   6.789   4.393
 2201SOL     OW 7501   4.685   4.224   4.315
 2201SOL    HW1 7502   4.639   4.312   4.302
 2201SOL    HW2 7503   4.617   4.154   4.338
 2202SOL     OW 7504   4.610   5.516   3.888
 2202SOL    HW1 7505   4.702   5.516   3.927
 2202SOL    HW2 7506   4.547   5.560   3.951
 2203SOL     OW 7507   3.132   2.144   2.690
 2203SOL    HW1 7508   3.044   2.130   2.734
 2203SOL    HW2 7509   3.203   2.151   2.760
 2204SOL     OW 7510   2.710   2.346   0.361
 2204SOL    HW1 7511   2.626   2.306   0.325
 2204SOL    HW2 7512   2.690   2.393   0.448
 2205SOL     OW 7513   2.853   0.733   1.776
 2205SOL    HW1 7514   2.827   0.807   1.838
 2205SOL    HW2 7515   2.910   0.667   1.825
 2206SOL     OW 7516   1.691   3.078   0.348
 2206SOL    HW1 7517   1.713   3.167   0.308
 2206SOL    HW2 7518   1.775   3.036   0.383
 2207SOL     OW 7519   0.161   4.958   4.944
 2207SOL    HW1 7520   0.116   5.039   4.907
 2207SOL    HW2 7521   0.260   4.971   4.940
 2208SOL     OW 7522   6.709   4.904   2.300
 2208SOL    HW1 7523   6.724   4.899   2.399
 2208SOL    HW2 7524   6.731   4.996   2.268
 2209SOL     OW 7525   0.690   0.067   1.872
 2209SOL    HW1 7526   0.744   0.075   1.788
 2209SOL    HW2 7527   0.594   0.052   1.848
 2210SOL     OW 7528   1.966   5.074   3.646
 2210SOL    HW1 7529   1.923   5.072   3.736
 2210SOL    HW2 7530   1.896   5.070   3.575
 2211SOL     OW 7531   6.840   1.655   5.054
 2211SOL    HW1 7532   6.906   1.730   5.051
 2211SOL    HW2 7533   6.883   1.572   5.019
 2212SOL     OW 7534   1.884   6.562   6.378
 2212SOL    HW1 7535   1.797   6.513   6.384
 2212SOL    HW2 7536   1.958   6.497   6.359
 2213SOL     OW 7537   3.778   0.887   3.295
 2213SOL    HW1 7538   3.746   0.836   3.374
 2213SOL    HW2 7539   3.763   0.985   3.311
 2214SOL     OW 7540   4.365   0.090   5.019
 2214SOL    HW1 7541   4.338   0.077   4.924
 2214SOL    HW2 7542   4.317   0.025   5.078
 2215SOL     OW 7543   5.785   2.246   5.435
 2215SOL    HW1 7544   5.784   2.237   5.335
 2215SOL    HW2 7545   5.874   2.282   5.464
 2216SOL     OW 7546   3.107   0.857   2.397
 2216SOL    HW1 7547   3.197   0.885   2.430
 2216SOL    HW2 7548   3.047   0.937   2.395
 2217SOL     OW 7549   4.437   1.080   1.871
 2217SOL    HW1 7550   4.371   1.009   1.847
 2217SOL    HW2 7551   4.418   1.163   1.817
 2218SOL     OW 7552   0.878   0.504   2.788
 2218SOL    HW1 7553   0.809   0.568   2.824
 2218SOL    HW2 7554   0.945   0.555   2.734
 2219SOL     OW 7555   1.569   1.951   2.564
 2219SOL    HW1 7556   1.566   1.978   2.660
 2219SOL    HW2 7557   1.565   2.033   2.506
 2220SOL     OW 7558   0.886   0.775   1.727
 2220SOL    HW1 7559   0.878   0.733   1.817
 2220SOL    HW2 7560   0.967   0.833   1.725
 2221SOL     OW 7561   0.486   0.443   6.085
 2221SOL    HW1 7562   0.390   0.431   6.108
 2221SOL    HW2 7563   0.519   0.529   6.126
 2222SOL     OW 7564   6.475   5.389   3.234
 2222SOL    HW1 7565   6.388   5.380   3.186
 2222SOL    HW2 7566   6.488   5.483   3.263
 2223SOL     OW 7567   6.825   6.580   1.583
 2223SOL    HW1 7568   6.796   6.491   1.619
 2223SOL    HW2 7569   6.812   6.650   1.653
 2224SOL     OW 7570   1.025   5.070   1.115
 2224SOL    HW1 7571   1.025   5.091   1.017
 2224SOL    HW2 7572   0.986   5.147   1.165
 2225SOL     OW 7573   0.483   3.743   0.650
 2225SOL    HW1 7574   0.536   3.740   0.565
 2225SOL    HW2 7575   0.477   3.837   0.683
 2226SOL     OW 7576   3.738   3.879   2.627
 2226SOL    HW1 7577   3.739   3.815   2.703
 2226SOL    HW2 7578   3.708   3.969   2.659
 2227SOL     OW 7579   0.969   2.772   4.135
 2227SOL    HW1 7580   0.982   2.693   4.076
 2227SOL    HW2 7581   0.910   2.747   4.212
 2228SOL     OW 7582   2.742   4.674   3.932
 2228SOL    HW1 7583   2.753   4.575   3.929
 2228SOL    HW2 7584   2.692   4.700   4.015
 2229SOL     OW 7585   5.708   6.401   2.987
 2229SOL    HW1 7586   5.640   6.432   2.921
 2229SOL    HW2 7587   5.793   6.379   2.939
 2230SOL     OW 7588   2.813   5.096   1.773
 2230SOL    HW1 7589   2.885   5.088   1.841
 2230SOL    HW2 7590   2.797   5.193   1.753
 2231SOL     OW 7591   2.029   6.174   1.272
 2231SOL    HW1 7592   2.043   6.075   1.270
 2231SOL    HW2 7593   2.077   6.213   1.351
 2232SOL     OW 7594   5.585   2.875   3.715
 2232SOL    HW1 7595   5.665   2.928   3.687
 2232SOL    HW2 7596   5.613   2.805   3.781
 2233SOL     OW 7597   3.192   1.192   6.331
 2233SOL    HW1 7598   3.279   1.200   6.379
 2233SOL    HW2 7599   3.205   1.216   6.235
 2234SOL     OW 7600   3.543   2.393   1.064
 2234SOL    HW1 7601   3.462   2.374   1.120
 2234SOL    HW2 7602   3.520   2.385   0.967
 2235SOL     OW 7603   1.932   2.059   1.732
 2235SOL    HW1 7604   1.843   2.016   1.717
 2235SOL    HW2 7605   1.958   2.048   1.828
 2236SOL     OW 7606   1.633   4.963   5.560
 2236SOL    HW1 7607   1.660   5.001   5.471
 2236SOL    HW2 7608   1.566   4.890   5.547
 2237SOL     OW 7609   6.226   3.234   4.448
 2237SOL    HW1 7610   6.260   3.292   4.522
 2237SOL    HW2 7611   6.302   3.183   4.408
 2238SOL     OW 7612   5.990   6.505   0.614
 2238SOL    HW1 7613   6.021   6.480   0.523
 2238SOL    HW2 7614   5.893   6.484   0.624
 2239SOL     OW 7615   6.155   6.003   1.881
 2239SOL    HW1 7616   6.113   6.037   1.965
 2239SOL    HW2 7617   6.255   6.002   1.892
 2240SOL     OW 7618   6.231   3.776   1.912
 2240SOL    HW1 7619   6.310   3.799   1.969
 2240SOL    HW2 7620   6.220   3.845   1.840
 2241SOL     OW 7621   1.179   0.652   3.336
 2241SOL    HW1 7622   1.196   0.607   3.424
 2241SOL    HW2 7623   1.219   0.597   3.262
 2242SOL     OW 7624   3.571   1.768   2.344
 2242SOL    HW1 7625   3.617   1.831   2.407
 2242SOL    HW2 7626   3.626   1.758   2.261
 2243SOL     OW 7627   2.796   0.045   5.198
 2243SOL    HW1 7628   2.768   7.002   5.131
 2243SOL    HW2 7629   2.728   0.049   5.271
 2244SOL     OW 7630   3.423   1.298   4.628
 2244SOL    HW1 7631   3.478   1.342   4.699
 2244SOL    HW2 7632   3.371   1.367   4.578
 2245SOL     OW 7633   0.280   2.383   1.927
 2245SOL    HW1 7634   0.306   2.289   1.950
 2245SOL    HW2 7635   0.186   2.399   1.956
 2246SOL     OW 7636   1.313   4.798   5.236
 2246SOL    HW1 7637   1.296   4.845   5.149
 2246SOL    HW2 7638   1.261   4.842   5.308
 2247SOL     OW 7639   1.633   1.106   4.824
 2247SOL    HW1 7640   1.708   1.144   4.771
 2247SOL    HW2 7641   1.664   1.024   4.873
 2248SOL     OW 7642   4.253   3.912   5.645
 2248SOL    HW1 7643   4.181   3.957   5.591
 2248SOL    HW2 7644   4.293   3.838   5.592
 2249SOL     OW 7645   4.133   5.542   5.539
 2249SOL    HW1 7646   4.047   5.561   5.493
 2249SOL    HW2 7647   4.141   5.443   5.556
 2250SOL     OW 7648   4.347   4.960   1.333
 2250SOL    HW1 7649   4.418   4.956   1.264
 2250SOL    HW2 7650   4.385   4.996   1.419
 2251SOL     OW 7651   0.204   0.449   6.517
 2251SOL    HW1 7652   0.278   0.500   6.475
 2251SOL    HW2 7653   0.240   0.390   6.589
 2252SOL     OW 7654   3.225   0.427   6.149
 2252SOL    HW1 7655   3.309   0.445   6.200
 2252SOL    HW2 7656   3.229   0.473   6.060
 2253SOL     OW 7657   0.984   3.855   6.558
 2253SOL    HW1 7658   0.989   3.880   6.654
 2253SOL    HW2 7659   0.898   3.890   6.519
 2254SOL     OW 7660   1.731   4.553   6.526
 2254SOL    HW1 7661   1.634   4.536   6.513
 2254SOL    HW2 7662   1.750   4.650   6.512
 2255SOL     OW 7663   6.166   3.351   6.705
 2255SOL    HW1 7664   6.248   3.337   6.760
 2255SOL    HW2 7665   6.085   3.339   6.762
 2256SOL     OW 7666   2.578   4.565   2.148
 2256SOL    HW1 7667   2.606   4.494   2.213
 2256SOL    HW2 7668   2.657   4.597   2.096
 2257SOL     OW 7669   1.853   4.004   4.999
 2257SOL    HW1 7670   1.943   3.968   4.975
 2257SOL    HW2 7671   1.848   4.019   5.098
 2258SOL     OW 7672   2.303   5.190   4.895
 2258SOL    HW1 7673   2.272   5.279   4.928
 2258SOL    HW2 7674   2.247   5.162   4.817
 2259SOL     OW 7675   6.012   3.119   6.607
 2259SOL    HW1 7676   6.077   3.188   6.574
 2259SOL    HW2 7677   5.933   3.117   6.546
 2260SOL     OW 7678   4.119   2.913   1.068
 2260SOL    HW1 7679   4.215   2.884   1.069
 2260SOL    HW2 7680   4.067   2.860   1.134
 2261SOL     OW 7681   3.033   6.410   5.075
 2261SOL    HW1 7682   2.960   6.345   5.056
 2261SOL    HW2 7683   3.110   6.393   5.013
 2262SOL     OW 7684   3.665   1.590   3.104
 2262SOL    HW1 7685   3.752   1.639   3.109
 2262SOL    HW2 7686   3.591   1.650   3.134
 2263SOL     OW 7687   1.016   4.418   6.005
 2263SOL    HW1 7688   1.002   4.485   6.078
 2263SOL    HW2 7689   0.968   4.333   6.028
 2264SOL     OW 7690   3.102   3.639   3.575
 2264SOL    HW1 7691   3.043   3.600   3.647
 2264SOL    HW2 7692   3.068   3.729   3.549
 2265SOL     OW 7693   0.259   6.820   3.323
 2265SOL    HW1 7694   0.178   6.830   3.381
 2265SOL    HW2 7695   0.340   6.812   3.381
 2266SOL     OW 7696   6.444   0.627   6.086
 2266SOL    HW1 7697   6.443   0.532   6.055
 2266SOL    HW2 7698   6.462   0.688   6.008
 2267SOL     OW 7699   5.095   1.989   5.113
 2267SOL    HW1 7700   5.069   1.902   5.155
 2267SOL    HW2 7701   5.182   2.021   5.153
 2268SOL     OW 7702   6.711   5.677   6.870
 2268SOL    HW1 7703   6.764   5.745   6.819
 2268SOL    HW2 7704   6.619   5.672   6.832
 2269SOL     OW 7705   0.114   0.008   3.192
 2269SOL    HW1 7706   0.059   0.084   3.227
 2269SOL    HW2 7707   0.168   6.996   3.267
 2270SOL     OW 7708   3.495   3.113   3.222
 2270SOL    HW1 7709   3.564   3.185   3.226
 2270SOL    HW2 7710   3.513   3.053   3.145
 2271SOL     OW 7711   1.130   4.570   3.278
 2271SOL    HW1 7712   1.171   4.659   3.258
 2271SOL    HW2 7713   1.139   4.550   3.376
 2272SOL     OW 7714   5.186   1.686   5.734
 2272SOL    HW1 7715   5.086   1.677   5.735
 2272SOL    HW2 7716   5.212   1.769   5.784
 2273SOL     OW 7717   0.387   1.018   2.767
 2273SOL    HW1 7718   0.479   1.002   2.733
 2273SOL    HW2 7719   0.391   1.042   2.864
 2274SOL     OW 7720   1.118   4.550   3.545
 2274SOL    HW1 7721   1.178   4.470   3.552
 2274SOL    HW2 7722   1.093   4.580   3.637
 2275SOL     OW 7723   4.650   6.293   3.857
 2275SOL    HW1 7724   4.738   6.287   3.810
 2275SOL    HW2 7725   4.621   6.388   3.861
 2276SOL     OW 7726   3.484   5.815   2.199
 2276SOL    HW1 7727   3.486   5.837   2.296
 2276SOL    HW2 7728   3.446   5.892   2.148
 2277SOL     OW 7729   3.369   3.266   1.390
 2277SOL    HW1 7730   3.394   3.360   1.365
 2277SOL    HW2 7731   3.379   3.206   1.311
 2278SOL     OW 7732   4.115   5.952   1.640
 2278SOL    HW1 7733   4.209   5.971   1.610
 2278SOL    HW2 7734   4.052   5.968   1.564
 2279SOL     OW 7735   5.628   4.113   5.829
 2279SOL    HW1 7736   5.696   4.094   5.899
 2279SOL    HW2 7737   5.632   4.210   5.804
 2280SOL     OW 7738   5.284   0.264   5.933
 2280SOL    HW1 7739   5.274   0.235   5.838
 2280SOL    HW2 7740   5.371   0.310   5.945
 2281SOL     OW 7741   2.091   1.457   0.255
 2281SOL    HW1 7742   2.078   1.377   0.313
 2281SOL    HW2 7743   2.188   1.468   0.234
 2282SOL     OW 7744   3.779   5.978   2.430
 2282SOL    HW1 7745   3.763   5.889   2.387
 2282SOL    HW2 7746   3.752   6.051   2.367
 2283SOL     OW 7747   0.667   3.644   1.910
 2283SOL    HW1 7748   0.687   3.572   1.977
 2283SOL    HW2 7749   0.590   3.699   1.942
 2284SOL     OW 7750   2.198   1.977   2.061
 2284SOL    HW1 7751   2.248   2.054   2.022
 2284SOL    HW2 7752   2.102   2.003   2.072
 2285SOL     OW 7753   1.758   3.412   6.511
 2285SOL    HW1 7754   1.820   3.465   6.453
 2285SOL    HW2 7755   1.690   3.473   6.551
 2286SOL     OW 7756   6.599   6.487   4.277
 2286SOL    HW1 7757   6.678   6.533   4.318
 2286SOL    HW2 7758   6.624   6.457   4.184
 2287SOL     OW 7759   2.186   1.964   0.615
 2287SOL    HW1 7760   2.189   1.945   0.713
 2287SOL    HW2 7761   2.187   1.877   0.565
 2288SOL     OW 7762   2.754   5.640   4.978
 2288SOL    HW1 7763   2.835   5.617   5.032
 2288SOL    HW2 7764   2.717   5.556   4.936
 2289SOL     OW 7765   3.810   0.701   6.901
 2289SOL    HW1 7766   3.877   0.643   6.856
 2289SOL    HW2 7767   3.756   0.750   6.833
 2290SOL     OW 7768   3.248   3.837   4.361
 2290SOL    HW1 7769   3.225   3.879   4.273
 2290SOL    HW2 7770   3.347   3.838   4.373
 2291SOL     OW 7771   2.012   2.431   0.088
 2291SOL    HW1 7772   2.036   2.519   0.130
 2291SOL    HW2 7773   1.919   2.406   0.114
 2292SOL     OW 7774   4.746   1.846   3.065
 2292SOL    HW1 7775   4.711   1.935   3.036
 2292SOL    HW2 7776   4.736   1.836   3.164
 2293SOL     OW 7777   0.708   1.101   6.473
 2293SOL    HW1 7778   0.787   1.135   6.422
 2293SOL    HW2 7779   0.732   1.091   6.569
 2294SOL     OW 7780   6.898   1.386   5.043
 2294SOL    HW1 7781   6.799   1.380   5.048
 2294SOL    HW2 7782   6.939   1.311   5.097
 2295SOL     OW 7783   5.578   5.796   0.790
 2295SOL    HW1 7784   5.558   5.794   0.693
 2295SOL    HW2 7785   5.594   5.703   0.824
 2296SOL     OW 7786   3.712   5.557   4.587
 2296SOL    HW1 7787   3.741   5.580   4.494
 2296SOL    HW2 7788   3.783   5.583   4.651
 2297SOL     OW 7789   6.351   3.580   5.881
 2297SOL    HW1 7790   6.270   3.605   5.935
 2297SOL    HW2 7791   6.334   3.495   5.833
 2298SOL     OW 7792   2.656   3.274   5.296
 2298SOL    HW1 7793   2.595   3.350   5.319
 2298SOL    HW2 7794   2.602   3.192   5.281
 2299SOL     OW 7795   5.705   3.566   4.677
 2299SOL    HW1 7796   5.753   3.486   4.714
 2299SOL    HW2 7797   5.606   3.549   4.679
 2300SOL     OW 7798   5.355   0.228   2.927
 2300SOL    HW1 7799   5.404   0.229   2.840
 2300SOL    HW2 7800   5.410   0.180   2.996
 2301SOL     OW 7801   3.764   3.330   5.045
 2301SOL    HW1 7802   3.684   3.305   5.100
 2301SOL    HW2 7803   3.741   3.407   4.986
 2302SOL     OW 7804   6.136   2.994   6.249
 2302SOL    HW1 7805   6.041   3.020   6.266
 2302SOL    HW2 7806   6.194   3.026   6.324
 2303SOL     OW 7807   2.985   1.705   6.755
 2303SOL    HW1 7808   3.047   1.640   6.798
 2303SOL    HW2 7809   2.895   1.662   6.744
 2304SOL     OW 7810   6.636   0.048   2.269
 2304SOL    HW1 7811   6.586   6.989   2.281
 2304SOL    HW2 7812   6.689   0.068   2.352
 2305SOL     OW 7813   2.989   6.817   5.270
 2305SOL    HW1 7814   3.004   6.788   5.175
 2305SOL    HW2 7815   3.023   6.910   5.283
 2306SOL     OW 7816   1.915   4.555   4.966
 2306SOL    HW1 7817   1.841   4.502   5.008
 2306SOL    HW2 7818   1.889   4.582   4.874
 2307SOL     OW 7819   7.019   3.752   4.917
 2307SOL    HW1 7820   6.978   3.696   4.844
 2307SOL    HW2 7821   0.024   3.692   4.990
 2308SOL     OW 7822   0.511   5.489   2.395
 2308SOL    HW1 7823   0.521   5.536   2.482
 2308SOL    HW2 7824   0.574   5.411   2.393
 2309SOL     OW 7825   2.240   0.468   4.816
 2309SOL    HW1 7826   2.278   0.553   4.781
 2309SOL    HW2 7827   2.224   0.404   4.741
 2310SOL     OW 7828   4.432   7.001   0.483
 2310SOL    HW1 7829   4.459   0.047   0.546
 2310SOL    HW2 7830   4.340   6.969   0.505
 2311SOL     OW 7831   2.250   5.635   0.690
 2311SOL    HW1 7832   2.312   5.559   0.669
 2311SOL    HW2 7833   2.212   5.622   0.782
 2312SOL     OW 7834   3.565   4.954   2.837
 2312SOL    HW1 7835   3.636   4.958   2.908
 2312SOL    HW2 7836   3.507   5.035   2.844
 2313SOL     OW 7837   4.998   4.503   1.643
 2313SOL    HW1 7838   4.999   4.495   1.743
 2313SOL    HW2 7839   4.912   4.465   1.608
 2314SOL     OW 7840   2.562   4.599   3.622
 2314SOL    HW1 7841   2.508   4.561   3.696
 2314SOL    HW2 7842   2.620   4.673   3.657
 2315SOL     OW 7843   4.794   1.956   0.091
 2315SOL    HW1 7844   4.764   1.935   0.184
 2315SOL    HW2 7845   4.821   1.871   0.045
 2316SOL     OW 7846   4.994   3.347   2.123
 2316SOL    HW1 7847   4.955   3.406   2.193
 2316SOL    HW2 7848   5.081   3.310   2.155
 2317SOL     OW 7849   0.721   6.137   3.392
 2317SOL    HW1 7850   0.653   6.210   3.388
 2317SOL    HW2 7851   0.708   6.075   3.315
 2318SOL     OW 7852   0.260   1.610   3.974
 2318SOL    HW1 7853   0.219   1.521   3.993
 2318SOL    HW2 7854   0.198   1.666   3.920
 2319SOL     OW 7855   1.217   4.742   1.733
 2319SOL    HW1 7856   1.201   4.810   1.805
 2319SOL    HW2 7857   1.223   4.651   1.775
 2320SOL     OW 7858   6.465   4.695   4.545
 2320SOL    HW1 7859   6.370   4.721   4.565
 2320SOL    HW2 7860   6.487   4.610   4.592
 2321SOL     OW 7861   4.062   5.253   4.406
 2321SOL    HW1 7862   4.150   5.212   4.380
 2321SOL    HW2 7863   4.033   5.317   4.335
 2322SOL     OW 7864   2.679   0.677   4.412
 2322SOL    HW1 7865   2.681   0.581   4.385
 2322SOL    HW2 7866   2.592   0.718   4.383
 2323SOL     OW 7867   4.930   3.578   1.961
 2323SOL    HW1 7868   4.911   3.562   2.058
 2323SOL    HW2 7869   5.026   3.561   1.943
 2324SOL     OW 7870   0.637   4.994   4.011
 2324SOL    HW1 7871   0.579   5.023   3.935
 2324SOL    HW2 7872   0.586   5.002   4.097
 2325SOL     OW 7873   0.258   2.552   0.053
 2325SOL    HW1 7874   0.223   2.639   0.017
 2325SOL    HW2 7875   0.310   2.569   0.137
 2326SOL     OW 7876   0.653   4.331   0.318
 2326SOL    HW1 7877   0.683   4.406   0.376
 2326SOL    HW2 7878   0.622   4.255   0.375
 2327SOL     OW 7879   5.112   1.223   3.615
 2327SOL    HW1 7880   5.172   1.153   3.655
 2327SOL    HW2 7881   5.119   1.307   3.669
 2328SOL     OW 7882   6.229   5.213   3.871
 2328SOL    HW1 7883   6.146   5.211   3.927
 2328SOL    HW2 7884   6.258   5.307   3.857
 2329SOL     OW 7885   1.129   5.999   3.412
 2329SOL    HW1 7886   1.066   6.021   3.486
 2329SOL    HW2 7887   1.222   5.992   3.449
 2330SOL     OW 7888   0.831   4.381   0.720
 2330SOL    HW1 7889   0.834   4.294   0.670
 2330SOL    HW2 7890   0.921   4.424   0.719
 2331SOL     OW 7891   1.422   4.549   5.413
 2331SOL    HW1 7892   1.353   4.566   5.343
 2331SOL    HW2 7893   1.437   4.632   5.466
 2332SOL     OW 7894   5.224   3.009   5.760
 2332SOL    HW1 7895   5.141   2.954   5.752
 2332SOL    HW2 7896   5.304   2.950   5.752
 2333SOL     OW 7897   2.732   4.807   3.698
 2333SOL    HW1 7898   2.788   4.889   3.711
 2333SOL    HW2 7899   2.734   4.752   3.781
 2334SOL     OW 7900   2.823   0.355   6.395
 2334SOL    HW1 7901   2.769   0.420   6.447
 2334SOL    HW2 7902   2.769   0.272   6.379
 2335SOL     OW 7903   4.450   4.555   4.555
 2335SOL    HW1 7904   4.385   4.625   4.584
 2335SOL    HW2 7905   4.483   4.505   4.634
 2336SOL     OW 7906   4.279   2.762   5.816
 2336SOL    HW1 7907   4.352   2.830   5.814
 2336SOL    HW2 7908   4.281   2.708   5.732
 2337SOL     OW 7909   6.099   0.370   4.572
 2337SOL    HW1 7910   6.188   0.362   4.528
 2337SOL    HW2 7911   6.110   0.365   4.671
 2338SOL     OW 7912   1.658   6.930   6.667
 2338SOL    HW1 7913   1.744   6.977   6.690
 2338SOL    HW2 7914   1.581   6.988   6.693
 2339SOL     OW 7915   4.236   5.142   0.193
 2339SOL    HW1 7916   4.137   5.135   0.175
 2339SOL    HW2 7917   4.275   5.213   0.135
 2340SOL     OW 7918   3.603   5.193   4.436
 2340SOL    HW1 7919   3.619   5.242   4.351
 2340SOL    HW2 7920   3.690   5.178   4.483
 2341SOL     OW 7921   5.628   5.270   6.351
 2341SOL    HW1 7922   5.702   5.209   6.380
 2341SOL    HW2 7923   5.571   5.294   6.430
 2342SOL     OW 7924   6.616   0.430   5.231
 2342SOL    HW1 7925   6.660   0.340   5.233
 2342SOL    HW2 7926   6.684   0.500   5.209
 2343SOL     OW 7927   1.080   0.219   0.178
 2343SOL    HW1 7928   1.108   0.123   0.180
 2343SOL    HW2 7929   1.153   0.276   0.214
 2344SOL     OW 7930   2.511   1.027   2.580
 2344SOL    HW1 7931   2.463   1.002   2.664
 2344SOL    HW2 7932   2.609   1.017   2.593
 2345SOL     OW 7933   0.870   1.976   2.186
 2345SOL    HW1 7934   0.957   2.023   2.170
 2345SOL    HW2 7935   0.795   2.042   2.179
 2346SOL     OW 7936   4.718   3.131   5.283
 2346SOL    HW1 7937   4.718   3.228   5.307
 2346SOL    HW2 7938   4.747   3.077   5.362
 2347SOL     OW 7939   1.795   3.271   0.932
 2347SOL    HW1 7940   1.882   3.312   0.960
 2347SOL    HW2 7941   1.769   3.306   0.842
 2348SOL     OW 7942   2.414   6.951   1.718
 2348SOL    HW1 7943   2.331   6.953   1.774
 2348SOL    HW2 7944   2.489   6.910   1.771
 2349SOL     OW 7945   4.703   3.941   6.946
 2349SOL    HW1 7946   4.686   4.030   6.989
 2349SOL    HW2 7947   4.712   3.953   6.847
 2350SOL     OW 7948   2.671   6.405   5.131
 2350SOL    HW1 7949   2.705   6.485   5.081
 2350SOL    HW2 7950   2.737   6.331   5.123
 2351SOL     OW 7951   1.636   5.102   3.137
 2351SOL    HW1 7952   1.589   5.176   3.185
 2351SOL    HW2 7953   1.580   5.070   3.061
 2352SOL     OW 7954   5.999   5.000   0.782
 2352SOL    HW1 7955   5.901   5.006   0.768
 2352SOL    HW2 7956   6.046   5.068   0.725
 2353SOL     OW 7957   2.400   3.850   6.222
 2353SOL    HW1 7958   2.326   3.815   6.165
 2353SOL    HW2 7959   2.447   3.924   6.173
 2354SOL     OW 7960   4.614   1.803   2.426
 2354SOL    HW1 7961   4.683   1.763   2.366
 2354SOL    HW2 7962   4.557   1.866   2.373
 2355SOL     OW 7963   0.017   1.527   1.868
 2355SOL    HW1 7964   6.974   1.588   1.905
 2355SOL    HW2 7965   0.099   1.532   1.924
 2356SOL     OW 7966   2.871   5.205   3.906
 2356SOL    HW1 7967   2.879   5.202   4.005
 2356SOL    HW2 7968   2.929   5.278   3.870
 2357SOL     OW 7969   0.964   4.835   0.650
 2357SOL    HW1 7970   1.015   4.760   0.608
 2357SOL    HW2 7971   0.974   4.831   0.749
 2358SOL     OW 7972   3.452   0.805   4.903
 2358SOL    HW1 7973   3.478   0.884   4.848
 2358SOL    HW2 7974   3.484   0.817   4.997
 2359SOL     OW 7975   2.017   2.118   5.682
 2359SOL    HW1 7976   1.923   2.123   5.714
 2359SOL    HW2 7977   2.018   2.089   5.586
 2360SOL     OW 7978   3.489   5.109   0.606
 2360SOL    HW1 7979   3.413   5.067   0.558
 2360SOL    HW2 7980   3.530   5.042   0.669
 2361SOL     OW 7981   3.548   5.936   1.255
 2361SOL    HW1 7982   3.510   6.020   1.293
 2361SOL    HW2 7983   3.576   5.952   1.160
 2362SOL     OW 7984   3.107   4.967   3.917
 2362SOL    HW1 7985   3.024   4.957   3.862
 2362SOL    HW2 7986   3.147   5.057   3.902
 2363SOL     OW 7987   1.941   3.858   1.273
 2363SOL    HW1 7988   1.929   3.945   1.321
 2363SOL    HW2 7989   2.009   3.868   1.201
 2364SOL     OW 7990   3.970   1.519   2.259
 2364SOL    HW1 7991   3.966   1.523   2.159
 2364SOL    HW2 7992   3.877   1.520   2.295
 2365SOL     OW 7993   5.215   4.214   2.969
 2365SOL    HW1 7994   5.298   4.252   2.929
 2365SOL    HW2 7995   5.226   4.206   3.068
 2366SOL     OW 7996   2.945   5.090   5.247
 2366SOL    HW1 7997   2.902   5.028   5.181
 2366SOL    HW2 7998   2.945   5.183   5.211
 2367SOL     OW 7999   5.755   5.205   5.873
 2367SOL    HW1 8000   5.704   5.205   5.787
 2367SOL    HW2 8001   5.784   5.298   5.894
 2368SOL     OW 8002   4.952   0.821   5.354
 2368SOL    HW1 8003   5.016   0.746   5.369
 2368SOL    HW2 8004   5.003   0.902   5.325
 2369SOL     OW 8005   3.905   2.132   4.100
 2369SOL    HW1 8006   3.829   2.171   4.152
 2369SOL    HW2 8007   3.940   2.052   4.148
 2370SOL     OW 8008   5.539   1.971   1.804
 2370SOL    HW1 8009   5.588   1.885   1.789
 2370SOL    HW2 8010   5.514   2.010   1.715
 2371SOL     OW 8011   1.272   6.404   1.849
 2371SOL    HW1 8012   1.293   6.401   1.751
 2371SOL    HW2 8013   1.350   6.369   1.901
 2372SOL     OW 8014   6.875   0.242   6.126
 2372SOL    HW1 8015   6.813   0.167   6.104
 2372SOL    HW2 8016   6.826   0.312   6.179
 2373SOL     OW 8017   5.769   4.706   5.837
 2373SOL    HW1 8018   5.843   4.772   5.825
 2373SOL    HW2 8019   5.793   4.642   5.910
 2374SOL     OW 8020   6.588   6.503   2.256
 2374SOL    HW1 8021   6.647   6.513   2.336
 2374SOL    HW2 8022   6.644   6.501   2.173
 2375SOL     OW 8023   1.925   0.354   4.438
 2375SOL    HW1 8024   1.858   0.412   4.484
 2375SOL    HW2 8025   1.919   0.369   4.339
 2376SOL     OW 8026   5.267   2.289   3.383
 2376SOL    HW1 8027   5.191   2.353   3.371
 2376SOL    HW2 8028   5.305   2.298   3.475
 2377SOL     OW 8029   4.173   3.705   6.070
 2377SOL    HW1 8030   4.215   3.781   6.020
 2377SOL    HW2 8031   4.100   3.664   6.016
 2378SOL     OW 8032   0.530   1.149   0.314
 2378SOL    HW1 8033   0.524   1.239   0.359
 2378SOL    HW2 8034   0.475   1.083   0.365
 2379SOL     OW 8035   0.454   5.205   2.561
 2379SOL    HW1 8036   0.497   5.118   2.538
 2379SOL    HW2 8037   0.498   5.244   2.642
 2380SOL     OW 8038   4.376   6.152   6.789
 2380SOL    HW1 8039   4.407   6.090   6.862
 2380SOL    HW2 8040   4.277   6.146   6.780
 2381SOL     OW 8041   2.016   3.228   3.957
 2381SOL    HW1 8042   2.060   3.238   3.868
 2381SOL    HW2 8043   2.074   3.174   4.017
 2382SOL     OW 8044   0.367   5.478   3.065
 2382SOL    HW1 8045   0.285   5.449   3.114
 2382SOL    HW2 8046   0.446   5.425   3.096
 2383SOL     OW 8047   4.573   4.200   5.777
 2383SOL    HW1 8048   4.550   4.249   5.693
 2383SOL    HW2 8049   4.503   4.219   5.846
 2384SOL     OW 8050   0.185   2.156   2.289
 2384SOL    HW1 8051   0.185   2.134   2.386
 2384SOL    HW2 8052   0.213   2.251   2.276
 2385SOL     OW 8053   0.186   1.096   0.044
 2385SOL    HW1 8054   0.136   1.026   0.096
 2385SOL    HW2 8055   0.165   1.086   6.974
 2386SOL     OW 8056   5.870   5.867   4.461
 2386SOL    HW1 8057   5.820   5.909   4.386
 2386SOL    HW2 8058   5.966   5.896   4.458
 2387SOL     OW 8059   0.883   1.137   4.171
 2387SOL    HW1 8060   0.806   1.165   4.228
 2387SOL    HW2 8061   0.852   1.125   4.076
 2388SOL     OW 8062   0.562   3.686   5.784
 2388SOL    HW1 8063   0.632   3.722   5.721
 2388SOL    HW2 8064   0.560   3.743   5.867
 2389SOL     OW 8065   4.251   5.455   3.075
 2389SOL    HW1 8066   4.275   5.380   3.137
 2389SOL    HW2 8067   4.164   5.435   3.031
 2390SOL     OW 8068   4.887   2.440   6.694
 2390SOL    HW1 8069   4.895   2.499   6.614
 2390SOL    HW2 8070   4.965   2.456   6.755
 2391SOL     OW 8071   3.304   3.697   6.765
 2391SOL    HW1 8072   3.205   3.703   6.761
 2391SOL    HW2 8073   3.335   3.710   6.859
 2392SOL     OW 8074   4.029   4.954   5.778
 2392SOL    HW1 8075   4.108   4.924   5.724
 2392SOL    HW2 8076   4.021   5.054   5.772
 2393SOL     OW 8077   3.887   4.405   0.572
 2393SOL    HW1 8078   3.810   4.468   0.572
 2393SOL    HW2 8079   3.947   4.424   0.494
 2394SOL     OW 8080   6.303   1.689   3.536
 2394SOL    HW1 8081   6.380   1.626   3.525
 2394SOL    HW2 8082   6.316   1.742   3.620
 2395SOL     OW 8083   1.416   2.815   3.714
 2395SOL    HW1 8084   1.445   2.895   3.767
 2395SOL    HW2 8085   1.486   2.793   3.646
 2396SOL     OW 8086   6.866   0.164   6.702
 2396SOL    HW1 8087   6.849   0.158   6.800
 2396SOL    HW2 8088   6.890   0.258   6.677
 2397SOL     OW 8089   2.113   4.423   5.336
 2397SOL    HW1 8090   2.130   4.332   5.374
 2397SOL    HW2 8091   2.150   4.492   5.399
 2398SOL     OW 8092   4.052   6.487   4.168
 2398SOL    HW1 8093   4.008   6.543   4.098
 2398SOL    HW2 8094   4.139   6.529   4.194
 2399SOL     OW 8095   3.244   1.609   2.695
 2399SOL    HW1 8096   3.212   1.681   2.757
 2399SOL    HW2 8097   3.332   1.636   2.656
 2400SOL     OW 8098   1.681   3.557   0.341
 2400SOL    HW1 8099   1.632   3.639   0.311
 2400SOL    HW2 8100   1.643   3.476   0.296
 2401SOL     OW 8101   1.890   6.243   6.698
 2401SOL    HW1 8102   1.879   6.163   6.639
 2401SOL    HW2 8103   1.968   6.297   6.667
 2402SOL     OW 8104   1.098   4.120   2.405
 2402SOL    HW1 8105   1.173   4.065   2.442
 2402SOL    HW2 8106   1.023   4.059   2.378
 2403SOL     OW 8107   2.967   3.641   5.387
 2403SOL    HW1 8108   2.934   3.582   5.314
 2403SOL    HW2 8109   3.066   3.650   5.380
 2404SOL     OW 8110   6.394   1.482   1.221
 2404SOL    HW1 8111   6.314   1.421   1.222
 2404SOL    HW2 8112   6.477   1.428   1.207
 2405SOL     OW 8113   1.709   3.013   0.703
 2405SOL    HW1 8114   1.752   3.101   0.680
 2405SOL    HW2 8115   1.770   2.961   0.763
 2406SOL     OW 8116   3.941   5.600   4.744
 2406SOL    HW1 8117   4.040   5.587   4.756
 2406SOL    HW2 8118   3.906   5.660   4.816
 2407SOL     OW 8119   2.531   1.872   3.264
 2407SOL    HW1 8120   2.562   1.937   3.194
 2407SOL    HW2 8121   2.507   1.785   3.220
 2408SOL     OW 8122   3.307   0.506   5.561
 2408SOL    HW1 8123   3.254   0.569   5.618
 2408SOL    HW2 8124   3.271   0.507   5.467
 2409SOL     OW 8125   0.642   3.117   0.249
 2409SOL    HW1 8126   0.655   3.188   0.318
 2409SOL    HW2 8127   0.628   3.029   0.293
 2410SOL     OW 8128   0.032   3.393   4.460
 2410SOL    HW1 8129   6.970   3.361   4.495
 2410SOL    HW2 8130   0.049   3.351   4.370
 2411SOL     OW 8131   3.115   1.875   0.141
 2411SOL    HW1 8132   3.045   1.869   0.069
 2411SOL    HW2 8133   3.072   1.904   0.227
 2412SOL     OW 8134   3.289   2.280   6.061
 2412SOL    HW1 8135   3.213   2.294   5.998
 2412SOL    HW2 8136   3.305   2.364   6.113
 2413SOL     OW 8137   0.358   3.486   6.861
 2413SOL    HW1 8138   0.440   3.438   6.895
 2413SOL    HW2 8139   0.333   3.450   6.771
 2414SOL     OW 8140   7.020   1.201   5.234
 2414SOL    HW1 8141   6.975   1.226   5.320
 2414SOL    HW2 8142   0.038   1.112   5.243
 2415SOL     OW 8143   3.223   4.839   6.432
 2415SOL    HW1 8144   3.167   4.842   6.349
 2415SOL    HW2 8145   3.178   4.781   6.500
 2416SOL     OW 8146   7.021   2.316   2.888
 2416SOL    HW1 8147   0.023   2.394   2.943
 2416SOL    HW2 8148   6.924   2.296   2.905
 2417SOL     OW 8149   3.357   2.291   1.290
 2417SOL    HW1 8150   3.265   2.328   1.302
 2417SOL    HW2 8151   3.352   2.191   1.290
 2418SOL     OW 8152   5.088   4.038   6.738
 2418SOL    HW1 8153   5.139   4.043   6.823
 2418SOL    HW2 8154   5.060   3.943   6.721
 2419SOL     OW 8155   2.912   1.006   3.263
 2419SOL    HW1 8156   2.902   1.105   3.272
 2419SOL    HW2 8157   2.870   0.977   3.177
 2420SOL     OW 8158   1.394   3.658   2.734
 2420SOL    HW1 8159   1.303   3.699   2.743
 2420SOL    HW2 8160   1.433   3.683   2.646
 2421SOL     OW 8161   2.957   6.990   3.296
 2421SOL    HW1 8162   2.998   6.963   3.209
 2421SOL    HW2 8163   2.985   6.926   3.367
 2422SOL     OW 8164   4.345   5.233   0.494
 2422SOL    HW1 8165   4.287   5.315   0.500
 2422SOL    HW2 8166   4.382   5.224   0.402
 2423SOL     OW 8167   2.591   5.280   3.709
 2423SOL    HW1 8168   2.566   5.311   3.617
 2423SOL    HW2 8169   2.633   5.190   3.705
 2424SOL     OW 8170   4.911   6.830   6.302
 2424SOL    HW1 8171   4.978   6.773   6.352
 2424SOL    HW2 8172   4.922   6.925   6.329
 2425SOL     OW 8173   4.248   5.770   5.279
 2425SOL    HW1 8174   4.164   5.718   5.264
 2425SOL    HW2 8175   4.286   5.798   5.191
 2426SOL     OW 8176   2.893   2.177   5.087
 2426SOL    HW1 8177   2.984   2.206   5.057
 2426SOL    HW2 8178   2.838   2.258   5.108
 2427SOL     OW 8179   4.733   1.597   0.784
 2427SOL    HW1 8180   4.764   1.628   0.695
 2427SOL    HW2 8181   4.707   1.500   0.779
 2428SOL     OW 8182   1.776   1.502   2.757
 2428SOL    HW1 8183   1.679   1.478   2.756
 2428SOL    HW2 8184   1.830   1.428   2.717
 2429SOL     OW 8185   6.467   5.758   1.139
 2429SOL    HW1 8186   6.423   5.683   1.090
 2429SOL    HW2 8187   6.453   5.747   1.237
 2430SOL     OW 8188   6.269   0.623   6.349
 2430SOL    HW1 8189   6.253   0.546   6.411
 2430SOL    HW2 8190   6.315   0.591   6.266
 2431SOL     OW 8191   0.896   3.347   2.171
 2431SOL    HW1 8192   0.893   3.268   2.110
 2431SOL    HW2 8193   0.985   3.350   2.217
 2432SOL     OW 8194   2.751   5.248   2.012
 2432SOL    HW1 8195   2.738   5.154   1.980
 2432SOL    HW2 8196   2.754   5.249   2.112
 2433SOL     OW 8197   0.415   4.051   5.364
 2433SOL    HW1 8198   0.491   4.011   5.312
 2433SOL    HW2 8199   0.448   4.131   5.415
 2434SOL     OW 8200   4.604   1.310   3.376
 2434SOL    HW1 8201   4.657   1.369   3.316
 2434SOL    HW2 8202   4.587   1.223   3.330
 2435SOL     OW 8203   6.099   6.717   6.457
 2435SOL    HW1 8204   6.152   6.714   6.542
 2435SOL    HW2 8205   6.054   6.629   6.443
 2436SOL     OW 8206   0.360   3.066   0.473
 2436SOL    HW1 8207   0.344   3.165   0.478
 2436SOL    HW2 8208   0.319   3.030   0.390
 2437SOL     OW 8209   0.163   3.678   1.304
 2437SOL    HW1 8210   0.134   3.735   1.227
 2437SOL    HW2 8211   0.236   3.617   1.275
 2438SOL     OW 8212   3.640   1.729   4.443
 2438SOL    HW1 8213   3.722   1.778   4.414
 2438SOL    HW2 8214   3.640   1.637   4.403
 2439SOL     OW 8215   1.318   5.617   1.340
 2439SOL    HW1 8216   1.391   5.673   1.300
 2439SOL    HW2 8217   1.313   5.634   1.438
 2440SOL     OW 8218   6.723   0.720   5.413
 2440SOL    HW1 8219   6.653   0.707   5.483
 2440SOL    HW2 8220   6.814   0.714   5.454
 2441SOL     OW 8221   6.027   0.850   1.023
 2441SOL    HW1 8222   5.952   0.785   1.039
 2441SOL    HW2 8223   6.109   0.800   0.997
 2442SOL     OW 8224   5.498   3.245   2.069
 2442SOL    HW1 8225   5.550   3.174   2.116
 2442SOL    HW2 8226   5.561   3.311   2.028
 2443SOL     OW 8227   0.782   3.390   1.540
 2443SOL    HW1 8228   0.760   3.312   1.598
 2443SOL    HW2 8229   0.773   3.475   1.593
 2444SOL     OW 8230   3.319   5.198   2.065
 2444SOL    HW1 8231   3.232   5.213   2.112
 2444SOL    HW2 8232   3.343   5.101   2.071
 2445SOL     OW 8233   0.479   1.981   0.962
 2445SOL    HW1 8234   0.564   2.012   0.920
 2445SOL    HW2 8235   0.436   1.913   0.902
 2446SOL     OW 8236   0.417   5.611   1.955
 2446SOL    HW1 8237   0.399   5.584   2.050
 2446SOL    HW2 8238   0.332   5.637   1.911
 2447SOL     OW 8239   1.724   0.089   0.559
 2447SOL    HW1 8240   1.716   0.036   0.475
 2447SOL    HW2 8241   1.755   0.028   0.633
 2448SOL     OW 8242   5.714   0.962   4.506
 2448SOL    HW1 8243   5.799   0.981   4.554
 2448SOL    HW2 8244   5.686   1.043   4.453
 2449SOL     OW 8245   1.696   4.445   1.058
 2449SOL    HW1 8246   1.618   4.407   1.107
 2449SOL    HW2 8247   1.671   4.462   0.963
 2450SOL     OW 8248   0.594   6.448   4.843
 2450SOL    HW1 8249   0.672   6.507   4.859
 2450SOL    HW2 8250   0.612   6.388   4.765
 2451SOL     OW 8251   2.078   6.614   5.695
 2451SOL    HW1 8252   2.088   6.569   5.606
 2451SOL    HW2 8253   2.131   6.699   5.695
 2452SOL     OW 8254   2.337   1.885   4.006
 2452SOL    HW1 8255   2.244   1.864   3.975
 2452SOL    HW2 8256   2.401   1.818   3.969
 2453SOL     OW 8257   1.643   1.941   5.797
 2453SOL    HW1 8258   1.688   2.010   5.855
 2453SOL    HW2 8259   1.712   1.887   5.750
 2454SOL     OW 8260   3.314   6.126   0.936
 2454SOL    HW1 8261   3.248   6.161   0.870
 2454SOL    HW2 8262   3.300   6.028   0.949
 2455SOL     OW 8263   4.034   2.311   0.986
 2455SOL    HW1 8264   4.131   2.321   1.006
 2455SOL    HW2 8265   4.016   2.220   0.949
 2456SOL     OW 8266   0.498   3.753   6.080
 2456SOL    HW1 8267   0.595   3.777   6.073
 2456SOL    HW2 8268   0.453   3.815   6.144
 2457SOL     OW 8269   4.003   1.874   5.388
 2457SOL    HW1 8270   4.014   1.908   5.294
 2457SOL    HW2 8271   4.093   1.855   5.428
 2458SOL     OW 8272   0.465   0.027   2.919
 2458SOL    HW1 8273   0.531   7.012   2.981
 2458SOL    HW2 8274   0.512   0.087   2.855
 2459SOL     OW 8275   1.571   6.830   0.975
 2459SOL    HW1 8276   1.484   6.874   0.954
 2459SOL    HW2 8277   1.644   6.876   0.924
 2460SOL     OW 8278   0.519   0.666   4.648
 2460SOL    HW1 8279   0.535   0.755   4.607
 2460SOL    HW2 8280   0.509   0.597   4.576
 2461SOL     OW 8281   4.323   1.315   3.497
 2461SOL    HW1 8282   4.273   1.310   3.584
 2461SOL    HW2 8283   4.412   1.271   3.507
 2462SOL     OW 8284   0.475   5.661   0.508
 2462SOL    HW1 8285   0.452   5.569   0.539
 2462SOL    HW2 8286   0.479   5.723   0.586
 2463SOL     OW 8287   6.578   0.007   0.160
 2463SOL    HW1 8288   6.669   0.034   0.194
 2463SOL    HW2 8289   6.553   6.945   0.201
 2464SOL     OW 8290   0.291   2.413   4.817
 2464SOL    HW1 8291   0.356   2.471   4.770
 2464SOL    HW2 8292   0.233   2.366   4.750
 2465SOL     OW 8293   6.862   6.799   6.378
 2465SOL    HW1 8294   6.857   6.701   6.398
 2465SOL    HW2 8295   6.923   6.843   6.444
 2466SOL     OW 8296   0.917   1.724   1.829
 2466SOL    HW1 8297   0.837   1.720   1.890
 2466SOL    HW2 8298   0.890   1.692   1.738
 2467SOL     OW 8299   5.608   3.173   5.168
 2467SOL    HW1 8300   5.527   3.196   5.222
 2467SOL    HW2 8301   5.676   3.130   5.226
 2468SOL     OW 8302   3.414   6.925   5.413
 2468SOL    HW1 8303   3.408   7.024   5.401
 2468SOL    HW2 8304   3.375   6.878   5.334
 2469SOL     OW 8305   3.455   1.841   5.968
 2469SOL    HW1 8306   3.424   1.912   6.032
 2469SOL    HW2 8307   3.406   1.851   5.882
 2470SOL     OW 8308   2.409   5.409   6.691
 2470SOL    HW1 8309   2.500   5.373   6.713
 2470SOL    HW2 8310   2.405   5.506   6.713
 2471SOL     OW 8311   3.033   5.124   1.917
 2471SOL    HW1 8312   3.092   5.200   1.944
 2471SOL    HW2 8313   3.042   5.050   1.984
 2472SOL     OW 8314   4.590   1.281   3.652
 2472SOL    HW1 8315   4.613   1.288   3.555
 2472SOL    HW2 8316   4.656   1.335   3.706
 2473SOL     OW 8317   0.339   4.154   3.838
 2473SOL    HW1 8318   0.386   4.097   3.769
 2473SOL    HW2 8319   0.298   4.233   3.793
 2474SOL     OW 8320   0.618   6.235   1.801
 2474SOL    HW1 8321   0.520   6.227   1.781
 2474SOL    HW2 8322   0.647   6.330   1.789
 2475SOL     OW 8323   4.747   1.006   0.296
 2475SOL    HW1 8324   4.827   0.957   0.332
 2475SOL    HW2 8325   4.744   0.996   0.197
 2476SOL     OW 8326   4.518   0.495   0.825
 2476SOL    HW1 8327   4.476   0.582   0.799
 2476SOL    HW2 8328   4.584   0.510   0.898
 2477SOL     OW 8329   3.577   0.191   3.288
 2477SOL    HW1 8330   3.604   0.285   3.267
 2477SOL    HW2 8331   3.490   0.192   3.338
 2478SOL     OW 8332   4.668   0.175   4.617
 2478SOL    HW1 8333   4.768   0.172   4.618
 2478SOL    HW2 8334   4.633   0.086   4.588
 2479SOL     OW 8335   5.828   3.187   1.259
 2479SOL    HW1 8336   5.815   3.184   1.358
 2479SOL    HW2 8337   5.814   3.096   1.220
 2480SOL     OW 8338   3.616   2.267   1.393
 2480SOL    HW1 8339   3.537   2.311   1.352
 2480SOL    HW2 8340   3.683   2.245   1.321
 2481SOL     OW 8341   3.086   6.775   1.917
 2481SOL    HW1 8342   3.025   6.707   1.878
 2481SOL    HW2 8343   3.170   6.781   1.862
 2482SOL     OW 8344   6.377   3.358   6.903
 2482SOL    HW1 8345   6.429   3.426   6.956
 2482SOL    HW2 8346   6.435   3.278   6.886
 2483SOL     OW 8347   1.321   2.414   0.795
 2483SOL    HW1 8348   1.239   2.454   0.836
 2483SOL    HW2 8349   1.332   2.448   0.702
 2484SOL     OW 8350   4.301   0.981   0.071
 2484SOL    HW1 8351   4.349   1.068   0.081
 2484SOL    HW2 8352   4.209   0.997   0.035
 2485SOL     OW 8353   0.356   2.122   6.304
 2485SOL    HW1 8354   0.400   2.112   6.215
 2485SOL    HW2 8355   0.260   2.094   6.297
 2486SOL     OW 8356   6.795   5.866   4.033
 2486SOL    HW1 8357   6.816   5.803   3.958
 2486SOL    HW2 8358   6.703   5.902   4.022
 2487SOL     OW 8359   4.857   6.229   6.718
 2487SOL    HW1 8360   4.787   6.158   6.729
 2487SOL    HW2 8361   4.908   6.238   6.804
 2488SOL     OW 8362   6.497   4.098   0.764
 2488SOL    HW1 8363   6.519   4.001   0.761
 2488SOL    HW2 8364   6.411   4.115   0.716
 2489SOL     OW 8365   6.546   5.276   4.467
 2489SOL    HW1 8366   6.606   5.244   4.540
 2489SOL    HW2 8367   6.456   5.233   4.476
 2490SOL     OW 8368   2.656   5.595   3.287
 2490SOL    HW1 8369   2.742   5.589   3.237
 2490SOL    HW2 8370   2.653   5.523   3.356
 2491SOL     OW 8371   3.847   4.648   1.653
 2491SOL    HW1 8372   3.842   4.568   1.592
 2491SOL    HW2 8373   3.942   4.668   1.674
 2492SOL     OW 8374   6.784   5.217   1.432
 2492SOL    HW1 8375   6.726   5.240   1.510
 2492SOL    HW2 8376   6.866   5.171   1.465
 2493SOL     OW 8377   5.282   6.748   0.873
 2493SOL    HW1 8378   5.281   6.649   0.886
 2493SOL    HW2 8379   5.293   6.769   0.776
 2494SOL     OW 8380   6.653   4.132   1.673
 2494SOL    HW1 8381   6.636   4.057   1.608
 2494SOL    HW2 8382   6.575   4.194   1.674
 2495SOL     OW 8383   0.356   4.608   2.366
 2495SOL    HW1 8384   0.362   4.591   2.465
 2495SOL    HW2 8385   0.367   4.522   2.317
 2496SOL     OW 8386   5.881   4.691   6.329
 2496SOL    HW1 8387   5.822   4.625   6.376
 2496SOL    HW2 8388   5.824   4.766   6.293
 2497SOL     OW 8389   0.086   6.891   2.416
 2497SOL    HW1 8390   0.059   6.980   2.453
 2497SOL    HW2 8391   0.181   6.872   2.441
 2498SOL     OW 8392   1.994   3.772   5.457
 2498SOL    HW1 8393   1.920   3.749   5.521
 2498SOL    HW2 8394   1.958   3.828   5.383
 2499SOL     OW 8395   0.188   3.991   1.455
 2499SOL    HW1 8396   0.220   3.988   1.360
 2499SOL    HW2 8397   0.103   3.940   1.463
 2500SOL     OW 8398   3.673   3.260   1.281
 2500SOL    HW1 8399   3.576   3.241   1.267
 2500SOL    HW2 8400   3.728   3.183   1.247
 2501SOL     OW 8401   5.783   5.448   6.630
 2501SOL    HW1 8402   5.704   5.507   6.647
 2501SOL    HW2 8403   5.862   5.505   6.605
 2502SOL     OW 8404   2.518   6.170   4.585
 2502SOL    HW1 8405   2.452   6.105   4.547
 2502SOL    HW2 8406   2.487   6.263   4.567
 2503SOL     OW 8407   3.274   6.897   5.759
 2503SOL    HW1 8408   3.279   6.886   5.660
 2503SOL    HW2 8409   3.366   6.901   5.797
 2504SOL     OW 8410   3.872   6.726   3.715
 2504SOL    HW1 8411   3.921   6.807   3.746
 2504SOL    HW2 8412   3.914   6.691   3.632
 2505SOL     OW 8413   0.073   4.677   4.184
 2505SOL    HW1 8414   0.021   4.612   4.239
 2505SOL    HW2 8415   0.085   4.639   4.092
 2506SOL     OW 8416   5.186   5.450   5.780
 2506SOL    HW1 8417   5.260   5.386   5.799
 2506SOL    HW2 8418   5.169   5.505   5.862
 2507SOL     OW 8419   6.657   3.175   1.714
 2507SOL    HW1 8420   6.583   3.169   1.782
 2507SOL    HW2 8421   6.737   3.126   1.747
 2508SOL     OW 8422   5.267   1.969   4.613
 2508SOL    HW1 8423   5.329   1.930   4.545
 2508SOL    HW2 8424   5.218   2.047   4.572
 2509SOL     OW 8425   0.032   3.894   5.803
 2509SOL    HW1 8426   0.123   3.857   5.825
 2509SOL    HW2 8427   0.038   3.949   5.719
 2510SOL     OW 8428   3.313   3.829   1.954
 2510SOL    HW1 8429   3.363   3.842   2.040
 2510SOL    HW2 8430   3.354   3.885   1.882
 2511SOL     OW 8431   2.161   0.480   4.392
 2511SOL    HW1 8432   2.210   0.430   4.321
 2511SOL    HW2 8433   2.072   0.438   4.408
 2512SOL     OW 8434   3.725   4.959   4.281
 2512SOL    HW1 8435   3.732   5.029   4.352
 2512SOL    HW2 8436   3.657   4.985   4.213
 2513SOL     OW 8437   2.509   5.512   6.158
 2513SOL    HW1 8438   2.599   5.542   6.187
 2513SOL    HW2 8439   2.468   5.455   6.229
 2514SOL     OW 8440   1.247   2.100   2.516
 2514SOL    HW1 8441   1.328   2.094   2.457
 2514SOL    HW2 8442   1.194   2.181   2.491
 2515SOL     OW 8443   1.323   1.487   1.344
 2515SOL    HW1 8444   1.261   1.546   1.395
 2515SOL    HW2 8445   1.412   1.486   1.390
 2516SOL     OW 8446   6.186   2.110   4.449
 2516SOL    HW1 8447   6.139   2.164   4.519
 2516SOL    HW2 8448   6.121   2.046   4.408
 2517SOL     OW 8449   1.320   1.642   4.564
 2517SOL    HW1 8450   1.225   1.667   4.549
 2517SOL    HW2 8451   1.325   1.555   4.613
 2518SOL     OW 8452   2.850   4.856   1.222
 2518SOL    HW1 8453   2.794   4.819   1.297
 2518SOL    HW2 8454   2.909   4.928   1.258
 2519SOL     OW 8455   1.163   1.246   1.165
 2519SOL    HW1 8456   1.149   1.342   1.143
 2519SOL    HW2 8457   1.252   1.233   1.208
 2520SOL     OW 8458   2.468   2.236   0.302
 2520SOL    HW1 8459   2.437   2.180   0.378
 2520SOL    HW2 8460   2.393   2.295   0.270
 2521SOL     OW 8461   4.814   1.225   5.333
 2521SOL    HW1 8462   4.755   1.162   5.384
 2521SOL    HW2 8463   4.828   1.308   5.385
 2522SOL     OW 8464   1.056   2.489   6.204
 2522SOL    HW1 8465   1.068   2.472   6.302
 2522SOL    HW2 8466   1.104   2.573   6.180
 2523SOL     OW 8467   1.966   5.154   6.749
 2523SOL    HW1 8468   1.940   5.058   6.758
 2523SOL    HW2 8469   2.063   5.161   6.729
 2524SOL     OW 8470   1.477   0.612   4.463
 2524SOL    HW1 8471   1.561   0.570   4.495
 2524SOL    HW2 8472   1.493   0.657   4.375
 2525SOL     OW 8473   6.523   2.668   5.482
 2525SOL    HW1 8474   6.513   2.763   5.454
 2525SOL    HW2 8475   6.448   2.613   5.445
 2526SOL     OW 8476   1.231   6.762   1.229
 2526SOL    HW1 8477   1.201   6.853   1.203
 2526SOL    HW2 8478   1.248   6.707   1.147
 2527SOL     OW 8479   4.750   5.049   5.990
 2527SOL    HW1 8480   4.703   4.976   5.939
 2527SOL    HW2 8481   4.769   5.017   6.083
 2528SOL     OW 8482   4.614   6.026   6.687
 2528SOL    HW1 8483   4.615   5.932   6.723
 2528SOL    HW2 8484   4.525   6.068   6.704
 2529SOL     OW 8485   0.526   0.168   6.545
 2529SOL    HW1 8486   0.523   0.186   6.447
 2529SOL    HW2 8487   0.481   0.080   6.564
 2530SOL     OW 8488   2.167   5.790   6.305
 2530SOL    HW1 8489   2.175   5.762   6.209
 2530SOL    HW2 8490   2.187   5.712   6.365
 2531SOL     OW 8491   6.876   5.323   5.933
 2531SOL    HW1 8492   6.847   5.334   6.028
 2531SOL    HW2 8493   6.904   5.412   5.896
 2532SOL     OW 8494   5.449   6.453   0.858
 2532SOL    HW1 8495   5.527   6.485   0.911
 2532SOL    HW2 8496   5.463   6.357   0.833
 2533SOL     OW 8497   4.914   1.001   3.718
 2533SOL    HW1 8498   4.984   1.071   3.704
 2533SOL    HW2 8499   4.910   0.976   3.815
 2534SOL     OW 8500   3.809   1.243   2.737
 2534SOL    HW1 8501   3.821   1.240   2.836
 2534SOL    HW2 8502   3.898   1.263   2.693
 2535SOL     OW 8503   3.903   2.927   6.575
 2535SOL    HW1 8504   3.942   2.996   6.515
 2535SOL    HW2 8505   3.862   2.971   6.655
 2536SOL     OW 8506   1.225   0.894   0.639
 2536SOL    HW1 8507   1.286   0.912   0.562
 2536SOL    HW2 8508   1.174   0.977   0.662
 2537SOL     OW 8509   3.834   6.915   6.515
 2537SOL    HW1 8510   3.914   6.906   6.575
 2537SOL    HW2 8511   3.773   6.986   6.552
 2538SOL     OW 8512   6.471   3.507   3.801
 2538SOL    HW1 8513   6.455   3.449   3.881
 2538SOL    HW2 8514   6.498   3.598   3.831
 2539SOL     OW 8515   5.225   2.374   5.424
 2539SOL    HW1 8516   5.148   2.433   5.400
 2539SOL    HW2 8517   5.191   2.284   5.452
 2540SOL     OW 8518   3.138   1.500   2.034
 2540SOL    HW1 8519   3.188   1.568   1.981
 2540SOL    HW2 8520   3.118   1.536   2.125
 2541SOL     OW 8521   3.526   6.513   4.338
 2541SOL    HW1 8522   3.625   6.514   4.329
 2541SOL    HW2 8523   3.499   6.439   4.401
 2542SOL     OW 8524   1.787   4.987   6.320
 2542SOL    HW1 8525   1.767   4.899   6.278
 2542SOL    HW2 8526   1.883   5.011   6.303
 2543SOL     OW 8527   1.452   1.245   3.786
 2543SOL    HW1 8528   1.521   1.306   3.826
 2543SOL    HW2 8529   1.494   1.156   3.767
 2544SOL     OW 8530   1.174   5.142   6.931
 2544SOL    HW1 8531   1.126   5.216   6.977
 2544SOL    HW2 8532   1.239   5.100   6.995
 2545SOL     OW 8533   2.968   5.913   2.731
 2545SOL    HW1 8534   3.054   5.957   2.754
 2545SOL    HW2 8535   2.953   5.917   2.632
 2546SOL     OW 8536   6.904   1.388   1.256
 2546SOL    HW1 8537   6.920   1.415   1.350
 2546SOL    HW2 8538   6.907   1.469   1.197
 2547SOL     OW 8539   0.839   3.375   4.811
 2547SOL    HW1 8540   0.883   3.413   4.892
 2547SOL    HW2 8541   0.869   3.425   4.730
 2548SOL     OW 8542   0.599   0.397   4.144
 2548SOL    HW1 8543   0.641   0.379   4.056
 2548SOL    HW2 8544   0.518   0.339   4.155
 2549SOL     OW 8545   6.578   2.369   1.256
 2549SOL    HW1 8546   6.528   2.455   1.260
 2549SOL    HW2 8547   6.627   2.354   1.342
 2550SOL     OW 8548   6.375   6.135   0.209
 2550SOL    HW1 8549   6.349   6.128   0.305
 2550SOL    HW2 8550   6.443   6.208   0.198
 2551SOL     OW 8551   1.215   4.099   6.606
 2551SOL    HW1 8552   1.156   4.074   6.529
 2551SOL    HW2 8553   1.205   4.031   6.679
 2552SOL     OW 8554   1.827   5.612   3.719
 2552SOL    HW1 8555   1.760   5.595   3.647
 2552SOL    HW2 8556   1.908   5.556   3.704
 2553SOL     OW 8557   3.999   3.583   6.811
 2553SOL    HW1 8558   4.061   3.565   6.888
 2553SOL    HW2 8559   4.003   3.680   6.788
 2554SOL     OW 8560   1.611   1.353   6.983
 2554SOL    HW1 8561   1.597   1.405   6.899
 2554SOL    HW2 8562   1.522   1.331   7.024
 2555SOL     OW 8563   6.103   1.005   6.895
 2555SOL    HW1 8564   6.131   0.909   6.896
 2555SOL    HW2 8565   6.069   1.030   6.986
 2556SOL     OW 8566   2.730   5.702   0.905
 2556SOL    HW1 8567   2.705   5.629   0.840
 2556SOL    HW2 8568   2.821   5.737   0.882
 2557SOL     OW 8569   1.891   3.854   0.324
 2557SOL    HW1 8570   1.939   3.780   0.277
 2557SOL    HW2 8571   1.856   3.919   0.257
 2558SOL     OW 8572   3.993   0.497   5.586
 2558SOL    HW1 8573   4.037   0.417   5.627
 2558SOL    HW2 8574   4.030   0.580   5.628
 2559SOL     OW 8575   6.980   5.173   4.911
 2559SOL    HW1 8576   7.019   5.254   4.954
 2559SOL    HW2 8577   6.916   5.130   4.975
 2560SOL     OW 8578   6.253   1.521   0.067
 2560SOL    HW1 8579   6.287   1.590   0.003
 2560SOL    HW2 8580   6.153   1.518   0.063
 2561SOL     OW 8581   3.513   5.409   4.685
 2561SOL    HW1 8582   3.493   5.325   4.635
 2561SOL    HW2 8583   3.584   5.461   4.638
 2562SOL     OW 8584   1.852   3.978   6.921
 2562SOL    HW1 8585   1.825   3.885   6.895
 2562SOL    HW2 8586   1.825   4.042   6.848
 2563SOL     OW 8587   2.248   1.207   0.096
 2563SOL    HW1 8588   2.267   1.110   0.116
 2563SOL    HW2 8589   2.332   1.259   0.106
 2564SOL     OW 8590   1.596   5.861   1.225
 2564SOL    HW1 8591   1.649   5.778   1.241
 2564SOL    HW2 8592   1.554   5.891   1.310
 2565SOL     OW 8593   1.787   0.330   1.505
 2565SOL    HW1 8594   1.807   0.332   1.407
 2565SOL    HW2 8595   1.797   0.237   1.540
 2566SOL     OW 8596   1.551   6.679   6.231
 2566SOL    HW1 8597   1.467   6.629   6.208
 2566SOL    HW2 8598   1.611   6.681   6.151
 2567SOL     OW 8599   1.081   6.497   0.235
 2567SOL    HW1 8600   1.094   6.398   0.244
 2567SOL    HW2 8601   1.165   6.539   0.202
 2568SOL     OW 8602   4.432   3.043   0.023
 2568SOL    HW1 8603   4.525   3.074   0.043
 2568SOL    HW2 8604   4.378   3.121   7.015
 2569SOL     OW 8605   2.638   0.660   3.026
 2569SOL    HW1 8606   2.572   0.595   3.062
 2569SOL    HW2 8607   2.598   0.751   3.024
 2570SOL     OW 8608   5.379   2.377   6.117
 2570SOL    HW1 8609   5.382   2.391   6.216
 2570SOL    HW2 8610   5.402   2.282   6.096
 2571SOL     OW 8611   1.189   4.053   4.642
 2571SOL    HW1 8612   1.237   3.966   4.639
 2571SOL    HW2 8613   1.109   4.049   4.581
 2572SOL     OW 8614   1.656   5.018   3.668
 2572SOL    HW1 8615   1.705   5.027   3.581
 2572SOL    HW2 8616   1.702   4.951   3.725
 2573SOL     OW 8617   1.200   0.407   0.834
 2573SOL    HW1 8618   1.163   0.488   0.788
 2573SOL    HW2 8619   1.261   0.436   0.908
 2574SOL     OW 8620   6.012   3.022   0.624
 2574SOL    HW1 8621   5.980   2.938   0.580
 2574SOL    HW2 8622   6.009   3.097   0.558
 2575SOL     OW 8623   1.137   5.499   6.461
 2575SOL    HW1 8624   1.222   5.465   6.501
 2575SOL    HW2 8625   1.068   5.426   6.463
 2576SOL     OW 8626   4.316   5.906   3.793
 2576SOL    HW1 8627   4.374   5.830   3.763
 2576SOL    HW2 8628   4.363   5.992   3.775
 2577SOL     OW 8629   2.218   4.263   2.348
 2577SOL    HW1 8630   2.203   4.226   2.256
 2577SOL    HW2 8631   2.278   4.342   2.343
 2578SOL     OW 8632   4.045   1.827   3.350
 2578SOL    HW1 8633   4.107   1.861   3.280
 2578SOL    HW2 8634   4.075   1.858   3.440
 2579SOL     OW 8635   1.138   6.696   3.392
 2579SOL    HW1 8636   1.136   6.617   3.452
 2579SOL    HW2 8637   1.203   6.763   3.427
 2580SOL     OW 8638   1.722   1.948   6.399
 2580SOL    HW1 8639   1.627   1.922   6.416
 2580SOL    HW2 8640   1.742   1.938   6.301
 2581SOL     OW 8641   3.614   0.404   5.060
 2581SOL    HW1 8642   3.545   0.367   5.122
 2581SOL    HW2 8643   3.570   0.447   4.982
 2582SOL     OW 8644   0.090   3.010   1.707
 2582SOL    HW1 8645   0.129   2.927   1.747
 2582SOL    HW2 8646   0.117   3.018   1.612
 2583SOL     OW 8647   5.760   0.214   0.758
 2583SOL    HW1 8648   5.779   0.308   0.785
 2583SOL    HW2 8649   5.722   0.212   0.665
 2584SOL     OW 8650   4.180   4.570   6.177
 2584SOL    HW1 8651   4.160   4.639   6.247
 2584SOL    HW2 8652   4.100   4.512   6.164
 2585SOL     OW 8653   3.474   4.720   6.442
 2585SOL    HW1 8654   3.387   4.769   6.448
 2585SOL    HW2 8655   3.503   4.715   6.346
 2586SOL     OW 8656   2.647   0.986   3.620
 2586SOL    HW1 8657   2.734   0.951   3.653
 2586SOL    HW2 8658   2.641   0.974   3.521
 2587SOL     OW 8659   6.760   1.336   3.755
 2587SOL    HW1 8660   6.716   1.282   3.827
 2587SOL    HW2 8661   6.839   1.285   3.720
 2588SOL     OW 8662   4.534   0.731   6.453
 2588SOL    HW1 8663   4.435   0.726   6.440
 2588SOL    HW2 8664   4.558   0.818   6.496
 2589SOL     OW 8665   2.122   6.574   0.246
 2589SOL    HW1 8666   2.031   6.579   0.288
 2589SOL    HW2 8667   2.183   6.522   0.306
 2590SOL     OW 8668   2.565   5.296   0.200
 2590SOL    HW1 8669   2.656   5.310   0.239
 2590SOL    HW2 8670   2.496   5.332   0.262
 2591SOL     OW 8671   6.066   5.531   3.421
 2591SOL    HW1 8672   6.088   5.615   3.469
 2591SOL    HW2 8673   6.131   5.517   3.346
 2592SOL     OW 8674   2.450   3.947   0.963
 2592SOL    HW1 8675   2.451   3.867   1.023
 2592SOL    HW2 8676   2.453   4.030   1.019
 2593SOL     OW 8677   3.064   3.860   0.758
 2593SOL    HW1 8678   3.119   3.851   0.676
 2593SOL    HW2 8679   2.974   3.898   0.735
 2594SOL     OW 8680   1.633   3.438   4.511
 2594SOL    HW1 8681   1.557   3.462   4.571
 2594SOL    HW2 8682   1.718   3.477   4.546
 2595SOL     OW 8683   2.001   1.173   2.678
 2595SOL    HW1 8684   2.050   1.093   2.645
 2595SOL    HW2 8685   2.065   1.249   2.689
 2596SOL     OW 8686   1.204   1.932   0.300
 2596SOL    HW1 8687   1.158   2.005   0.249
 2596SOL    HW2 8688   1.171   1.931   0.394
 2597SOL     OW 8689   6.941   6.358   6.730
 2597SOL    HW1 8690   0.005   6.396   6.748
 2597SOL    HW2 8691   6.875   6.433   6.719
 2598SOL     OW 8692   5.860   2.550   2.685
 2598SOL    HW1 8693   5.803   2.468   2.697
 2598SOL    HW2 8694   5.913   2.542   2.601
 2599SOL     OW 8695   3.237   5.749   1.626
 2599SOL    HW1 8696   3.326   5.762   1.670
 2599SOL    HW2 8697   3.237   5.662   1.576
 2600SOL     OW 8698   5.677   4.232   4.483
 2600SOL    HW1 8699   5.744   4.304   4.466
 2600SOL    HW2 8700   5.722   4.154   4.527
 2601SOL     OW 8701   6.611   1.536   3.628
 2601SOL    HW1 8702   6.548   1.550   3.704
 2601SOL    HW2 8703   6.661   1.451   3.640
 2602SOL     OW 8704   1.213   4.025   3.150
 2602SOL    HW1 8705   1.231   4.116   3.188
 2602SOL    HW2 8706   1.188   3.962   3.224
 2603SOL     OW 8707   2.739   6.212   2.750
 2603SOL    HW1 8708   2.748   6.113   2.754
 2603SOL    HW2 8709   2.796   6.254   2.821
 2604SOL     OW 8710   4.703   2.789   3.472
 2604SOL    HW1 8711   4.723   2.887   3.471
 2604SOL    HW2 8712   4.747   2.747   3.552
 2605SOL     OW 8713   1.823   3.949   2.069
 2605SOL    HW1 8714   1.853   4.040   2.096
 2605SOL    HW2 8715   1.901   3.887   2.069
 2606SOL     OW 8716   4.597   3.519   1.150
 2606SOL    HW1 8717   4.578   3.451   1.221
 2606SOL    HW2 8718   4.664   3.585   1.184
 2607SOL     OW 8719   2.554   2.182   1.508
 2607SOL    HW1 8720   2.653   2.193   1.514
 2607SOL    HW2 8721   2.532   2.115   1.438
 2608SOL     OW 8722   2.838   5.015   5.722
 2608SOL    HW1 8723   2.805   5.036   5.630
 2608SOL    HW2 8724   2.843   4.916   5.734
 2609SOL     OW 8725   0.166   2.451   0.698
 2609SOL    HW1 8726   0.183   2.360   0.736
 2609SOL    HW2 8727   0.224   2.464   0.618
 2610SOL     OW 8728   1.637   4.088   4.865
 2610SOL    HW1 8729   1.563   4.020   4.865
 2610SOL    HW2 8730   1.718   4.049   4.910
 2611SOL     OW 8731   5.075   0.237   6.860
 2611SOL    HW1 8732   5.089   0.166   6.791
 2611SOL    HW2 8733   5.106   0.205   6.949
 2612SOL     OW 8734   6.449   0.243   5.775
 2612SOL    HW1 8735   6.490   0.154   5.793
 2612SOL    HW2 8736   6.516   0.315   5.792
 2613SOL     OW 8737   0.727   6.713   6.678
 2613SOL    HW1 8738   0.648   6.667   6.717
 2613SOL    HW2 8739   0.716   6.722   6.579
 2614SOL     OW 8740   6.088   1.775   6.762
 2614SOL    HW1 8741   6.077   1.787   6.663
 2614SOL    HW2 8742   6.002   1.744   6.802
 2615SOL     OW 8743   0.586   3.269   6.878
 2615SOL    HW1 8744   0.646   3.192   6.860
 2615SOL    HW2 8745   0.527   3.248   6.956
 2616SOL     OW 8746   0.996   1.237   5.119
 2616SOL    HW1 8747   1.081   1.187   5.135
 2616SOL    HW2 8748   0.927   1.175   5.084
 2617SOL     OW 8749   4.915   0.305   1.451
 2617SOL    HW1 8750   4.896   0.256   1.365
 2617SOL    HW2 8751   4.903   0.242   1.528
 2618SOL     OW 8752   1.141   6.401   6.004
 2618SOL    HW1 8753   1.139   6.312   6.051
 2618SOL    HW2 8754   1.101   6.392   5.913
 2619SOL     OW 8755   5.260   1.123   2.815
 2619SOL    HW1 8756   5.311   1.190   2.869
 2619SOL    HW2 8757   5.314   1.039   2.808
 2620SOL     OW 8758   6.082   1.579   1.339
 2620SOL    HW1 8759   6.175   1.561   1.371
 2620SOL    HW2 8760   6.082   1.661   1.283
 2621SOL     OW 8761   1.800   5.809   1.489
 2621SOL    HW1 8762   1.744   5.732   1.518
 2621SOL    HW2 8763   1.882   5.814   1.546
 2622SOL     OW 8764   3.104   3.541   6.554
 2622SOL    HW1 8765   3.055   3.611   6.606
 2622SOL    HW2 8766   3.078   3.451   6.587
 2623SOL     OW 8767   0.170   6.070   3.231
 2623SOL    HW1 8768   0.211   6.140   3.172
 2623SOL    HW2 8769   0.197   5.979   3.199
 2624SOL     OW 8770   0.464   1.421   4.870
 2624SOL    HW1 8771   0.431   1.382   4.784
 2624SOL    HW2 8772   0.494   1.515   4.854
 2625SOL     OW 8773   2.542   5.006   6.363
 2625SOL    HW1 8774   2.638   4.984   6.343
 2625SOL    HW2 8775   2.494   4.923   6.393
 2626SOL     OW 8776   6.917   5.811   6.716
 2626SOL    HW1 8777   6.899   5.908   6.730
 2626SOL    HW2 8778   6.946   5.796   6.621
 2627SOL     OW 8779   1.988   0.272   6.289
 2627SOL    HW1 8780   2.004   0.207   6.363
 2627SOL    HW2 8781   1.904   0.324   6.308
 2628SOL     OW 8782   0.049   4.561   1.254
 2628SOL    HW1 8783   0.088   4.501   1.184
 2628SOL    HW2 8784   0.081   4.533   1.344
 2629SOL     OW 8785   3.369   4.078   2.546
 2629SOL    HW1 8786   3.353   3.982   2.569
 2629SOL    HW2 8787   3.366   4.091   2.447
 2630SOL     OW 8788   3.944   0.875   4.525
 2630SOL    HW1 8789   3.990   0.849   4.440
 2630SOL    HW2 8790   3.915   0.792   4.574
 2631SOL     OW 8791   5.383   0.146   0.039
 2631SOL    HW1 8792   5.402   0.240   0.010
 2631SOL    HW2 8793   5.461   0.112   0.092
 2632SOL     OW 8794   6.045   5.188   1.951
 2632SOL    HW1 8795   6.105   5.120   1.909
 2632SOL    HW2 8796   5.965   5.142   1.991
 2633SOL     OW 8797   0.189   3.344   6.203
 2633SOL    HW1 8798   0.204   3.253   6.241
 2633SOL    HW2 8799   0.204   3.341   6.104
 2634SOL     OW 8800   0.511   0.788   5.829
 2634SOL    HW1 8801   0.541   0.815   5.737
 2634SOL    HW2 8802   0.587   0.746   5.877
 2635SOL     OW 8803   4.429   5.416   3.504
 2635SOL    HW1 8804   4.468   5.363   3.428
 2635SOL    HW2 8805   4.335   5.441   3.482
 2636SOL     OW 8806   3.699   6.408   5.904
 2636SOL    HW1 8807   3.614   6.443   5.943
 2636SOL    HW2 8808   3.768   6.480   5.902
 2637SOL     OW 8809   0.619   1.001   3.267
 2637SOL    HW1 8810   0.713   1.033   3.264
 2637SOL    HW2 8811   0.580   1.020   3.358
 2638SOL     OW 8812   1.077   6.374   4.329
 2638SOL    HW1 8813   1.028   6.460   4.315
 2638SOL    HW2 8814   1.011   6.298   4.329
 2639SOL     OW 8815   4.256   4.727   4.833
 2639SOL    HW1 8816   4.276   4.648   4.892
 2639SOL    HW2 8817   4.341   4.760   4.792
 2640SOL     OW 8818   2.402   0.893   3.751
 2640SOL    HW1 8819   2.418   0.968   3.815
 2640SOL    HW2 8820   2.469   0.898   3.677
 2641SOL     OW 8821   5.970   2.037   0.001
 2641SOL    HW1 8822   5.897   2.083   6.978
 2641SOL    HW2 8823   5.993   2.089   0.083
 2642SOL     OW 8824   6.133   0.405   3.265
 2642SOL    HW1 8825   6.149   0.351   3.182
 2642SOL    HW2 8826   6.133   0.344   3.344
 2643SOL     OW 8827   2.112   4.722   4.106
 2643SOL    HW1 8828   2.137   4.744   4.201
 2643SOL    HW2 8829   2.074   4.803   4.062
 2644SOL     OW 8830   5.702   5.464   4.793
 2644SOL    HW1 8831   5.640   5.474   4.870
 2644SOL    HW2 8832   5.695   5.371   4.756
 2645SOL     OW 8833   4.804   5.897   3.398
 2645SOL    HW1 8834   4.823   5.799   3.389
 2645SOL    HW2 8835   4.880   5.949   3.358
 2646SOL     OW 8836   1.149   2.767   6.208
 2646SOL    HW1 8837   1.235   2.768   6.260
 2646SOL    HW2 8838   1.078   2.814   6.261
 2647SOL     OW 8839   4.814   6.756   2.463
 2647SOL    HW1 8840   4.796   6.718   2.373
 2647SOL    HW2 8841   4.741   6.819   2.488
 2648SOL     OW 8842   0.677   6.786   6.430
 2648SOL    HW1 8843   0.623   6.754   6.352
 2648SOL    HW2 8844   0.738   6.859   6.401
 2649SOL     OW 8845   5.222   1.532   3.365
 2649SOL    HW1 8846   5.129   1.537   3.403
 2649SOL    HW2 8847   5.274   1.613   3.391
 2650SOL     OW 8848   3.050   6.942   3.966
 2650SOL    HW1 8849   3.104   6.873   4.015
 2650SOL    HW2 8850   2.959   6.947   4.006
 2651SOL     OW 8851   4.557   2.543   4.047
 2651SOL    HW1 8852   4.560   2.611   4.120
 2651SOL    HW2 8853   4.479   2.481   4.062
 2652SOL     OW 8854   4.828   4.256   5.356
 2652SOL    HW1 8855   4.817   4.207   5.442
 2652SOL    HW2 8856   4.885   4.337   5.371
 2653SOL     OW 8857   2.217   5.946   6.541
 2653SOL    HW1 8858   2.289   6.015   6.548
 2653SOL    HW2 8859   2.214   5.909   6.448
 2654SOL     OW 8860   6.992   1.083   0.449
 2654SOL    HW1 8861   0.004   1.095   0.541
 2654SOL    HW2 8862   0.009   1.148   0.387
 2655SOL     OW 8863   5.612   6.509   2.736
 2655SOL    HW1 8864   5.635   6.435   2.673
 2655SOL    HW2 8865   5.601   6.594   2.685
 2656SOL     OW 8866   4.384   6.203   3.456
 2656SOL    HW1 8867   4.443   6.123   3.445
 2656SOL    HW2 8868   4.342   6.201   3.547
 2657SOL     OW 8869   0.949   3.509   6.878
 2657SOL    HW1 8870   0.951   3.608   6.872
 2657SOL    HW2 8871   0.963   3.469   6.788
 2658SOL     OW 8872   3.953   5.239   0.642
 2658SOL    HW1 8873   3.976   5.160   0.700
 2658SOL    HW2 8874   4.036   5.292   0.624
 2659SOL     OW 8875   6.978   2.218   5.016
 2659SOL    HW1 8876   6.901   2.266   5.058
 2659SOL    HW2 8877   0.036   2.265   5.039
 2660SOL     OW 8878   0.175   1.596   1.635
 2660SOL    HW1 8879   0.125   1.541   1.569
 2660SOL    HW2 8880   0.132   1.589   1.725
 2661SOL     OW 8881   1.882   1.030   0.927
 2661SOL    HW1 8882   1.905   1.015   1.024
 2661SOL    HW2 8883   1.814   1.103   0.920
 2662SOL     OW 8884   2.854   1.757   2.239
 2662SOL    HW1 8885   2.945   1.719   2.224
 2662SOL    HW2 8886   2.836   1.762   2.337
 2663SOL     OW 8887   4.078   0.026   0.262
 2663SOL    HW1 8888   4.019   7.012   0.192
 2663SOL    HW2 8889   4.028   0.027   0.349
 2664SOL     OW 8890   4.863   3.647   5.478
 2664SOL    HW1 8891   4.891   3.741   5.501
 2664SOL    HW2 8892   4.873   3.589   5.559
 2665SOL     OW 8893   1.929   2.911   4.092
 2665SOL    HW1 8894   1.878   2.944   4.172
 2665SOL    HW2 8895   1.992   2.982   4.061
 2666SOL     OW 8896   1.679   4.013   1.691
 2666SOL    HW1 8897   1.718   4.066   1.616
 2666SOL    HW2 8898   1.664   4.073   1.770
 2667SOL     OW 8899   6.568   2.920   5.392
 2667SOL    HW1 8900   6.589   3.008   5.434
 2667SOL    HW2 8901   6.642   2.894   5.329
 2668SOL     OW 8902   6.264   0.721   2.942
 2668SOL    HW1 8903   6.197   0.671   2.997
 2668SOL    HW2 8904   6.220   0.798   2.896
 2669SOL     OW 8905   2.584   0.735   0.356
 2669SOL    HW1 8906   2.602   0.684   0.439
 2669SOL    HW2 8907   2.539   0.676   0.289
 2670SOL     OW 8908   0.139   0.141   6.457
 2670SOL    HW1 8909   0.205   0.189   6.516
 2670SOL    HW2 8910   0.099   0.206   6.393
 2671SOL     OW 8911   5.208   4.666   6.213
 2671SOL    HW1 8912   5.153   4.622   6.284
 2671SOL    HW2 8913   5.154   4.674   6.130
 2672SOL     OW 8914   3.199   0.779   1.814
 2672SOL    HW1 8915   3.200   0.760   1.912
 2672SOL    HW2 8916   3.279   0.835   1.791
 2673SOL     OW 8917   3.952   0.475   2.384
 2673SOL    HW1 8918   3.948   0.564   2.428
 2673SOL    HW2 8919   4.048   0.448   2.371
 2674SOL     OW 8920   0.341   5.786   2.880
 2674SOL    HW1 8921   0.434   5.820   2.899
 2674SOL    HW2 8922   0.347   5.700   2.829
 2675SOL     OW 8923   4.524   1.294   4.305
 2675SOL    HW1 8924   4.430   1.304   4.272
 2675SOL    HW2 8925   4.541   1.361   4.377
 2676SOL     OW 8926   3.458   4.103   3.665
 2676SOL    HW1 8927   3.493   4.126   3.756
 2676SOL    HW2 8928   3.362   4.131   3.658
 2677SOL     OW 8929   2.038   5.889   1.317
 2677SOL    HW1 8930   2.109   5.821   1.299
 2677SOL    HW2 8931   1.982   5.860   1.395
 2678SOL     OW 8932   3.824   1.607   2.774
 2678SOL    HW1 8933   3.894   1.568   2.835
 2678SOL    HW2 8934   3.802   1.541   2.702
 2679SOL     OW 8935   2.228   3.060   2.581
 2679SOL    HW1 8936   2.250   2.962   2.588
 2679SOL    HW2 8937   2.233   3.101   2.672
 2680SOL     OW 8938   5.645   2.311   0.127
 2680SOL    HW1 8939   5.595   2.290   0.211
 2680SOL    HW2 8940   5.653   2.228   0.071
 2681SOL     OW 8941   2.119   2.663   3.698
 2681SOL    HW1 8942   2.104   2.693   3.793
 2681SOL    HW2 8943   2.040   2.610   3.668
 2682SOL     OW 8944   3.530   4.065   1.449
 2682SOL    HW1 8945   3.523   4.101   1.356
 2682SOL    HW2 8946   3.450   4.093   1.502
 2683SOL     OW 8947   2.107   3.983   1.753
 2683SOL    HW1 8948   2.190   3.946   1.712
 2683SOL    HW2 8949   2.033   3.916   1.745
 2684SOL     OW 8950   6.725   0.019   3.795
 2684SOL    HW1 8951   6.820   0.010   3.765
 2684SOL    HW2 8952   6.714   0.103   3.848
 2685SOL     OW 8953   0.713   6.034   5.244
 2685SOL    HW1 8954   0.777   5.973   5.196
 2685SOL    HW2 8955   0.661   6.086   5.177
 2686SOL     OW 8956   1.353   0.923   5.591
 2686SOL    HW1 8957   1.309   0.835   5.574
 2686SOL    HW2 8958   1.335   0.952   5.685
 2687SOL     OW 8959   4.158   1.750   1.575
 2687SOL    HW1 8960   4.237   1.809   1.558
 2687SOL    HW2 8961   4.083   1.803   1.613
 2688SOL     OW 8962   3.814   2.663   6.790
 2688SOL    HW1 8963   3.904   2.626   6.814
 2688SOL    HW2 8964   3.823   2.729   6.716
 2689SOL     OW 8965   0.799   3.761   3.485
 2689SOL    HW1 8966   0.722   3.781   3.424
 2689SOL    HW2 8967   0.869   3.712   3.434
 2690SOL     OW 8968   4.658   1.054   5.507
 2690SOL    HW1 8969   4.651   1.075   5.605
 2690SOL    HW2 8970   4.597   0.979   5.485
 2691SOL     OW 8971   0.171   4.037   5.242
 2691SOL    HW1 8972   0.251   4.038   5.303
 2691SOL    HW2 8973   0.194   3.985   5.160
 2692SOL     OW 8974   2.586   5.908   2.028
 2692SOL    HW1 8975   2.528   5.892   1.949
 2692SOL    HW2 8976   2.575   5.832   2.093
 2693SOL     OW 8977   0.965   6.270   3.319
 2693SOL    HW1 8978   0.872   6.235   3.311
 2693SOL    HW2 8979   0.995   6.266   3.414
 2694SOL     OW 8980   2.337   0.157   2.408
 2694SOL    HW1 8981   2.386   0.242   2.426
 2694SOL    HW2 8982   2.341   0.136   2.310
 2695SOL     OW 8983   0.305   4.990   4.000
 2695SOL    HW1 8984   0.327   4.900   4.037
 2695SOL    HW2 8985   0.220   4.984   3.947
 2696SOL     OW 8986   4.758   5.170   6.375
 2696SOL    HW1 8987   4.708   5.254   6.353
 2696SOL    HW2 8988   4.719   5.129   6.458
 2697SOL     OW 8989   4.029   1.831   0.264
 2697SOL    HW1 8990   3.940   1.806   0.302
 2697SOL    HW2 8991   4.100   1.773   0.306
 2698SOL     OW 8992   1.758   5.677   5.915
 2698SOL    HW1 8993   1.803   5.766   5.916
 2698SOL    HW2 8994   1.761   5.639   5.823
 2699SOL     OW 8995   2.758   6.380   2.364
 2699SOL    HW1 8996   2.735   6.285   2.338
 2699SOL    HW2 8997   2.713   6.403   2.450
 2700SOL     OW 8998   4.385   2.023   1.326
 2700SOL    HW1 8999   4.291   1.996   1.305
 2700SOL    HW2 9000   4.449   1.960   1.281
 2701SOL     OW 9001   4.883   3.570   4.374
 2701SOL    HW1 9002   4.979   3.595   4.371
 2701SOL    HW2 9003   4.838   3.618   4.450
 2702SOL     OW 9004   2.672   1.356   4.763
 2702SOL    HW1 9005   2.729   1.376   4.684
 2702SOL    HW2 9006   2.599   1.293   4.737
 2703SOL     OW 9007   2.628   6.413   2.609
 2703SOL    HW1 9008   2.561   6.445   2.675
 2703SOL    HW2 9009   2.699   6.360   2.656
 2704SOL     OW 9010   4.961   0.756   3.609
 2704SOL    HW1 9011   4.916   0.764   3.520
 2704SOL    HW2 9012   4.963   0.846   3.653
 2705SOL     OW 9013   0.440   0.253   5.398
 2705SOL    HW1 9014   0.381   0.261   5.317
 2705SOL    HW2 9015   0.453   0.156   5.420
 2706SOL     OW 9016   6.707   4.127   3.307
 2706SOL    HW1 9017   6.623   4.151   3.259
 2706SOL    HW2 9018   6.686   4.066   3.383
 2707SOL     OW 9019   4.148   0.958   3.577
 2707SOL    HW1 9020   4.223   0.967   3.513
 2707SOL    HW2 9021   4.182   0.969   3.671
 2708SOL     OW 9022   5.236   3.562   6.176
 2708SOL    HW1 9023   5.268   3.509   6.097
 2708SOL    HW2 9024   5.215   3.655   6.147
 2709SOL     OW 9025   4.304   1.427   5.598
 2709SOL    HW1 9026   4.264   1.357   5.656
 2709SOL    HW2 9027   4.299   1.398   5.502
 2710SOL     OW 9028   0.839   3.240   4.334
 2710SOL    HW1 9029   0.837   3.286   4.245
 2710SOL    HW2 9030   0.921   3.267   4.384
 2711SOL     OW 9031   4.359   0.837   1.756
 2711SOL    HW1 9032   4.373   0.802   1.664
 2711SOL    HW2 9033   4.331   0.762   1.816
 2712SOL     OW 9034   5.020   6.194   2.305
 2712SOL    HW1 9035   5.048   6.133   2.379
 2712SOL    HW2 9036   5.071   6.172   2.222
 2713SOL     OW 9037   3.663   4.908   5.191
 2713SOL    HW1 9038   3.730   4.868   5.254
 2713SOL    HW2 9039   3.687   5.003   5.171
 2714SOL     OW 9040   3.361   4.453   6.325
 2714SOL    HW1 9041   3.440   4.512   6.313
 2714SOL    HW2 9042   3.285   4.505   6.365
 2715SOL     OW 9043   4.102   6.820   6.304
 2715SOL    HW1 9044   4.202   6.827   6.295
 2715SOL    HW2 9045   4.066   6.907   6.335
 2716SOL     OW 9046   4.002   0.855   2.973
 2716SOL    HW1 9047   3.965   0.944   3.002
 2716SOL    HW2 9048   4.018   0.798   3.053
 2717SOL     OW 9049   1.112   1.925   1.735
 2717SOL    HW1 9050   1.053   1.963   1.664
 2717SOL    HW2 9051   1.056   1.886   1.808
 2718SOL     OW 9052   6.630   1.609   5.528
 2718SOL    HW1 9053   6.630   1.640   5.623
 2718SOL    HW2 9054   6.689   1.529   5.519
 2719SOL     OW 9055   1.454   5.324   3.584
 2719SOL    HW1 9056   1.444   5.398   3.650
 2719SOL    HW2 9057   1.435   5.236   3.628
 2720SOL     OW 9058   1.568   6.038   6.058
 2720SOL    HW1 9059   1.573   6.104   5.983
 2720SOL    HW2 9060   1.643   6.054   6.121
 2721SOL     OW 9061   2.675   6.883   1.823
 2721SOL    HW1 9062   2.725   6.948   1.766
 2721SOL    HW2 9063   2.732   6.856   1.900
 2722SOL     OW 9064   3.899   5.056   6.530
 2722SOL    HW1 9065   3.929   5.138   6.482
 2722SOL    HW2 9066   3.915   4.975   6.473
 2723SOL     OW 9067   3.741   5.957   6.718
 2723SOL    HW1 9068   3.669   6.020   6.745
 2723SOL    HW2 9069   3.822   5.972   6.776
 2724SOL     OW 9070   0.213   5.751   1.030
 2724SOL    HW1 9071   0.125   5.751   1.078
 2724SOL    HW2 9072   0.197   5.759   0.932
 2725SOL     OW 9073   5.643   4.587   3.791
 2725SOL    HW1 9074   5.674   4.494   3.810
 2725SOL    HW2 9075   5.715   4.652   3.815
 2726SOL     OW 9076   6.646   1.926   2.250
 2726SOL    HW1 9077   6.584   1.963   2.319
 2726SOL    HW2 9078   6.634   1.827   2.244
 2727SOL     OW 9079   1.402   5.963   3.462
 2727SOL    HW1 9080   1.440   5.935   3.550
 2727SOL    HW2 9081   1.476   5.981   3.398
 2728SOL     OW 9082   4.536   5.585   6.138
 2728SOL    HW1 9083   4.444   5.546   6.136
 2728SOL    HW2 9084   4.534   5.679   6.103
 2729SOL     OW 9085   5.684   0.534   6.558
 2729SOL    HW1 9086   5.732   0.559   6.643
 2729SOL    HW2 9087   5.721   0.588   6.482
 2730SOL     OW 9088   1.336   6.138   2.960
 2730SOL    HW1 9089   1.314   6.080   3.038
 2730SOL    HW2 9090   1.321   6.087   2.875
 2731SOL     OW 9091   3.026   3.971   4.803
 2731SOL    HW1 9092   3.090   4.036   4.843
 2731SOL    HW2 9093   2.933   4.008   4.809
 2732SOL     OW 9094   5.234   0.542   1.793
 2732SOL    HW1 9095   5.197   0.480   1.863
 2732SOL    HW2 9096   5.283   0.489   1.724
 2733SOL     OW 9097   0.757   6.212   0.107
 2733SOL    HW1 9098   0.847   6.186   0.072
 2733SOL    HW2 9099   0.712   6.132   0.147
 2734SOL     OW 9100   3.684   6.295   2.461
 2734SOL    HW1 9101   3.760   6.348   2.422
 2734SOL    HW2 9102   3.711   6.260   2.551
 2735SOL     OW 9103   0.627   1.570   1.469
 2735SOL    HW1 9104   0.621   1.473   1.445
 2735SOL    HW2 9105   0.592   1.583   1.562
 2736SOL     OW 9106   5.703   4.329   3.278
 2736SOL    HW1 9107   5.786   4.362   3.232
 2736SOL    HW2 9108   5.722   4.240   3.320
 2737SOL     OW 9109   3.305   0.545   5.284
 2737SOL    HW1 9110   3.391   0.578   5.323
 2737SOL    HW2 9111   3.305   0.562   5.185
 2738SOL     OW 9112   4.790   5.567   1.427
 2738SOL    HW1 9113   4.693   5.586   1.438
 2738SOL    HW2 9114   4.839   5.594   1.509
 2739SOL     OW 9115   7.012   5.004   1.363
 2739SOL    HW1 9116   0.006   5.053   1.447
 2739SOL    HW2 9117   6.983   4.911   1.385
 2740SOL     OW 9118   0.548   5.452   3.394
 2740SOL    HW1 9119   0.643   5.434   3.421
 2740SOL    HW2 9120   0.519   5.383   3.329
 2741SOL     OW 9121   0.649   7.015   5.482
 2741SOL    HW1 9122   0.638   0.053   5.557
 2741SOL    HW2 9123   0.578   6.945   5.489
 2742SOL     OW 9124   3.378   5.555   2.188
 2742SOL    HW1 9125   3.405   5.651   2.194
 2742SOL    HW2 9126   3.410   5.517   2.101
 2743SOL     OW 9127   5.424   1.242   2.567
 2743SOL    HW1 9128   5.345   1.219   2.624
 2743SOL    HW2 9129   5.398   1.313   2.501
 2744SOL     OW 9130   3.594   4.111   2.694
 2744SOL    HW1 9131   3.517   4.106   2.630
 2744SOL    HW2 9132   3.562   4.141   2.784
 2745SOL     OW 9133   0.681   6.018   0.470
 2745SOL    HW1 9134   0.705   5.924   0.494
 2745SOL    HW2 9135   0.582   6.030   0.477
 2746SOL     OW 9136   1.619   1.619   3.338
 2746SOL    HW1 9137   1.701   1.674   3.351
 2746SOL    HW2 9138   1.640   1.540   3.281
 2747SOL     OW 9139   3.767   4.274   0.955
 2747SOL    HW1 9140   3.834   4.312   1.019
 2747SOL    HW2 9141   3.795   4.182   0.928
 2748SOL     OW 9142   3.918   0.031   0.532
 2748SOL    HW1 9143   3.899   0.126   0.507
 2748SOL    HW2 9144   3.888   0.014   0.626
 2749SOL     OW 9145   3.028   1.494   0.919
 2749SOL    HW1 9146   3.117   1.497   0.874
 2749SOL    HW2 9147   2.979   1.580   0.904
 2750SOL     OW 9148   3.215   5.425   2.404
 2750SOL    HW1 9149   3.183   5.485   2.478
 2750SOL    HW2 9150   3.242   5.480   2.325
 2751SOL     OW 9151   6.365   5.238   1.020
 2751SOL    HW1 9152   6.266   5.245   1.005
 2751SOL    HW2 9153   6.395   5.145   0.999
 2752SOL     OW 9154   4.103   5.896   6.646
 2752SOL    HW1 9155   4.115   5.995   6.647
 2752SOL    HW2 9156   4.061   5.867   6.560
 2753SOL     OW 9157   5.323   6.065   5.395
 2753SOL    HW1 9158   5.420   6.072   5.418
 2753SOL    HW2 9159   5.307   6.109   5.307
 2754SOL     OW 9160   1.330   6.681   5.885
 2754SOL    HW1 9161   1.264   6.622   5.931
 2754SOL    HW2 9162   1.347   6.762   5.940
 2755SOL     OW 9163   4.163   0.409   2.249
 2755SOL    HW1 9164   4.169   0.312   2.275
 2755SOL    HW2 9165   4.253   0.451   2.256
 2756SOL     OW 9166   4.725   5.894   0.041
 2756SOL    HW1 9167   4.653   5.963   0.037
 2756SOL    HW2 9168   4.812   5.937   0.065
 2757SOL     OW 9169   0.454   4.936   0.893
 2757SOL    HW1 9170   0.378   4.872   0.896
 2757SOL    HW2 9171   0.506   4.930   0.978
 2758SOL     OW 9172   3.990   1.292   5.469
 2758SOL    HW1 9173   3.986   1.387   5.500
 2758SOL    HW2 9174   4.049   1.239   5.530
 2759SOL     OW 9175   4.973   5.252   4.728
 2759SOL    HW1 9176   5.035   5.329   4.740
 2759SOL    HW2 9177   4.879   5.285   4.726
 2760SOL     OW 9178   1.693   6.527   3.781
 2760SOL    HW1 9179   1.615   6.563   3.729
 2760SOL    HW2 9180   1.719   6.437   3.745
 2761SOL     OW 9181   2.213   5.084   3.727
 2761SOL    HW1 9182   2.272   5.009   3.698
 2761SOL    HW2 9183   2.129   5.084   3.672
 2762SOL     OW 9184   1.345   0.515   4.791
 2762SOL    HW1 9185   1.299   0.483   4.874
 2762SOL    HW2 9186   1.361   0.437   4.730
 2763SOL     OW 9187   5.337   1.689   2.617
 2763SOL    HW1 9188   5.316   1.780   2.653
 2763SOL    HW2 9189   5.252   1.644   2.589
 2764SOL     OW 9190   6.499   0.883   1.946
 2764SOL    HW1 9191   6.453   0.972   1.952
 2764SOL    HW2 9192   6.553   0.869   2.029
 2765SOL     OW 9193   5.747   2.255   2.292
 2765SOL    HW1 9194   5.820   2.278   2.357
 2765SOL    HW2 9195   5.722   2.337   2.240
 2766SOL     OW 9196   6.034   0.363   2.612
 2766SOL    HW1 9197   6.011   0.452   2.570
 2766SOL    HW2 9198   6.078   0.305   2.543
 2767SOL     OW 9199   6.084   4.611   5.726
 2767SOL    HW1 9200   6.168   4.631   5.675
 2767SOL    HW2 9201   6.105   4.551   5.803
 2768SOL     OW 9202   5.959   1.313   6.490
 2768SOL    HW1 9203   6.046   1.330   6.443
 2768SOL    HW2 9204   5.941   1.387   6.555
 2769SOL     OW 9205   1.137   4.632   1.376
 2769SOL    HW1 9206   1.077   4.710   1.355
 2769SOL    HW2 9207   1.105   4.588   1.460
 2770SOL     OW 9208   6.472   6.039   1.566
 2770SOL    HW1 9209   6.441   6.000   1.480
 2770SOL    HW2 9210   6.461   6.139   1.564
 2771SOL     OW 9211   4.839   1.335   1.149
 2771SOL    HW1 9212   4.742   1.311   1.147
 2771SOL    HW2 9213   4.884   1.286   1.225
 2772SOL     OW 9214   3.837   2.453   6.585
 2772SOL    HW1 9215   3.932   2.485   6.591
 2772SOL    HW2 9216   3.807   2.421   6.674
 2773SOL     OW 9217   3.312   4.289   0.798
 2773SOL    HW1 9218   3.394   4.239   0.770
 2773SOL    HW2 9219   3.261   4.233   0.864
 2774SOL     OW 9220   5.611   3.392   2.412
 2774SOL    HW1 9221   5.583   3.302   2.446
 2774SOL    HW2 9222   5.710   3.393   2.399
 2775SOL     OW 9223   6.779   7.021   2.549
 2775SOL    HW1 9224   6.854   0.054   2.579
 2775SOL    HW2 9225   6.793   6.929   2.584
 2776SOL     OW 9226   3.532   5.885   5.818
 2776SOL    HW1 9227   3.482   5.969   5.796
 2776SOL    HW2 9228   3.485   5.806   5.779
 2777SOL     OW 9229   2.740   1.300   3.571
 2777SOL    HW1 9230   2.826   1.267   3.611
 2777SOL    HW2 9231   2.671   1.310   3.642
 2778SOL     OW 9232   2.333   1.840   4.737
 2778SOL    HW1 9233   2.370   1.920   4.786
 2778SOL    HW2 9234   2.403   1.805   4.674
 2779SOL     OW 9235   6.264   1.269   0.726
 2779SOL    HW1 9236   6.194   1.251   0.658
 2779SOL    HW2 9237   6.221   1.279   0.816
 2780SOL     OW 9238   4.427   6.005   0.225
 2780SOL    HW1 9239   4.366   6.053   0.288
 2780SOL    HW2 9240   4.435   5.909   0.252
 2781SOL     OW 9241   4.978   4.624   0.517
 2781SOL    HW1 9242   4.948   4.529   0.500
 2781SOL    HW2 9243   4.986   4.639   0.615
 2782SOL     OW 9244   2.604   1.235   6.269
 2782SOL    HW1 9245   2.511   1.201   6.282
 2782SOL    HW2 9246   2.605   1.335   6.274
 2783SOL     OW 9247   0.478   4.620   6.199
 2783SOL    HW1 9248   0.410   4.635   6.127
 2783SOL    HW2 9249   0.559   4.577   6.160
 2784SOL     OW 9250   2.374   2.184   1.963
 2784SOL    HW1 9251   2.349   2.278   1.939
 2784SOL    HW2 9252   2.474   2.175   1.960
 2785SOL     OW 9253   6.050   1.068   1.693
 2785SOL    HW1 9254   6.143   1.038   1.669
 2785SOL    HW2 9255   5.985   0.996   1.673
 2786SOL     OW 9256   2.967   6.991   6.996
 2786SOL    HW1 9257   2.938   6.996   0.065
 2786SOL    HW2 9258   2.891   6.957   6.940
 2787SOL     OW 9259   1.945   2.843   5.295
 2787SOL    HW1 9260   1.906   2.909   5.359
 2787SOL    HW2 9261   1.939   2.879   5.202
 2788SOL     OW 9262   0.921   3.837   6.970
 2788SOL    HW1 9263   0.947   3.782   0.023
 2788SOL    HW2 9264   0.824   3.858   6.973
 2789SOL     OW 9265   6.939   2.377   4.218
 2789SOL    HW1 9266   6.986   2.439   4.280
 2789SOL    HW2 9267   6.885   2.429   4.152
 2790SOL     OW 9268   3.558   5.907   3.782
 2790SOL    HW1 9269   3.524   6.001   3.778
 2790SOL    HW2 9270   3.609   5.893   3.867
 2791SOL     OW 9271   2.291   2.785   2.565
 2791SOL    HW1 9272   2.381   2.744   2.550
 2791SOL    HW2 9273   2.252   2.750   2.650
 2792SOL     OW 9274   0.958   2.667   5.025
 2792SOL    HW1 9275   0.970   2.645   5.122
 2792SOL    HW2 9276   0.860   2.672   5.004
 2793SOL     OW 9277   5.234   0.878   3.951
 2793SOL    HW1 9278   5.183   0.821   4.015
 2793SOL    HW2 9279   5.317   0.830   3.923
 2794SOL     OW 9280   0.519   0.963   1.263
 2794SOL    HW1 9281   0.492   0.946   1.168
 2794SOL    HW2 9282   0.618   0.958   1.271
 2795SOL     OW 9283   1.795   4.294   1.565
 2795SOL    HW1 9284   1.873   4.336   1.612
 2795SOL    HW2 9285   1.714   4.351   1.577
 2796SOL     OW 9286   5.104   4.401   2.523
 2796SOL    HW1 9287   5.067   4.393   2.430
 2796SOL    HW2 9288   5.203   4.415   2.518
 2797SOL     OW 9289   4.567   4.538   4.825
 2797SOL    HW1 9290   4.612   4.622   4.795
 2797SOL    HW2 9291   4.512   4.556   4.906
 2798SOL     OW 9292   1.598   3.187   4.066
 2798SOL    HW1 9293   1.686   3.221   4.098
 2798SOL    HW2 9294   1.527   3.256   4.085
 2799SOL     OW 9295   6.443   5.561   5.890
 2799SOL    HW1 9296   6.356   5.522   5.917
 2799SOL    HW2 9297   6.485   5.504   5.819
 2800SOL     OW 9298   2.947   1.936   6.930
 2800SOL    HW1 9299   2.956   1.844   6.892
 2800SOL    HW2 9300   2.898   1.995   6.866
 2801SOL     OW 9301   4.366   5.262   2.628
 2801SOL    HW1 9302   4.403   5.355   2.621
 2801SOL    HW2 9303   4.433   5.204   2.674
 2802SOL     OW 9304   5.683   0.777   5.980
 2802SOL    HW1 9305   5.763   0.738   6.026
 2802SOL    HW2 9306   5.615   0.706   5.965
 2803SOL     OW 9307   2.186   5.588   5.489
 2803SOL    HW1 9308   2.200   5.558   5.395
 2803SOL    HW2 9309   2.270   5.628   5.525
 2804SOL     OW 9310   0.240   4.817   2.660
 2804SOL    HW1 9311   0.157   4.803   2.605
 2804SOL    HW2 9312   0.251   4.914   2.680
 2805SOL     OW 9313   4.948   3.769   6.182
 2805SOL    HW1 9314   4.873   3.824   6.146
 2805SOL    HW2 9315   4.999   3.729   6.106
 2806SOL     OW 9316   6.931   5.577   2.907
 2806SOL    HW1 9317   6.974   5.550   2.820
 2806SOL    HW2 9318   6.831   5.571   2.898
 2807SOL     OW 9319   3.956   4.843   4.177
 2807SOL    HW1 9320   3.877   4.888   4.217
 2807SOL    HW2 9321   3.928   4.791   4.097
 2808SOL     OW 9322   4.520   6.080   3.721
 2808SOL    HW1 9323   4.571   6.000   3.688
 2808SOL    HW2 9324   4.570   6.163   3.699
 2809SOL     OW 9325   5.437   3.379   0.967
 2809SOL    HW1 9326   5.457   3.477   0.955
 2809SOL    HW2 9327   5.425   3.359   1.064
 2810SOL     OW 9328   1.394   0.310   5.550
 2810SOL    HW1 9329   1.332   0.304   5.472
 2810SOL    HW2 9330   1.474   0.365   5.525
 2811SOL     OW 9331   0.095   1.115   4.183
 2811SOL    HW1 9332   0.091   1.166   4.269
 2811SOL    HW2 9333   0.125   1.021   4.200
 2812SOL     OW 9334   5.486   3.927   2.275
 2812SOL    HW1 9335   5.473   3.829   2.260
 2812SOL    HW2 9336   5.397   3.972   2.282
 2813SOL     OW 9337   6.292   1.659   6.420
 2813SOL    HW1 9338   6.282   1.740   6.362
 2813SOL    HW2 9339   6.311   1.689   6.514
 2814SOL     OW 9340   5.188   4.382   5.366
 2814SOL    HW1 9341   5.250   4.361   5.442
 2814SOL    HW2 9342   5.240   4.423   5.292
 2815SOL     OW 9343   0.080   1.721   5.313
 2815SOL    HW1 9344   7.013   1.724   5.349
 2815SOL    HW2 9345   0.098   1.630   5.277
 2816SOL     OW 9346   5.729   6.242   3.203
 2816SOL    HW1 9347   5.709   6.307   3.129
 2816SOL    HW2 9348   5.758   6.155   3.163
 2817SOL     OW 9349   1.558   1.835   1.184
 2817SOL    HW1 9350   1.645   1.787   1.192
 2817SOL    HW2 9351   1.571   1.932   1.207
 2818SOL     OW 9352   0.301   3.875   5.871
 2818SOL    HW1 9353   0.369   3.815   5.914
 2818SOL    HW2 9354   0.311   3.870   5.771
 2819SOL     OW 9355   5.776   2.922   0.782
 2819SOL    HW1 9356   5.686   2.964   0.772
 2819SOL    HW2 9357   5.846   2.984   0.747
 2820SOL     OW 9358   6.082   2.660   4.412
 2820SOL    HW1 9359   6.158   2.718   4.384
 2820SOL    HW2 9360   6.118   2.586   4.470
 2821SOL     OW 9361   1.129   2.938   3.741
 2821SOL    HW1 9362   1.194   2.880   3.690
 2821SOL    HW2 9363   1.149   2.931   3.839
 2822SOL     OW 9364   3.220   1.797   0.493
 2822SOL    HW1 9365   3.284   1.736   0.540
 2822SOL    HW2 9366   3.272   1.867   0.443
 2823SOL     OW 9367   2.056   6.713   3.421
 2823SOL    HW1 9368   2.055   6.614   3.415
 2823SOL    HW2 9369   1.964   6.749   3.406
 2824SOL     OW 9370   2.949   1.590   4.812
 2824SOL    HW1 9371   2.967   1.513   4.873
 2824SOL    HW2 9372   2.854   1.586   4.781
 2825SOL     OW 9373   6.335   6.190   1.126
 2825SOL    HW1 9374   6.272   6.194   1.049
 2825SOL    HW2 9375   6.416   6.245   1.105
 2826SOL     OW 9376   4.590   2.655   4.292
 2826SOL    HW1 9377   4.591   2.571   4.346
 2826SOL    HW2 9378   4.667   2.714   4.320
 2827SOL     OW 9379   5.679   0.934   6.251
 2827SOL    HW1 9380   5.732   0.988   6.316
 2827SOL    HW2 9381   5.690   0.973   6.159
 2828SOL     OW 9382   2.965   2.014   6.392
 2828SOL    HW1 9383   2.909   2.084   6.348
 2828SOL    HW2 9384   3.036   2.058   6.448
 2829SOL     OW 9385   1.990   0.073   6.503
 2829SOL    HW1 9386   2.018   0.068   6.599
 2829SOL    HW2 9387   1.967   7.008   6.470
 2830SOL     OW 9388   3.624   3.357   6.795
 2830SOL    HW1 9389   3.723   3.362   6.784
 2830SOL    HW2 9390   3.592   3.266   6.767
 2831SOL     OW 9391   6.051   5.598   3.894
 2831SOL    HW1 9392   6.143   5.561   3.882
 2831SOL    HW2 9393   6.039   5.678   3.835
 2832SOL     OW 9394   0.204   0.715   1.766
 2832SOL    HW1 9395   0.214   0.790   1.701
 2832SOL    HW2 9396   0.166   0.635   1.718
 2833SOL     OW 9397   6.216   3.039   2.102
 2833SOL    HW1 9398   6.156   2.959   2.095
 2833SOL    HW2 9399   6.310   3.009   2.115
 2834SOL     OW 9400   3.723   0.992   5.894
 2834SOL    HW1 9401   3.795   0.972   5.827
 2834SOL    HW2 9402   3.708   0.911   5.950
 2835SOL     OW 9403   0.441   6.629   3.052
 2835SOL    HW1 9404   0.427   6.717   3.097
 2835SOL    HW2 9405   0.537   6.602   3.060
 2836SOL     OW 9406   6.676   0.902   0.687
 2836SOL    HW1 9407   6.587   0.873   0.652
 2836SOL    HW2 9408   6.747   0.883   0.619
 2837SOL     OW 9409   6.201   2.860   4.030
 2837SOL    HW1 9410   6.112   2.901   4.048
 2837SOL    HW2 9411   6.226   2.875   3.934
 2838SOL     OW 9412   2.052   4.936   3.932
 2838SOL    HW1 9413   2.124   4.987   3.886
 2838SOL    HW2 9414   1.990   5.000   3.979
 2839SOL     OW 9415   5.073   2.170   1.761
 2839SOL    HW1 9416   5.058   2.077   1.794
 2839SOL    HW2 9417   5.005   2.192   1.690
 2840SOL     OW 9418   6.807   1.936   5.656
 2840SOL    HW1 9419   6.708   1.924   5.658
 2840SOL    HW2 9420   6.830   2.033   5.660
 2841SOL     OW 9421   0.639   6.515   1.460
 2841SOL    HW1 9422   0.649   6.578   1.383
 2841SOL    HW2 9423   0.727   6.505   1.507
 2842SOL     OW 9424   6.261   3.178   3.194
 2842SOL    HW1 9425   6.355   3.144   3.182
 2842SOL    HW2 9426   6.219   3.192   3.104
 2843SOL     OW 9427   3.903   2.041   4.806
 2843SOL    HW1 9428   3.814   2.083   4.794
 2843SOL    HW2 9429   3.974   2.111   4.802
 2844SOL     OW 9430   0.142   3.821   5.540
 2844SOL    HW1 9431   0.077   3.848   5.469
 2844SOL    HW2 9432   0.120   3.729   5.572
 2845SOL     OW 9433   6.615   4.100   4.972
 2845SOL    HW1 9434   6.587   4.150   5.054
 2845SOL    HW2 9435   6.694   4.042   4.994
 2846SOL     OW 9436   4.516   1.219   6.912
 2846SOL    HW1 9437   4.465   1.151   6.859
 2846SOL    HW2 9438   4.499   1.310   6.874
 2847SOL     OW 9439   4.631   4.590   3.923
 2847SOL    HW1 9440   4.629   4.604   4.022
 2847SOL    HW2 9441   4.541   4.560   3.892
 2848SOL     OW 9442   1.332   6.173   5.087
 2848SOL    HW1 9443   1.396   6.246   5.065
 2848SOL    HW2 9444   1.252   6.212   5.132
 2849SOL     OW 9445   2.336   2.982   1.488
 2849SOL    HW1 9446   2.289   2.992   1.400
 2849SOL    HW2 9447   2.332   2.886   1.517
 2850SOL     OW 9448   3.754   1.260   7.009
 2850SOL    HW1 9449   3.697   1.326   0.032
 2850SOL    HW2 9450   3.764   1.290   6.914
 2851SOL     OW 9451   2.388   4.604   6.204
 2851SOL    HW1 9452   2.405   4.584   6.108
 2851SOL    HW2 9453   2.394   4.519   6.257
 2852SOL     OW 9454   7.005   3.423   6.405
 2852SOL    HW1 9455   0.048   3.391   6.340
 2852SOL    HW2 9456   7.013   3.523   6.415
 2853SOL     OW 9457   3.887   3.534   1.696
 2853SOL    HW1 9458   3.945   3.613   1.679
 2853SOL    HW2 9459   3.837   3.511   1.613
 2854SOL     OW 9460   1.206   1.047   3.627
 2854SOL    HW1 9461   1.263   1.125   3.604
 2854SOL    HW2 9462   1.110   1.075   3.631
 2855SOL     OW 9463   3.301   0.852   5.269
 2855SOL    HW1 9464   3.214   0.841   5.317
 2855SOL    HW2 9465   3.296   0.933   5.210
 2856SOL     OW 9466   2.428   1.573   5.086
 2856SOL    HW1 9467   2.453   1.522   5.168
 2856SOL    HW2 9468   2.450   1.669   5.098
 2857SOL     OW 9469   2.926   3.758   3.306
 2857SOL    HW1 9470   2.844   3.746   3.362
 2857SOL    HW2 9471   2.990   3.818   3.353
 2858SOL     OW 9472   5.787   2.777   3.131
 2858SOL    HW1 9473   5.763   2.874   3.133
 2858SOL    HW2 9474   5.703   2.722   3.128
 2859SOL     OW 9475   6.146   6.353   0.779
 2859SOL    HW1 9476   6.064   6.404   0.753
 2859SOL    HW2 9477   6.208   6.348   0.701
 2860SOL     OW 9478   4.428   1.857   1.534
 2860SOL    HW1 9479   4.514   1.806   1.541
 2860SOL    HW2 9480   4.434   1.922   1.458
 2861SOL     OW 9481   3.284   5.406   5.529
 2861SOL    HW1 9482   3.320   5.425   5.621
 2861SOL    HW2 9483   3.197   5.358   5.537
 2862SOL     OW 9484   6.025   0.635   4.512
 2862SOL    HW1 9485   6.115   0.676   4.530
 2862SOL    HW2 9486   6.032   0.536   4.523
 2863SOL     OW 9487   6.284   1.655   0.781
 2863SOL    HW1 9488   6.218   1.586   0.750
 2863SOL    HW2 9489   6.284   1.731   0.717
 2864SOL     OW 9490   3.217   1.396   0.162
 2864SOL    HW1 9491   3.237   1.326   0.095
 2864SOL    HW2 9492   3.118   1.400   0.178
 2865SOL     OW 9493   4.236   5.154   5.030
 2865SOL    HW1 9494   4.158   5.184   4.975
 2865SOL    HW2 9495   4.300   5.230   5.041
 2866SOL     OW 9496   6.991   6.868   6.129
 2866SOL    HW1 9497   6.943   6.881   6.042
 2866SOL    HW2 9498   6.924   6.852   6.202
 2867SOL     OW 9499   6.606   4.480   3.517
 2867SOL    HW1 9500   6.673   4.536   3.468
 2867SOL    HW2 9501   6.605   4.505   3.613
 2868SOL     OW 9502   1.771   4.605   5.338
 2868SOL    HW1 9503   1.758   4.509   5.313
 2868SOL    HW2 9504   1.820   4.610   5.425
 2869SOL     OW 9505   6.140   1.456   2.520
 2869SOL    HW1 9506   6.055   1.464   2.468
 2869SOL    HW2 9507   6.138   1.371   2.573
 2870SOL     OW 9508   4.862   1.890   2.810
 2870SOL    HW1 9509   4.846   1.878   2.908
 2870SOL    HW2 9510   4.901   1.980   2.793
 2871SOL     OW 9511   2.000   1.762   5.897
 2871SOL    HW1 9512   2.029   1.807   5.981
 2871SOL    HW2 9513   2.080   1.745   5.839
 2872SOL     OW 9514   2.210   6.397   4.375
 2872SOL    HW1 9515   2.139   6.344   4.422
 2872SOL    HW2 9516   2.212   6.490   4.410
 2873SOL     OW 9517   0.254   5.322   1.914
 2873SOL    HW1 9518   0.298   5.371   1.989
 2873SOL    HW2 9519   0.246   5.225   1.937
 2874SOL     OW 9520   6.093   1.838   2.464
 2874SOL    HW1 9521   6.075   1.759   2.406
 2874SOL    HW2 9522   6.006   1.880   2.492
 2875SOL     OW 9523   2.991   5.033   0.530
 2875SOL    HW1 9524   3.083   5.071   0.531
 2875SOL    HW2 9525   2.951   5.039   0.622
 2876SOL     OW 9526   6.888   1.469   2.591
 2876SOL    HW1 9527   6.868   1.388   2.646
 2876SOL    HW2 9528   6.805   1.501   2.547
 2877SOL     OW 9529   2.323   3.368   5.860
 2877SOL    HW1 9530   2.422   3.372   5.848
 2877SOL    HW2 9531   2.299   3.403   5.951
 2878SOL     OW 9532   2.872   4.443   6.852
 2878SOL    HW1 9533   2.836   4.374   6.790
 2878SOL    HW2 9534   2.959   4.478   6.817
 2879SOL     OW 9535   4.986   4.926   6.594
 2879SOL    HW1 9536   5.012   4.865   6.669
 2879SOL    HW2 9537   4.889   4.951   6.604
 2880SOL     OW 9538   1.209   6.105   1.658
 2880SOL    HW1 9539   1.141   6.056   1.603
 2880SOL    HW2 9540   1.229   6.193   1.615
 2881SOL     OW 9541   0.086   0.092   6.918
 2881SOL    HW1 9542   0.079   0.124   6.824
 2881SOL    HW2 9543   0.013   0.132   6.973
 2882SOL     OW 9544   6.986   3.498   3.678
 2882SOL    HW1 9545   6.935   3.583   3.684
 2882SOL    HW2 9546   0.040   3.503   3.737
 2883SOL     OW 9547   4.758   6.450   2.531
 2883SOL    HW1 9548   4.823   6.477   2.602
 2883SOL    HW2 9549   4.789   6.484   2.443
 2884SOL     OW 9550   1.583   5.997   3.272
 2884SOL    HW1 9551   1.573   6.040   3.182
 2884SOL    HW2 9552   1.668   5.943   3.273
 2885SOL     OW 9553   0.229   2.176   3.594
 2885SOL    HW1 9554   0.322   2.168   3.629
 2885SOL    HW2 9555   0.227   2.151   3.497
 2886SOL     OW 9556   2.196   2.687   5.793
 2886SOL    HW1 9557   2.226   2.777   5.761
 2886SOL    HW2 9558   2.272   2.623   5.789
 2887SOL     OW 9559   2.115   1.120   4.807
 2887SOL    HW1 9560   2.074   1.114   4.898
 2887SOL    HW2 9561   2.137   1.215   4.786
 2888SOL     OW 9562   6.698   5.241   6.928
 2888SOL    HW1 9563   6.723   5.279   7.017
 2888SOL    HW2 9564   6.663   5.313   6.869
 2889SOL     OW 9565   0.447   7.020   1.803
 2889SOL    HW1 9566   0.446   0.027   1.708
 2889SOL    HW2 9567   0.353   7.018   1.838
 2890SOL     OW 9568   3.055   6.590   0.681
 2890SOL    HW1 9569   2.993   6.662   0.649
 2890SOL    HW2 9570   3.132   6.632   0.729
 2891SOL     OW 9571   2.877   5.183   4.517
 2891SOL    HW1 9572   2.945   5.110   4.516
 2891SOL    HW2 9573   2.785   5.144   4.516
 2892SOL     OW 9574   4.701   4.647   5.551
 2892SOL    HW1 9575   4.791   4.633   5.510
 2892SOL    HW2 9576   4.655   4.723   5.504
 2893SOL     OW 9577   2.701   0.627   5.849
 2893SOL    HW1 9578   2.732   0.556   5.912
 2893SOL    HW2 9579   2.773   0.694   5.836
 2894SOL     OW 9580   3.231   2.465   0.868
 2894SOL    HW1 9581   3.150   2.521   0.850
 2894SOL    HW2 9582   3.245   2.458   0.966
 2895SOL     OW 9583   3.008   3.264   6.664
 2895SOL    HW1 9584   2.911   3.252   6.641
 2895SOL    HW2 9585   3.048   3.176   6.688
 2896SOL     OW 9586   2.337   5.529   1.051
 2896SOL    HW1 9587   2.247   5.509   1.090
 2896SOL    HW2 9588   2.342   5.625   1.025
 2897SOL     OW 9589   1.478   6.531   3.581
 2897SOL    HW1 9590   1.389   6.532   3.626
 2897SOL    HW2 9591   1.475   6.592   3.502
 2898SOL     OW 9592   2.775   5.001   2.493
 2898SOL    HW1 9593   2.858   4.960   2.530
 2898SOL    HW2 9594   2.720   4.931   2.446
 2899SOL     OW 9595   6.465   0.530   0.349
 2899SOL    HW1 9596   6.507   0.439   0.350
 2899SOL    HW2 9597   6.518   0.591   0.289
 2900SOL     OW 9598   2.788   5.495   6.230
 2900SOL    HW1 9599   2.768   5.453   6.319
 2900SOL    HW2 9600   2.856   5.568   6.242
 2901SOL     OW 9601   3.358   0.190   1.538
 2901SOL    HW1 9602   3.431   0.124   1.549
 2901SOL    HW2 9603   3.323   0.217   1.628
 2902SOL     OW 9604   5.517   5.584   1.723
 2902SOL    HW1 9605   5.604   5.546   1.755
 2902SOL    HW2 9606   5.442   5.525   1.753
 2903SOL     OW 9607   2.672   2.200   1.988
 2903SOL    HW1 9608   2.761   2.239   2.014
 2903SOL    HW2 9609   2.671   2.102   2.009
 2904SOL     OW 9610   1.908   3.654   5.033
 2904SOL    HW1 9611   1.850   3.701   5.099
 2904SOL    HW2 9612   2.002   3.653   5.066
 2905SOL     OW 9613   1.058   2.427   1.411
 2905SOL    HW1 9614   1.116   2.409   1.332
 2905SOL    HW2 9615   0.967   2.455   1.381
 2906SOL     OW 9616   5.377   5.758   2.060
 2906SOL    HW1 9617   5.294   5.746   2.006
 2906SOL    HW2 9618   5.357   5.740   2.157
 2907SOL     OW 9619   6.653   0.733   4.030
 2907SOL    HW1 9620   6.577   0.798   4.037
 2907SOL    HW2 9621   6.736   0.783   4.006
 2908SOL     OW 9622   4.401   6.324   4.413
 2908SOL    HW1 9623   4.306   6.295   4.428
 2908SOL    HW2 9624   4.458   6.244   4.394
 2909SOL     OW 9625   1.469   5.779   5.200
 2909SOL    HW1 9626   1.511   5.697   5.238
 2909SOL    HW2 9627   1.470   5.775   5.101
 2910SOL     OW 9628   5.354   6.514   6.335
 2910SOL    HW1 9629   5.342   6.554   6.244
 2910SOL    HW2 9630   5.329   6.417   6.332
 2911SOL     OW 9631   1.906   4.117   3.511
 2911SOL    HW1 9632   1.819   4.071   3.490
 2911SOL    HW2 9633   1.895   4.173   3.593
 2912SOL     OW 9634   2.922   5.410   0.670
 2912SOL    HW1 9635   2.907   5.331   0.610
 2912SOL    HW2 9636   2.920   5.494   0.615
 2913SOL     OW 9637   0.862   2.843   3.023
 2913SOL    HW1 9638   0.803   2.899   3.081
 2913SOL    HW2 9639   0.805   2.785   2.964
 2914SOL     OW 9640   4.964   5.332   5.338
 2914SOL    HW1 9641   4.961   5.408   5.403
 2914SOL    HW2 9642   4.883   5.335   5.280
 2915SOL     OW 9643   4.555   1.103   4.135
 2915SOL    HW1 9644   4.556   1.186   4.191
 2915SOL    HW2 9645   4.561   1.129   4.039
 2916SOL     OW 9646   4.941   5.403   4.381
 2916SOL    HW1 9647   4.948   5.305   4.398
 2916SOL    HW2 9648   4.977   5.453   4.460
 2917SOL     OW 9649   4.507   1.283   2.968
 2917SOL    HW1 9650   4.488   1.330   2.882
 2917SOL    HW2 9651   4.598   1.242   2.964
 2918SOL     OW 9652   6.977   3.930   3.803
 2918SOL    HW1 9653   6.964   3.980   3.889
 2918SOL    HW2 9654   6.999   3.995   3.730
 2919SOL     OW 9655   6.819   6.010   0.094
 2919SOL    HW1 9656   6.837   5.913   0.113
 2919SOL    HW2 9657   6.901   6.053   0.059
 2920SOL     OW 9658   4.441   2.348   2.963
 2920SOL    HW1 9659   4.453   2.378   2.869
 2920SOL    HW2 9660   4.494   2.406   3.024
 2921SOL     OW 9661   0.649   0.562   1.832
 2921SOL    HW1 9662   0.705   0.491   1.790
 2921SOL    HW2 9663   0.665   0.564   1.930
 2922SOL     OW 9664   4.147   6.752   5.772
 2922SOL    HW1 9665   4.057   6.736   5.732
 2922SOL    HW2 9666   4.138   6.806   5.856
 2923SOL     OW 9667   6.858   4.259   0.780
 2923SOL    HW1 9668   6.779   4.289   0.833
 2923SOL    HW2 9669   6.846   4.163   0.753
 2924SOL     OW 9670   5.847   0.380   5.739
 2924SOL    HW1 9671   5.826   0.472   5.706
 2924SOL    HW2 9672   5.908   0.334   5.674
 2925SOL     OW 9673   5.518   3.874   1.311
 2925SOL    HW1 9674   5.531   3.894   1.408
 2925SOL    HW2 9675   5.604   3.844   1.271
 2926SOL     OW 9676   0.080   1.332   4.379
 2926SOL    HW1 9677   0.171   1.311   4.416
 2926SOL    HW2 9678   0.084   1.419   4.330
 2927SOL     OW 9679   0.523   2.744   2.622
 2927SOL    HW1 9680   0.615   2.772   2.648
 2927SOL    HW2 9681   0.488   2.805   2.551
 2928SOL     OW 9682   5.516   6.655   0.672
 2928SOL    HW1 9683   5.488   6.574   0.725
 2928SOL    HW2 9684   5.435   6.701   0.637
 2929SOL     OW 9685   0.741   6.931   5.821
 2929SOL    HW1 9686   0.716   7.023   5.793
 2929SOL    HW2 9687   0.831   6.931   5.864
 2930SOL     OW 9688   3.896   6.607   4.795
 2930SOL    HW1 9689   3.931   6.688   4.748
 2930SOL    HW2 9690   3.820   6.568   4.742
 2931SOL     OW 9691   3.926   5.583   6.570
 2931SOL    HW1 9692   3.828   5.600   6.577
 2931SOL    HW2 9693   3.950   5.504   6.625
 2932SOL     OW 9694   1.697   4.618   1.826
 2932SOL    HW1 9695   1.647   4.658   1.903
 2932SOL    HW2 9696   1.631   4.590   1.756
 2933SOL     OW 9697   4.793   1.422   3.774
 2933SOL    HW1 9698   4.768   1.501   3.717
 2933SOL    HW2 9699   4.891   1.427   3.797
 2934SOL     OW 9700   2.767   0.743   0.117
 2934SOL    HW1 9701   2.780   0.682   0.039
 2934SOL    HW2 9702   2.671   0.772   0.121
 2935SOL     OW 9703   6.642   1.670   1.163
 2935SOL    HW1 9704   6.564   1.729   1.142
 2935SOL    HW2 9705   6.692   1.650   1.079
 2936SOL     OW 9706   3.784   6.068   0.790
 2936SOL    HW1 9707   3.866   6.125   0.784
 2936SOL    HW2 9708   3.746   6.056   0.698
 2937SOL     OW 9709   2.364   4.260   0.461
 2937SOL    HW1 9710   2.327   4.198   0.393
 2937SOL    HW2 9711   2.450   4.224   0.497
 2938SOL     OW 9712   4.654   5.325   5.528
 2938SOL    HW1 9713   4.613   5.353   5.442
 2938SOL    HW2 9714   4.727   5.389   5.552
 2939SOL     OW 9715   0.298   6.375   5.600
 2939SOL    HW1 9716   0.272   6.281   5.624
 2939SOL    HW2 9717   0.234   6.439   5.641
 2940SOL     OW 9718   4.332   0.405   5.398
 2940SOL    HW1 9719   4.401   0.349   5.352
 2940SOL    HW2 9720   4.253   0.417   5.338
 2941SOL     OW 9721   2.657   1.699   5.582
 2941SOL    HW1 9722   2.746   1.725   5.545
 2941SOL    HW2 9723   2.585   1.743   5.528
 2942SOL     OW 9724   3.785   6.522   4.277
 2942SOL    HW1 9725   3.859   6.508   4.211
 2942SOL    HW2 9726   3.784   6.446   4.342
 2943SOL     OW 9727   5.791   3.873   2.959
 2943SOL    HW1 9728   5.832   3.788   2.991
 2943SOL    HW2 9729   5.853   3.918   2.895
 2944SOL     OW 9730   3.719   6.161   6.479
 2944SOL    HW1 9731   3.777   6.148   6.399
 2944SOL    HW2 9732   3.728   6.082   6.540
 2945SOL     OW 9733   2.880   3.457   3.502
 2945SOL    HW1 9734   2.864   3.484   3.597
 2945SOL    HW2 9735   2.974   3.480   3.476
 2946SOL     OW 9736   6.838   6.189   5.790
 2946SOL    HW1 9737   6.803   6.102   5.827
 2946SOL    HW2 9738   6.874   6.245   5.865
 2947SOL     OW 9739   0.404   5.267   0.083
 2947SOL    HW1 9740   0.342   5.302   0.013
 2947SOL    HW2 9741   0.483   5.223   0.040
 2948SOL     OW 9742   6.022   4.865   5.225
 2948SOL    HW1 9743   6.082   4.882   5.147
 2948SOL    HW2 9744   5.930   4.842   5.192
 2949SOL     OW 9745   1.302   6.403   0.728
 2949SOL    HW1 9746   1.226   6.466   0.746
 2949SOL    HW2 9747   1.351   6.386   0.813
 2950SOL     OW 9748   5.143   3.491   4.608
 2950SOL    HW1 9749   5.057   3.442   4.618
 2950SOL    HW2 9750   5.182   3.510   4.698
 2951SOL     OW 9751   6.361   1.342   1.556
 2951SOL    HW1 9752   6.417   1.421   1.530
 2951SOL    HW2 9753   6.300   1.318   1.480
 2952SOL     OW 9754   1.505   3.703   2.013
 2952SOL    HW1 9755   1.502   3.792   2.057
 2952SOL    HW2 9756   1.597   3.664   2.023
 2953SOL     OW 9757   5.423   0.732   3.067
 2953SOL    HW1 9758   5.453   0.821   3.103
 2953SOL    HW2 9759   5.503   0.674   3.051
 2954SOL     OW 9760   5.817   6.426   1.689
 2954SOL    HW1 9761   5.818   6.334   1.649
 2954SOL    HW2 9762   5.887   6.482   1.645
 2955SOL     OW 9763   6.297   2.943   0.643
 2955SOL    HW1 9764   6.212   2.921   0.595
 2955SOL    HW2 9765   6.305   2.887   0.725
 2956SOL     OW 9766   6.569   5.421   2.619
 2956SOL    HW1 9767   6.657   5.390   2.655
 2956SOL    HW2 9768   6.500   5.416   2.691
 2957SOL     OW 9769   1.070   3.759   1.388
 2957SOL    HW1 9770   1.168   3.776   1.381
 2957SOL    HW2 9771   1.053   3.660   1.388
 2958SOL     OW 9772   3.624   4.972   6.439
 2958SOL    HW1 9773   3.720   4.965   6.467
 2958SOL    HW2 9774   3.584   4.880   6.437
 2959SOL     OW 9775   4.274   5.712   6.935
 2959SOL    HW1 9776   4.178   5.713   6.909
 2959SOL    HW2 9777   4.321   5.636   6.889
 2960SOL     OW 9778   2.583   1.738   6.890
 2960SOL    HW1 9779   2.490   1.712   6.917
 2960SOL    HW2 9780   2.610   1.820   6.939
 2961SOL     OW 9781   5.615   2.783   4.358
 2961SOL    HW1 9782   5.558   2.847   4.410
 2961SOL    HW2 9783   5.598   2.690   4.389
 2962SOL     OW 9784   3.377   1.257   3.627
 2962SOL    HW1 9785   3.387   1.352   3.600
 2962SOL    HW2 9786   3.437   1.200   3.571
 2963SOL     OW 9787   1.909   2.920   5.018
 2963SOL    HW1 9788   1.838   2.986   5.044
 2963SOL    HW2 9789   1.983   2.968   4.970
 2964SOL     OW 9790   3.048   5.898   0.432
 2964SOL    HW1 9791   3.129   5.910   0.490
 2964SOL    HW2 9792   3.022   5.801   0.432
 2965SOL     OW 9793   0.799   2.379   5.823
 2965SOL    HW1 9794   0.813   2.477   5.835
 2965SOL    HW2 9795   0.885   2.336   5.796
 2966SOL     OW 9796   4.334   4.645   3.872
 2966SOL    HW1 9797   4.290   4.697   3.945
 2966SOL    HW2 9798   4.286   4.559   3.858
 2967SOL     OW 9799   6.093   1.950   3.790
 2967SOL    HW1 9800   6.026   1.954   3.864
 2967SOL    HW2 9801   6.047   1.964   3.703
 2968SOL     OW 9802   6.714   4.242   3.626
 2968SOL    HW1 9803   6.642   4.178   3.652
 2968SOL    HW2 9804   6.684   4.297   3.549
 2969SOL     OW 9805   4.821   0.825   4.806
 2969SOL    HW1 9806   4.764   0.785   4.734
 2969SOL    HW2 9807   4.917   0.810   4.785
 2970SOL     OW 9808   1.361   4.861   6.357
 2970SOL    HW1 9809   1.291   4.821   6.415
 2970SOL    HW2 9810   1.408   4.789   6.306
 2971SOL     OW 9811   4.989   3.234   3.343
 2971SOL    HW1 9812   5.055   3.227   3.268
 2971SOL    HW2 9813   5.032   3.279   3.421
 2972SOL     OW 9814   0.722   4.329   6.361
 2972SOL    HW1 9815   0.674   4.388   6.426
 2972SOL    HW2 9816   0.819   4.324   6.385
 2973SOL     OW 9817   5.524   6.367   4.128
 2973SOL    HW1 9818   5.438   6.368   4.077
 2973SOL    HW2 9819   5.586   6.435   4.090
 2974SOL     OW 9820   0.253   3.863   2.363
 2974SOL    HW1 9821   0.349   3.892   2.371
 2974SOL    HW2 9822   0.247   3.786   2.300
 2975SOL     OW 9823   0.237   0.800   4.650
 2975SOL    HW1 9824   0.318   0.742   4.658
 2975SOL    HW2 9825   0.177   0.784   4.728
 2976SOL     OW 9826   3.393   6.800   1.827
 2976SOL    HW1 9827   3.429   6.878   1.878
 2976SOL    HW2 9828   3.431   6.800   1.734
 2977SOL     OW 9829   3.421   6.788   4.190
 2977SOL    HW1 9830   3.459   6.780   4.283
 2977SOL    HW2 9831   3.372   6.705   4.167
 2978SOL     OW 9832   4.237   6.347   0.104
 2978SOL    HW1 9833   4.333   6.367   0.083
 2978SOL    HW2 9834   4.214   6.385   0.193
 2979SOL     OW 9835   3.057   0.948   3.486
 2979SOL    HW1 9836   2.978   0.911   3.536
 2979SOL    HW2 9837   3.025   0.989   3.400
 2980SOL     OW 9838   6.662   6.402   4.021
 2980SOL    HW1 9839   6.584   6.363   3.971
 2980SOL    HW2 9840   6.747   6.362   3.987
 2981SOL     OW 9841   1.698   1.349   5.506
 2981SOL    HW1 9842   1.697   1.408   5.588
 2981SOL    HW2 9843   1.644   1.267   5.524
 2982SOL     OW 9844   4.636   0.118   3.176
 2982SOL    HW1 9845   4.671   0.120   3.270
 2982SOL    HW2 9846   4.694   0.058   3.120
 2983SOL     OW 9847   6.509   0.202   2.655
 2983SOL    HW1 9848   6.558   0.116   2.637
 2983SOL    HW2 9849   6.420   0.181   2.694
 2984SOL     OW 9850   5.420   4.831   1.579
 2984SOL    HW1 9851   5.391   4.736   1.591
 2984SOL    HW2 9852   5.357   4.892   1.626
 2985SOL     OW 9853   6.174   2.059   3.119
 2985SOL    HW1 9854   6.262   2.105   3.106
 2985SOL    HW2 9855   6.112   2.085   3.046
 2986SOL     OW 9856   2.293   3.754   5.293
 2986SOL    HW1 9857   2.384   3.789   5.269
 2986SOL    HW2 9858   2.232   3.830   5.315
 2987SOL     OW 9859   4.375   2.453   4.511
 2987SOL    HW1 9860   4.391   2.417   4.603
 2987SOL    HW2 9861   4.358   2.551   4.517
 2988SOL     OW 9862   0.658   0.595   2.100
 2988SOL    HW1 9863   0.565   0.602   2.135
 2988SOL    HW2 9864   0.695   0.687   2.084
 2989SOL     OW 9865   0.004   4.707   0.933
 2989SOL    HW1 9866   0.042   4.782   0.879
 2989SOL    HW2 9867   6.939   4.732   0.966
 2990SOL     OW 9868   3.238   6.979   1.053
 2990SOL    HW1 9869   3.251   0.030   1.115
 2990SOL    HW2 9870   3.321   6.923   1.051
 2991SOL     OW 9871   6.711   4.892   0.391
 2991SOL    HW1 9872   6.683   4.814   0.336
 2991SOL    HW2 9873   6.810   4.887   0.408
 2992SOL     OW 9874   4.127   4.731   6.765
 2992SOL    HW1 9875   4.089   4.804   6.821
 2992SOL    HW2 9876   4.226   4.743   6.756
 2993SOL     OW 9877   2.058   5.645   0.481
 2993SOL    HW1 9878   2.151   5.656   0.515
 2993SOL    HW2 9879   2.028   5.731   0.439
 2994SOL     OW 9880   4.168   6.692   0.023
 2994SOL    HW1 9881   4.161   6.645   0.111
 2994SOL    HW2 9882   4.264   6.691   7.019
 2995SOL     OW 9883   2.696   0.940   5.696
 2995SOL    HW1 9884   2.707   0.896   5.607
 2995SOL    HW2 9885   2.763   0.904   5.760
 2996SOL     OW 9886   3.892   5.511   6.109
 2996SOL    HW1 9887   3.893   5.534   6.012
 2996SOL    HW2 9888   3.914   5.414   6.121
 2997SOL     OW 9889   5.061   6.510   0.286
 2997SOL    HW1 9890   5.034   6.604   0.267
 2997SOL    HW2 9891   5.105   6.506   0.376
 2998SOL     OW 9892   6.260   5.762   5.152
 2998SOL    HW1 9893   6.202   5.843   5.146
 2998SOL    HW2 9894   6.353   5.786   5.127
 2999SOL     OW 9895   3.313   6.272   2.230
 2999SOL    HW1 9896   3.224   6.280   2.275
 2999SOL    HW2 9897   3.380   6.240   2.297
 3000SOL     OW 9898   1.661   2.893   4.578
 3000SOL    HW1 9899   1.643   2.954   4.501
 3000SOL    HW2 9900   1.756   2.903   4.608
 3001SOL     OW 9901   4.344   6.966   6.321
 3001SOL    HW1 9902   4.444   6.971   6.318
 3001SOL    HW2 9903   4.306   0.010   6.260
 3002SOL     OW 9904   3.772   6.982   5.554
 3002SOL    HW1 9905   3.800   0.050   5.574
 3002SOL    HW2 9906   3.794   6.960   5.459
 3003SOL     OW 9907   2.451   0.178   6.495
 3003SOL    HW1 9908   2.513   0.160   6.419
 3003SOL    HW2 9909   2.374   0.114   6.491
 3004SOL     OW 9910   6.393   3.609   4.929
 3004SOL    HW1 9911   6.340   3.588   5.011
 3004SOL    HW2 9912   6.411   3.707   4.926
 3005SOL     OW 9913   4.544   2.463   1.910
 3005SOL    HW1 9914   4.543   2.554   1.869
 3005SOL    HW2 9915   4.454   2.421   1.901
 3006SOL     OW 9916   5.209   0.842   1.334
 3006SOL    HW1 9917   5.202   0.908   1.259
 3006SOL    HW2 9918   5.255   0.759   1.303
 3007SOL     OW 9919   6.532   6.119   2.024
 3007SOL    HW1 9920   6.479   6.203   2.031
 3007SOL    HW2 9921   6.584   6.105   2.109
 3008SOL     OW 9922   4.269   5.517   6.153
 3008SOL    HW1 9923   4.222   5.555   6.233
 3008SOL    HW2 9924   4.233   5.561   6.070
 3009SOL     OW 9925   1.118   1.404   2.766
 3009SOL    HW1 9926   1.126   1.504   2.768
 3009SOL    HW2 9927   1.104   1.370   2.859
 3010SOL     OW 9928   3.551   0.035   2.307
 3010SOL    HW1 9929   3.566   6.985   2.245
 3010SOL    HW2 9930   3.630   0.044   2.368
 3011SOL     OW 9931   5.600   0.361   6.865
 3011SOL    HW1 9932   5.519   0.332   6.815
 3011SOL    HW2 9933   5.579   0.442   6.920
 3012SOL     OW 9934   7.025   4.755   2.524
 3012SOL    HW1 9935   6.944   4.706   2.556
 3012SOL    HW2 9936   7.017   4.773   2.426
 3013SOL     OW 9937   5.293   4.293   2.170
 3013SOL    HW1 9938   5.246   4.361   2.115
 3013SOL    HW2 9939   5.389   4.319   2.181
 3014SOL     OW 9940   4.922   1.163   4.899
 3014SOL    HW1 9941   4.838   1.119   4.870
 3014SOL    HW2 9942   4.914   1.190   4.995
 3015SOL     OW 9943   3.157   2.213   6.901
 3015SOL    HW1 9944   3.217   2.158   6.844
 3015SOL    HW2 9945   3.070   2.228   6.853
 3016SOL     OW 9946   3.417   6.149   3.468
 3016SOL    HW1 9947   3.498   6.205   3.452
 3016SOL    HW2 9948   3.353   6.161   3.392
 3017SOL     OW 9949   6.591   6.278   1.051
 3017SOL    HW1 9950   6.551   6.313   0.967
 3017SOL    HW2 9951   6.672   6.332   1.074
 3018SOL     OW 9952   3.511   0.078   6.132
 3018SOL    HW1 9953   3.468   0.152   6.079
 3018SOL    HW2 9954   3.555   0.014   6.069
 3019SOL     OW 9955   5.316   6.654   2.276
 3019SOL    HW1 9956   5.284   6.669   2.182
 3019SOL    HW2 9957   5.238   6.657   2.338
 3020SOL     OW 9958   1.691   1.223   0.885
 3020SOL    HW1 9959   1.644   1.304   0.849
 3020SOL    HW2 9960   1.693   1.228   0.985
 3021SOL     OW 9961   3.649   1.182   6.096
 3021SOL    HW1 9962   3.678   1.136   6.012
 3021SOL    HW2 9963   3.686   1.275   6.097
 3022SOL     OW 9964   5.531   6.792   2.666
 3022SOL    HW1 9965   5.548   6.847   2.747
 3022SOL    HW2 9966   5.438   6.809   2.633
 3023SOL     OW 9967   5.862   7.025   1.872
 3023SOL    HW1 9968   5.763   0.016   1.864
 3023SOL    HW2 9969   5.912   0.075   1.832
 3024SOL     OW 9970   3.195   6.368   6.896
 3024SOL    HW1 9971   3.118   6.312   6.864
 3024SOL    HW2 9972   3.198   6.365   6.996
 3025SOL     OW 9973   1.767   2.456   1.482
 3025SOL    HW1 9974   1.864   2.454   1.456
 3025SOL    HW2 9975   1.713   2.415   1.408
 3026SOL     OW 9976   2.092   4.649   0.962
 3026SOL    HW1 9977   2.047   4.560   0.968
 3026SOL    HW2 9978   2.163   4.646   0.893
 3027SOL     OW 9979   1.220   1.626   3.936
 3027SOL    HW1 9980   1.209   1.657   4.031
 3027SOL    HW2 9981   1.230   1.526   3.934
 3028SOL     OW 9982   1.741   0.538   4.879
 3028SOL    HW1 9983   1.701   0.448   4.862
 3028SOL    HW2 9984   1.673   0.598   4.919
 3029SOL     OW 9985   4.869   6.454   5.598
 3029SOL    HW1 9986   4.910   6.543   5.617
 3029SOL    HW2 9987   4.941   6.387   5.579
 3030SOL     OW 9988   1.325   1.944   6.119
 3030SOL    HW1 9989   1.271   1.946   6.036
 3030SOL    HW2 9990   1.395   2.015   6.115
 3031SOL     OW 9991   1.506   4.900   6.706
 3031SOL    HW1 9992   1.533   4.987   6.746
 3031SOL    HW2 9993   1.536   4.825   6.765
 3032SOL     OW 9994   4.642   0.431   5.696
 3032SOL    HW1 9995   4.609   0.504   5.637
 3032SOL    HW2 9996   4.597   0.437   5.785
 3033SOL     OW 9997   5.097   4.986   6.335
 3033SOL    HW1 9998   5.047   4.944   6.411
 3033SOL    HW2 9999   5.194   4.961   6.342
 3034SOL     OW10000   2.275   0.129   4.131
 3034SOL    HW110001   2.314   0.099   4.044
 3034SOL    HW210002   2.303   0.067   4.203
 3035SOL     OW10003   6.364   6.869   6.804
 3035SOL    HW110004   6.308   6.852   6.884
 3035SOL    HW210005   6.453   6.906   6.832
 3036SOL     OW10006   1.545   4.266   6.222
 3036SOL    HW110007   1.581   4.352   6.186
 3036SOL    HW210008   1.478   4.229   6.158
 3037SOL     OW10009   6.707   6.650   5.474
 3037SOL    HW110010   6.693   6.593   5.393
 3037SOL    HW210011   6.746   6.595   5.547
 3038SOL     OW10012   5.690   0.097   5.748
 3038SOL    HW110013   5.723   0.191   5.739
 3038SOL    HW210014   5.616   0.082   5.683
 3039SOL     OW10015   0.704   5.135   0.851
 3039SOL    HW110016   0.651   5.205   0.804
 3039SOL    HW210017   0.646   5.087   0.916
 3040SOL     OW10018   2.462   2.448   6.299
 3040SOL    HW110019   2.415   2.368   6.335
 3040SOL    HW210020   2.556   2.422   6.274
 3041SOL     OW10021   1.846   1.917   6.143
 3041SOL    HW110022   1.771   1.851   6.138
 3041SOL    HW210023   1.930   1.870   6.170
 3042SOL     OW10024   5.094   0.316   1.925
 3042SOL    HW110025   5.168   0.270   1.974
 3042SOL    HW210026   5.033   0.360   1.991
 3043SOL     OW10027   0.059   5.194   0.456
 3043SOL    HW110028   0.091   5.100   0.466
 3043SOL    HW210029   0.046   5.235   0.546
 3044SOL     OW10030   3.275   3.969   6.107
 3044SOL    HW110031   3.302   3.911   6.030
 3044SOL    HW210032   3.207   4.035   6.077
 3045SOL     OW10033   5.496   1.827   3.636
 3045SOL    HW110034   5.451   1.915   3.651
 3045SOL    HW210035   5.595   1.839   3.634
 3046SOL     OW10036   2.532   2.188   5.606
 3046SOL    HW110037   2.601   2.202   5.677
 3046SOL    HW210038   2.578   2.170   5.519
 3047SOL     OW10039   6.785   4.325   2.312
 3047SOL    HW110040   6.822   4.346   2.222
 3047SOL    HW210041   6.853   4.273   2.365
 3048SOL     OW10042   3.015   2.506   1.702
 3048SOL    HW110043   3.113   2.483   1.709
 3048SOL    HW210044   2.965   2.462   1.776
 3049SOL     OW10045   0.672   0.365   2.230
 3049SOL    HW110046   0.636   0.450   2.192
 3049SOL    HW210047   0.735   0.323   2.164
 3050SOL     OW10048   3.213   5.212   3.842
 3050SOL    HW110049   3.251   5.272   3.912
 3050SOL    HW210050   3.186   5.268   3.763
 3051SOL     OW10051   2.628   4.455   5.536
 3051SOL    HW110052   2.561   4.498   5.596
 3051SOL    HW210053   2.582   4.413   5.458
 3052SOL     OW10054   4.289   6.777   2.800
 3052SOL    HW110055   4.194   6.766   2.828
 3052SOL    HW210056   4.348   6.727   2.863
 3053SOL     OW10057   4.829   6.397   0.462
 3053SOL    HW110058   4.781   6.341   0.529
 3053SOL    HW210059   4.912   6.434   0.504
 3054SOL     OW10060   2.189   3.506   6.044
 3054SOL    HW110061   2.170   3.587   5.989
 3054SOL    HW210062   2.106   3.451   6.054
 3055SOL     OW10063   5.775   5.823   2.673
 3055SOL    HW110064   5.858   5.869   2.641
 3055SOL    HW210065   5.704   5.830   2.603
 3056SOL     OW10066   6.539   1.015   1.132
 3056SOL    HW110067   6.442   0.998   1.149
 3056SOL    HW210068   6.552   1.111   1.110
 3057SOL     OW10069   6.205   5.763   2.591
 3057SOL    HW110070   6.215   5.668   2.563
 3057SOL    HW210071   6.295   5.802   2.613
 3058SOL     OW10072   6.344   4.759   1.558
 3058SOL    HW110073   6.408   4.788   1.487
 3058SOL    HW210074   6.308   4.839   1.606
 3059SOL     OW10075   1.897   2.658   4.796
 3059SOL    HW110076   1.944   2.735   4.753
 3059SOL    HW210077   1.944   2.634   4.881
 3060SOL     OW10078   6.582   7.006   0.844
 3060SOL    HW110079   6.656   0.042   0.866
 3060SOL    HW210080   6.620   6.918   0.815
 3061SOL     OW10081   0.236   0.713   6.137
 3061SOL    HW110082   0.142   0.678   6.141
 3061SOL    HW210083   0.263   0.724   6.041
 3062SOL     OW10084   2.896   5.764   6.215
 3062SOL    HW110085   2.822   5.805   6.162
 3062SOL    HW210086   2.932   5.831   6.280
 3063SOL     OW10087   1.862   5.274   0.883
 3063SOL    HW110088   1.809   5.202   0.839
 3063SOL    HW210089   1.933   5.233   0.941
 3064SOL     OW10090   6.727   4.936   3.120
 3064SOL    HW110091   6.729   4.909   3.024
 3064SOL    HW210092   6.639   4.980   3.140
 3065SOL     OW10093   2.152   0.844   1.066
 3065SOL    HW110094   2.071   0.903   1.068
 3065SOL    HW210095   2.164   0.800   1.155
 3066SOL     OW10096   5.503   5.328   1.136
 3066SOL    HW110097   5.492   5.298   1.231
 3066SOL    HW210098   5.572   5.271   1.091
 3067SOL     OW10099   5.151   6.347   3.275
 3067SOL    HW110100   5.104   6.434   3.255
 3067SOL    HW210101   5.148   6.330   3.374
 3068SOL     OW10102   6.240   5.047   0.468
 3068SOL    HW110103   6.239   5.059   0.369
 3068SOL    HW210104   6.157   5.087   0.507
 3069SOL     OW10105   1.192   5.539   3.305
 3069SOL    HW110106   1.167   5.516   3.399
 3069SOL    HW210107   1.133   5.611   3.271
 3070SOL     OW10108   3.969   1.852   4.177
 3070SOL    HW110109   4.031   1.775   4.195
 3070SOL    HW210110   3.915   1.832   4.095
 3071SOL     OW10111   5.924   7.010   3.488
 3071SOL    HW110112   5.922   6.916   3.523
 3071SOL    HW210113   5.999   0.033   3.531
 3072SOL     OW10114   0.553   0.029   2.251
 3072SOL    HW110115   0.495   0.110   2.254
 3072SOL    HW210116   0.592   0.019   2.159
 3073SOL     OW10117   1.538   3.173   4.557
 3073SOL    HW110118   1.569   3.122   4.476
 3073SOL    HW210119   1.559   3.270   4.544
 3074SOL     OW10120   5.107   3.289   5.921
 3074SOL    HW110121   5.150   3.232   5.990
 3074SOL    HW210122   5.009   3.266   5.914
 3075SOL     OW10123   1.231   5.559   1.876
 3075SOL    HW110124   1.314   5.605   1.906
 3075SOL    HW210125   1.165   5.556   1.951
 3076SOL     OW10126   0.275   0.122   4.933
 3076SOL    HW110127   0.366   0.082   4.941
 3076SOL    HW210128   0.268   0.173   4.847
 3077SOL     OW10129   4.998   4.717   3.968
 3077SOL    HW110130   5.077   4.765   3.931
 3077SOL    HW210131   4.930   4.705   3.895
 3078SOL     OW10132   2.099   2.752   0.477
 3078SOL    HW110133   2.047   2.733   0.561
 3078SOL    HW210134   2.121   2.667   0.431
 3079SOL     OW10135   5.838   2.776   6.135
 3079SOL    HW110136   5.867   2.863   6.095
 3079SOL    HW210137   5.788   2.794   6.220
 3080SOL     OW10138   6.357   5.910   0.903
 3080SOL    HW110139   6.298   5.989   0.890
 3080SOL    HW210140   6.365   5.889   1.000
 3081SOL     OW10141   6.631   5.197   5.857
 3081SOL    HW110142   6.657   5.102   5.843
 3081SOL    HW210143   6.711   5.248   5.889
 3082SOL     OW10144   2.266   6.918   2.548
 3082SOL    HW110145   2.285   7.011   2.517
 3082SOL    HW210146   2.190   6.880   2.494
 3083SOL     OW10147   3.796   0.754   2.222
 3083SOL    HW110148   3.759   0.797   2.304
 3083SOL    HW210149   3.721   0.721   2.165
 3084SOL     OW10150   5.050   6.536   4.761
 3084SOL    HW110151   5.065   6.442   4.793
 3084SOL    HW210152   4.954   6.560   4.773
 3085SOL     OW10153   0.617   5.780   1.624
 3085SOL    HW110154   0.711   5.812   1.632
 3085SOL    HW210155   0.556   5.843   1.672
 3086SOL     OW10156   5.819   1.347   4.315
 3086SOL    HW110157   5.903   1.350   4.262
 3086SOL    HW210158   5.742   1.322   4.256
 3087SOL     OW10159   5.784   3.073   2.629
 3087SOL    HW110160   5.703   3.114   2.588
 3087SOL    HW210161   5.833   3.141   2.682
 3088SOL     OW10162   3.090   4.162   6.066
 3088SOL    HW110163   3.123   4.249   6.029
 3088SOL    HW210164   3.002   4.139   6.024
 3089SOL     OW10165   1.581   2.336   0.574
 3089SOL    HW110166   1.610   2.408   0.511
 3089SOL    HW210167   1.484   2.349   0.597
 3090SOL     OW10168   0.933   1.445   1.238
 3090SOL    HW110169   0.985   1.487   1.313
 3090SOL    HW210170   0.898   1.356   1.268
 3091SOL     OW10171   2.418   0.279   0.418
 3091SOL    HW110172   2.462   0.359   0.460
 3091SOL    HW210173   2.438   0.198   0.472
 3092SOL     OW10174   4.680   6.338   0.881
 3092SOL    HW110175   4.750   6.408   0.867
 3092SOL    HW210176   4.603   6.377   0.930
 3093SOL     OW10177   5.211   5.955   3.904
 3093SOL    HW110178   5.278   5.881   3.911
 3093SOL    HW210179   5.208   5.988   3.810
 3094SOL     OW10180   3.059   5.272   5.551
 3094SOL    HW110181   3.023   5.197   5.495
 3094SOL    HW210182   3.023   5.264   5.644
 3095SOL     OW10183   2.820   4.860   4.596
 3095SOL    HW110184   2.847   4.781   4.650
 3095SOL    HW210185   2.901   4.910   4.566
 3096SOL     OW10186   0.823   0.916   5.405
 3096SOL    HW110187   0.729   0.935   5.378
 3096SOL    HW210188   0.873   0.877   5.328
 3097SOL     OW10189   1.152   2.835   0.082
 3097SOL    HW110190   1.109   2.757   0.129
 3097SOL    HW210191   1.151   2.915   0.142
 3098SOL     OW10192   4.051   2.114   0.248
 3098SOL    HW110193   3.977   2.104   0.181
 3098SOL    HW210194   4.087   2.023   0.271
 3099SOL     OW10195   0.977   6.180   4.725
 3099SOL    HW110196   1.025   6.147   4.643
 3099SOL    HW210197   0.979   6.110   4.796
 3100SOL     OW10198   6.554   6.500   0.473
 3100SOL    HW110199   6.508   6.584   0.501
 3100SOL    HW210200   6.653   6.511   0.482
 3101SOL     OW10201   4.666   0.079   0.948
 3101SOL    HW110202   4.637   0.001   0.894
 3101SOL    HW210203   4.586   0.134   0.973
 3102SOL     OW10204   1.280   5.481   0.916
 3102SOL    HW110205   1.229   5.404   0.957
 3102SOL    HW210206   1.369   5.449   0.884
 3103SOL     OW10207   3.885   3.548   2.304
 3103SOL    HW110208   3.794   3.544   2.262
 3103SOL    HW210209   3.955   3.527   2.236
 3104SOL     OW10210   6.574   5.356   3.679
 3104SOL    HW110211   6.564   5.257   3.679
 3104SOL    HW210212   6.591   5.387   3.773
 3105SOL     OW10213   6.481   6.287   3.865
 3105SOL    HW110214   6.515   6.218   3.802
 3105SOL    HW210215   6.469   6.373   3.817
 3106SOL     OW10216   0.001   2.720   4.781
 3106SOL    HW110217   6.958   2.656   4.816
 3106SOL    HW210218   0.081   2.718   4.841
 3107SOL     OW10219   3.175   0.151   3.903
 3107SOL    HW110220   3.270   0.127   3.923
 3107SOL    HW210221   3.116   0.074   3.926
 3108SOL     OW10222   3.324   0.175   3.345
 3108SOL    HW110223   3.288   0.116   3.418
 3108SOL    HW210224   3.251   0.233   3.309
 3109SOL     OW10225   4.808   6.037   3.040
 3109SOL    HW110226   4.745   5.963   3.019
 3109SOL    HW210227   4.780   6.082   3.125
 3110SOL     OW10228   0.713   2.954   2.425
 3110SOL    HW110229   0.686   3.043   2.387
 3110SOL    HW210230   0.712   2.885   2.352
 3111SOL     OW10231   6.236   4.935   3.885
 3111SOL    HW110232   6.247   5.033   3.897
 3111SOL    HW210233   6.315   4.898   3.836
 3112SOL     OW10234   3.345   3.363   6.647
 3112SOL    HW110235   3.265   3.416   6.620
 3112SOL    HW210236   3.354   3.363   6.747
 3113SOL     OW10237   3.660   0.351   3.652
 3113SOL    HW110238   3.584   0.384   3.597
 3113SOL    HW210239   3.742   0.405   3.632
 3114SOL     OW10240   5.608   5.491   0.803
 3114SOL    HW110241   5.562   5.414   0.759
 3114SOL    HW210242   5.683   5.522   0.745
 3115SOL     OW10243   2.642   3.193   1.677
 3115SOL    HW110244   2.548   3.175   1.703
 3115SOL    HW210245   2.690   3.239   1.752
 3116SOL     OW10246   6.755   2.063   6.966
 3116SOL    HW110247   6.742   2.121   0.020
 3116SOL    HW210248   6.736   1.968   6.990
 3117SOL     OW10249   3.959   4.023   4.948
 3117SOL    HW110250   3.913   4.042   4.862
 3117SOL    HW210251   3.992   4.109   4.987
 3118SOL     OW10252   6.262   5.111   0.192
 3118SOL    HW110253   6.179   5.088   0.139
 3118SOL    HW210254   6.295   5.201   0.164
 3119SOL     OW10255   2.206   4.667   5.795
 3119SOL    HW110256   2.292   4.717   5.785
 3119SOL    HW210257   2.141   4.722   5.848
 3120SOL     OW10258   2.977   5.696   5.300
 3120SOL    HW110259   2.939   5.630   5.364
 3120SOL    HW210260   3.059   5.737   5.339
 3121SOL     OW10261   0.650   6.300   2.667
 3121SOL    HW110262   0.671   6.394   2.641
 3121SOL    HW210263   0.612   6.251   2.588
 3122SOL     OW10264   3.077   5.353   0.899
 3122SOL    HW110265   3.038   5.407   0.825
 3122SOL    HW210266   3.006   5.294   0.938
 3123SOL     OW10267   4.231   6.768   4.935
 3123SOL    HW110268   4.283   6.732   5.012
 3123SOL    HW210269   4.212   6.694   4.870
 3124SOL     OW10270   3.558   6.889   5.760
 3124SOL    HW110271   3.588   6.961   5.698
 3124SOL    HW210272   3.631   6.868   5.825
 3125SOL     OW10273   6.589   1.877   5.993
 3125SOL    HW110274   6.685   1.881   6.022
 3125SOL    HW210275   6.560   1.782   5.987
 3126SOL     OW10276   3.892   6.257   0.464
 3126SOL    HW110277   3.817   6.318   0.438
 3126SOL    HW210278   3.898   6.182   0.397
 3127SOL     OW10279   0.940   1.687   3.606
 3127SOL    HW110280   0.852   1.708   3.648
 3127SOL    HW210281   0.999   1.767   3.610
 3128SOL     OW10282   1.306   1.271   0.368
 3128SOL    HW110283   1.213   1.253   0.337
 3128SOL    HW210284   1.317   1.238   0.462
 3129SOL     OW10285   1.351   2.883   4.246
 3129SOL    HW110286   1.390   2.792   4.249
 3129SOL    HW210287   1.255   2.879   4.273
 3130SOL     OW10288   1.704   5.477   3.053
 3130SOL    HW110289   1.777   5.509   3.113
 3130SOL    HW210290   1.728   5.387   3.017
 3131SOL     OW10291   0.065   3.097   3.551
 3131SOL    HW110292   7.011   3.134   3.598
 3131SOL    HW210293   0.047   3.094   3.453
 3132SOL     OW10294   4.976   6.193   5.019
 3132SOL    HW110295   4.926   6.117   5.060
 3132SOL    HW210296   5.037   6.233   5.087
 3133SOL     OW10297   2.659   1.746   2.772
 3133SOL    HW110298   2.734   1.742   2.838
 3133SOL    HW210299   2.664   1.832   2.721
 3134SOL     OW10300   4.925   3.084   2.614
 3134SOL    HW110301   4.981   3.021   2.560
 3134SOL    HW210302   4.942   3.178   2.584
 3135SOL     OW10303   2.822   1.680   3.114
 3135SOL    HW110304   2.876   1.664   3.031
 3135SOL    HW210305   2.879   1.667   3.194
 3136SOL     OW10306   6.307   6.553   5.308
 3136SOL    HW110307   6.306   6.454   5.300
 3136SOL    HW210308   6.222   6.590   5.269
 3137SOL     OW10309   6.833   1.752   4.597
 3137SOL    HW110310   6.899   1.679   4.617
 3137SOL    HW210311   6.882   1.839   4.588
 3138SOL     OW10312   4.988   1.793   5.299
 3138SOL    HW110313   5.001   1.694   5.311
 3138SOL    HW210314   5.048   1.842   5.363
 3139SOL     OW10315   5.077   6.256   5.604
 3139SOL    HW110316   5.110   6.275   5.696
 3139SOL    HW210317   5.048   6.160   5.598
 3140SOL     OW10318   6.437   6.259   6.564
 3140SOL    HW110319   6.471   6.332   6.623
 3140SOL    HW210320   6.514   6.208   6.526
 3141SOL     OW10321   0.759   5.279   0.524
 3141SOL    HW110322   0.827   5.207   0.507
 3141SOL    HW210323   0.801   5.352   0.577
 3142SOL     OW10324   3.533   6.624   6.840
 3142SOL    HW110325   3.625   6.624   6.799
 3142SOL    HW210326   3.500   6.718   6.847
 3143SOL     OW10327   0.059   1.919   0.405
 3143SOL    HW110328   7.021   1.866   0.350
 3143SOL    HW210329   0.010   1.957   0.484
 3144SOL     OW10330   1.907   3.487   6.280
 3144SOL    HW110331   1.993   3.463   6.325
 3144SOL    HW210332   1.900   3.439   6.193
 3145SOL     OW10333   3.925   6.378   3.863
 3145SOL    HW110334   3.877   6.296   3.892
 3145SOL    HW210335   3.912   6.450   3.930
 3146SOL     OW10336   2.190   0.738   3.732
 3146SOL    HW110337   2.156   0.751   3.825
 3146SOL    HW210338   2.266   0.801   3.715
 3147SOL     OW10339   3.601   3.712   0.642
 3147SOL    HW110340   3.661   3.632   0.642
 3147SOL    HW210341   3.622   3.769   0.562
 3148SOL     OW10342   4.017   5.667   5.216
 3148SOL    HW110343   3.958   5.645   5.294
 3148SOL    HW210344   4.020   5.589   5.154
 3149SOL     OW10345   3.486   6.386   5.746
 3149SOL    HW110346   3.574   6.373   5.791
 3149SOL    HW210347   3.439   6.464   5.788
 3150SOL     OW10348   6.507   0.076   4.132
 3150SOL    HW110349   6.491   0.144   4.061
 3150SOL    HW210350   6.495   7.011   4.094
 3151SOL     OW10351   3.731   0.521   0.063
 3151SOL    HW110352   3.774   0.573   7.016
 3151SOL    HW210353   3.723   0.425   0.036
 3152SOL     OW10354   1.606   5.033   0.144
 3152SOL    HW110355   1.680   4.967   0.135
 3152SOL    HW210356   1.572   5.032   0.238
 3153SOL     OW10357   0.180   4.327   2.832
 3153SOL    HW110358   0.218   4.385   2.904
 3153SOL    HW210359   0.190   4.372   2.744
 3154SOL     OW10360   5.807   2.068   6.516
 3154SOL    HW110361   5.784   2.153   6.563
 3154SOL    HW210362   5.724   2.014   6.501
 3155SOL     OW10363   4.977   6.014   0.106
 3155SOL    HW110364   4.988   6.056   0.196
 3155SOL    HW210365   5.041   5.938   0.096
 3156SOL     OW10366   3.295   3.580   3.395
 3156SOL    HW110367   3.228   3.621   3.456
 3156SOL    HW210368   3.284   3.618   3.303
 3157SOL     OW10369   2.212   2.478   4.579
 3157SOL    HW110370   2.208   2.556   4.641
 3157SOL    HW210371   2.119   2.452   4.552
 3158SOL     OW10372   4.197   6.062   1.228
 3158SOL    HW110373   4.230   6.037   1.137
 3158SOL    HW210374   4.097   6.056   1.230
 3159SOL     OW10375   6.086   4.541   0.856
 3159SOL    HW110376   6.150   4.473   0.891
 3159SOL    HW210377   5.999   4.497   0.835
 3160SOL     OW10378   5.556   4.769   0.230
 3160SOL    HW110379   5.646   4.749   0.270
 3160SOL    HW210380   5.515   4.684   0.197
 3161SOL     OW10381   0.469   1.865   2.684
 3161SOL    HW110382   0.534   1.936   2.714
 3161SOL    HW210383   0.493   1.778   2.726
 3162SOL     OW10384   6.237   6.608   5.842
 3162SOL    HW110385   6.290   6.523   5.840
 3162SOL    HW210386   6.300   6.686   5.846
 3163SOL     OW10387   2.578   4.323   5.263
 3163SOL    HW110388   2.667   4.282   5.241
 3163SOL    HW210389   2.569   4.410   5.214
 3164SOL     OW10390   5.961   5.737   6.303
 3164SOL    HW110391   6.044   5.709   6.255
 3164SOL    HW210392   5.894   5.663   6.298
 3165SOL     OW10393   0.178   2.691   1.454
 3165SOL    HW110394   0.248   2.649   1.511
 3165SOL    HW210395   0.188   2.659   1.360
 3166SOL     OW10396   5.699   2.970   6.547
 3166SOL    HW110397   5.745   2.890   6.508
 3166SOL    HW210398   5.600   2.957   6.542
 3167SOL     OW10399   1.067   4.313   2.618
 3167SOL    HW110400   1.062   4.257   2.536
 3167SOL    HW210401   0.978   4.355   2.636
 3168SOL     OW10402   5.174   3.165   0.917
 3168SOL    HW110403   5.101   3.232   0.913
 3168SOL    HW210404   5.258   3.208   0.951
 3169SOL     OW10405   1.766   1.784   4.983
 3169SOL    HW110406   1.679   1.787   5.032
 3169SOL    HW210407   1.829   1.851   5.024
 3170SOL     OW10408   4.545   0.692   5.934
 3170SOL    HW110409   4.516   0.673   5.840
 3170SOL    HW210410   4.465   0.689   5.994
 3171SOL     OW10411   6.148   6.812   3.271
 3171SOL    HW110412   6.185   6.903   3.249
 3171SOL    HW210413   6.048   6.818   3.280
 3172SOL     OW10414   5.944   0.401   5.978
 3172SOL    HW110415   5.927   0.377   5.882
 3172SOL    HW210416   5.868   0.371   6.035
 3173SOL     OW10417   1.857   1.298   1.440
 3173SOL    HW110418   1.941   1.258   1.476
 3173SOL    HW210419   1.879   1.357   1.362
 3174SOL     OW10420   2.080   4.022   6.238
 3174SOL    HW110421   2.170   3.982   6.223
 3174SOL    HW210422   2.044   3.989   6.326
 3175SOL     OW10423   6.748   5.841   1.092
 3175SOL    HW110424   6.656   5.802   1.095
 3175SOL    HW210425   6.745   5.930   1.046
 3176SOL     OW10426   1.611   5.667   6.146
 3176SOL    HW110427   1.536   5.733   6.144
 3176SOL    HW210428   1.644   5.651   6.053
 3177SOL     OW10429   0.625   0.072   4.043
 3177SOL    HW110430   0.569   0.129   4.104
 3177SOL    HW210431   0.623   7.004   4.074
 3178SOL     OW10432   1.645   3.400   0.683
 3178SOL    HW110433   1.716   3.348   0.636
 3178SOL    HW210434   1.572   3.338   0.712
 3179SOL     OW10435   1.088   2.433   3.234
 3179SOL    HW110436   1.034   2.503   3.188
 3179SOL    HW210437   1.157   2.397   3.171
 3180SOL     OW10438   5.284   1.128   6.035
 3180SOL    HW110439   5.375   1.145   6.073
 3180SOL    HW210440   5.262   1.198   5.967
 3181SOL     OW10441   0.111   1.825   3.554
 3181SOL    HW110442   0.151   1.739   3.523
 3181SOL    HW210443   0.022   1.838   3.510
 3182SOL     OW10444   1.583   4.690   5.153
 3182SOL    HW110445   1.490   4.681   5.188
 3182SOL    HW210446   1.648   4.681   5.228
 3183SOL     OW10447   4.537   3.037   1.322
 3183SOL    HW110448   4.617   3.097   1.329
 3183SOL    HW210449   4.543   2.966   1.393
 3184SOL     OW10450   2.268   1.399   2.946
 3184SOL    HW110451   2.362   1.433   2.952
 3184SOL    HW210452   2.251   1.363   2.855
 3185SOL     OW10453   0.562   6.581   5.954
 3185SOL    HW110454   0.584   6.486   5.976
 3185SOL    HW210455   0.647   6.633   5.944
 3186SOL     OW10456   3.645   0.382   1.773
 3186SOL    HW110457   3.720   0.446   1.791
 3186SOL    HW210458   3.558   0.428   1.785
 3187SOL     OW10459   2.696   4.494   0.056
 3187SOL    HW110460   2.761   4.504   7.007
 3187SOL    HW210461   2.722   4.555   0.131
 3188SOL     OW10462   4.882   0.388   3.087
 3188SOL    HW110463   4.890   0.420   3.181
 3188SOL    HW210464   4.956   0.428   3.032
 3189SOL     OW10465   0.169   6.905   1.680
 3189SOL    HW110466   0.264   6.919   1.654
 3189SOL    HW210467   0.110   6.924   1.601
 3190SOL     OW10468   0.670   6.725   1.259
 3190SOL    HW110469   0.703   6.819   1.257
 3190SOL    HW210470   0.748   6.662   1.260
 3191SOL     OW10471   3.219   0.219   1.149
 3191SOL    HW110472   3.181   0.257   1.064
 3191SOL    HW210473   3.308   0.261   1.167
 3192SOL     OW10474   5.841   2.438   3.860
 3192SOL    HW110475   5.847   2.356   3.917
 3192SOL    HW210476   5.883   2.419   3.771
 3193SOL     OW10477   4.969   4.398   0.191
 3193SOL    HW110478   5.050   4.438   0.236
 3193SOL    HW210479   4.932   4.463   0.126
 3194SOL     OW10480   1.662   4.725   5.712
 3194SOL    HW110481   1.588   4.790   5.695
 3194SOL    HW210482   1.750   4.768   5.691
 3195SOL     OW10483   0.790   3.901   3.027
 3195SOL    HW110484   0.835   3.814   3.009
 3195SOL    HW210485   0.848   3.976   2.994
 3196SOL     OW10486   0.258   6.243   5.310
 3196SOL    HW110487   0.201   6.169   5.274
 3196SOL    HW210488   0.315   6.208   5.384
 3197SOL     OW10489   0.997   4.207   4.224
 3197SOL    HW110490   1.059   4.130   4.212
 3197SOL    HW210491   0.933   4.212   4.147
 3198SOL     OW10492   5.529   0.047   0.247
 3198SOL    HW110493   5.455   0.029   0.312
 3198SOL    HW210494   5.579   6.988   0.230
 3199SOL     OW10495   3.600   1.759   2.816
 3199SOL    HW110496   3.689   1.714   2.819
 3199SOL    HW210497   3.545   1.718   2.743
 3200SOL     OW10498   6.965   2.050   0.614
 3200SOL    HW110499   0.025   2.089   0.646
 3200SOL    HW210500   6.937   1.976   0.676
 3201SOL     OW10501   4.670   4.294   3.522
 3201SOL    HW110502   4.576   4.281   3.490
 3201SOL    HW210503   4.704   4.382   3.489
 3202SOL     OW10504   1.558   5.706   2.124
 3202SOL    HW110505   1.525   5.641   2.191
 3202SOL    HW210506   1.634   5.759   2.162
 3203SOL     OW10507   5.314   0.216   1.258
 3203SOL    HW110508   5.396   0.273   1.265
 3203SOL    HW210509   5.234   0.274   1.241
 3204SOL     OW10510   6.231   6.280   1.472
 3204SOL    HW110511   6.207   6.300   1.567
 3204SOL    HW210512   6.301   6.344   1.441
 3205SOL     OW10513   1.379   4.047   3.467
 3205SOL    HW110514   1.328   3.964   3.443
 3205SOL    HW210515   1.474   4.037   3.436
 3206SOL     OW10516   1.591   6.335   0.074
 3206SOL    HW110517   1.523   6.365   0.140
 3206SOL    HW210518   1.552   6.266   0.014
 3207SOL     OW10519   0.771   1.415   2.893
 3207SOL    HW110520   0.797   1.404   2.797
 3207SOL    HW210521   0.730   1.330   2.926
 3208SOL     OW10522   6.108   0.712   5.020
 3208SOL    HW110523   6.137   0.618   5.039
 3208SOL    HW210524   6.010   0.720   5.032
 3209SOL     OW10525   2.766   0.568   2.719
 3209SOL    HW110526   2.826   0.548   2.641
 3209SOL    HW210527   2.705   0.491   2.734
 3210SOL     OW10528   0.657   4.778   2.607
 3210SOL    HW110529   0.712   4.707   2.563
 3210SOL    HW210530   0.707   4.865   2.605
 3211SOL     OW10531   0.753   4.321   2.841
 3211SOL    HW110532   0.802   4.234   2.842
 3211SOL    HW210533   0.735   4.350   2.934
 3212SOL     OW10534   4.889   3.147   5.051
 3212SOL    HW110535   4.826   3.157   5.128
 3212SOL    HW210536   4.892   3.231   4.998
 3213SOL     OW10537   5.128   7.007   1.612
 3213SOL    HW110538   5.056   6.953   1.569
 3213SOL    HW210539   5.093   0.072   1.633
 3214SOL     OW10540   4.054   4.311   6.275
 3214SOL    HW110541   3.996   4.237   6.310
 3214SOL    HW210542   4.083   4.370   6.351
 3215SOL     OW10543   5.943   0.983   0.458
 3215SOL    HW110544   5.897   0.916   0.515
 3215SOL    HW210545   5.990   0.936   0.383
 3216SOL     OW10546   6.405   6.578   5.045
 3216SOL    HW110547   6.456   6.497   5.018
 3216SOL    HW210548   6.367   6.564   5.136
 3217SOL     OW10549   6.836   4.012   0.685
 3217SOL    HW110550   6.801   3.940   0.625
 3217SOL    HW210551   6.833   3.980   0.780
 3218SOL     OW10552   3.982   0.848   1.990
 3218SOL    HW110553   3.923   0.915   1.944
 3218SOL    HW210554   3.952   0.835   2.084
 3219SOL     OW10555   6.859   6.823   4.148
 3219SOL    HW110556   6.829   6.919   4.148
 3219SOL    HW210557   6.927   6.810   4.220
 3220SOL     OW10558   5.770   3.137   6.748
 3220SOL    HW110559   5.743   3.061   6.690
 3220SOL    HW210560   5.861   3.169   6.722
 3221SOL     OW10561   3.740   0.039   2.496
 3221SOL    HW110562   3.774   0.130   2.473
 3221SOL    HW210563   3.711   0.037   2.592
 3222SOL     OW10564   6.428   3.785   2.577
 3222SOL    HW110565   6.368   3.811   2.502
 3222SOL    HW210566   6.496   3.720   2.544
 3223SOL     OW10567   2.452   4.527   3.846
 3223SOL    HW110568   2.354   4.545   3.856
 3223SOL    HW210569   2.500   4.561   3.928
 3224SOL     OW10570   3.657   5.884   1.501
 3224SOL    HW110571   3.598   5.924   1.572
 3224SOL    HW210572   3.611   5.890   1.413
 3225SOL     OW10573   2.068   2.527   0.849
 3225SOL    HW110574   2.132   2.460   0.886
 3225SOL    HW210575   1.996   2.544   0.916
 3226SOL     OW10576   0.238   0.892   4.224
 3226SOL    HW110577   0.336   0.905   4.242
 3226SOL    HW210578   0.196   0.844   4.301
 3227SOL     OW10579   1.970   1.447   5.449
 3227SOL    HW110580   2.018   1.389   5.384
 3227SOL    HW210581   1.875   1.415   5.458
 3228SOL     OW10582   4.917   3.357   4.561
 3228SOL    HW110583   4.883   3.265   4.540
 3228SOL    HW210584   4.892   3.420   4.488
 3229SOL     OW10585   4.180   1.439   5.198
 3229SOL    HW110586   4.108   1.508   5.193
 3229SOL    HW210587   4.142   1.350   5.170
 3230SOL     OW10588   1.559   0.675   4.015
 3230SOL    HW110589   1.559   0.673   3.915
 3230SOL    HW210590   1.465   0.674   4.048
 3231SOL     OW10591   5.018   5.133   0.163
 3231SOL    HW110592   5.114   5.157   0.178
 3231SOL    HW210593   4.992   5.062   0.228
 3232SOL     OW10594   2.375   4.395   3.089
 3232SOL    HW110595   2.336   4.322   3.145
 3232SOL    HW210596   2.462   4.425   3.128
 3233SOL     OW10597   1.621   3.694   0.599
 3233SOL    HW110598   1.662   3.607   0.576
 3233SOL    HW210599   1.671   3.736   0.675
 3234SOL     OW10600   6.489   2.333   4.945
 3234SOL    HW110601   6.479   2.412   5.005
 3234SOL    HW210602   6.407   2.322   4.889
 3235SOL     OW10603   5.355   0.772   2.409
 3235SOL    HW110604   5.287   0.836   2.375
 3235SOL    HW210605   5.309   0.693   2.450
 3236SOL     OW10606   0.253   3.020   1.479
 3236SOL    HW110607   0.351   3.027   1.495
 3236SOL    HW210608   0.232   2.931   1.439
 3237SOL     OW10609   2.944   6.631   4.413
 3237SOL    HW110610   2.884   6.556   4.383
 3237SOL    HW210611   3.039   6.609   4.391
 3238SOL     OW10612   6.261   6.391   6.396
 3238SOL    HW110613   6.301   6.372   6.486
 3238SOL    HW210614   6.170   6.431   6.409
 3239SOL     OW10615   0.606   5.740   5.301
 3239SOL    HW110616   0.640   5.777   5.387
 3239SOL    HW210617   0.626   5.642   5.297
 3240SOL     OW10618   0.141   1.981   5.281
 3240SOL    HW110619   0.143   1.896   5.334
 3240SOL    HW210620   0.055   1.987   5.231
 3241SOL     OW10621   5.177   0.084   5.233
 3241SOL    HW110622   5.135   0.034   5.157
 3241SOL    HW210623   5.152   0.181   5.227
 3242SOL     OW10624   3.392   6.586   0.460
 3242SOL    HW110625   3.397   6.649   0.382
 3242SOL    HW210626   3.481   6.583   0.506
 3243SOL     OW10627   3.411   5.251   0.959
 3243SOL    HW110628   3.433   5.348   0.970
 3243SOL    HW210629   3.494   5.196   0.972
 3244SOL     OW10630   1.379   6.056   5.582
 3244SOL    HW110631   1.290   6.089   5.614
 3244SOL    HW210632   1.370   6.023   5.488
 3245SOL     OW10633   2.929   2.030   5.655
 3245SOL    HW110634   2.930   1.940   5.613
 3245SOL    HW210635   2.949   2.022   5.752
 3246SOL     OW10636   5.556   6.200   3.445
 3246SOL    HW110637   5.595   6.207   3.353
 3246SOL    HW210638   5.574   6.284   3.496
 3247SOL     OW10639   6.559   2.156   5.569
 3247SOL    HW110640   6.553   2.238   5.627
 3247SOL    HW210641   6.563   2.075   5.628
 3248SOL     OW10642   5.367   3.896   2.853
 3248SOL    HW110643   5.387   3.863   2.761
 3248SOL    HW210644   5.281   3.946   2.853
 3249SOL     OW10645   3.157   4.424   5.549
 3249SOL    HW110646   3.161   4.324   5.553
 3249SOL    HW210647   3.063   4.453   5.534
 3250SOL     OW10648   4.989   5.362   1.370
 3250SOL    HW110649   5.068   5.387   1.426
 3250SOL    HW210650   4.918   5.432   1.379
 3251SOL     OW10651   3.610   0.911   3.684
 3251SOL    HW110652   3.688   0.926   3.745
 3251SOL    HW210653   3.531   0.880   3.738
 3252SOL     OW10654   3.118   2.156   3.465
 3252SOL    HW110655   3.069   2.104   3.534
 3252SOL    HW210656   3.056   2.177   3.389
 3253SOL     OW10657   4.485   4.251   0.866
 3253SOL    HW110658   4.418   4.183   0.835
 3253SOL    HW210659   4.449   4.343   0.851
 3254SOL     OW10660   5.381   4.466   2.526
 3254SOL    HW110661   5.411   4.371   2.513
 3254SOL    HW210662   5.408   4.496   2.618
 3255SOL     OW10663   4.302   4.803   1.002
 3255SOL    HW110664   4.212   4.819   1.042
 3255SOL    HW210665   4.339   4.717   1.038
 3256SOL     OW10666   6.119   6.180   5.779
 3256SOL    HW110667   6.215   6.151   5.781
 3256SOL    HW210668   6.098   6.230   5.863
 3257SOL     OW10669   2.366   1.670   1.187
 3257SOL    HW110670   2.391   1.756   1.142
 3257SOL    HW210671   2.349   1.687   1.284
 3258SOL     OW10672   5.318   6.592   1.729
 3258SOL    HW110673   5.225   6.610   1.697
 3258SOL    HW210674   5.319   6.587   1.829
 3259SOL     OW10675   5.979   6.386   2.891
 3259SOL    HW110676   6.015   6.389   2.798
 3259SOL    HW210677   6.025   6.314   2.943
 3260SOL     OW10678   1.455   2.019   0.889
 3260SOL    HW110679   1.409   2.092   0.939
 3260SOL    HW210680   1.417   2.013   0.797
 3261SOL     OW10681   4.710   6.904   3.618
 3261SOL    HW110682   4.675   6.997   3.610
 3261SOL    HW210683   4.674   6.861   3.701
 3262SOL     OW10684   4.003   1.166   3.798
 3262SOL    HW110685   4.101   1.174   3.816
 3262SOL    HW210686   3.982   1.202   3.707
 3263SOL     OW10687   3.856   4.872   2.830
 3263SOL    HW110688   3.940   4.831   2.794
 3263SOL    HW210689   3.818   4.813   2.901
 3264SOL     OW10690   4.765   4.714   6.047
 3264SOL    HW110691   4.766   4.789   6.113
 3264SOL    HW210692   4.706   4.739   5.969
 3265SOL     OW10693   5.156   0.412   6.300
 3265SOL    HW110694   5.245   0.441   6.335
 3265SOL    HW210695   5.140   0.454   6.211
 3266SOL     OW10696   1.040   2.785   6.870
 3266SOL    HW110697   1.107   2.821   6.804
 3266SOL    HW210698   1.072   2.804   6.963
 3267SOL     OW10699   5.180   2.914   2.083
 3267SOL    HW110700   5.166   2.856   2.003
 3267SOL    HW210701   5.093   2.954   2.111
 3268SOL     OW10702   1.758   4.578   0.026
 3268SOL    HW110703   1.849   4.545   0.004
 3268SOL    HW210704   1.698   4.500   0.046
 3269SOL     OW10705   4.545   3.695   0.955
 3269SOL    HW110706   4.582   3.618   1.008
 3269SOL    HW210707   4.539   3.776   1.014
 3270SOL     OW10708   0.307   5.351   4.234
 3270SOL    HW110709   0.358   5.432   4.265
 3270SOL    HW210710   0.294   5.289   4.312
 3271SOL     OW10711   4.950   0.535   2.085
 3271SOL    HW110712   4.857   0.500   2.080
 3271SOL    HW210713   4.966   0.575   2.175
 3272SOL     OW10714   4.955   6.947   6.958
 3272SOL    HW110715   5.014   6.899   6.893
 3272SOL    HW210716   5.012   6.997   7.023
 3273SOL     OW10717   1.236   1.052   2.984
 3273SOL    HW110718   1.161   0.987   2.990
 3273SOL    HW210719   1.322   1.005   3.005
 3274SOL     OW10720   2.783   1.621   0.008
 3274SOL    HW110721   2.710   1.657   6.977
 3274SOL    HW210722   2.856   1.584   6.977
 3275SOL     OW10723   4.249   0.758   6.869
 3275SOL    HW110724   4.189   0.824   6.914
 3275SOL    HW210725   4.328   0.740   6.927
 3276SOL     OW10726   2.433   6.228   0.259
 3276SOL    HW110727   2.349   6.192   0.218
 3276SOL    HW210728   2.496   6.254   0.186
 3277SOL     OW10729   0.185   6.194   5.811
 3277SOL    HW110730   0.150   6.286   5.793
 3277SOL    HW210731   0.240   6.195   5.894
 3278SOL     OW10732   1.073   1.149   0.608
 3278SOL    HW110733   0.980   1.184   0.613
 3278SOL    HW210734   1.090   1.108   0.519
 3279SOL     OW10735   2.096   6.210   1.004
 3279SOL    HW110736   2.087   6.207   1.103
 3279SOL    HW210737   2.014   6.254   0.965
 3280SOL     OW10738   2.867   6.381   4.304
 3280SOL    HW110739   2.828   6.393   4.213
 3280SOL    HW210740   2.824   6.303   4.349
 3281SOL     OW10741   2.695   6.196   0.468
 3281SOL    HW110742   2.618   6.133   0.463
 3281SOL    HW210743   2.680   6.271   0.403
 3282SOL     OW10744   2.053   5.847   2.558
 3282SOL    HW110745   1.972   5.842   2.616
 3282SOL    HW210746   2.113   5.919   2.592
 3283SOL     OW10747   2.008   0.126   4.098
 3283SOL    HW110748   1.992   0.120   3.999
 3283SOL    HW210749   2.105   0.143   4.115
 3284SOL     OW10750   1.056   5.226   5.911
 3284SOL    HW110751   1.070   5.188   6.002
 3284SOL    HW210752   1.059   5.326   5.915
 3285SOL     OW10753   7.023   2.528   4.417
 3285SOL    HW110754   6.945   2.552   4.475
 3285SOL    HW210755   0.064   2.601   4.418
 3286SOL     OW10756   4.519   4.760   6.407
 3286SOL    HW110757   4.480   4.775   6.316
 3286SOL    HW210758   4.479   4.825   6.472
 3287SOL     OW10759   0.756   3.644   1.647
 3287SOL    HW110760   0.779   3.723   1.591
 3287SOL    HW210761   0.755   3.670   1.744
 3288SOL     OW10762   1.107   6.167   6.113
 3288SOL    HW110763   1.120   6.177   6.211
 3288SOL    HW210764   1.016   6.130   6.094
 3289SOL     OW10765   1.362   5.660   4.098
 3289SOL    HW110766   1.460   5.679   4.094
 3289SOL    HW210767   1.313   5.722   4.036
 3290SOL     OW10768   0.455   4.769   3.402
 3290SOL    HW110769   0.483   4.746   3.309
 3290SOL    HW210770   0.361   4.803   3.401
 3291SOL     OW10771   1.422   0.646   1.739
 3291SOL    HW110772   1.502   0.600   1.701
 3291SOL    HW210773   1.450   0.727   1.789
 3292SOL     OW10774   0.220   5.813   4.788
 3292SOL    HW110775   0.165   5.896   4.787
 3292SOL    HW210776   0.276   5.810   4.871
 3293SOL     OW10777   5.698   0.868   2.735
 3293SOL    HW110778   5.703   0.890   2.637
 3293SOL    HW210779   5.784   0.826   2.764
 3294SOL     OW10780   0.631   6.383   0.739
 3294SOL    HW110781   0.649   6.444   0.661
 3294SOL    HW210782   0.711   6.325   0.755
 3295SOL     OW10783   1.866   2.197   6.157
 3295SOL    HW110784   1.929   2.237   6.224
 3295SOL    HW210785   1.870   2.097   6.164
 3296SOL     OW10786   0.731   6.619   2.141
 3296SOL    HW110787   0.802   6.563   2.099
 3296SOL    HW210788   0.759   6.715   2.139
 3297SOL     OW10789   3.008   1.413   5.932
 3297SOL    HW110790   3.034   1.338   5.992
 3297SOL    HW210791   3.067   1.415   5.852
 3298SOL     OW10792   6.873   4.550   2.663
 3298SOL    HW110793   6.920   4.464   2.685
 3298SOL    HW210794   6.794   4.531   2.604
 3299SOL     OW10795   0.684   1.242   4.811
 3299SOL    HW110796   0.717   1.200   4.895
 3299SOL    HW210797   0.612   1.308   4.832
 3300SOL     OW10798   6.923   6.995   4.958
 3300SOL    HW110799   7.004   6.967   5.010
 3300SOL    HW210800   6.844   6.997   5.019
 3301SOL     OW10801   6.974   4.104   2.585
 3301SOL    HW110802   6.966   4.196   2.621
 3301SOL    HW210803   0.015   4.103   2.511
 3302SOL     OW10804   1.160   5.786   5.217
 3302SOL    HW110805   1.202   5.867   5.259
 3302SOL    HW210806   1.161   5.710   5.282
 3303SOL     OW10807   2.954   3.243   3.976
 3303SOL    HW110808   2.980   3.146   3.983
 3303SOL    HW210809   2.967   3.288   4.064
 3304SOL     OW10810   1.579   0.666   3.129
 3304SOL    HW110811   1.622   0.755   3.129
 3304SOL    HW210812   1.588   0.625   3.038
 3305SOL     OW10813   0.381   2.662   0.277
 3305SOL    HW110814   0.480   2.655   0.267
 3305SOL    HW210815   0.354   2.759   0.279
 3306SOL     OW10816   1.130   3.326   2.294
 3306SOL    HW110817   1.205   3.336   2.229
 3306SOL    HW210818   1.159   3.269   2.371
 3307SOL     OW10819   0.807   6.972   0.473
 3307SOL    HW110820   0.716   6.933   0.489
 3307SOL    HW210821   0.797   0.043   0.453
 3308SOL     OW10822   5.178   6.374   0.790
 3308SOL    HW110823   5.179   6.280   0.757
 3308SOL    HW210824   5.262   6.392   0.841
 3309SOL     OW10825   1.645   5.105   2.558
 3309SOL    HW110826   1.699   5.110   2.474
 3309SOL    HW210827   1.705   5.088   2.636
 3310SOL     OW10828   1.540   6.568   1.823
 3310SOL    HW110829   1.596   6.583   1.904
 3310SOL    HW210830   1.598   6.565   1.742
 3311SOL     OW10831   3.875   5.861   1.066
 3311SOL    HW110832   3.882   5.960   1.054
 3311SOL    HW210833   3.779   5.834   1.073
 3312SOL     OW10834   2.189   2.606   6.503
 3312SOL    HW110835   2.147   2.517   6.487
 3312SOL    HW210836   2.249   2.629   6.427
 3313SOL     OW10837   6.401   6.156   4.910
 3313SOL    HW110838   6.351   6.208   4.841
 3313SOL    HW210839   6.358   6.167   4.999
 3314SOL     OW10840   0.858   4.562   6.739
 3314SOL    HW110841   0.918   4.586   6.815
 3314SOL    HW210842   0.770   4.607   6.750
 3315SOL     OW10843   6.501   3.209   3.759
 3315SOL    HW110844   6.453   3.195   3.673
 3315SOL    HW210845   6.572   3.278   3.748
 3316SOL     OW10846   3.909   1.519   0.193
 3316SOL    HW110847   4.005   1.536   0.176
 3316SOL    HW210848   3.859   1.521   0.106
 3317SOL     OW10849   4.186   2.531   1.662
 3317SOL    HW110850   4.262   2.589   1.691
 3317SOL    HW210851   4.100   2.575   1.686
 3318SOL     OW10852   2.726   5.121   5.491
 3318SOL    HW110853   2.685   5.121   5.400
 3318SOL    HW210854   2.671   5.178   5.552
 3319SOL     OW10855   6.772   6.593   6.726
 3319SOL    HW110856   6.682   6.549   6.721
 3319SOL    HW210857   6.766   6.684   6.683
 3320SOL     OW10858   0.543   0.248   0.213
 3320SOL    HW110859   0.627   0.287   0.175
 3320SOL    HW210860   0.524   0.160   0.170
 3321SOL     OW10861   4.056   3.253   4.033
 3321SOL    HW110862   4.042   3.172   3.976
 3321SOL    HW210863   4.036   3.335   3.979
 3322SOL     OW10864   4.214   1.712   1.947
 3322SOL    HW110865   4.178   1.635   1.895
 3322SOL    HW210866   4.312   1.721   1.930
 3323SOL     OW10867   2.121   4.584   0.280
 3323SOL    HW110868   2.140   4.556   0.186
 3323SOL    HW210869   2.142   4.509   0.342
 3324SOL     OW10870   6.123   3.150   1.459
 3324SOL    HW110871   6.057   3.195   1.520
 3324SOL    HW210872   6.077   3.077   1.408
 3325SOL     OW10873   1.360   4.595   6.227
 3325SOL    HW110874   1.385   4.526   6.295
 3325SOL    HW210875   1.266   4.581   6.199
 3326SOL     OW10876   6.172   0.821   1.769
 3326SOL    HW110877   6.164   0.905   1.824
 3326SOL    HW210878   6.222   0.752   1.821
 3327SOL     OW10879   4.634   5.468   1.832
 3327SOL    HW110880   4.641   5.398   1.761
 3327SOL    HW210881   4.595   5.428   1.915
 3328SOL     OW10882   6.174   6.869   4.085
 3328SOL    HW110883   6.151   6.818   4.168
 3328SOL    HW210884   6.271   6.855   4.063
 3329SOL     OW10885   5.273   0.780   5.994
 3329SOL    HW110886   5.242   0.685   5.999
 3329SOL    HW210887   5.234   0.832   6.070
 3330SOL     OW10888   6.693   6.486   3.039
 3330SOL    HW110889   6.758   6.513   3.110
 3330SOL    HW210890   6.707   6.390   3.015
 3331SOL     OW10891   1.571   3.884   3.006
 3331SOL    HW110892   1.488   3.877   2.952
 3331SOL    HW210893   1.630   3.805   2.989
 3332SOL     OW10894   3.155   5.257   0.235
 3332SOL    HW110895   3.141   5.323   0.310
 3332SOL    HW210896   3.234   5.199   0.256
 3333SOL     OW10897   1.679   3.064   1.084
 3333SOL    HW110898   1.772   3.036   1.105
 3333SOL    HW210899   1.680   3.151   1.035
 3334SOL     OW10900   1.247   2.500   2.095
 3334SOL    HW110901   1.274   2.557   2.018
 3334SOL    HW210902   1.296   2.413   2.091
 3335SOL     OW10903   3.405   4.195   5.376
 3335SOL    HW110904   3.481   4.182   5.440
 3335SOL    HW210905   3.319   4.200   5.427
 3336SOL     OW10906   4.162   5.908   5.504
 3336SOL    HW110907   4.191   5.840   5.436
 3336SOL    HW210908   4.182   6.000   5.470
 3337SOL     OW10909   3.713   2.968   3.375
 3337SOL    HW110910   3.690   3.059   3.339
 3337SOL    HW210911   3.694   2.899   3.306
 3338SOL     OW10912   2.962   2.646   1.471
 3338SOL    HW110913   2.987   2.596   1.554
 3338SOL    HW210914   2.874   2.691   1.485
 3339SOL     OW10915   0.846   6.767   6.926
 3339SOL    HW110916   0.939   6.799   6.910
 3339SOL    HW210917   0.800   6.750   6.839
 3340SOL     OW10918   3.895   1.522   5.864
 3340SOL    HW110919   3.829   1.591   5.891
 3340SOL    HW210920   3.916   1.532   5.766
 3341SOL     OW10921   1.074   4.452   1.578
 3341SOL    HW110922   1.048   4.362   1.544
 3341SOL    HW210923   1.108   4.444   1.671
 3342SOL     OW10924   6.228   0.656   2.438
 3342SOL    HW110925   6.327   0.647   2.425
 3342SOL    HW210926   6.189   0.565   2.457
 3343SOL     OW10927   3.938   5.716   0.840
 3343SOL    HW110928   3.994   5.770   0.777
 3343SOL    HW210929   3.921   5.769   0.923
 3344SOL     OW10930   0.976   3.599   2.017
 3344SOL    HW110931   0.907   3.532   2.048
 3344SOL    HW210932   1.053   3.550   1.976
 3345SOL     OW10933   5.861   5.553   1.180
 3345SOL    HW110934   5.794   5.594   1.241
 3345SOL    HW210935   5.815   5.490   1.116
 3346SOL     OW10936   1.492   0.935   0.465
 3346SOL    HW110937   1.561   0.864   0.462
 3346SOL    HW210938   1.511   0.998   0.540
 3347SOL     OW10939   0.690   4.150   5.748
 3347SOL    HW110940   0.715   4.093   5.826
 3347SOL    HW210941   0.755   4.135   5.674
 3348SOL     OW10942   3.685   4.223   6.210
 3348SOL    HW110943   3.633   4.264   6.285
 3348SOL    HW210944   3.751   4.157   6.247
 3349SOL     OW10945   1.670   5.191   2.272
 3349SOL    HW110946   1.694   5.167   2.179
 3349SOL    HW210947   1.576   5.226   2.274
 3350SOL     OW10948   1.998   4.964   4.992
 3350SOL    HW110949   1.941   4.962   5.074
 3350SOL    HW210950   2.084   4.915   5.010
 3351SOL     OW10951   5.518   0.274   2.243
 3351SOL    HW110952   5.567   0.192   2.211
 3351SOL    HW210953   5.520   0.276   2.343
 3352SOL     OW10954   5.401   1.381   6.876
 3352SOL    HW110955   5.422   1.287   6.850
 3352SOL    HW210956   5.469   1.443   6.837
 3353SOL     OW10957   4.000   0.994   6.528
 3353SOL    HW110958   4.055   0.983   6.445
 3353SOL    HW210959   3.907   0.961   6.511
 3354SOL     OW10960   2.116   3.178   0.781
 3354SOL    HW110961   2.061   3.098   0.807
 3354SOL    HW210962   2.182   3.153   0.711
 3355SOL     OW10963   1.013   0.717   4.483
 3355SOL    HW110964   1.109   0.713   4.509
 3355SOL    HW210965   0.956   0.701   4.563
 3356SOL     OW10966   2.563   0.803   6.153
 3356SOL    HW110967   2.514   0.744   6.089
 3356SOL    HW210968   2.661   0.788   6.142
 3357SOL     OW10969   2.952   3.217   2.755
 3357SOL    HW110970   2.944   3.305   2.709
 3357SOL    HW210971   2.988   3.148   2.691
 3358SOL     OW10972   0.320   1.943   1.337
 3358SOL    HW110973   0.398   1.881   1.327
 3358SOL    HW210974   0.287   1.968   1.246
 3359SOL     OW10975   0.879   0.022   4.429
 3359SOL    HW110976   0.874   7.017   4.334
 3359SOL    HW210977   0.969   0.000   4.467
 3360SOL     OW10978   2.052   5.506   4.443
 3360SOL    HW110979   2.150   5.525   4.432
 3360SOL    HW210980   2.041   5.427   4.503
 3361SOL     OW10981   6.819   6.714   4.862
 3361SOL    HW110982   6.864   6.632   4.827
 3361SOL    HW210983   6.875   6.795   4.841
 3362SOL     OW10984   3.917   0.663   4.213
 3362SOL    HW110985   3.997   0.723   4.215
 3362SOL    HW210986   3.930   0.587   4.277
 3363SOL     OW10987   5.229   4.015   0.036
 3363SOL    HW110988   5.247   4.092   7.000
 3363SOL    HW210989   5.297   3.944   0.022
 3364SOL     OW10990   1.533   3.591   1.753
 3364SOL    HW110991   1.543   3.663   1.822
 3364SOL    HW210992   1.610   3.528   1.760
 3365SOL     OW10993   1.175   2.987   3.071
 3365SOL    HW110994   1.114   3.059   3.101
 3365SOL    HW210995   1.130   2.932   3.000
 3366SOL     OW10996   6.532   2.703   4.559
 3366SOL    HW110997   6.542   2.704   4.460
 3366SOL    HW210998   6.485   2.786   4.589
 3367SOL     OW10999   3.376   2.896   3.851
 3367SOL    HW111000   3.452   2.915   3.913
 3367SOL    HW211001   3.403   2.826   3.785
 3368SOL     OW11002   2.530   1.375   3.372
 3368SOL    HW111003   2.621   1.351   3.406
 3368SOL    HW211004   2.464   1.307   3.404
 3369SOL     OW11005   5.094   2.976   1.154
 3369SOL    HW111006   5.104   2.917   1.234
 3369SOL    HW211007   4.997   2.997   1.140
 3370SOL     OW11008   0.930   6.035   3.040
 3370SOL    HW111009   0.840   6.034   3.083
 3370SOL    HW211010   0.921   6.018   2.942
 3371SOL     OW11011   2.208   3.025   1.239
 3371SOL    HW111012   2.239   3.117   1.217
 3371SOL    HW211013   2.257   2.959   1.183
 3372SOL     OW11014   6.084   3.103   3.873
 3372SOL    HW111015   6.010   3.063   3.926
 3372SOL    HW211016   6.062   3.197   3.850
 3373SOL     OW11017   0.027   4.450   0.858
 3373SOL    HW111018   6.974   4.426   0.802
 3373SOL    HW211019   0.022   4.547   0.882
 3374SOL     OW11020   0.809   6.096   4.087
 3374SOL    HW111021   0.738   6.029   4.107
 3374SOL    HW211022   0.812   6.113   3.988
 3375SOL     OW11023   0.814   6.141   5.722
 3375SOL    HW111024   0.816   6.225   5.668
 3375SOL    HW211025   0.792   6.064   5.662
 3376SOL     OW11026   3.194   2.904   5.164
 3376SOL    HW111027   3.180   2.980   5.100
 3376SOL    HW211028   3.276   2.854   5.138
 3377SOL     OW11029   6.881   5.302   4.522
 3377SOL    HW111030   6.934   5.373   4.568
 3377SOL    HW211031   6.816   5.262   4.587
 3378SOL     OW11032   1.098   5.945   0.587
 3378SOL    HW111033   1.098   5.856   0.542
 3378SOL    HW211034   1.180   5.996   0.560
 3379SOL     OW11035   5.872   4.027   4.124
 3379SOL    HW111036   5.953   4.030   4.183
 3379SOL    HW211037   5.790   4.023   4.180
 3380SOL     OW11038   2.515   5.272   1.497
 3380SOL    HW111039   2.453   5.316   1.562
 3380SOL    HW211040   2.484   5.178   1.478
 3381SOL     OW11041   2.813   3.626   6.446
 3381SOL    HW111042   2.890   3.668   6.397
 3381SOL    HW211043   2.756   3.698   6.486
 3382SOL     OW11044   6.739   4.055   6.978
 3382SOL    HW111045   6.817   4.115   6.961
 3382SOL    HW211046   6.742   3.977   6.915
 3383SOL     OW11047   3.505   5.493   0.999
 3383SOL    HW111048   3.518   5.521   1.094
 3383SOL    HW211049   3.563   5.548   0.939
 3384SOL     OW11050   2.622   2.744   6.483
 3384SOL    HW111051   2.582   2.781   6.399
 3384SOL    HW211052   2.706   2.695   6.461
 3385SOL     OW11053   6.242   2.527   4.613
 3385SOL    HW111054   6.330   2.498   4.577
 3385SOL    HW211055   6.216   2.470   4.691
 3386SOL     OW11056   0.449   6.035   4.736
 3386SOL    HW111057   0.546   6.060   4.742
 3386SOL    HW211058   0.428   6.003   4.644
 3387SOL     OW11059   6.077   0.872   2.535
 3387SOL    HW111060   6.127   0.786   2.526
 3387SOL    HW211061   5.981   0.857   2.511
 3388SOL     OW11062   0.069   3.692   0.607
 3388SOL    HW111063   0.083   3.771   0.666
 3388SOL    HW211064   0.073   3.608   0.662
 3389SOL     OW11065   6.274   5.476   6.491
 3389SOL    HW111066   6.233   5.394   6.532
 3389SOL    HW211067   6.303   5.454   6.398
 3390SOL     OW11068   3.215   4.789   0.087
 3390SOL    HW111069   3.300   4.807   0.036
 3390SOL    HW211070   3.213   4.846   0.169
 3391SOL     OW11071   4.961   3.855   5.264
 3391SOL    HW111072   4.872   3.880   5.225
 3391SOL    HW211073   5.031   3.919   5.232
 3392SOL     OW11074   5.037   6.535   5.974
 3392SOL    HW111075   5.096   6.570   6.047
 3392SOL    HW211076   5.061   6.580   5.888
 3393SOL     OW11077   3.594   6.346   0.359
 3393SOL    HW111078   3.563   6.302   0.275
 3393SOL    HW211079   3.547   6.304   0.438
 3394SOL     OW11080   3.232   5.050   0.918
 3394SOL    HW111081   3.313   5.104   0.897
 3394SOL    HW211082   3.165   5.107   0.965
 3395SOL     OW11083   2.024   6.742   2.923
 3395SOL    HW111084   1.946   6.805   2.928
 3395SOL    HW211085   2.103   6.783   2.968
 3396SOL     OW11086   5.083   0.455   4.321
 3396SOL    HW111087   5.024   0.500   4.389
 3396SOL    HW211088   5.149   0.396   4.368
 3397SOL     OW11089   2.492   6.162   0.826
 3397SOL    HW111090   2.518   6.067   0.811
 3397SOL    HW211091   2.574   6.219   0.826
 3398SOL     OW11092   6.541   1.311   6.682
 3398SOL    HW111093   6.450   1.270   6.696
 3398SOL    HW211094   6.603   1.241   6.647
 3399SOL     OW11095   6.805   6.410   2.074
 3399SOL    HW111096   6.799   6.435   1.977
 3399SOL    HW211097   6.877   6.465   2.118
 3400SOL     OW11098   3.420   2.640   5.298
 3400SOL    HW111099   3.506   2.676   5.335
 3400SOL    HW211100   3.413   2.664   5.201
 3401SOL     OW11101   0.101   3.031   4.325
 3401SOL    HW111102   0.015   2.990   4.354
 3401SOL    HW211103   0.158   2.962   4.281
 3402SOL     OW11104   5.489   3.420   0.348
 3402SOL    HW111105   5.457   3.327   0.368
 3402SOL    HW211106   5.420   3.468   0.294
 3403SOL     OW11107   5.710   6.539   5.475
 3403SOL    HW111108   5.631   6.477   5.476
 3403SOL    HW211109   5.708   6.596   5.557
 3404SOL     OW11110   4.993   5.116   3.094
 3404SOL    HW111111   5.055   5.050   3.136
 3404SOL    HW211112   5.016   5.127   2.998
 3405SOL     OW11113   4.258   6.153   0.378
 3405SOL    HW111114   4.322   6.190   0.445
 3405SOL    HW211115   4.206   6.228   0.336
 3406SOL     OW11116   3.618   5.116   1.073
 3406SOL    HW111117   3.675   5.194   1.102
 3406SOL    HW211118   3.652   5.032   1.115
 3407SOL     OW11119   1.256   3.028   0.302
 3407SOL    HW111120   1.180   2.984   0.350
 3407SOL    HW211121   1.339   2.973   0.314
 3408SOL     OW11122   4.305   6.602   4.196
 3408SOL    HW111123   4.360   6.665   4.141
 3408SOL    HW211124   4.321   6.621   4.293
 3409SOL     OW11125   4.195   1.598   0.047
 3409SOL    HW111126   4.263   1.529   0.019
 3409SOL    HW211127   4.113   1.589   7.017
 3410SOL     OW11128   6.505   0.658   2.828
 3410SOL    HW111129   6.429   0.659   2.893
 3410SOL    HW211130   6.484   0.719   2.751
 3411SOL     OW11131   5.702   2.994   5.741
 3411SOL    HW111132   5.769   2.986   5.667
 3411SOL    HW211133   5.611   3.007   5.703
 3412SOL     OW11134   5.762   3.049   3.615
 3412SOL    HW111135   5.756   3.146   3.638
 3412SOL    HW211136   5.849   3.030   3.570
 3413SOL     OW11137   6.820   2.494   0.849
 3413SOL    HW111138   6.873   2.570   0.812
 3413SOL    HW211139   6.755   2.530   0.917
 3414SOL     OW11140   3.864   3.393   1.932
 3414SOL    HW111141   3.848   3.444   1.848
 3414SOL    HW211142   3.913   3.308   1.911
 3415SOL     OW11143   2.192   1.320   6.403
 3415SOL    HW111144   2.165   1.361   6.316
 3415SOL    HW211145   2.156   1.375   6.479
 3416SOL     OW11146   6.049   6.988   5.981
 3416SOL    HW111147   5.987   7.023   5.911
 3416SOL    HW211148   6.021   6.895   6.007
 3417SOL     OW11149   5.942   0.558   2.466
 3417SOL    HW111150   5.869   0.612   2.507
 3417SOL    HW211151   5.932   0.557   2.366
 3418SOL     OW11152   4.291   5.748   0.882
 3418SOL    HW111153   4.289   5.677   0.813
 3418SOL    HW211154   4.356   5.819   0.855
 3419SOL     OW11155   2.793   4.914   5.081
 3419SOL    HW111156   2.752   4.952   4.998
 3419SOL    HW211157   2.817   4.818   5.064
 3420SOL     OW11158   4.178   0.848   2.340
 3420SOL    HW111159   4.215   0.793   2.265
 3420SOL    HW211160   4.253   0.886   2.395
 3421SOL     OW11161   0.231   1.774   5.059
 3421SOL    HW111162   0.192   1.790   4.968
 3421SOL    HW211163   0.175   1.820   5.127
 3422SOL     OW11164   3.675   6.048   2.013
 3422SOL    HW111165   3.699   5.951   2.022
 3422SOL    HW211166   3.688   6.077   1.918
 3423SOL     OW11167   2.381   4.179   5.863
 3423SOL    HW111168   2.400   4.152   5.769
 3423SOL    HW211169   2.435   4.122   5.925
 3424SOL     OW11170   5.686   0.668   2.084
 3424SOL    HW111171   5.754   0.726   2.040
 3424SOL    HW211172   5.731   0.603   2.146
 3425SOL     OW11173   6.112   2.727   6.173
 3425SOL    HW111174   6.125   2.822   6.203
 3425SOL    HW211175   6.015   2.710   6.156
 3426SOL     OW11176   6.814   5.304   0.138
 3426SOL    HW111177   6.900   5.328   0.183
 3426SOL    HW211178   6.751   5.263   0.204
 3427SOL     OW11179   1.598   1.282   6.217
 3427SOL    HW111180   1.566   1.198   6.261
 3427SOL    HW211181   1.697   1.289   6.226
 3428SOL     OW11182   4.945   0.103   4.632
 3428SOL    HW111183   4.932   0.160   4.714
 3428SOL    HW211184   5.014   0.033   4.651
 3429SOL     OW11185   4.111   6.405   0.334
 3429SOL    HW111186   4.048   6.483   0.332
 3429SOL    HW211187   4.178   6.419   0.408
 3430SOL     OW11188   2.800   4.317   6.632
 3430SOL    HW111189   2.752   4.387   6.579
 3430SOL    HW211190   2.899   4.327   6.617
 3431SOL     OW11191   0.817   4.788   2.936
 3431SOL    HW111192   0.897   4.821   2.885
 3431SOL    HW211193   0.846   4.751   3.024
 3432SOL     OW11194   0.586   5.094   6.984
 3432SOL    HW111195   0.517   5.022   6.982
 3432SOL    HW211196   0.675   5.055   6.962
 3433SOL     OW11197   0.815   1.229   0.625
 3433SOL    HW111198   0.757   1.150   0.605
 3433SOL    HW211199   0.760   1.303   0.663
 3434SOL     OW11200   3.928   2.294   1.807
 3434SOL    HW111201   3.893   2.213   1.855
 3434SOL    HW211202   3.865   2.370   1.821
 3435SOL     OW11203   2.080   2.369   1.115
 3435SOL    HW111204   2.054   2.296   1.053
 3435SOL    HW211205   2.000   2.399   1.168
 3436SOL     OW11206   4.202   6.491   5.807
 3436SOL    HW111207   4.161   6.476   5.896
 3436SOL    HW211208   4.200   6.589   5.785
 3437SOL     OW11209   1.514   6.778   0.201
 3437SOL    HW111210   1.483   6.866   0.164
 3437SOL    HW211211   1.541   6.718   0.126
 3438SOL     OW11212   2.054   4.034   0.810
 3438SOL    HW111213   2.146   4.015   0.776
 3438SOL    HW211214   2.013   4.108   0.755
 3439SOL     OW11215   2.942   5.627   0.422
 3439SOL    HW111216   2.873   5.596   0.356
 3439SOL    HW211217   3.023   5.568   0.416
 3440SOL     OW11218   3.745   3.698   5.858
 3440SOL    HW111219   3.710   3.789   5.882
 3440SOL    HW211220   3.669   3.640   5.829
 3441SOL     OW11221   6.644   4.932   4.903
 3441SOL    HW111222   6.567   4.950   4.842
 3441SOL    HW211223   6.683   4.842   4.883
 3442SOL     OW11224   1.180   2.191   0.522
 3442SOL    HW111225   1.140   2.236   0.602
 3442SOL    HW211226   1.172   2.251   0.443
 3443SOL     OW11227   0.755   5.995   2.573
 3443SOL    HW111228   0.733   6.085   2.537
 3443SOL    HW211229   0.673   5.938   2.576
 3444SOL     OW11230   0.369   3.982   6.200
 3444SOL    HW111231   0.281   4.000   6.156
 3444SOL    HW211232   0.407   4.068   6.235
 3445SOL     OW11233   5.908   5.067   4.823
 3445SOL    HW111234   5.877   4.972   4.819
 3445SOL    HW211235   5.918   5.095   4.918
 3446SOL     OW11236   4.903   1.651   0.570
 3446SOL    HW111237   4.917   1.582   0.499
 3446SOL    HW211238   4.943   1.738   0.540
 3447SOL     OW11239   4.631   1.618   6.305
 3447SOL    HW111240   4.685   1.653   6.227
 3447SOL    HW211241   4.623   1.690   6.374
 3448SOL     OW11242   1.001   5.151   5.653
 3448SOL    HW111243   1.090   5.160   5.608
 3448SOL    HW211244   1.009   5.175   5.749
 3449SOL     OW11245   1.138   3.905   5.667
 3449SOL    HW111246   1.203   3.882   5.594
 3449SOL    HW211247   1.054   3.940   5.627
 3450SOL     OW11248   2.632   6.857   2.415
 3450SOL    HW111249   2.681   6.781   2.457
 3450SOL    HW211250   2.681   6.888   2.334
 3451SOL     OW11251   2.095   2.226   0.518
 3451SOL    HW111252   2.144   2.140   0.533
 3451SOL    HW211253   2.009   2.224   0.570
 3452SOL     OW11254   4.320   1.524   6.375
 3452SOL    HW111255   4.408   1.569   6.358
 3452SOL    HW211256   4.335   1.428   6.396
 3453SOL     OW11257   4.732   6.459   5.959
 3453SOL    HW111258   4.706   6.396   6.032
 3453SOL    HW211259   4.832   6.457   5.948
 3454SOL     OW11260   1.239   3.081   2.466
 3454SOL    HW111261   1.337   3.075   2.484
 3454SOL    HW211262   1.208   2.998   2.420
 3455SOL     OW11263   1.000   4.270   6.347
 3455SOL    HW111264   1.050   4.354   6.369
 3455SOL    HW211265   1.063   4.202   6.310
 3456SOL     OW11266   4.034   5.307   2.973
 3456SOL    HW111267   3.957   5.345   2.923
 3456SOL    HW211268   4.064   5.223   2.929
 3457SOL     OW11269   4.042   4.482   0.347
 3457SOL    HW111270   3.971   4.490   0.278
 3457SOL    HW211271   4.120   4.432   0.310
 3458SOL     OW11272   4.797   1.720   1.423
 3458SOL    HW111273   4.747   1.714   1.509
 3458SOL    HW211274   4.869   1.789   1.431
 3459SOL     OW11275   6.365   6.326   2.026
 3459SOL    HW111276   6.384   6.413   2.073
 3459SOL    HW211277   6.362   6.342   1.927
 3460SOL     OW11278   3.676   1.850   5.307
 3460SOL    HW111279   3.620   1.899   5.240
 3460SOL    HW211280   3.772   1.855   5.280
 3461SOL     OW11281   4.663   4.734   4.148
 3461SOL    HW111282   4.736   4.801   4.161
 3461SOL    HW211283   4.575   4.782   4.139
 3462SOL     OW11284   1.304   4.930   6.067
 3462SOL    HW111285   1.307   4.910   6.165
 3462SOL    HW211286   1.221   4.891   6.027
 3463SOL     OW11287   6.039   3.749   0.509
 3463SOL    HW111288   6.041   3.658   0.470
 3463SOL    HW211289   6.082   3.748   0.599
 3464SOL     OW11290   0.181   4.337   4.025
 3464SOL    HW111291   0.199   4.248   3.984
 3464SOL    HW211292   0.228   4.343   4.113
 3465SOL     OW11293   0.607   3.192   2.288
 3465SOL    HW111294   0.678   3.247   2.244
 3465SOL    HW211295   0.543   3.158   2.219
 3466SOL     OW11296   6.483   3.806   3.811
 3466SOL    HW111297   6.570   3.848   3.783
 3466SOL    HW211298   6.420   3.808   3.734
 3467SOL     OW11299   1.820   2.691   5.871
 3467SOL    HW111300   1.731   2.647   5.881
 3467SOL    HW211301   1.808   2.791   5.867
 3468SOL     OW11302   4.893   5.842   1.903
 3468SOL    HW111303   4.826   5.790   1.956
 3468SOL    HW211304   4.862   5.850   1.808
 3469SOL     OW11305   5.887   4.291   0.547
 3469SOL    HW111306   5.865   4.272   0.451
 3469SOL    HW211307   5.978   4.256   0.567
 3470SOL     OW11308   5.771   4.970   1.212
 3470SOL    HW111309   5.776   4.881   1.258
 3470SOL    HW211310   5.863   5.002   1.190
 3471SOL     OW11311   4.385   6.596   4.463
 3471SOL    HW111312   4.390   6.498   4.446
 3471SOL    HW211313   4.465   6.641   4.425
 3472SOL     OW11314   4.555   1.049   4.456
 3472SOL    HW111315   4.497   1.068   4.536
 3472SOL    HW211316   4.555   1.129   4.396
 3473SOL     OW11317   4.598   6.549   3.739
 3473SOL    HW111318   4.681   6.605   3.740
 3473SOL    HW211319   4.537   6.579   3.812
 3474SOL     OW11320   4.752   4.338   0.612
 3474SOL    HW111321   4.684   4.293   0.553
 3474SOL    HW211322   4.705   4.404   0.671
 3475SOL     OW11323   1.496   5.194   5.112
 3475SOL    HW111324   1.572   5.203   5.048
 3475SOL    HW211325   1.520   5.129   5.183
 3476SOL     OW11326   4.379   2.070   3.963
 3476SOL    HW111327   4.339   2.006   3.897
 3476SOL    HW211328   4.382   2.027   4.053
 3477SOL     OW11329   4.664   4.933   1.774
 3477SOL    HW111330   4.745   4.879   1.798
 3477SOL    HW211331   4.582   4.889   1.812
 3478SOL     OW11332   3.509   4.109   0.374
 3478SOL    HW111333   3.414   4.131   0.397
 3478SOL    HW211334   3.535   4.160   0.291
 3479SOL     OW11335   1.748   0.207   0.904
 3479SOL    HW111336   1.702   0.225   0.817
 3479SOL    HW211337   1.681   0.207   0.978
 3480SOL     OW11338   1.356   0.232   3.860
 3480SOL    HW111339   1.438   0.205   3.810
 3480SOL    HW211340   1.302   0.151   3.883
 3481SOL     OW11341   2.324   6.044   0.052
 3481SOL    HW111342   2.357   6.029   6.986
 3481SOL    HW211343   2.253   5.977   0.075
 3482SOL     OW11344   0.526   2.468   1.488
 3482SOL    HW111345   0.472   2.402   1.436
 3482SOL    HW211346   0.490   2.560   1.473
 3483SOL     OW11347   3.670   1.324   0.502
 3483SOL    HW111348   3.596   1.281   0.554
 3483SOL    HW211349   3.718   1.389   0.561
 3484SOL     OW11350   3.824   4.075   3.322
 3484SOL    HW111351   3.881   4.050   3.401
 3484SOL    HW211352   3.731   4.097   3.354
 3485SOL     OW11353   6.130   1.957   5.308
 3485SOL    HW111354   6.173   2.000   5.229
 3485SOL    HW211355   6.037   1.928   5.283
 3486SOL     OW11356   5.789   0.690   3.370
 3486SOL    HW111357   5.715   0.747   3.406
 3486SOL    HW211358   5.816   0.725   3.280
 3487SOL     OW11359   1.043   0.227   0.479
 3487SOL    HW111360   0.977   0.171   0.429
 3487SOL    HW211361   1.101   0.277   0.415
 3488SOL     OW11362   6.115   4.073   4.313
 3488SOL    HW111363   6.099   4.019   4.395
 3488SOL    HW211364   6.119   4.170   4.336
 3489SOL     OW11365   2.675   5.388   6.830
 3489SOL    HW111366   2.658   5.303   6.880
 3489SOL    HW211367   2.639   5.465   6.882
 3490SOL     OW11368   4.730   3.595   0.319
 3490SOL    HW111369   4.721   3.668   0.386
 3490SOL    HW211370   4.639   3.558   0.297
 3491SOL     OW11371   5.870   2.925   4.999
 3491SOL    HW111372   5.898   2.927   5.096
 3491SOL    HW211373   5.915   3.001   4.951
 3492SOL     OW11374   6.438   4.886   0.194
 3492SOL    HW111375   6.496   4.863   0.115
 3492SOL    HW211376   6.395   4.975   0.178
 3493SOL     OW11377   6.708   5.060   1.792
 3493SOL    HW111378   6.651   5.116   1.732
 3493SOL    HW211379   6.653   4.989   1.835
 3494SOL     OW11380   2.920   6.292   1.145
 3494SOL    HW111381   2.947   6.240   1.226
 3494SOL    HW211382   2.981   6.370   1.133
 3495SOL     OW11383   5.717   4.549   6.484
 3495SOL    HW111384   5.621   4.539   6.459
 3495SOL    HW211385   5.738   4.489   6.561
 3496SOL     OW11386   0.968   5.086   0.820
 3496SOL    HW111387   0.868   5.077   0.826
 3496SOL    HW211388   0.991   5.157   0.753
 3497SOL     OW11389   4.332   0.098   4.396
 3497SOL    HW111390   4.401   0.065   4.460
 3497SOL    HW211391   4.269   0.159   4.443
 3498SOL     OW11392   0.743   1.620   0.330
 3498SOL    HW111393   0.765   1.546   0.393
 3498SOL    HW211394   0.665   1.594   0.273
 3499SOL     OW11395   0.032   4.231   4.518
 3499SOL    HW111396   0.039   4.145   4.467
 3499SOL    HW211397   6.972   4.276   4.496
 3500SOL     OW11398   5.545   3.168   0.779
 3500SOL    HW111399   5.463   3.128   0.738
 3500SOL    HW211400   5.522   3.258   0.817
 3501SOL     OW11401   0.530   4.819   2.866
 3501SOL    HW111402   0.623   4.824   2.903
 3501SOL    HW211403   0.534   4.816   2.766
 3502SOL     OW11404   0.584   5.361   1.593
 3502SOL    HW111405   0.664   5.411   1.560
 3502SOL    HW211406   0.501   5.407   1.560
 3503SOL     OW11407   3.518   6.852   3.379
 3503SOL    HW111408   3.560   6.942   3.395
 3503SOL    HW211409   3.420   6.863   3.367
 3504SOL     OW11410   2.018   2.737   2.994
 3504SOL    HW111411   1.929   2.777   3.016
 3504SOL    HW211412   2.090   2.801   3.020
 3505SOL     OW11413   4.848   6.824   4.735
 3505SOL    HW111414   4.817   6.902   4.789
 3505SOL    HW211415   4.810   6.740   4.772
 3506SOL     OW11416   6.125   4.957   2.360
 3506SOL    HW111417   6.174   5.042   2.341
 3506SOL    HW211418   6.111   4.907   2.274
 3507SOL     OW11419   0.070   0.215   5.873
 3507SOL    HW111420   0.112   0.178   5.791
 3507SOL    HW211421   0.094   0.159   5.952
 3508SOL     OW11422   6.147   4.538   0.145
 3508SOL    HW111423   6.185   4.507   0.232
 3508SOL    HW211424   6.218   4.584   0.092
 3509SOL     OW11425   5.806   0.067   6.548
 3509SOL    HW111426   5.901   0.099   6.558
 3509SOL    HW211427   5.807   6.995   6.530
 3510SOL     OW11428   1.709   1.527   1.877
 3510SOL    HW111429   1.781   1.468   1.840
 3510SOL    HW211430   1.708   1.613   1.827
 3511SOL     OW11431   0.966   0.864   4.865
 3511SOL    HW111432   0.939   0.943   4.920
 3511SOL    HW211433   1.012   0.895   4.782
 3512SOL     OW11434   3.796   3.027   1.202
 3512SOL    HW111435   3.820   2.969   1.125
 3512SOL    HW211436   3.788   2.971   1.285
 3513SOL     OW11437   5.872   4.214   1.308
 3513SOL    HW111438   5.952   4.221   1.368
 3513SOL    HW211439   5.790   4.200   1.363
 3514SOL     OW11440   2.234   6.097   1.994
 3514SOL    HW111441   2.291   6.083   1.913
 3514SOL    HW211442   2.285   6.071   2.076
 3515SOL     OW11443   3.860   6.141   3.200
 3515SOL    HW111444   3.826   6.160   3.108
 3515SOL    HW211445   3.920   6.061   3.198
 3516SOL     OW11446   1.922   0.638   0.293
 3516SOL    HW111447   1.905   0.701   0.369
 3516SOL    HW211448   1.891   0.679   0.208
 3517SOL     OW11449   0.780   0.615   6.947
 3517SOL    HW111450   0.801   0.597   0.016
 3517SOL    HW211451   0.681   0.605   6.932
 3518SOL     OW11452   4.261   3.613   6.312
 3518SOL    HW111453   4.203   3.656   6.243
 3518SOL    HW211454   4.271   3.516   6.290
 3519SOL     OW11455   3.457   6.752   0.246
 3519SOL    HW111456   3.526   6.729   0.178
 3519SOL    HW211457   3.482   6.836   0.293
 3520SOL     OW11458   3.519   5.102   1.542
 3520SOL    HW111459   3.497   5.005   1.553
 3520SOL    HW211460   3.594   5.111   1.476
 3521SOL     OW11461   6.739   2.323   6.158
 3521SOL    HW111462   6.760   2.370   6.244
 3521SOL    HW211463   6.744   2.224   6.172
 3522SOL     OW11464   2.686   0.403   0.914
 3522SOL    HW111465   2.591   0.376   0.900
 3522SOL    HW211466   2.738   0.326   0.950
 3523SOL     OW11467   2.714   4.732   5.308
 3523SOL    HW111468   2.776   4.805   5.335
 3523SOL    HW211469   2.764   4.663   5.257
 3524SOL     OW11470   2.389   0.942   2.808
 3524SOL    HW111471   2.391   1.028   2.858
 3524SOL    HW211472   2.387   0.865   2.872
 3525SOL     OW11473   1.423   3.373   3.298
 3525SOL    HW111474   1.520   3.383   3.322
 3525SOL    HW211475   1.415   3.313   3.219
 3526SOL     OW11476   3.425   6.631   3.510
 3526SOL    HW111477   3.397   6.562   3.443
 3526SOL    HW211478   3.447   6.716   3.462
 3527SOL     OW11479   5.390   3.804   0.020
 3527SOL    HW111480   5.352   3.733   0.079
 3527SOL    HW211481   5.385   3.774   6.951
 3528SOL     OW11482   2.060   6.835   4.625
 3528SOL    HW111483   1.979   6.876   4.666
 3528SOL    HW211484   2.122   6.804   4.697
 3529SOL     OW11485   4.178   5.588   0.210
 3529SOL    HW111486   4.149   5.674   0.167
 3529SOL    HW211487   4.097   5.535   0.237
 3530SOL     OW11488   2.019   6.460   2.878
 3530SOL    HW111489   2.005   6.458   2.779
 3530SOL    HW211490   2.047   6.552   2.906
 3531SOL     OW11491   5.521   4.618   6.923
 3531SOL    HW111492   5.451   4.643   6.989
 3531SOL    HW211493   5.562   4.530   6.950
 3532SOL     OW11494   1.929   6.637   0.967
 3532SOL    HW111495   1.907   6.562   1.030
 3532SOL    HW211496   2.003   6.692   1.004
 3533SOL     OW11497   1.517   0.993   3.466
 3533SOL    HW111498   1.565   1.069   3.424
 3533SOL    HW211499   1.421   0.995   3.439
 3534SOL     OW11500   5.457   0.438   5.126
 3534SOL    HW111501   5.535   0.480   5.173
 3534SOL    HW211502   5.483   0.347   5.093
 3535SOL     OW11503   4.925   6.748   0.173
 3535SOL    HW111504   5.017   6.754   0.212
 3535SOL    HW211505   4.928   6.781   0.078
 3536SOL     OW11506   1.122   3.229   2.655
 3536SOL    HW111507   1.039   3.260   2.608
 3536SOL    HW211508   1.173   3.166   2.596
 3537SOL     OW11509   3.320   4.820   1.318
 3537SOL    HW111510   3.272   4.899   1.355
 3537SOL    HW211511   3.307   4.815   1.219
 3538SOL     OW11512   3.972   0.666   3.870
 3538SOL    HW111513   3.919   0.638   3.949
 3538SOL    HW211514   3.954   0.604   3.793
 3539SOL     OW11515   4.989   5.748   5.556
 3539SOL    HW111516   4.924   5.720   5.485
 3539SOL    HW211517   5.071   5.786   5.512
 3540SOL     OW11518   3.906   4.801   6.457
 3540SOL    HW111519   3.897   4.751   6.542
 3540SOL    HW211520   3.861   4.751   6.383
 3541SOL     OW11521   0.975   2.507   2.082
 3541SOL    HW111522   0.957   2.428   2.024
 3541SOL    HW211523   1.073   2.529   2.078
 3542SOL     OW11524   5.981   1.517   0.116
 3542SOL    HW111525   5.959   1.590   0.181
 3542SOL    HW211526   5.915   1.443   0.127
 3543SOL     OW11527   0.690   2.539   3.830
 3543SOL    HW111528   0.632   2.540   3.749
 3543SOL    HW211529   0.635   2.563   3.911
 3544SOL     OW11530   2.693   4.126   0.057
 3544SOL    HW111531   2.773   4.108   0.116
 3544SOL    HW211532   2.719   4.191   7.012
 3545SOL     OW11533   3.674   6.516   0.565
 3545SOL    HW111534   3.658   6.472   0.653
 3545SOL    HW211535   3.645   6.455   0.491
 3546SOL     OW11536   6.512   4.837   1.357
 3546SOL    HW111537   6.553   4.746   1.349
 3546SOL    HW211538   6.574   4.905   1.318
 3547SOL     OW11539   0.825   3.830   4.456
 3547SOL    HW111540   0.916   3.793   4.433
 3547SOL    HW211541   0.759   3.756   4.461
 3548SOL     OW11542   6.194   0.160   5.689
 3548SOL    HW111543   6.259   0.165   5.764
 3548SOL    HW211544   6.117   0.101   5.715
 3549SOL     OW11545   2.380   6.221   6.480
 3549SOL    HW111546   2.320   6.284   6.431
 3549SOL    HW211547   2.440   6.272   6.541
 3550SOL     OW11548   5.590   1.783   5.668
 3550SOL    HW111549   5.645   1.827   5.597
 3550SOL    HW211550   5.610   1.685   5.671
 3551SOL     OW11551   6.045   2.013   4.801
 3551SOL    HW111552   6.004   2.093   4.758
 3551SOL    HW211553   6.129   1.988   4.752
 3552SOL     OW11554   6.975   0.047   2.867
 3552SOL    HW111555   7.020   6.986   2.845
 3552SOL    HW211556   6.876   0.034   2.865
 3553SOL     OW11557   6.251   5.940   6.426
 3553SOL    HW111558   6.311   6.019   6.427
 3553SOL    HW211559   6.162   5.967   6.388
 3554SOL     OW11560   4.826   4.489   6.685
 3554SOL    HW111561   4.909   4.468   6.737
 3554SOL    HW211562   4.823   4.433   6.602
 3555SOL     OW11563   2.895   1.445   5.264
 3555SOL    HW111564   2.826   1.408   5.202
 3555SOL    HW211565   2.860   1.446   5.357
 3556SOL     OW11566   6.208   1.164   0.185
 3556SOL    HW111567   6.115   1.153   0.150
 3556SOL    HW211568   6.265   1.208   0.115
 3557SOL     OW11569   4.975   6.495   1.923
 3557SOL    HW111570   5.027   6.572   1.959
 3557SOL    HW211571   4.880   6.502   1.954
 3558SOL     OW11572   3.668   5.697   2.550
 3558SOL    HW111573   3.621   5.629   2.607
 3558SOL    HW211574   3.650   5.678   2.453
 3559SOL     OW11575   3.779   6.671   6.674
 3559SOL    HW111576   3.751   6.588   6.626
 3559SOL    HW211577   3.783   6.747   6.609
 3560SOL     OW11578   2.368   5.954   4.401
 3560SOL    HW111579   2.440   5.898   4.442
 3560SOL    HW211580   2.387   5.967   4.303
 3561SOL     OW11581   4.267   2.953   5.345
 3561SOL    HW111582   4.259   2.970   5.444
 3561SOL    HW211583   4.238   2.860   5.325
 3562SOL     OW11584   2.658   1.221   0.476
 3562SOL    HW111585   2.682   1.127   0.503
 3562SOL    HW211586   2.689   1.285   0.546
 3563SOL     OW11587   0.110   2.356   6.703
 3563SOL    HW111588   0.122   2.455   6.708
 3563SOL    HW211589   0.195   2.310   6.726
 3564SOL     OW11590   6.638   3.860   2.975
 3564SOL    HW111591   6.725   3.878   2.929
 3564SOL    HW211592   6.563   3.873   2.910
 3565SOL     OW11593   4.993   6.736   5.573
 3565SOL    HW111594   4.936   6.817   5.559
 3565SOL    HW211595   5.039   6.743   5.662
 3566SOL     OW11596   1.449   0.637   5.769
 3566SOL    HW111597   1.509   0.716   5.778
 3566SOL    HW211598   1.432   0.597   5.859
 3567SOL     OW11599   6.765   4.374   0.015
 3567SOL    HW111600   6.673   4.338   0.031
 3567SOL    HW211601   6.829   4.331   0.079
 3568SOL     OW11602   3.897   3.720   5.661
 3568SOL    HW111603   3.879   3.808   5.617
 3568SOL    HW211604   3.844   3.712   5.745
 3569SOL     OW11605   1.821   0.223   3.615
 3569SOL    HW111606   1.843   0.297   3.679
 3569SOL    HW211607   1.905   0.187   3.575
 3570SOL     OW11608   6.002   1.950   4.258
 3570SOL    HW111609   5.968   1.958   4.164
 3570SOL    HW211610   6.037   1.858   4.274
 3571SOL     OW11611   6.381   5.318   4.787
 3571SOL    HW111612   6.324   5.240   4.762
 3571SOL    HW211613   6.422   5.303   4.877
 3572SOL     OW11614   6.155   6.458   5.589
 3572SOL    HW111615   6.209   6.530   5.547
 3572SOL    HW211616   6.130   6.484   5.682
 3573SOL     OW11617   0.245   2.077   1.083
 3573SOL    HW111618   0.323   2.036   1.036
 3573SOL    HW211619   0.162   2.026   1.060
 3574SOL     OW11620   6.390   3.940   0.323
 3574SOL    HW111621   6.433   3.927   0.233
 3574SOL    HW211622   6.332   4.020   0.321
 3575SOL     OW11623   6.304   6.822   1.879
 3575SOL    HW111624   6.372   6.748   1.883
 3575SOL    HW211625   6.219   6.791   1.921
 3576SOL     OW11626   6.677   0.347   0.153
 3576SOL    HW111627   6.670   0.447   0.155
 3576SOL    HW211628   6.632   0.309   0.234
 3577SOL     OW11629   2.154   3.894   0.086
 3577SOL    HW111630   2.072   3.869   0.137
 3577SOL    HW211631   2.159   3.993   0.078
 3578SOL     OW11632   3.530   4.353   1.757
 3578SOL    HW111633   3.550   4.449   1.779
 3578SOL    HW211634   3.441   4.347   1.712
 3579SOL     OW11635   1.830   4.331   5.290
 3579SOL    HW111636   1.818   4.266   5.365
 3579SOL    HW211637   1.925   4.363   5.287
 3580SOL     OW11638   6.124   3.194   1.137
 3580SOL    HW111639   6.210   3.237   1.164
 3580SOL    HW211640   6.058   3.202   1.212
 3581SOL     OW11641   6.408   0.534   3.324
 3581SOL    HW111642   6.312   0.530   3.295
 3581SOL    HW211643   6.467   0.506   3.248
 3582SOL     OW11644   0.144   6.920   5.433
 3582SOL    HW111645   0.240   6.896   5.450
 3582SOL    HW211646   0.095   6.839   5.402
 3583SOL     OW11647   0.913   5.330   1.917
 3583SOL    HW111648   0.941   5.322   1.821
 3583SOL    HW211649   0.844   5.401   1.925
 3584SOL     OW11650   6.049   0.205   5.092
 3584SOL    HW111651   5.961   0.224   5.050
 3584SOL    HW211652   6.091   0.290   5.123
 3585SOL     OW11653   2.169   4.710   3.398
 3585SOL    HW111654   2.163   4.757   3.310
 3585SOL    HW211655   2.228   4.762   3.459
 3586SOL     OW11656   1.139   0.699   6.015
 3586SOL    HW111657   1.094   0.785   6.037
 3586SOL    HW211658   1.219   0.688   6.073
 3587SOL     OW11659   3.433   6.571   6.379
 3587SOL    HW111660   3.418   6.482   6.336
 3587SOL    HW211661   3.346   6.621   6.384
 3588SOL     OW11662   2.037   2.380   5.515
 3588SOL    HW111663   2.111   2.441   5.487
 3588SOL    HW211664   2.075   2.302   5.565
 3589SOL     OW11665   3.951   0.019   4.476
 3589SOL    HW111666   4.013   6.968   4.493
 3589SOL    HW211667   3.986   0.073   4.399
 3590SOL     OW11668   1.118   5.132   6.663
 3590SOL    HW111669   1.150   5.154   6.755
 3590SOL    HW211670   1.195   5.124   6.601
 3591SOL     OW11671   5.284   2.190   5.195
 3591SOL    HW111672   5.227   2.268   5.169
 3591SOL    HW211673   5.379   2.209   5.172
 3592SOL     OW11674   5.323   2.201   1.847
 3592SOL    HW111675   5.227   2.187   1.825
 3592SOL    HW211676   5.380   2.135   1.798
 3593SOL     OW11677   1.051   5.855   4.355
 3593SOL    HW111678   1.082   5.919   4.285
 3593SOL    HW211679   1.050   5.763   4.318
 3594SOL     OW11680   3.857   1.890   4.418
 3594SOL    HW111681   3.913   1.856   4.343
 3594SOL    HW211682   3.873   1.988   4.430
 3595SOL     OW11683   2.244   6.780   5.497
 3595SOL    HW111684   2.212   6.875   5.495
 3595SOL    HW211685   2.340   6.777   5.467
 3596SOL     OW11686   0.520   3.815   3.261
 3596SOL    HW111687   0.428   3.844   3.289
 3596SOL    HW211688   0.573   3.895   3.234
 3597SOL     OW11689   3.885   0.014   3.758
 3597SOL    HW111690   3.965   0.025   3.699
 3597SOL    HW211691   3.802   0.023   3.702
 3598SOL     OW11692   1.849   0.318   7.025
 3598SOL    HW111693   1.881   0.340   0.091
 3598SOL    HW211694   1.909   0.249   6.985
 3599SOL     OW11695   6.841   1.548   4.185
 3599SOL    HW111696   6.868   1.531   4.090
 3599SOL    HW211697   6.904   1.613   4.226
 3600SOL     OW11698   6.561   0.342   1.018
 3600SOL    HW111699   6.474   0.302   1.047
 3600SOL    HW211700   6.602   0.392   1.095
 3601SOL     OW11701   5.753   3.757   6.047
 3601SOL    HW111702   5.717   3.760   5.954
 3601SOL    HW211703   5.694   3.810   6.108
 3602SOL     OW11704   2.956   1.503   1.366
 3602SOL    HW111705   2.905   1.569   1.310
 3602SOL    HW211706   2.912   1.495   1.456
 3603SOL     OW11707   4.214   5.199   4.663
 3603SOL    HW111708   4.160   5.197   4.579
 3603SOL    HW211709   4.302   5.244   4.646
 3604SOL     OW11710   6.356   4.515   3.415
 3604SOL    HW111711   6.452   4.506   3.439
 3604SOL    HW211712   6.309   4.427   3.431
 3605SOL     OW11713   6.172   2.751   0.011
 3605SOL    HW111714   6.130   2.842   0.008
 3605SOL    HW211715   6.146   2.705   0.095
 3606SOL     OW11716   1.595   4.260   3.306
 3606SOL    HW111717   1.662   4.315   3.355
 3606SOL    HW211718   1.537   4.320   3.251
 3607SOL     OW11719   4.345   7.001   0.098
 3607SOL    HW111720   4.245   6.998   0.097
 3607SOL    HW211721   4.376   0.033   0.173
 3608SOL     OW11722   0.561   2.725   3.395
 3608SOL    HW111723   0.610   2.648   3.354
 3608SOL    HW211724   0.627   2.788   3.435
 3609SOL     OW11725   6.786   0.073   4.166
 3609SOL    HW111726   6.686   0.070   4.159
 3609SOL    HW211727   6.812   0.140   4.236
 3610SOL     OW11728   1.918   5.522   5.480
 3610SOL    HW111729   2.009   5.553   5.508
 3610SOL    HW211730   1.850   5.589   5.509
 3611SOL     OW11731   4.680   5.852   5.566
 3611SOL    HW111732   4.706   5.796   5.645
 3611SOL    HW211733   4.581   5.864   5.564
 3612SOL     OW11734   2.253   6.521   1.276
 3612SOL    HW111735   2.261   6.493   1.180
 3612SOL    HW211736   2.250   6.440   1.334
 3613SOL     OW11737   5.071   5.263   6.395
 3613SOL    HW111738   5.108   5.170   6.394
 3613SOL    HW211739   4.979   5.262   6.356
 3614SOL     OW11740   4.077   3.612   4.741
 3614SOL    HW111741   4.112   3.675   4.810
 3614SOL    HW211742   4.086   3.518   4.774
 3615SOL     OW11743   5.865   6.407   6.189
 3615SOL    HW111744   5.768   6.400   6.163
 3615SOL    HW211745   5.922   6.378   6.113
 3616SOL     OW11746   5.783   0.677   4.715
 3616SOL    HW111747   5.727   0.760   4.725
 3616SOL    HW211748   5.877   0.703   4.693
 3617SOL     OW11749   0.130   0.378   0.127
 3617SOL    HW111750   0.209   0.317   0.123
 3617SOL    HW211751   0.050   0.333   0.088
 3618SOL     OW11752   2.884   6.480   6.360
 3618SOL    HW111753   2.973   6.455   6.399
 3618SOL    HW211754   2.850   6.406   6.303
 3619SOL     OW11755   5.061   4.078   4.033
 3619SOL    HW111756   5.073   4.171   3.998
 3619SOL    HW211757   5.149   4.030   4.031
 3620SOL     OW11758   6.335   1.375   4.747
 3620SOL    HW111759   6.319   1.324   4.831
 3620SOL    HW211760   6.412   1.334   4.698
 3621SOL     OW11761   1.483   3.254   5.662
 3621SOL    HW111762   1.479   3.154   5.651
 3621SOL    HW211763   1.458   3.277   5.756
 3622SOL     OW11764   0.619   3.535   1.324
 3622SOL    HW111765   0.666   3.556   1.238
 3622SOL    HW211766   0.684   3.495   1.388
 3623SOL     OW11767   6.843   5.120   4.048
 3623SOL    HW111768   6.888   5.147   4.133
 3623SOL    HW211769   6.752   5.086   4.068
 3624SOL     OW11770   1.827   1.090   1.913
 3624SOL    HW111771   1.898   1.021   1.907
 3624SOL    HW211772   1.806   1.109   2.009
 3625SOL     OW11773   0.643   3.306   4.501
 3625SOL    HW111774   0.575   3.361   4.452
 3625SOL    HW211775   0.720   3.288   4.440
 3626SOL     OW11776   2.782   4.080   5.242
 3626SOL    HW111777   2.699   4.039   5.203
 3626SOL    HW211778   2.798   4.042   5.333
 3627SOL     OW11779   3.496   3.102   4.222
 3627SOL    HW111780   3.396   3.104   4.219
 3627SOL    HW211781   3.533   3.168   4.157
 3628SOL     OW11782   2.913   5.625   3.167
 3628SOL    HW111783   2.959   5.647   3.081
 3628SOL    HW211784   2.981   5.617   3.240
 3629SOL     OW11785   5.255   3.008   5.384
 3629SOL    HW111786   5.207   2.986   5.299
 3629SOL    HW211787   5.264   3.108   5.391
 3630SOL     OW11788   5.697   1.453   5.034
 3630SOL    HW111789   5.667   1.509   4.957
 3630SOL    HW211790   5.762   1.384   5.001
 3631SOL     OW11791   2.117   1.172   3.862
 3631SOL    HW111792   2.188   1.133   3.920
 3631SOL    HW211793   2.155   1.248   3.809
 3632SOL     OW11794   3.907   6.788   6.113
 3632SOL    HW111795   3.988   6.783   6.171
 3632SOL    HW211796   3.836   6.728   6.149
 3633SOL     OW11797   1.217   3.474   5.210
 3633SOL    HW111798   1.255   3.560   5.245
 3633SOL    HW211799   1.237   3.400   5.275
 3634SOL     OW11800   3.404   5.328   6.027
 3634SOL    HW111801   3.472   5.353   6.096
 3634SOL    HW211802   3.391   5.405   5.964
 3635SOL     OW11803   1.720   0.998   5.261
 3635SOL    HW111804   1.798   1.019   5.321
 3635SOL    HW211805   1.692   0.903   5.275
 3636SOL     OW11806   1.394   5.881   6.700
 3636SOL    HW111807   1.446   5.925   6.627
 3636SOL    HW211808   1.454   5.822   6.754
 3637SOL     OW11809   4.974   1.078   1.737
 3637SOL    HW111810   4.928   1.012   1.797
 3637SOL    HW211811   4.939   1.170   1.756
 3638SOL     OW11812   5.903   5.100   3.310
 3638SOL    HW111813   5.938   5.174   3.254
 3638SOL    HW211814   5.972   5.076   3.379
 3639SOL     OW11815   2.604   5.627   6.953
 3639SOL    HW111816   2.523   5.620   7.011
 3639SOL    HW211817   2.626   5.723   6.939
 3640SOL     OW11818   2.458   6.815   1.503
 3640SOL    HW111819   2.493   6.730   1.541
 3640SOL    HW211820   2.435   6.878   1.578
 3641SOL     OW11821   2.356   0.842   4.532
 3641SOL    HW111822   2.370   0.744   4.541
 3641SOL    HW211823   2.269   0.868   4.573
 3642SOL     OW11824   5.749   6.491   2.109
 3642SOL    HW111825   5.682   6.497   2.183
 3642SOL    HW211826   5.835   6.533   2.139
 3643SOL     OW11827   3.716   5.157   5.703
 3643SOL    HW111828   3.688   5.064   5.680
 3643SOL    HW211829   3.811   5.156   5.734
 3644SOL     OW11830   6.929   0.297   0.358
 3644SOL    HW111831   6.925   0.390   0.395
 3644SOL    HW211832   7.020   0.259   0.374
 3645SOL     OW11833   3.581   6.514   2.784
 3645SOL    HW111834   3.659   6.459   2.754
 3645SOL    HW211835   3.613   6.602   2.818
 3646SOL     OW11836   6.824   5.500   4.329
 3646SOL    HW111837   6.857   5.415   4.372
 3646SOL    HW211838   6.725   5.505   4.337
 3647SOL     OW11839   2.365   2.369   1.610
 3647SOL    HW111840   2.439   2.313   1.573
 3647SOL    HW211841   2.277   2.324   1.594
 3648SOL     OW11842   3.099   6.262   3.419
 3648SOL    HW111843   3.062   6.174   3.450
 3648SOL    HW211844   3.091   6.329   3.492
 3649SOL     OW11845   3.547   3.073   2.171
 3649SOL    HW111846   3.591   2.985   2.153
 3649SOL    HW211847   3.525   3.117   2.084
 3650SOL     OW11848   5.388   6.690   1.489
 3650SOL    HW111849   5.439   6.776   1.498
 3650SOL    HW211850   5.350   6.664   1.578
 3651SOL     OW11851   1.154   6.395   2.643
 3651SOL    HW111852   1.118   6.366   2.554
 3651SOL    HW211853   1.135   6.324   2.711
 3652SOL     OW11854   4.705   5.047   3.095
 3652SOL    HW111855   4.749   5.119   3.150
 3652SOL    HW211856   4.775   4.985   3.059
 3653SOL     OW11857   6.531   3.174   4.916
 3653SOL    HW111858   6.440   3.212   4.896
 3653SOL    HW211859   6.597   3.249   4.926
 3654SOL     OW11860   1.185   5.838   1.640
 3654SOL    HW111861   1.276   5.875   1.657
 3654SOL    HW211862   1.129   5.846   1.722
 3655SOL     OW11863   0.239   1.113   3.664
 3655SOL    HW111864   0.175   1.178   3.704
 3655SOL    HW211865   0.199   1.021   3.665
 3656SOL     OW11866   2.596   1.360   2.748
 3656SOL    HW111867   2.544   1.418   2.684
 3656SOL    HW211868   2.658   1.301   2.696
 3657SOL     OW11869   4.586   4.787   2.199
 3657SOL    HW111870   4.526   4.861   2.228
 3657SOL    HW211871   4.545   4.739   2.122
 3658SOL     OW11872   2.190   5.325   5.605
 3658SOL    HW111873   2.147   5.305   5.693
 3658SOL    HW211874   2.180   5.422   5.584
 3659SOL     OW11875   0.950   3.868   0.236
 3659SOL    HW111876   0.856   3.893   0.212
 3659SOL    HW211877   0.970   3.776   0.200
 3660SOL     OW11878   3.985   5.027   0.834
 3660SOL    HW111879   3.938   5.061   0.916
 3660SOL    HW211880   4.074   5.073   0.825
 3661SOL     OW11881   5.069   1.550   1.410
 3661SOL    HW111882   4.982   1.575   1.367
 3661SOL    HW211883   5.110   1.631   1.453
 3662SOL     OW11884   2.839   6.208   5.034
 3662SOL    HW111885   2.803   6.197   4.942
 3662SOL    HW211886   2.845   6.119   5.079
 3663SOL     OW11887   1.455   3.717   5.743
 3663SOL    HW111888   1.523   3.645   5.757
 3663SOL    HW211889   1.476   3.795   5.801
 3664SOL     OW11890   4.154   7.020   1.537
 3664SOL    HW111891   4.070   0.015   1.486
 3664SOL    HW211892   4.136   7.025   1.635
 3665SOL     OW11893   1.516   0.014   5.273
 3665SOL    HW111894   1.468   0.045   5.355
 3665SOL    HW211895   1.475   0.058   5.193
 3666SOL     OW11896   0.727   5.003   4.373
 3666SOL    HW111897   0.629   5.003   4.351
 3666SOL    HW211898   0.742   4.948   4.455
 3667SOL     OW11899   0.166   1.229   6.442
 3667SOL    HW111900   0.155   1.319   6.483
 3667SOL    HW211901   0.263   1.206   6.436
 3668SOL     OW11902   1.657   5.826   1.867
 3668SOL    HW111903   1.581   5.803   1.927
 3668SOL    HW211904   1.627   5.825   1.772
 3669SOL     OW11905   5.757   1.823   3.668
 3669SOL    HW111906   5.814   1.741   3.664
 3669SOL    HW211907   5.803   1.899   3.623
 3670SOL     OW11908   2.184   5.511   6.346
 3670SOL    HW111909   2.250   5.436   6.342
 3670SOL    HW211910   2.094   5.475   6.369
 3671SOL     OW11911   1.534   0.948   2.943
 3671SOL    HW111912   1.622   0.907   2.921
 3671SOL    HW211913   1.528   1.039   2.900
 3672SOL     OW11914   6.715   6.831   0.628
 3672SOL    HW111915   6.775   6.909   0.614
 3672SOL    HW211916   6.748   6.753   0.574
 3673SOL     OW11917   4.203   0.346   6.510
 3673SOL    HW111918   4.227   0.249   6.499
 3673SOL    HW211919   4.107   0.354   6.536
 3674SOL     OW11920   1.240   6.571   1.025
 3674SOL    HW111921   1.265   6.496   1.086
 3674SOL    HW211922   1.316   6.592   0.964
 3675SOL     OW11923   1.755   1.502   4.618
 3675SOL    HW111924   1.790   1.423   4.568
 3675SOL    HW211925   1.792   1.501   4.711
 3676SOL     OW11926   1.640   4.874   3.299
 3676SOL    HW111927   1.645   4.801   3.231
 3676SOL    HW211928   1.644   4.963   3.254
 3677SOL     OW11929   6.476   6.792   3.550
 3677SOL    HW111930   6.531   6.790   3.634
 3677SOL    HW211931   6.506   6.720   3.488
 3678SOL     OW11932   1.451   1.424   3.204
 3678SOL    HW111933   1.379   1.379   3.152
 3678SOL    HW211934   1.413   1.501   3.255
 3679SOL     OW11935   0.142   0.630   1.201
 3679SOL    HW111936   0.065   0.567   1.193
 3679SOL    HW211937   0.216   0.585   1.251
 3680SOL     OW11938   5.992   4.469   4.708
 3680SOL    HW111939   5.988   4.378   4.749
 3680SOL    HW211940   6.001   4.538   4.781
 3681SOL     OW11941   5.379   6.372   5.023
 3681SOL    HW111942   5.394   6.383   4.925
 3681SOL    HW211943   5.457   6.408   5.073
 3682SOL     OW11944   0.749   2.314   6.373
 3682SOL    HW111945   0.710   2.326   6.281
 3682SOL    HW211946   0.789   2.400   6.403
 3683SOL     OW11947   5.366   6.041   3.568
 3683SOL    HW111948   5.433   6.111   3.544
 3683SOL    HW211949   5.413   5.957   3.595
 3684SOL     OW11950   1.465   3.006   0.590
 3684SOL    HW111951   1.485   3.004   0.493
 3684SOL    HW211952   1.548   2.984   0.642
 3685SOL     OW11953   6.406   6.800   6.255
 3685SOL    HW111954   6.448   6.782   6.344
 3685SOL    HW211955   6.389   6.898   6.245
 3686SOL     OW11956   6.036   4.459   1.307
 3686SOL    HW111957   5.979   4.440   1.227
 3686SOL    HW211958   6.102   4.530   1.285
 3687SOL     OW11959   3.291   1.210   6.984
 3687SOL    HW111960   3.270   1.128   0.009
 3687SOL    HW211961   3.224   1.222   6.911
 3688SOL     OW11962   6.677   3.266   6.988
 3688SOL    HW111963   6.658   3.232   6.896
 3688SOL    HW211964   6.677   3.190   0.026
 3689SOL     OW11965   3.100   0.141   3.649
 3689SOL    HW111966   3.136   0.152   3.742
 3689SOL    HW211967   3.014   0.090   3.653
 3690SOL     OW11968   4.305   6.174   5.117
 3690SOL    HW111969   4.268   6.247   5.059
 3690SOL    HW211970   4.231   6.137   5.174
 3691SOL     OW11971   3.279   2.631   6.715
 3691SOL    HW111972   3.365   2.681   6.712
 3691SOL    HW211973   3.247   2.625   6.810
 3692SOL     OW11974   0.953   0.151   6.273
 3692SOL    HW111975   1.026   0.209   6.235
 3692SOL    HW211976   0.894   0.119   6.199
 3693SOL     OW11977   2.326   1.891   3.467
 3693SOL    HW111978   2.390   1.883   3.391
 3693SOL    HW211979   2.332   1.809   3.524
 3694SOL     OW11980   2.170   5.597   2.585
 3694SOL    HW111981   2.138   5.687   2.558
 3694SOL    HW211982   2.146   5.580   2.680
 3695SOL     OW11983   1.763   2.638   1.124
 3695SOL    HW111984   1.805   2.719   1.165
 3695SOL    HW211985   1.796   2.556   1.172
 3696SOL     OW11986   3.241   5.563   5.874
 3696SOL    HW111987   3.300   5.588   5.798
 3696SOL    HW211988   3.212   5.645   5.923
 3697SOL     OW11989   5.378   0.010   4.182
 3697SOL    HW111990   5.366   6.937   4.181
 3697SOL    HW211991   5.432   0.036   4.262
 3698SOL     OW11992   3.165   0.197   6.293
 3698SOL    HW111993   3.096   0.168   6.226
 3698SOL    HW211994   3.212   0.279   6.260
 3699SOL     OW11995   1.443   4.393   2.385
 3699SOL    HW111996   1.409   4.380   2.478
 3699SOL    HW211997   1.470   4.305   2.346
 3700SOL     OW11998   0.401   0.469   3.694
 3700SOL    HW111999   0.410   0.568   3.702
 3700SOL    HW212000   0.473   0.434   3.634
 3701SOL     OW12001   5.522   0.385   3.476
 3701SOL    HW112002   5.471   0.381   3.390
 3701SOL    HW212003   5.619   0.396   3.457
 3702SOL     OW12004   4.573   0.988   6.534
 3702SOL    HW112005   4.534   0.959   6.622
 3702SOL    HW212006   4.636   1.064   6.549
 3703SOL     OW12007   4.266   4.360   0.223
 3703SOL    HW112008   4.350   4.402   0.188
 3703SOL    HW212009   4.280   4.262   0.235
 3704SOL     OW12010   2.365   0.152   2.139
 3704SOL    HW112011   2.328   0.227   2.083
 3704SOL    HW212012   2.464   0.159   2.143
 3705SOL     OW12013   5.713   1.492   4.533
 3705SOL    HW112014   5.770   1.456   4.459
 3705SOL    HW212015   5.655   1.420   4.569
 3706SOL     OW12016   2.434   2.328   3.501
 3706SOL    HW112017   2.431   2.395   3.576
 3706SOL    HW212018   2.363   2.260   3.515
 3707SOL     OW12019   4.445   2.220   5.151
 3707SOL    HW112020   4.541   2.193   5.163
 3707SOL    HW212021   4.410   2.181   5.066
 3708SOL     OW12022   6.336   0.015   5.960
 3708SOL    HW112023   6.359   0.020   6.058
 3708SOL    HW212024   6.238   7.023   5.950
 3709SOL     OW12025   4.682   0.308   0.351
 3709SOL    HW112026   4.678   0.408   0.350
 3709SOL    HW212027   4.759   0.279   0.409
 3710SOL     OW12028   0.006   4.933   0.190
 3710SOL    HW112029   0.103   4.959   0.184
 3710SOL    HW212030   7.019   4.874   0.269
 3711SOL     OW12031   6.840   5.261   2.608
 3711SOL    HW112032   6.885   5.328   2.548
 3711SOL    HW212033   6.866   5.169   2.581
 3712SOL     OW12034   1.408   0.125   0.319
 3712SOL    HW112035   1.448   0.072   0.244
 3712SOL    HW212036   1.383   0.063   0.394
 3713SOL     OW12037   3.775   5.726   6.213
 3713SOL    HW112038   3.687   5.699   6.253
 3713SOL    HW212039   3.823   5.644   6.181
 3714SOL     OW12040   4.429   1.406   5.312
 3714SOL    HW112041   4.341   1.441   5.280
 3714SOL    HW212042   4.471   1.351   5.239
 3715SOL     OW12043   5.583   3.933   3.958
 3715SOL    HW112044   5.641   3.958   4.035
 3715SOL    HW212045   5.641   3.906   3.880
 3716SOL     OW12046   0.803   1.805   4.524
 3716SOL    HW112047   0.752   1.719   4.523
 3716SOL    HW212048   0.739   1.882   4.524
 3717SOL     OW12049   6.285   0.516   6.981
 3717SOL    HW112050   6.363   0.454   6.973
 3717SOL    HW212051   6.220   0.481   0.021
 3718SOL     OW12052   0.879   5.489   0.343
 3718SOL    HW112053   0.839   5.429   0.413
 3718SOL    HW212054   0.887   5.439   0.257
 3719SOL     OW12055   4.014   5.358   6.719
 3719SOL    HW112056   4.004   5.296   6.641
 3719SOL    HW212057   3.974   5.316   6.800
 3720SOL     OW12058   0.127   1.824   6.014
 3720SOL    HW112059   0.118   1.828   6.114
 3720SOL    HW212060   0.038   1.808   5.973
 3721SOL     OW12061   4.563   3.277   0.454
 3721SOL    HW112062   4.655   3.263   0.419
 3721SOL    HW212063   4.566   3.288   0.553
 3722SOL     OW12064   5.968   5.974   1.379
 3722SOL    HW112065   5.873   5.950   1.360
 3722SOL    HW212066   6.025   5.949   1.301
 3723SOL     OW12067   4.408   1.264   0.538
 3723SOL    HW112068   4.494   1.230   0.500
 3723SOL    HW212069   4.340   1.191   0.538
 3724SOL     OW12070   0.098   4.639   5.498
 3724SOL    HW112071   0.191   4.613   5.526
 3724SOL    HW212072   0.063   4.571   5.434
 3725SOL     OW12073   6.622   0.230   0.630
 3725SOL    HW112074   6.560   0.161   0.666
 3725SOL    HW212075   6.684   0.261   0.702
 3726SOL     OW12076   5.875   3.693   1.674
 3726SOL    HW112077   5.782   3.658   1.661
 3726SOL    HW212078   5.880   3.788   1.644
 3727SOL     OW12079   2.433   2.794   5.260
 3727SOL    HW112080   2.402   2.734   5.185
 3727SOL    HW212081   2.429   2.889   5.230
 3728SOL     OW12082   0.393   3.433   6.555
 3728SOL    HW112083   0.434   3.437   6.464
 3728SOL    HW212084   0.355   3.342   6.571
 3729SOL     OW12085   0.276   2.588   3.117
 3729SOL    HW112086   0.306   2.659   3.181
 3729SOL    HW212087   0.346   2.574   3.048
 3730SOL     OW12088   2.632   0.542   1.126
 3730SOL    HW112089   2.679   0.488   1.056
 3730SOL    HW212090   2.676   0.632   1.133
 3731SOL     OW12091   3.087   6.183   6.221
 3731SOL    HW112092   3.070   6.272   6.178
 3731SOL    HW212093   3.116   6.117   6.152
 3732SOL     OW12094   2.023   3.770   4.793
 3732SOL    HW112095   1.997   3.700   4.859
 3732SOL    HW212096   2.090   3.832   4.834
 3733SOL     OW12097   2.983   3.104   1.158
 3733SOL    HW112098   2.999   3.021   1.211
 3733SOL    HW212099   3.051   3.111   1.085
 3734SOL     OW12100   5.106   6.729   3.423
 3734SOL    HW112101   5.042   6.786   3.473
 3734SOL    HW212102   5.131   6.650   3.478
 3735SOL     OW12103   3.587   1.861   1.816
 3735SOL    HW112104   3.559   1.917   1.738
 3735SOL    HW212105   3.562   1.907   1.901
 3736SOL     OW12106   4.456   1.109   5.973
 3736SOL    HW112107   4.441   1.032   5.911
 3736SOL    HW212108   4.526   1.169   5.934
 3737SOL     OW12109   3.751   6.499   3.483
 3737SOL    HW112110   3.835   6.552   3.493
 3737SOL    HW212111   3.681   6.534   3.545
 3738SOL     OW12112   0.211   0.061   4.082
 3738SOL    HW112113   0.124   0.110   4.095
 3738SOL    HW212114   0.192   6.989   4.078
 3739SOL     OW12115   0.999   3.870   2.001
 3739SOL    HW112116   1.056   3.892   1.922
 3739SOL    HW212117   0.971   3.774   1.997
 3740SOL     OW12118   5.427   0.857   0.059
 3740SOL    HW112119   5.425   0.954   0.081
 3740SOL    HW212120   5.376   0.841   7.001
 3741SOL     OW12121   3.462   2.274   6.793
 3741SOL    HW112122   3.387   2.310   6.849
 3741SOL    HW212123   3.462   2.320   6.705
 3742SOL     OW12124   3.272   3.450   5.507
 3742SOL    HW112125   3.334   3.482   5.436
 3742SOL    HW212126   3.206   3.386   5.468
 3743SOL     OW12127   0.835   5.739   6.078
 3743SOL    HW112128   0.781   5.781   6.151
 3743SOL    HW212129   0.911   5.688   6.118
 3744SOL     OW12130   0.148   5.435   3.237
 3744SOL    HW112131   0.198   5.443   3.323
 3744SOL    HW212132   0.061   5.484   3.243
 3745SOL     OW12133   5.184   5.722   1.640
 3745SOL    HW112134   5.192   5.736   1.739
 3745SOL    HW212135   5.214   5.630   1.617
 3746SOL     OW12136   4.394   1.541   2.210
 3746SOL    HW112137   4.310   1.591   2.190
 3746SOL    HW212138   4.375   1.471   2.280
 3747SOL     OW12139   2.385   0.104   0.729
 3747SOL    HW112140   2.291   0.087   0.701
 3747SOL    HW212141   2.447   0.085   0.653
 3748SOL     OW12142   5.538   0.874   2.232
 3748SOL    HW112143   5.455   0.822   2.254
 3748SOL    HW212144   5.604   0.814   2.187
 3749SOL     OW12145   1.753   0.481   4.574
 3749SOL    HW112146   1.726   0.403   4.631
 3749SOL    HW212147   1.753   0.564   4.630
 3750SOL     OW12148   0.272   4.558   6.849
 3750SOL    HW112149   0.258   4.466   6.812
 3750SOL    HW212150   0.371   4.574   6.859
 3751SOL     OW12151   1.561   3.857   1.510
 3751SOL    HW112152   1.603   3.768   1.491
 3751SOL    HW212153   1.601   3.895   1.593
 3752SOL     OW12154   5.587   6.190   0.288
 3752SOL    HW112155   5.655   6.190   0.361
 3752SOL    HW212156   5.632   6.188   0.199
 3753SOL     OW12157   6.960   0.202   3.236
 3753SOL    HW112158   6.873   0.185   3.189
 3753SOL    HW212159   6.943   0.220   3.333
 3754SOL     OW12160   2.094   1.290   1.620
 3754SOL    HW112161   2.150   1.372   1.612
 3754SOL    HW212162   2.145   1.212   1.585
 3755SOL     OW12163   3.185   5.255   4.205
 3755SOL    HW112164   3.100   5.205   4.188
 3755SOL    HW212165   3.209   5.247   4.302
 3756SOL     OW12166   1.618   6.600   0.368
 3756SOL    HW112167   1.568   6.519   0.399
 3756SOL    HW212168   1.559   6.656   0.310
 3757SOL     OW12169   0.656   4.396   1.220
 3757SOL    HW112170   0.731   4.372   1.159
 3757SOL    HW212171   0.690   4.457   1.292
 3758SOL     OW12172   1.988   0.043   3.825
 3758SOL    HW112173   2.002   0.065   3.728
 3758SOL    HW212174   2.014   6.974   3.841
 3759SOL     OW12175   5.360   0.315   4.099
 3759SOL    HW112176   5.372   0.218   4.116
 3759SOL    HW212177   5.390   0.337   4.006
 3760SOL     OW12178   0.880   1.008   2.831
 3760SOL    HW112179   0.922   1.018   2.741
 3760SOL    HW212180   0.793   1.057   2.832
 3761SOL     OW12181   4.384   2.112   5.446
 3761SOL    HW112182   4.346   2.175   5.378
 3761SOL    HW212183   4.396   2.022   5.405
 3762SOL     OW12184   0.135   3.028   3.978
 3762SOL    HW112185   0.180   3.050   3.891
 3762SOL    HW212186   0.125   2.929   3.986
 3763SOL     OW12187   0.964   4.833   6.748
 3763SOL    HW112188   0.895   4.775   6.705
 3763SOL    HW212189   1.055   4.803   6.720
 3764SOL     OW12190   2.837   0.929   2.972
 3764SOL    HW112191   2.825   0.908   2.875
 3764SOL    HW212192   2.857   1.027   2.983
 3765SOL     OW12193   5.318   2.738   2.966
 3765SOL    HW112194   5.255   2.783   3.030
 3765SOL    HW212195   5.279   2.651   2.936
 3766SOL     OW12196   1.535   3.212   2.031
 3766SOL    HW112197   1.483   3.147   1.976
 3766SOL    HW212198   1.473   3.269   2.085
 3767SOL     OW12199   1.906   5.911   5.923
 3767SOL    HW112200   1.912   5.973   6.001
 3767SOL    HW212201   1.873   5.961   5.843
 3768SOL     OW12202   1.535   6.905   2.824
 3768SOL    HW112203   1.493   6.891   2.734
 3768SOL    HW212204   1.597   6.829   2.843
 3769SOL     OW12205   5.398   5.396   4.399
 3769SOL    HW112206   5.376   5.491   4.424
 3769SOL    HW212207   5.341   5.368   4.322
 3770SOL     OW12208   2.586   0.586   1.863
 3770SOL    HW112209   2.650   0.647   1.817
 3770SOL    HW212210   2.500   0.634   1.880
 3771SOL     OW12211   6.510   5.436   5.655
 3771SOL    HW112212   6.460   5.415   5.571
 3771SOL    HW212213   6.566   5.357   5.680
 3772SOL     OW12214   0.892   5.672   1.866
 3772SOL    HW112215   0.925   5.766   1.857
 3772SOL    HW212216   0.956   5.619   1.921
 3773SOL     OW12217   5.154   5.251   6.881
 3773SOL    HW112218   5.079   5.246   6.816
 3773SOL    HW212219   5.184   5.158   6.904
 3774SOL     OW12220   6.468   4.967   2.167
 3774SOL    HW112221   6.467   5.017   2.080
 3774SOL    HW212222   6.557   4.979   2.211
 3775SOL     OW12223   4.911   5.056   5.378
 3775SOL    HW112224   4.953   5.146   5.363
 3775SOL    HW212225   4.905   5.038   5.476
 3776SOL     OW12226   4.448   2.707   6.351
 3776SOL    HW112227   4.455   2.726   6.449
 3776SOL    HW212228   4.537   2.721   6.308
 3777SOL     OW12229   3.042   4.971   4.462
 3777SOL    HW112230   3.035   4.960   4.363
 3777SOL    HW212231   3.134   4.949   4.492
 3778SOL     OW12232   3.601   5.350   6.738
 3778SOL    HW112233   3.694   5.357   6.775
 3778SOL    HW212234   3.536   5.334   6.812
 3779SOL     OW12235   6.620   4.832   0.017
 3779SOL    HW112236   6.655   4.738   0.020
 3779SOL    HW212237   6.693   4.893   7.014
 3780SOL     OW12238   6.061   3.834   2.156
 3780SOL    HW112239   6.090   3.816   2.063
 3780SOL    HW212240   6.080   3.754   2.213
 3781SOL     OW12241   1.368   6.008   5.317
 3781SOL    HW112242   1.363   6.083   5.252
 3781SOL    HW212243   1.410   5.928   5.274
 3782SOL     OW12244   4.287   4.890   0.747
 3782SOL    HW112245   4.221   4.965   0.741
 3782SOL    HW212246   4.286   4.850   0.838
 3783SOL     OW12247   4.725   5.373   4.691
 3783SOL    HW112248   4.731   5.445   4.622
 3783SOL    HW212249   4.719   5.414   4.782
 3784SOL     OW12250   5.210   2.761   5.493
 3784SOL    HW112251   5.260   2.692   5.441
 3784SOL    HW212252   5.222   2.851   5.450
 3785SOL     OW12253   1.085   2.724   2.787
 3785SOL    HW112254   1.125   2.652   2.844
 3785SOL    HW212255   1.012   2.769   2.838
 3786SOL     OW12256   1.868   3.518   4.630
 3786SOL    HW112257   1.850   3.480   4.721
 3786SOL    HW212258   1.967   3.515   4.612
 3787SOL     OW12259   5.248   6.283   4.088
 3787SOL    HW112260   5.189   6.219   4.138
 3787SOL    HW212261   5.196   6.365   4.064
 3788SOL     OW12262   4.977   3.127   6.246
 3788SOL    HW112263   4.948   3.032   6.241
 3788SOL    HW212264   5.073   3.135   6.217
 3789SOL     OW12265   2.369   2.855   1.086
 3789SOL    HW112266   2.396   2.886   0.995
 3789SOL    HW212267   2.443   2.875   1.151
 3790SOL     OW12268   0.808   6.524   1.760
 3790SOL    HW112269   0.821   6.623   1.759
 3790SOL    HW212270   0.810   6.491   1.854
 3791SOL     OW12271   4.885   0.603   5.151
 3791SOL    HW112272   4.900   0.575   5.246
 3791SOL    HW212273   4.945   0.680   5.129
 3792SOL     OW12274   6.858   0.258   4.353
 3792SOL    HW112275   6.927   0.194   4.387
 3792SOL    HW212276   6.788   0.272   4.423
 3793SOL     OW12277   3.753   4.633   0.571
 3793SOL    HW112278   3.675   4.670   0.521
 3793SOL    HW212279   3.779   4.697   0.643
 3794SOL     OW12280   1.499   5.108   5.976
 3794SOL    HW112281   1.519   5.124   6.072
 3794SOL    HW212282   1.426   5.040   5.967
 3795SOL     OW12283   2.961   5.820   0.840
 3795SOL    HW112284   3.059   5.804   0.845
 3795SOL    HW212285   2.935   5.886   0.911
 3796SOL     OW12286   4.894   0.753   0.152
 3796SOL    HW112287   4.875   0.804   0.068
 3796SOL    HW212288   4.951   0.673   0.129
 3797SOL     OW12289   0.329   3.344   1.553
 3797SOL    HW112290   0.397   3.418   1.559
 3797SOL    HW212291   0.375   3.256   1.558
 3798SOL     OW12292   1.305   5.345   3.869
 3798SOL    HW112293   1.243   5.282   3.917
 3798SOL    HW212294   1.272   5.439   3.882
 3799SOL     OW12295   0.059   1.263   3.401
 3799SOL    HW112296   0.065   1.319   3.319
 3799SOL    HW212297   0.066   1.166   3.375
 3800SOL     OW12298   5.569   2.603   3.105
 3800SOL    HW112299   5.488   2.552   3.134
 3800SOL    HW212300   5.541   2.683   3.051
 3801SOL     OW12301   5.868   1.067   0.880
 3801SOL    HW112302   5.945   1.023   0.926
 3801SOL    HW212303   5.783   1.027   0.915
 3802SOL     OW12304   6.394   3.769   1.501
 3802SOL    HW112305   6.322   3.837   1.516
 3802SOL    HW212306   6.380   3.691   1.562
 3803SOL     OW12307   3.845   4.017   4.710
 3803SOL    HW112308   3.828   3.927   4.668
 3803SOL    HW212309   3.819   4.089   4.645
 3804SOL     OW12310   3.664   6.259   3.353
 3804SOL    HW112311   3.695   6.355   3.349
 3804SOL    HW212312   3.717   6.205   3.287
 3805SOL     OW12313   2.610   2.260   6.934
 3805SOL    HW112314   2.528   2.302   6.972
 3805SOL    HW212315   2.631   2.301   6.845
 3806SOL     OW12316   2.377   5.321   1.785
 3806SOL    HW112317   2.318   5.401   1.789
 3806SOL    HW212318   2.339   5.249   1.844
 3807SOL     OW12319   1.395   4.077   3.792
 3807SOL    HW112320   1.367   4.000   3.848
 3807SOL    HW212321   1.383   4.055   3.696
 3808SOL     OW12322   3.177   6.713   5.530
 3808SOL    HW112323   3.079   6.715   5.546
 3808SOL    HW212324   3.196   6.739   5.435
 3809SOL     OW12325   5.640   1.663   1.914
 3809SOL    HW112326   5.683   1.658   1.824
 3809SOL    HW212327   5.703   1.705   1.978
 3810SOL     OW12328   4.278   2.176   3.171
 3810SOL    HW112329   4.260   2.204   3.265
 3810SOL    HW212330   4.317   2.254   3.120
 3811SOL     OW12331   6.878   5.742   5.226
 3811SOL    HW112332   6.950   5.689   5.271
 3811SOL    HW212333   6.916   5.794   5.150
 3812SOL     OW12334   4.525   5.409   0.254
 3812SOL    HW112335   4.443   5.414   0.197
 3812SOL    HW212336   4.578   5.329   0.227
 3813SOL     OW12337   5.877   4.466   0.131
 3813SOL    HW112338   5.849   4.498   0.041
 3813SOL    HW212339   5.975   4.485   0.145
 3814SOL     OW12340   7.021   0.144   4.717
 3814SOL    HW112341   7.011   0.046   4.737
 3814SOL    HW212342   7.005   0.196   4.800
 3815SOL     OW12343   6.063   3.573   6.575
 3815SOL    HW112344   6.057   3.652   6.637
 3815SOL    HW212345   6.092   3.493   6.627
 3816SOL     OW12346   6.623   6.579   1.389
 3816SOL    HW112347   6.679   6.607   1.466
 3816SOL    HW212348   6.629   6.648   1.317
 3817SOL     OW12349   4.331   3.621   1.551
 3817SOL    HW112350   4.325   3.719   1.571
 3817SOL    HW212351   4.309   3.569   1.634
 3818SOL     OW12352   5.798   5.823   2.342
 3818SOL    HW112353   5.706   5.813   2.381
 3818SOL    HW212354   5.809   5.917   2.309
 3819SOL     OW12355   6.090   3.589   3.504
 3819SOL    HW112356   6.170   3.546   3.546
 3819SOL    HW212357   6.112   3.684   3.480
 3820SOL     OW12358   3.427   6.220   5.318
 3820SOL    HW112359   3.524   6.217   5.294
 3820SOL    HW212360   3.402   6.312   5.348
 3821SOL     OW12361   1.548   0.245   0.696
 3821SOL    HW112362   1.606   0.188   0.638
 3821SOL    HW212363   1.458   0.202   0.706
 3822SOL     OW12364   5.130   6.960   2.244
 3822SOL    HW112365   5.229   6.951   2.248
 3822SOL    HW212366   5.092   6.883   2.193
 3823SOL     OW12367   5.711   6.300   5.867
 3823SOL    HW112368   5.741   6.209   5.895
 3823SOL    HW212369   5.784   6.346   5.816
 3824SOL     OW12370   2.490   2.821   0.625
 3824SOL    HW112371   2.528   2.873   0.548
 3824SOL    HW212372   2.398   2.791   0.602
 3825SOL     OW12373   0.864   4.994   5.945
 3825SOL    HW112374   0.900   5.087   5.945
 3825SOL    HW212375   0.767   4.995   5.922
 3826SOL     OW12376   5.468   3.945   3.638
 3826SOL    HW112377   5.562   3.918   3.657
 3826SOL    HW212378   5.405   3.879   3.679
 3827SOL     OW12379   6.843   2.117   0.302
 3827SOL    HW112380   6.941   2.138   0.296
 3827SOL    HW212381   6.793   2.176   0.240
 3828SOL     OW12382   3.909   3.063   3.572
 3828SOL    HW112383   3.857   3.037   3.491
 3828SOL    HW212384   3.845   3.083   3.647
 3829SOL     OW12385   0.542   3.831   2.089
 3829SOL    HW112386   0.531   3.930   2.082
 3829SOL    HW212387   0.622   3.810   2.144
 3830SOL     OW12388   6.075   0.381   3.579
 3830SOL    HW112389   6.082   0.479   3.560
 3830SOL    HW212390   6.028   0.367   3.666
 3831SOL     OW12391   4.410   2.419   3.589
 3831SOL    HW112392   4.487   2.417   3.526
 3831SOL    HW212393   4.437   2.465   3.674
 3832SOL     OW12394   6.892   0.902   3.182
 3832SOL    HW112395   6.831   0.846   3.239
 3832SOL    HW212396   6.949   0.842   3.125
 3833SOL     OW12397   1.181   2.753   5.392
 3833SOL    HW112398   1.191   2.793   5.301
 3833SOL    HW212399   1.134   2.817   5.452
 3834SOL     OW12400   4.967   4.218   0.670
 3834SOL    HW112401   4.903   4.276   0.621
 3834SOL    HW212402   4.981   4.132   0.620
 3835SOL     OW12403   4.412   5.834   5.057
 3835SOL    HW112404   4.421   5.933   5.064
 3835SOL    HW212405   4.476   5.800   4.988
 3836SOL     OW12406   6.746   5.964   5.279
 3836SOL    HW112407   6.785   6.001   5.364
 3836SOL    HW212408   6.793   5.879   5.255
 3837SOL     OW12409   4.235   4.598   5.893
 3837SOL    HW112410   4.216   4.562   5.984
 3837SOL    HW212411   4.225   4.525   5.826
 3838SOL     OW12412   0.178   0.433   4.225
 3838SOL    HW112413   0.130   0.367   4.168
 3838SOL    HW212414   0.115   0.469   4.295
 3839SOL     OW12415   5.127   0.357   3.908
 3839SOL    HW112416   5.058   0.346   3.980
 3839SOL    HW212417   5.218   0.357   3.950
 3840SOL     OW12418   3.158   0.768   6.476
 3840SOL    HW112419   3.118   0.835   6.539
 3840SOL    HW212420   3.108   0.681   6.485
 3841SOL     OW12421   5.930   4.399   4.135
 3841SOL    HW112422   5.890   4.312   4.104
 3841SOL    HW212423   5.857   4.465   4.150
 3842SOL     OW12424   1.767   4.163   5.505
 3842SOL    HW112425   1.839   4.154   5.575
 3842SOL    HW212426   1.678   4.148   5.548
 3843SOL     OW12427   4.937   1.929   6.737
 3843SOL    HW112428   4.920   1.866   6.661
 3843SOL    HW212429   4.884   2.013   6.723
 3844SOL     OW12430   0.311   0.144   1.162
 3844SOL    HW112431   0.270   0.057   1.188
 3844SOL    HW212432   0.249   0.192   1.099
 3845SOL     OW12433   2.036   5.175   0.606
 3845SOL    HW112434   2.131   5.144   0.612
 3845SOL    HW212435   1.994   5.139   0.522
 3846SOL     OW12436   0.453   2.983   3.073
 3846SOL    HW112437   0.441   2.993   2.975
 3846SOL    HW212438   0.549   2.994   3.097
 3847SOL     OW12439   7.011   2.137   6.878
 3847SOL    HW112440   7.006   2.227   6.834
 3847SOL    HW212441   6.919   2.110   6.908
 3848SOL     OW12442   5.569   4.345   2.156
 3848SOL    HW112443   5.596   4.261   2.110
 3848SOL    HW212444   5.649   4.389   2.197
 3849SOL     OW12445   6.525   5.189   6.303
 3849SOL    HW112446   6.463   5.224   6.232
 3849SOL    HW212447   6.616   5.175   6.263
 3850SOL     OW12448   2.806   2.262   1.496
 3850SOL    HW112449   2.784   2.313   1.413
 3850SOL    HW212450   2.898   2.222   1.486
 3851SOL     OW12451   0.251   6.328   2.420
 3851SOL    HW112452   0.270   6.259   2.491
 3851SOL    HW212453   0.207   6.285   2.342
 3852SOL     OW12454   1.779   0.021   5.191
 3852SOL    HW112455   1.696   0.016   5.247
 3852SOL    HW212456   1.833   0.101   5.217
 3853SOL     OW12457   2.874   0.022   2.967
 3853SOL    HW112458   2.948   6.995   3.007
 3853SOL    HW212459   2.820   0.064   3.040
 3854SOL     OW12460   0.522   2.557   1.939
 3854SOL    HW112461   0.586   2.536   2.013
 3854SOL    HW212462   0.449   2.488   1.938
 3855SOL     OW12463   3.714   6.802   0.523
 3855SOL    HW112464   3.689   6.709   0.550
 3855SOL    HW212465   3.742   6.854   0.603
 3856SOL     OW12466   0.410   2.666   6.493
 3856SOL    HW112467   0.328   2.712   6.459
 3856SOL    HW212468   0.430   2.588   6.435
 3857SOL     OW12469   2.396   0.365   6.174
 3857SOL    HW112470   2.421   0.360   6.271
 3857SOL    HW212471   2.297   0.368   6.165
 3858SOL     OW12472   4.947   0.289   4.112
 3858SOL    HW112473   4.983   0.196   4.124
 3858SOL    HW212474   4.970   0.343   4.193
 3859SOL     OW12475   6.255   0.036   1.723
 3859SOL    HW112476   6.265   6.974   1.768
 3859SOL    HW212477   6.232   0.105   1.791
 3860SOL     OW12478   1.339   6.868   3.976
 3860SOL    HW112479   1.331   6.833   3.883
 3860SOL    HW212480   1.434   6.888   3.996
 3861SOL     OW12481   2.867   5.378   1.668
 3861SOL    HW112482   2.819   5.466   1.678
 3861SOL    HW212483   2.947   5.378   1.727
 3862SOL     OW12484   1.837   0.589   4.021
 3862SOL    HW112485   1.852   0.525   4.096
 3862SOL    HW212486   1.746   0.630   4.030
 3863SOL     OW12487   3.332   0.003   0.541
 3863SOL    HW112488   3.254   0.030   0.486
 3863SOL    HW212489   3.412   7.018   0.482
 3864SOL     OW12490   2.006   0.460   4.975
 3864SOL    HW112491   1.950   0.518   4.915
 3864SOL    HW212492   2.102   0.469   4.950
 3865SOL     OW12493   4.145   1.388   0.679
 3865SOL    HW112494   4.221   1.452   0.672
 3865SOL    HW212495   4.108   1.369   0.588
 3866SOL     OW12496   2.552   1.881   6.513
 3866SOL    HW112497   2.646   1.886   6.548
 3866SOL    HW212498   2.526   1.786   6.500
 3867SOL     OW12499   0.895   2.750   1.976
 3867SOL    HW112500   0.901   2.653   1.999
 3867SOL    HW212501   0.804   2.784   1.997
 3868SOL     OW12502   4.740   0.969   0.016
 3868SOL    HW112503   4.682   0.888   0.009
 3868SOL    HW212504   4.716   1.033   6.969
 3869SOL     OW12505   5.013   1.879   4.002
 3869SOL    HW112506   4.931   1.926   4.034
 3869SOL    HW212507   5.094   1.934   4.026
 3870SOL     OW12508   0.123   0.792   4.942
 3870SOL    HW112509   0.074   0.723   4.995
 3870SOL    HW212510   0.060   0.863   4.911
 3871SOL     OW12511   2.877   5.570   4.626
 3871SOL    HW112512   2.842   5.656   4.664
 3871SOL    HW212513   2.800   5.511   4.601
 3872SOL     OW12514   2.933   3.574   5.643
 3872SOL    HW112515   2.880   3.636   5.702
 3872SOL    HW212516   2.943   3.615   5.552
 3873SOL     OW12517   4.281   1.645   0.613
 3873SOL    HW112518   4.284   1.669   0.516
 3873SOL    HW212519   4.329   1.714   0.667
 3874SOL     OW12520   2.748   1.212   0.231
 3874SOL    HW112521   2.743   1.117   0.200
 3874SOL    HW212522   2.691   1.224   0.313
 3875SOL     OW12523   1.143   2.082   6.258
 3875SOL    HW112524   1.138   2.052   6.353
 3875SOL    HW212525   1.224   2.041   6.214
 3876SOL     OW12526   3.761   5.201   2.103
 3876SOL    HW112527   3.700   5.122   2.112
 3876SOL    HW212528   3.707   5.284   2.096
 3877SOL     OW12529   6.950   1.535   6.685
 3877SOL    HW112530   6.855   1.552   6.709
 3877SOL    HW212531   6.988   1.465   6.746
 3878SOL     OW12532   5.243   0.548   4.588
 3878SOL    HW112533   5.229   0.461   4.540
 3878SOL    HW212534   5.299   0.532   4.669
 3879SOL     OW12535   6.119   6.039   0.618
 3879SOL    HW112536   6.030   6.034   0.573
 3879SOL    HW212537   6.108   6.027   0.716
 3880SOL     OW12538   4.415   4.913   4.138
 3880SOL    HW112539   4.323   4.890   4.169
 3880SOL    HW212540   4.417   5.008   4.108
 3881SOL     OW12541   0.664   3.497   0.229
 3881SOL    HW112542   0.669   3.520   0.132
 3881SOL    HW212543   0.658   3.397   0.239
 3882SOL     OW12544   0.663   1.812   6.605
 3882SOL    HW112545   0.593   1.876   6.573
 3882SOL    HW212546   0.751   1.858   6.611
 3883SOL     OW12547   4.863   5.617   3.352
 3883SOL    HW112548   4.787   5.591   3.411
 3883SOL    HW212549   4.890   5.539   3.296
 3884SOL     OW12550   0.404   4.499   1.903
 3884SOL    HW112551   0.500   4.479   1.884
 3884SOL    HW212552   0.377   4.457   1.990
 3885SOL     OW12553   5.309   5.432   2.812
 3885SOL    HW112554   5.367   5.513   2.823
 3885SOL    HW212555   5.235   5.436   2.879
 3886SOL     OW12556   3.225   6.496   5.777
 3886SOL    HW112557   3.257   6.421   5.720
 3886SOL    HW212558   3.217   6.579   5.722
 3887SOL     OW12559   1.202   6.561   2.284
 3887SOL    HW112560   1.199   6.473   2.330
 3887SOL    HW212561   1.206   6.634   2.353
 3888SOL     OW12562   6.145   5.175   4.190
 3888SOL    HW112563   6.056   5.216   4.171
 3888SOL    HW212564   6.211   5.247   4.212
 3889SOL     OW12565   4.852   3.876   0.349
 3889SOL    HW112566   4.875   3.969   0.319
 3889SOL    HW212567   4.852   3.815   0.271
 3890SOL     OW12568   5.301   3.011   4.385
 3890SOL    HW112569   5.364   2.952   4.436
 3890SOL    HW212570   5.280   3.092   4.439
 3891SOL     OW12571   5.824   5.783   2.938
 3891SOL    HW112572   5.783   5.697   2.967
 3891SOL    HW212573   5.808   5.796   2.840
 3892SOL     OW12574   7.019   1.941   1.303
 3892SOL    HW112575   0.036   1.949   1.213
 3892SOL    HW212576   6.994   2.032   1.336
 3893SOL     OW12577   3.717   3.708   2.844
 3893SOL    HW112578   3.789   3.641   2.822
 3893SOL    HW212579   3.757   3.784   2.896
 3894SOL     OW12580   4.523   0.681   5.658
 3894SOL    HW112581   4.468   0.672   5.575
 3894SOL    HW212582   4.615   0.711   5.634
 3895SOL     OW12583   1.297   0.713   4.082
 3895SOL    HW112584   1.201   0.724   4.109
 3895SOL    HW212585   1.331   0.799   4.044
 3896SOL     OW12586   0.915   0.833   6.839
 3896SOL    HW112587   0.983   0.840   6.912
 3896SOL    HW212588   0.849   0.761   6.863
 3897SOL     OW12589   4.352   6.318   1.525
 3897SOL    HW112590   4.392   6.409   1.539
 3897SOL    HW212591   4.377   6.258   1.601
 3898SOL     OW12592   3.932   2.924   0.596
 3898SOL    HW112593   3.863   2.875   0.649
 3898SOL    HW212594   4.013   2.940   0.652
 3899SOL     OW12595   3.262   6.759   5.981
 3899SOL    HW112596   3.304   6.830   6.038
 3899SOL    HW212597   3.228   6.800   5.896
 3900SOL     OW12598   5.175   3.742   3.257
 3900SOL    HW112599   5.258   3.733   3.202
 3900SOL    HW212600   5.166   3.836   3.289
 3901SOL     OW12601   2.523   0.214   6.993
 3901SOL    HW112602   2.572   0.173   6.916
 3901SOL    HW212603   2.565   0.302   7.016
 3902SOL     OW12604   6.164   3.191   2.940
 3902SOL    HW112605   6.245   3.244   2.916
 3902SOL    HW212606   6.146   3.123   2.868
 3903SOL     OW12607   3.253   4.567   6.807
 3903SOL    HW112608   3.301   4.607   6.885
 3903SOL    HW212609   3.194   4.637   6.765
 3904SOL     OW12610   1.211   0.751   0.318
 3904SOL    HW112611   1.163   0.670   0.351
 3904SOL    HW212612   1.309   0.731   0.310
 3905SOL     OW12613   6.594   5.754   5.090
 3905SOL    HW112614   6.623   5.682   5.154
 3905SOL    HW212615   6.668   5.773   5.026
 3906SOL     OW12616   6.849   6.337   5.303
 3906SOL    HW112617   6.928   6.391   5.331
 3906SOL    HW212618   6.775   6.398   5.274
 3907SOL     OW12619   6.668   1.711   4.054
 3907SOL    HW112620   6.654   1.802   4.092
 3907SOL    HW212621   6.708   1.652   4.125
 3908SOL     OW12622   2.284   3.063   6.060
 3908SOL    HW112623   2.324   3.052   6.151
 3908SOL    HW212624   2.196   3.016   6.057
 3909SOL     OW12625   5.959   5.309   4.027
 3909SOL    HW112626   5.927   5.385   3.970
 3909SOL    HW212627   5.904   5.228   4.008
 3910SOL     OW12628   4.180   3.466   2.921
 3910SOL    HW112629   4.260   3.418   2.957
 3910SOL    HW212630   4.132   3.510   2.997
 3911SOL     OW12631   6.273   2.088   5.844
 3911SOL    HW112632   6.257   2.168   5.787
 3911SOL    HW212633   6.239   2.006   5.797
 3912SOL     OW12634   5.442   2.894   6.585
 3912SOL    HW112635   5.479   2.824   6.646
 3912SOL    HW212636   5.356   2.929   6.623
 3913SOL     OW12637   0.845   6.576   0.999
 3913SOL    HW112638   0.905   6.610   1.071
 3913SOL    HW212639   0.778   6.513   1.039
 3914SOL     OW12640   2.937   5.527   5.826
 3914SOL    HW112641   3.036   5.518   5.832
 3914SOL    HW212642   2.894   5.449   5.872
 3915SOL     OW12643   6.317   6.027   1.345
 3915SOL    HW112644   6.360   6.089   1.280
 3915SOL    HW212645   6.237   6.071   1.385
 3916SOL     OW12646   0.902   0.429   3.065
 3916SOL    HW112647   0.982   0.371   3.079
 3916SOL    HW212648   0.901   0.462   2.970
 3917SOL     OW12649   1.914   0.380   6.659
 3917SOL    HW112650   1.889   0.461   6.607
 3917SOL    HW212651   2.004   0.394   6.701
 3918SOL     OW12652   5.802   3.599   0.864
 3918SOL    HW112653   5.848   3.686   0.843
 3918SOL    HW212654   5.785   3.550   0.778
 3919SOL     OW12655   3.228   6.211   0.373
 3919SOL    HW112656   3.174   6.293   0.389
 3919SOL    HW212657   3.303   6.207   0.440
 3920SOL     OW12658   1.927   1.550   6.754
 3920SOL    HW112659   1.884   1.640   6.745
 3920SOL    HW212660   1.892   1.504   6.835
 3921SOL     OW12661   1.361   3.996   2.021
 3921SOL    HW112662   1.345   3.934   2.098
 3921SOL    HW212663   1.280   3.996   1.961
 3922SOL     OW12664   1.131   4.393   1.233
 3922SOL    HW112665   1.138   4.320   1.301
 3922SOL    HW212666   1.133   4.482   1.280
 3923SOL     OW12667   6.815   0.051   0.305
 3923SOL    HW112668   6.884   0.003   0.252
 3923SOL    HW212669   6.844   0.146   0.319
 3924SOL     OW12670   6.700   4.694   4.771
 3924SOL    HW112671   6.652   4.614   4.736
 3924SOL    HW212672   6.794   4.696   4.734
 3925SOL     OW12673   1.356   5.252   2.242
 3925SOL    HW112674   1.293   5.221   2.314
 3925SOL    HW212675   1.316   5.234   2.153
 3926SOL     OW12676   4.200   4.762   2.088
 3926SOL    HW112677   4.106   4.756   2.054
 3926SOL    HW212678   4.235   4.854   2.072
 3927SOL     OW12679   0.539   3.469   6.060
 3927SOL    HW112680   0.527   3.407   5.983
 3927SOL    HW212681   0.533   3.563   6.028
 3928SOL     OW12682   5.452   5.757   6.387
 3928SOL    HW112683   5.448   5.703   6.303
 3928SOL    HW212684   5.359   5.776   6.419
 3929SOL     OW12685   1.233   1.920   4.788
 3929SOL    HW112686   1.327   1.904   4.759
 3929SOL    HW212687   1.229   1.919   4.888
 3930SOL     OW12688   2.223   1.677   3.747
 3930SOL    HW112689   2.212   1.578   3.759
 3930SOL    HW212690   2.134   1.718   3.730
 3931SOL     OW12691   5.745   1.332   1.800
 3931SOL    HW112692   5.689   1.415   1.799
 3931SOL    HW212693   5.707   1.265   1.737
 3932SOL     OW12694   1.739   2.164   4.019
 3932SOL    HW112695   1.644   2.133   4.018
 3932SOL    HW212696   1.747   2.249   4.071
 3933SOL     OW12697   0.879   6.724   5.211
 3933SOL    HW112698   0.834   6.810   5.234
 3933SOL    HW212699   0.816   6.648   5.229
 3934SOL     OW12700   5.600   0.241   6.601
 3934SOL    HW112701   5.662   0.167   6.576
 3934SOL    HW212702   5.639   0.328   6.571
 3935SOL     OW12703   4.790   0.669   0.636
 3935SOL    HW112704   4.736   0.752   0.649
 3935SOL    HW212705   4.737   0.601   0.585
 3936SOL     OW12706   0.405   5.063   3.181
 3936SOL    HW112707   0.403   4.964   3.167
 3936SOL    HW212708   0.317   5.102   3.156
 3937SOL     OW12709   0.322   1.309   2.578
 3937SOL    HW112710   0.319   1.409   2.574
 3937SOL    HW212711   0.392   1.275   2.515
 3938SOL     OW12712   0.016   2.444   1.905
 3938SOL    HW112713   6.996   2.369   1.857
 3938SOL    HW212714   6.983   2.480   1.977
 3939SOL     OW12715   2.852   1.630   1.811
 3939SOL    HW112716   2.903   1.686   1.746
 3939SOL    HW212717   2.754   1.638   1.793
 3940SOL     OW12718   4.218   3.033   1.320
 3940SOL    HW112719   4.247   3.097   1.248
 3940SOL    HW212720   4.186   2.948   1.279
 3941SOL     OW12721   4.357   4.169   6.402
 3941SOL    HW112722   4.341   4.261   6.366
 3941SOL    HW212723   4.319   4.163   6.494
 3942SOL     OW12724   6.526   6.375   6.297
 3942SOL    HW112725   6.434   6.365   6.336
 3942SOL    HW212726   6.546   6.296   6.239
 3943SOL     OW12727   0.348   3.371   4.096
 3943SOL    HW112728   0.346   3.342   4.000
 3943SOL    HW212729   0.267   3.337   4.143
 3944SOL     OW12730   5.022   2.351   4.903
 3944SOL    HW112731   5.066   2.269   4.867
 3944SOL    HW212732   4.967   2.393   4.831
 3945SOL     OW12733   0.014   0.581   0.560
 3945SOL    HW112734   6.949   0.587   0.598
 3945SOL    HW212735   0.025   0.649   0.488
 3946SOL     OW12736   4.476   4.807   3.347
 3946SOL    HW112737   4.482   4.766   3.256
 3946SOL    HW212738   4.381   4.828   3.368
 3947SOL     OW12739   6.084   5.424   6.949
 3947SOL    HW112740   6.061   5.352   6.884
 3947SOL    HW212741   6.182   5.424   6.967
 3948SOL     OW12742   6.415   4.446   1.026
 3948SOL    HW112743   6.379   4.538   1.009
 3948SOL    HW212744   6.348   4.378   0.995
 3949SOL     OW12745   5.399   6.221   3.159
 3949SOL    HW112746   5.309   6.245   3.198
 3949SOL    HW212747   5.427   6.291   3.095
 3950SOL     OW12748   1.362   6.140   0.359
 3950SOL    HW112749   1.363   6.125   0.458
 3950SOL    HW212750   1.394   6.057   0.313
 3951SOL     OW12751   5.631   0.059   2.110
 3951SOL    HW112752   5.728   0.044   2.131
 3951SOL    HW212753   5.622   0.084   2.014
 3952SOL     OW12754   6.103   2.157   0.207
 3952SOL    HW112755   6.196   2.153   0.168
 3952SOL    HW212756   6.108   2.187   0.302
 3953SOL     OW12757   3.493   4.137   2.969
 3953SOL    HW112758   3.406   4.112   2.928
 3953SOL    HW212759   3.477   4.180   3.058
 3954SOL     OW12760   3.872   4.793   5.619
 3954SOL    HW112761   3.867   4.717   5.684
 3954SOL    HW212762   3.915   4.872   5.664
 3955SOL     OW12763   4.378   1.110   4.674
 3955SOL    HW112764   4.328   1.034   4.716
 3955SOL    HW212765   4.406   1.175   4.744
 3956SOL     OW12766   1.702   1.104   1.267
 3956SOL    HW112767   1.646   1.169   1.217
 3956SOL    HW212768   1.689   1.118   1.365
 3957SOL     OW12769   3.622   0.961   4.487
 3957SOL    HW112770   3.698   0.906   4.522
 3957SOL    HW212771   3.553   0.970   4.557
 3958SOL     OW12772   5.616   0.636   5.470
 3958SOL    HW112773   5.608   0.735   5.475
 3958SOL    HW212774   5.628   0.608   5.374
 3959SOL     OW12775   4.567   5.354   0.694
 3959SOL    HW112776   4.529   5.262   0.684
 3959SOL    HW212777   4.584   5.373   0.791
 3960SOL     OW12778   5.337   2.379   4.412
 3960SOL    HW112779   5.402   2.311   4.376
 3960SOL    HW212780   5.386   2.465   4.429
 3961SOL     OW12781   5.731   6.103   3.676
 3961SOL    HW112782   5.818   6.070   3.638
 3961SOL    HW212783   5.660   6.096   3.606
 3962SOL     OW12784   0.018   5.545   5.297
 3962SOL    HW112785   0.004   5.455   5.256
 3962SOL    HW212786   0.099   5.588   5.257
 3963SOL     OW12787   4.545   6.727   2.008
 3963SOL    HW112788   4.509   6.790   1.940
 3963SOL    HW212789   4.473   6.701   2.072
 3964SOL     OW12790   5.565   3.414   3.283
 3964SOL    HW112791   5.507   3.338   3.311
 3964SOL    HW212792   5.576   3.477   3.360
 3965SOL     OW12793   4.798   3.978   4.656
 3965SOL    HW112794   4.806   3.904   4.723
 3965SOL    HW212795   4.767   4.061   4.702
 3966SOL     OW12796   2.602   5.945   6.369
 3966SOL    HW112797   2.635   5.867   6.316
 3966SOL    HW212798   2.675   6.013   6.377
 3967SOL     OW12799   2.077   4.712   2.899
 3967SOL    HW112800   2.152   4.755   2.848
 3967SOL    HW212801   1.991   4.726   2.850
 3968SOL     OW12802   3.996   6.715   0.611
 3968SOL    HW112803   3.980   6.686   0.516
 3968SOL    HW212804   3.908   6.730   0.656
 3969SOL     OW12805   0.801   5.022   2.614
 3969SOL    HW112806   0.787   5.120   2.631
 3969SOL    HW212807   0.868   4.986   2.680
 3970SOL     OW12808   5.407   5.992   2.615
 3970SOL    HW112809   5.341   6.008   2.542
 3970SOL    HW212810   5.406   6.069   2.678
 3971SOL     OW12811   2.473   5.707   4.087
 3971SOL    HW112812   2.496   5.804   4.100
 3971SOL    HW212813   2.393   5.700   4.027
 3972SOL     OW12814   2.014   3.649   0.185
 3972SOL    HW112815   2.021   3.622   0.089
 3972SOL    HW212816   1.967   3.577   0.236
 3973SOL     OW12817   1.300   5.479   0.388
 3973SOL    HW112818   1.273   5.502   0.481
 3973SOL    HW212819   1.292   5.560   0.330
 3974SOL     OW12820   2.056   0.809   5.082
 3974SOL    HW112821   2.003   0.819   4.998
 3974SOL    HW212822   2.141   0.862   5.075
 3975SOL     OW12823   5.660   2.376   6.225
 3975SOL    HW112824   5.743   2.321   6.215
 3975SOL    HW212825   5.644   2.429   6.142
 3976SOL     OW12826   2.105   5.508   2.309
 3976SOL    HW112827   2.138   5.525   2.402
 3976SOL    HW212828   2.119   5.411   2.286
 3977SOL     OW12829   0.878   3.575   6.320
 3977SOL    HW112830   0.960   3.632   6.315
 3977SOL    HW212831   0.798   3.630   6.297
 3978SOL     OW12832   6.427   4.811   3.700
 3978SOL    HW112833   6.352   4.748   3.680
 3978SOL    HW212834   6.514   4.765   3.684
 3979SOL     OW12835   3.995   0.031   6.325
 3979SOL    HW112836   3.917   7.022   6.377
 3979SOL    HW212837   3.962   0.095   6.256
 3980SOL     OW12838   5.969   6.414   5.347
 3980SOL    HW112839   5.944   6.322   5.378
 3980SOL    HW212840   5.992   6.471   5.425
 3981SOL     OW12841   4.703   6.912   0.465
 3981SOL    HW112842   4.612   6.954   0.466
 3981SOL    HW212843   4.695   6.819   0.429
 3982SOL     OW12844   3.404   5.912   2.506
 3982SOL    HW112845   3.404   5.821   2.548
 3982SOL    HW212846   3.480   5.966   2.544
 3983SOL     OW12847   3.612   5.607   3.785
 3983SOL    HW112848   3.607   5.707   3.782
 3983SOL    HW212849   3.616   5.577   3.880
 3984SOL     OW12850   6.862   2.952   2.852
 3984SOL    HW112851   6.768   2.979   2.834
 3984SOL    HW212852   6.865   2.855   2.875
 3985SOL     OW12853   4.304   5.487   6.795
 3985SOL    HW112854   4.388   5.440   6.767
 3985SOL    HW212855   4.226   5.426   6.780
 3986SOL     OW12856   4.939   0.752   1.934
 3986SOL    HW112857   5.001   0.770   1.858
 3986SOL    HW212858   4.972   0.673   1.986
 3987SOL     OW12859   3.213   5.115   4.927
 3987SOL    HW112860   3.209   5.088   5.024
 3987SOL    HW212861   3.225   5.033   4.871
 3988SOL     OW12862   4.161   5.430   0.526
 3988SOL    HW112863   4.102   5.421   0.445
 3988SOL    HW212864   4.173   5.526   0.549
 3989SOL     OW12865   5.770   1.984   0.310
 3989SOL    HW112866   5.808   1.978   0.403
 3989SOL    HW212867   5.802   2.068   0.266
 3990SOL     OW12868   6.130   2.313   2.273
 3990SOL    HW112869   6.103   2.365   2.192
 3990SOL    HW212870   6.197   2.366   2.325
 3991SOL     OW12871   0.001   0.702   3.059
 3991SOL    HW112872   0.055   0.620   3.077
 3991SOL    HW212873   6.951   0.680   2.999
 3992SOL     OW12874   3.156   1.806   1.113
 3992SOL    HW112875   3.219   1.773   1.043
 3992SOL    HW212876   3.072   1.838   1.069
 3993SOL     OW12877   1.391   2.783   1.225
 3993SOL    HW112878   1.406   2.859   1.162
 3993SOL    HW212879   1.442   2.798   1.309
 3994SOL     OW12880   2.702   6.130   4.805
 3994SOL    HW112881   2.622   6.132   4.745
 3994SOL    HW212882   2.784   6.150   4.751
 3995SOL     OW12883   1.635   2.677   4.988
 3995SOL    HW112884   1.720   2.644   4.946
 3995SOL    HW212885   1.611   2.617   5.064
 3996SOL     OW12886   6.963   6.249   4.912
 3996SOL    HW112887   6.896   6.288   4.849
 3996SOL    HW212888   6.998   6.321   4.973
 3997SOL     OW12889   5.276   0.252   4.473
 3997SOL    HW112890   5.241   0.171   4.520
 3997SOL    HW212891   5.354   0.226   4.416
 3998SOL     OW12892   4.127   2.276   3.774
 3998SOL    HW112893   4.053   2.316   3.721
 3998SOL    HW212894   4.214   2.291   3.727
 3999SOL     OW12895   5.362   2.338   4.706
 3999SOL    HW112896   5.326   2.267   4.646
 3999SOL    HW212897   5.290   2.403   4.728
 4000SOL     OW12898   4.085   0.015   3.570
 4000SOL    HW112899   4.036   6.991   3.499
 4000SOL    HW212900   4.116   0.103   3.532
 4001SOL     OW12901   1.179   2.252   3.472
 4001SOL    HW112902   1.212   2.315   3.541
 4001SOL    HW212903   1.114   2.299   3.412
 4002SOL     OW12904   2.028   3.776   2.048
 4002SOL    HW112905   2.007   3.807   1.955
 4002SOL    HW212906   2.048   3.678   2.047
 4003SOL     OW12907   3.549   1.542   4.738
 4003SOL    HW112908   3.461   1.571   4.701
 4003SOL    HW212909   3.622   1.602   4.702
 4004SOL     OW12910   0.092   1.902   5.678
 4004SOL    HW112911   0.132   1.812   5.697
 4004SOL    HW212912   7.026   1.891   5.642
 4005SOL     OW12913   5.905   5.457   5.706
 4005SOL    HW112914   5.885   5.476   5.803
 4005SOL    HW212915   5.819   5.456   5.655
 4006SOL     OW12916   3.478   6.463   2.514
 4006SOL    HW112917   3.510   6.495   2.603
 4006SOL    HW212918   3.549   6.406   2.472
 4007SOL     OW12919   6.678   1.883   6.576
 4007SOL    HW112920   6.770   1.922   6.587
 4007SOL    HW212921   6.644   1.903   6.484
 4008SOL     OW12922   2.732   2.441   5.126
 4008SOL    HW112923   2.639   2.429   5.159
 4008SOL    HW212924   2.776   2.516   5.176
 4009SOL     OW12925   3.649   2.930   2.767
 4009SOL    HW112926   3.559   2.913   2.808
 4009SOL    HW212927   3.642   2.920   2.668
 4010SOL     OW12928   2.397   2.940   6.336
 4010SOL    HW112929   2.347   2.975   6.416
 4010SOL    HW212930   2.379   2.842   6.327
 4011SOL     OW12931   0.676   2.671   1.009
 4011SOL    HW112932   0.719   2.750   1.053
 4011SOL    HW212933   0.709   2.663   0.915
 4012SOL     OW12934   6.344   2.933   3.788
 4012SOL    HW112935   6.367   2.871   3.713
 4012SOL    HW212936   6.346   3.027   3.755
 4013SOL     OW12937   4.222   2.297   3.405
 4013SOL    HW112938   4.257   2.386   3.436
 4013SOL    HW212939   4.128   2.307   3.375
 4014SOL     OW12940   5.608   5.876   1.956
 4014SOL    HW112941   5.533   5.855   2.018
 4014SOL    HW212942   5.685   5.814   1.972
 4015SOL     OW12943   4.597   3.277   0.028
 4015SOL    HW112944   4.654   3.230   0.096
 4015SOL    HW212945   4.655   3.320   6.986
 4016SOL     OW12946   3.242   6.387   4.876
 4016SOL    HW112947   3.295   6.307   4.849
 4016SOL    HW212948   3.275   6.468   4.827
 4017SOL     OW12949   6.528   6.435   6.765
 4017SOL    HW112950   6.464   6.460   6.838
 4017SOL    HW212951   6.604   6.384   6.804
 4018SOL     OW12952   2.662   6.419   0.329
 4018SOL    HW112953   2.625   6.387   0.242
 4018SOL    HW212954   2.589   6.460   0.384
 4019SOL     OW12955   4.938   5.344   3.335
 4019SOL    HW112956   4.985   5.348   3.423
 4019SOL    HW212957   4.954   5.254   3.293
 4020SOL     OW12958   5.152   2.427   5.130
 4020SOL    HW112959   5.132   2.427   5.032
 4020SOL    HW212960   5.070   2.453   5.181
 4021SOL     OW12961   4.087   4.905   7.003
 4021SOL    HW112962   4.136   4.983   6.964
 4021SOL    HW212963   4.088   4.911   0.076
 4022SOL     OW12964   5.386   0.835   0.898
 4022SOL    HW112965   5.332   0.861   0.818
 4022SOL    HW212966   5.355   0.746   0.932
 4023SOL     OW12967   6.891   0.341   5.701
 4023SOL    HW112968   6.968   0.307   5.756
 4023SOL    HW212969   6.883   0.286   5.618
 4024SOL     OW12970   4.169   4.724   4.561
 4024SOL    HW112971   4.181   4.773   4.647
 4024SOL    HW212972   4.148   4.628   4.580
 4025SOL     OW12973   1.550   4.245   2.802
 4025SOL    HW112974   1.512   4.207   2.886
 4025SOL    HW212975   1.600   4.329   2.823
 4026SOL     OW12976   4.914   0.159   4.950
 4026SOL    HW112977   4.838   0.094   4.954
 4026SOL    HW212978   4.879   0.252   4.964
 4027SOL     OW12979   4.220   5.022   1.804
 4027SOL    HW112980   4.136   5.047   1.853
 4027SOL    HW212981   4.276   5.104   1.792
 4028SOL     OW12982   2.485   6.474   3.497
 4028SOL    HW112983   2.454   6.543   3.431
 4028SOL    HW212984   2.417   6.464   3.569
 4029SOL     OW12985   1.851   3.727   3.767
 4029SOL    HW112986   1.772   3.784   3.787
 4029SOL    HW212987   1.830   3.631   3.787
 4030SOL     OW12988   1.329   1.669   6.185
 4030SOL    HW112989   1.339   1.767   6.167
 4030SOL    HW212990   1.235   1.641   6.166
 4031SOL     OW12991   5.412   5.735   3.930
 4031SOL    HW112992   5.465   5.814   3.962
 4031SOL    HW212993   5.439   5.654   3.982
 4032SOL     OW12994   4.371   6.890   4.722
 4032SOL    HW112995   4.318   6.974   4.731
 4032SOL    HW212996   4.331   6.820   4.781
 4033SOL     OW12997   3.382   3.659   5.657
 4033SOL    HW112998   3.300   3.625   5.612
 4033SOL    HW212999   3.434   3.583   5.694
 4034SOL     OW13000   5.857   2.822   4.528
 4034SOL    HW113001   5.768   2.850   4.494
 4034SOL    HW213002   5.902   2.764   4.460
 4035SOL     OW13003   0.655   5.597   0.839
 4035SOL    HW113004   0.614   5.671   0.784
 4035SOL    HW213005   0.636   5.510   0.795
 4036SOL     OW13006   6.506   6.216   2.428
 4036SOL    HW113007   6.426   6.226   2.369
 4036SOL    HW213008   6.589   6.217   2.372
 4037SOL     OW13009   6.829   4.270   6.194
 4037SOL    HW113010   6.745   4.289   6.246
 4037SOL    HW213011   6.831   4.326   6.112
 4038SOL     OW13012   6.408   5.140   3.402
 4038SOL    HW113013   6.381   5.236   3.392
 4038SOL    HW213014   6.459   5.129   3.487
 4039SOL     OW13015   4.038   6.290   0.985
 4039SOL    HW113016   4.087   6.376   0.994
 4039SOL    HW213017   3.985   6.290   0.900
 4040SOL     OW13018   3.453   6.189   0.564
 4040SOL    HW113019   3.528   6.123   0.561
 4040SOL    HW213020   3.464   6.250   0.642
 4041SOL     OW13021   1.206   6.957   3.526
 4041SOL    HW113022   1.236   0.002   3.463
 4041SOL    HW213023   1.131   6.992   3.583
 4042SOL     OW13024   6.046   5.453   1.759
 4042SOL    HW113025   5.996   5.468   1.674
 4042SOL    HW213026   5.991   5.397   1.821
 4043SOL     OW13027   6.484   4.150   1.966
 4043SOL    HW113028   6.434   4.183   1.886
 4043SOL    HW213029   6.486   4.221   2.036
 4044SOL     OW13030   6.671   5.470   2.983
 4044SOL    HW113031   6.641   5.380   3.013
 4044SOL    HW213032   6.659   5.536   3.058
 4045SOL     OW13033   2.344   4.459   5.964
 4045SOL    HW113034   2.352   4.363   5.937
 4045SOL    HW213035   2.291   4.508   5.895
 4046SOL     OW13036   0.346   2.942   0.763
 4046SOL    HW113037   0.388   2.980   0.846
 4046SOL    HW213038   0.384   2.987   0.682
 4047SOL     OW13039   3.018   3.845   1.936
 4047SOL    HW113040   2.991   3.783   2.009
 4047SOL    HW213041   3.114   3.872   1.948
 4048SOL     OW13042   4.730   2.172   1.270
 4048SOL    HW113043   4.643   2.214   1.245
 4048SOL    HW213044   4.803   2.209   1.212
 4049SOL     OW13045   6.951   0.732   5.550
 4049SOL    HW113046   7.025   0.798   5.563
 4049SOL    HW213047   6.986   0.640   5.562
 4050SOL     OW13048   2.308   0.498   1.589
 4050SOL    HW113049   2.330   0.431   1.660
 4050SOL    HW213050   2.234   0.557   1.621
 4051SOL     OW13051   1.143   4.233   0.970
 4051SOL    HW113052   1.205   4.168   0.926
 4051SOL    HW213053   1.197   4.296   1.027
 4052SOL     OW13054   1.521   6.249   1.430
 4052SOL    HW113055   1.595   6.190   1.398
 4052SOL    HW213056   1.546   6.345   1.417
 4053SOL     OW13057   3.236   4.945   3.464
 4053SOL    HW113058   3.147   4.902   3.456
 4053SOL    HW213059   3.263   4.949   3.560
 4054SOL     OW13060   5.161   1.469   6.940
 4054SOL    HW113061   5.130   1.502   6.851
 4054SOL    HW213062   5.252   1.428   6.930
 4055SOL     OW13063   4.285   2.639   0.892
 4055SOL    HW113064   4.343   2.720   0.884
 4055SOL    HW213065   4.331   2.561   0.849
 4056SOL     OW13066   3.611   2.640   1.125
 4056SOL    HW113067   3.600   2.541   1.123
 4056SOL    HW213068   3.568   2.676   1.208
 4057SOL     OW13069   6.269   2.150   0.744
 4057SOL    HW113070   6.236   2.191   0.660
 4057SOL    HW213071   6.362   2.184   0.763
 4058SOL     OW13072   1.359   1.661   4.887
 4058SOL    HW113073   1.275   1.678   4.834
 4058SOL    HW213074   1.439   1.672   4.828
 4059SOL     OW13075   6.201   2.231   5.383
 4059SOL    HW113076   6.205   2.203   5.287
 4059SOL    HW213077   6.230   2.155   5.441
 4060SOL     OW13078   3.703   5.976   5.054
 4060SOL    HW113079   3.679   6.072   5.071
 4060SOL    HW213080   3.623   5.919   5.070
 4061SOL     OW13081   2.614   2.994   1.401
 4061SOL    HW113082   2.625   3.048   1.318
 4061SOL    HW213083   2.531   3.022   1.448
 4062SOL     OW13084   3.771   6.317   2.712
 4062SOL    HW113085   3.830   6.397   2.725
 4062SOL    HW213086   3.813   6.238   2.756
 4063SOL     OW13087   2.464   4.762   6.406
 4063SOL    HW113088   2.505   4.687   6.458
 4063SOL    HW213089   2.407   4.725   6.333
 4064SOL     OW13090   5.931   6.867   3.987
 4064SOL    HW113091   5.917   6.820   3.899
 4064SOL    HW213092   6.022   6.847   4.022
 4065SOL     OW13093   0.073   4.759   6.981
 4065SOL    HW113094   0.158   4.728   6.940
 4065SOL    HW213095   0.088   4.844   0.004
 4066SOL     OW13096   6.113   5.616   1.301
 4066SOL    HW113097   6.033   5.605   1.242
 4066SOL    HW213098   6.097   5.571   1.388
 4067SOL     OW13099   5.926   1.161   1.921
 4067SOL    HW113100   5.996   1.131   1.856
 4067SOL    HW213101   5.876   1.239   1.882
 4068SOL     OW13102   5.947   1.831   5.033
 4068SOL    HW113103   5.922   1.759   4.968
 4068SOL    HW213104   5.976   1.912   4.983
 4069SOL     OW13105   0.041   6.182   0.387
 4069SOL    HW113106   0.133   6.144   0.391
 4069SOL    HW213107   0.046   6.278   0.357
 4070SOL     OW13108   6.890   3.651   3.303
 4070SOL    HW113109   6.861   3.592   3.227
 4070SOL    HW213110   6.990   3.657   3.304
 4071SOL     OW13111   2.473   0.579   3.869
 4071SOL    HW113112   2.423   0.665   3.858
 4071SOL    HW213113   2.413   0.502   3.846
 4072SOL     OW13114   0.892   0.013   3.937
 4072SOL    HW113115   0.878   6.975   4.013
 4072SOL    HW213116   0.839   0.096   3.954
 4073SOL     OW13117   2.529   4.963   1.712
 4073SOL    HW113118   2.581   5.049   1.711
 4073SOL    HW213119   2.573   4.899   1.775
 4074SOL     OW13120   0.649   2.627   0.258
 4074SOL    HW113121   0.699   2.599   0.340
 4074SOL    HW213122   0.636   2.549   0.198
 4075SOL     OW13123   5.282   0.116   3.749
 4075SOL    HW113124   5.262   0.182   3.677
 4075SOL    HW213125   5.225   0.136   3.829
 4076SOL     OW13126   2.034   2.378   3.361
 4076SOL    HW113127   2.018   2.296   3.306
 4076SOL    HW213128   2.014   2.459   3.307
 4077SOL     OW13129   3.537   0.877   0.601
 4077SOL    HW113130   3.564   0.863   0.506
 4077SOL    HW213131   3.444   0.842   0.615
 4078SOL     OW13132   4.985   3.810   3.047
 4078SOL    HW113133   5.034   3.803   3.134
 4078SOL    HW213134   5.044   3.851   2.978
 4079SOL     OW13135   6.259   0.332   4.351
 4079SOL    HW113136   6.259   0.239   4.389
 4079SOL    HW213137   6.218   0.330   4.260
 4080SOL     OW13138   3.651   2.940   3.070
 4080SOL    HW113139   3.573   2.910   3.015
 4080SOL    HW213140   3.736   2.922   3.020
 4081SOL     OW13141   2.941   2.274   6.733
 4081SOL    HW113142   2.885   2.257   6.651
 4081SOL    HW213143   2.926   2.367   6.764
 4082SOL     OW13144   1.201   2.042   5.582
 4082SOL    HW113145   1.153   1.974   5.526
 4082SOL    HW213146   1.297   2.048   5.553
 4083SOL     OW13147   6.146   5.281   2.469
 4083SOL    HW113148   6.234   5.264   2.425
 4083SOL    HW213149   6.072   5.250   2.409
 4084SOL     OW13150   4.884   0.319   2.414
 4084SOL    HW113151   4.946   0.257   2.366
 4084SOL    HW213152   4.883   0.296   2.512
 4085SOL     OW13153   2.594   4.589   2.567
 4085SOL    HW113154   2.667   4.641   2.613
 4085SOL    HW213155   2.560   4.519   2.629
 4086SOL     OW13156   5.789   4.842   5.037
 4086SOL    HW113157   5.693   4.842   5.067
 4086SOL    HW213158   5.825   4.749   5.038
 4087SOL     OW13159   2.101   0.647   1.685
 4087SOL    HW113160   2.070   0.608   1.771
 4087SOL    HW213161   2.082   0.745   1.684
 4088SOL     OW13162   0.349   1.910   5.876
 4088SOL    HW113163   0.380   1.852   5.801
 4088SOL    HW213164   0.252   1.894   5.893
 4089SOL     OW13165   1.117   1.051   2.309
 4089SOL    HW113166   1.217   1.048   2.322
 4089SOL    HW213167   1.074   1.086   2.392
 4090SOL     OW13168   2.711   2.783   5.646
 4090SOL    HW113169   2.674   2.786   5.739
 4090SOL    HW213170   2.651   2.728   5.588
 4091SOL     OW13171   3.361   6.026   2.069
 4091SOL    HW113172   3.388   6.059   1.979
 4091SOL    HW213173   3.360   6.103   2.133
 4092SOL     OW13174   5.468   2.129   6.051
 4092SOL    HW113175   5.519   2.071   6.114
 4092SOL    HW213176   5.466   2.087   5.960
 4093SOL     OW13177   5.403   4.042   3.379
 4093SOL    HW113178   5.420   4.038   3.477
 4093SOL    HW213179   5.460   3.974   3.332
 4094SOL     OW13180   6.820   6.687   0.263
 4094SOL    HW113181   6.799   6.659   0.170
 4094SOL    HW213182   6.894   6.755   0.262
 4095SOL     OW13183   1.832   5.023   0.747
 4095SOL    HW113184   1.910   5.075   0.714
 4095SOL    HW213185   1.855   4.979   0.834
 4096SOL     OW13186   0.648   0.484   6.639
 4096SOL    HW113187   0.633   0.435   6.725
 4096SOL    HW213188   0.647   0.420   6.563
 4097SOL     OW13189   0.487   3.672   4.937
 4097SOL    HW113190   0.530   3.603   4.879
 4097SOL    HW213191   0.438   3.627   5.012
 4098SOL     OW13192   1.049   5.898   1.859
 4098SOL    HW113193   1.101   5.906   1.944
 4098SOL    HW213194   0.978   5.969   1.857
 4099SOL     OW13195   6.348   3.260   5.667
 4099SOL    HW113196   6.400   3.342   5.643
 4099SOL    HW213197   6.411   3.188   5.696
 4100SOL     OW13198   2.231   1.175   3.128
 4100SOL    HW113199   2.279   1.147   3.211
 4100SOL    HW213200   2.297   1.185   3.053
 4101SOL     OW13201   6.470   5.955   6.817
 4101SOL    HW113202   6.520   6.028   6.771
 4101SOL    HW213203   6.482   5.870   6.766
 4102SOL     OW13204   1.252   5.710   0.222
 4102SOL    HW113205   1.315   5.788   0.217
 4102SOL    HW213206   1.228   5.682   0.129
 4103SOL     OW13207   2.178   5.845   2.925
 4103SOL    HW113208   2.259   5.849   2.984
 4103SOL    HW213209   2.157   5.749   2.904
 4104SOL     OW13210   1.676   6.052   5.216
 4104SOL    HW113211   1.649   6.060   5.120
 4104SOL    HW213212   1.627   5.976   5.259
 4105SOL     OW13213   4.275   6.977   2.010
 4105SOL    HW113214   4.357   6.996   1.956
 4105SOL    HW213215   4.302   6.949   2.103
 4106SOL     OW13216   1.381   6.850   1.976
 4106SOL    HW113217   1.364   6.753   1.988
 4106SOL    HW213218   1.362   6.898   2.062
 4107SOL     OW13219   1.628   0.865   0.931
 4107SOL    HW113220   1.656   0.774   0.962
 4107SOL    HW213221   1.702   0.907   0.878
 4108SOL     OW13222   6.360   6.049   5.754
 4108SOL    HW113223   6.337   5.952   5.759
 4108SOL    HW213224   6.370   6.077   5.659
 4109SOL     OW13225   5.302   6.341   4.613
 4109SOL    HW113226   5.361   6.268   4.649
 4109SOL    HW213227   5.208   6.326   4.642
 4110SOL     OW13228   4.759   2.825   0.233
 4110SOL    HW113229   4.843   2.879   0.237
 4110SOL    HW213230   4.681   2.884   0.251
 4111SOL     OW13231   5.834   4.989   4.208
 4111SOL    HW113232   5.757   4.926   4.197
 4111SOL    HW213233   5.843   5.045   4.126
 4112SOL     OW13234   4.680   5.788   4.125
 4112SOL    HW113235   4.607   5.849   4.093
 4112SOL    HW213236   4.640   5.705   4.164
 4113SOL     OW13237   4.472   5.279   4.616
 4113SOL    HW113238   4.563   5.314   4.639
 4113SOL    HW213239   4.478   5.182   4.593
 4114SOL     OW13240   0.197   1.236   1.649
 4114SOL    HW113241   0.111   1.236   1.699
 4114SOL    HW213242   0.274   1.234   1.713
 4115SOL     OW13243   4.324   5.733   3.481
 4115SOL    HW113244   4.226   5.754   3.485
 4115SOL    HW213245   4.356   5.705   3.571
 4116SOL     OW13246   5.742   3.329   3.638
 4116SOL    HW113247   5.654   3.337   3.684
 4116SOL    HW213248   5.814   3.368   3.695
 4117SOL     OW13249   0.430   1.026   3.500
 4117SOL    HW113250   0.509   1.056   3.554
 4117SOL    HW213251   0.349   1.078   3.528
 4118SOL     OW13252   1.170   0.208   1.230
 4118SOL    HW113253   1.107   0.285   1.217
 4118SOL    HW213254   1.118   0.123   1.233
 4119SOL     OW13255   6.488   0.610   4.238
 4119SOL    HW113256   6.542   0.607   4.154
 4119SOL    HW213257   6.470   0.517   4.270
 4120SOL     OW13258   2.209   0.598   5.879
 4120SOL    HW113259   2.297   0.603   5.927
 4120SOL    HW213260   2.138   0.570   5.943
 4121SOL     OW13261   6.657   1.110   2.283
 4121SOL    HW113262   6.567   1.067   2.286
 4121SOL    HW213263   6.649   1.203   2.247
 4122SOL     OW13264   0.804   5.343   3.148
 4122SOL    HW113265   0.808   5.379   3.242
 4122SOL    HW213266   0.896   5.342   3.109
 4123SOL     OW13267   5.546   4.168   1.349
 4123SOL    HW113268   5.538   4.236   1.276
 4123SOL    HW213269   5.529   4.077   1.311
 4124SOL     OW13270   6.286   6.864   0.029
 4124SOL    HW113271   6.370   6.832   0.074
 4124SOL    HW213272   6.214   6.876   0.098
 4125SOL     OW13273   6.848   2.836   0.058
 4125SOL    HW113274   6.827   2.750   0.104
 4125SOL    HW213275   6.783   2.906   0.088
 4126SOL     OW13276   1.412   3.813   4.276
 4126SOL    HW113277   1.448   3.880   4.341
 4126SOL    HW213278   1.471   3.732   4.277
 4127SOL     OW13279   5.486   2.504   4.025
 4127SOL    HW113280   5.483   2.428   4.090
 4127SOL    HW213281   5.455   2.588   4.070
 4128SOL     OW13282   6.533   2.749   6.560
 4128SOL    HW113283   6.438   2.777   6.574
 4128SOL    HW213284   6.563   2.694   6.637
 4129SOL     OW13285   2.816   1.397   1.072
 4129SOL    HW113286   2.904   1.417   1.028
 4129SOL    HW213287   2.741   1.415   1.009
 4130SOL     OW13288   5.770   2.535   0.475
 4130SOL    HW113289   5.772   2.572   0.568
 4130SOL    HW213290   5.807   2.442   0.476
 4131SOL     OW13291   4.598   6.388   3.133
 4131SOL    HW113292   4.590   6.384   3.233
 4131SOL    HW213293   4.670   6.326   3.103
 4132SOL     OW13294   6.833   4.797   3.314
 4132SOL    HW113295   6.802   4.703   3.298
 4132SOL    HW213296   6.804   4.855   3.238
 4133SOL     OW13297   5.448   6.229   2.788
 4133SOL    HW113298   5.475   6.310   2.839
 4133SOL    HW213299   5.505   6.152   2.816
 4134SOL     OW13300   1.861   3.376   1.209
 4134SOL    HW113301   1.822   3.296   1.165
 4134SOL    HW213302   1.794   3.450   1.209
 4135SOL     OW13303   6.056   1.131   1.095
 4135SOL    HW113304   6.049   1.032   1.085
 4135SOL    HW213305   5.999   1.161   1.172
 4136SOL     OW13306   0.643   4.656   0.848
 4136SOL    HW113307   0.546   4.677   0.841
 4136SOL    HW213308   0.688   4.676   0.761
 4137SOL     OW13309   0.238   3.083   6.346
 4137SOL    HW113310   0.320   3.111   6.396
 4137SOL    HW213311   0.196   3.004   6.391
 4138SOL     OW13312   4.587   6.803   6.423
 4138SOL    HW113313   4.644   6.787   6.504
 4138SOL    HW213314   4.628   6.875   6.367
 4139SOL     OW13315   1.828   4.199   2.400
 4139SOL    HW113316   1.910   4.158   2.440
 4139SOL    HW213317   1.849   4.293   2.370
 4140SOL     OW13318   2.249   0.005   6.454
 4140SOL    HW113319   2.162   0.054   6.459
 4140SOL    HW213320   2.242   6.961   6.383
 4141SOL     OW13321   5.117   1.490   5.958
 4141SOL    HW113322   5.069   1.448   5.881
 4141SOL    HW213323   5.099   1.436   6.041
 4142SOL     OW13324   6.374   5.298   1.280
 4142SOL    HW113325   6.466   5.295   1.317
 4142SOL    HW213326   6.375   5.273   1.183
 4143SOL     OW13327   6.040   4.147   6.631
 4143SOL    HW113328   6.110   4.146   6.703
 4143SOL    HW213329   6.077   4.190   6.549
 4144SOL     OW13330   4.363   1.042   1.536
 4144SOL    HW113331   4.458   1.069   1.516
 4144SOL    HW213332   4.336   1.080   1.624
 4145SOL     OW13333   5.630   0.170   1.556
 4145SOL    HW113334   5.536   0.138   1.544
 4145SOL    HW213335   5.684   0.145   1.476
 4146SOL     OW13336   4.393   0.083   1.416
 4146SOL    HW113337   4.311   0.032   1.442
 4146SOL    HW213338   4.393   0.172   1.460
 4147SOL     OW13339   4.948   5.007   6.944
 4147SOL    HW113340   4.942   5.068   6.864
 4147SOL    HW213341   4.966   5.062   7.026
 4148SOL     OW13342   2.870   1.658   5.782
 4148SOL    HW113343   2.785   1.682   5.735
 4148SOL    HW213344   2.854   1.652   5.880
 4149SOL     OW13345   1.418   3.774   6.407
 4149SOL    HW113346   1.423   3.844   6.478
 4149SOL    HW213347   1.326   3.736   6.404
 4150SOL     OW13348   5.464   1.363   0.344
 4150SOL    HW113349   5.386   1.338   0.286
 4150SOL    HW213350   5.432   1.414   0.423
 4151SOL     OW13351   2.480   5.992   5.005
 4151SOL    HW113352   2.537   5.998   5.087
 4151SOL    HW213353   2.533   6.020   4.925
 4152SOL     OW13354   2.694   3.949   1.344
 4152SOL    HW113355   2.700   4.019   1.415
 4152SOL    HW213356   2.774   3.890   1.347
 4153SOL     OW13357   6.820   5.825   2.071
 4153SOL    HW113358   6.849   5.921   2.075
 4153SOL    HW213359   6.843   5.780   2.157
 4154SOL     OW13360   0.371   6.675   3.740
 4154SOL    HW113361   0.382   6.775   3.742
 4154SOL    HW213362   0.425   6.638   3.664
 4155SOL     OW13363   6.841   0.551   1.803
 4155SOL    HW113364   6.788   0.495   1.739
 4155SOL    HW213365   6.874   0.494   1.878
 4156SOL     OW13366   0.278   4.924   5.297
 4156SOL    HW113367   0.273   4.894   5.201
 4156SOL    HW213368   0.193   4.971   5.322
 4157SOL     OW13369   5.437   6.165   0.753
 4157SOL    HW113370   5.489   6.150   0.669
 4157SOL    HW213371   5.411   6.077   0.793
 4158SOL     OW13372   0.511   3.033   0.961
 4158SOL    HW113373   0.463   3.057   1.046
 4158SOL    HW213374   0.599   2.992   0.984
 4159SOL     OW13375   3.106   0.844   4.289
 4159SOL    HW113376   3.175   0.835   4.361
 4159SOL    HW213377   3.016   0.861   4.329
 4160SOL     OW13378   1.383   6.486   6.105
 4160SOL    HW113379   1.297   6.458   6.064
 4160SOL    HW213380   1.459   6.457   6.047
 4161SOL     OW13381   3.296   3.298   3.198
 4161SOL    HW113382   3.388   3.260   3.203
 4161SOL    HW213383   3.289   3.375   3.261
 4162SOL     OW13384   5.378   5.596   1.330
 4162SOL    HW113385   5.385   5.589   1.230
 4162SOL    HW213386   5.309   5.663   1.354
 4163SOL     OW13387   3.788   5.697   1.657
 4163SOL    HW113388   3.884   5.703   1.629
 4163SOL    HW213389   3.731   5.748   1.592
 4164SOL     OW13390   5.389   1.524   6.617
 4164SOL    HW113391   5.457   1.452   6.635
 4164SOL    HW213392   5.421   1.610   6.656
 4165SOL     OW13393   3.624   1.480   4.309
 4165SOL    HW113394   3.614   1.387   4.344
 4165SOL    HW213395   3.550   1.500   4.245
 4166SOL     OW13396   6.737   1.932   1.477
 4166SOL    HW113397   6.784   1.852   1.439
 4166SOL    HW213398   6.701   1.988   1.403
 4167SOL     OW13399   3.859   5.123   4.527
 4167SOL    HW113400   3.872   5.120   4.626
 4167SOL    HW213401   3.921   5.191   4.487
 4168SOL     OW13402   5.581   4.119   0.292
 4168SOL    HW113403   5.578   4.124   0.192
 4168SOL    HW213404   5.506   4.172   0.331
 4169SOL     OW13405   5.311   3.271   6.758
 4169SOL    HW113406   5.409   3.288   6.773
 4169SOL    HW213407   5.297   3.245   6.662
 4170SOL     OW13408   1.009   2.656   5.647
 4170SOL    HW113409   0.961   2.655   5.735
 4170SOL    HW213410   1.031   2.750   5.621
 4171SOL     OW13411   0.347   1.667   6.407
 4171SOL    HW113412   0.390   1.752   6.438
 4171SOL    HW213413   0.412   1.591   6.418
 4172SOL     OW13414   2.662   2.399   6.698
 4172SOL    HW113415   2.691   2.324   6.639
 4172SOL    HW213416   2.582   2.444   6.658
 4173SOL     OW13417   4.496   1.552   6.040
 4173SOL    HW113418   4.503   1.648   6.069
 4173SOL    HW213419   4.401   1.531   6.016
 4174SOL     OW13420   4.329   6.215   3.864
 4174SOL    HW113421   4.245   6.225   3.811
 4174SOL    HW213422   4.403   6.184   3.804
 4175SOL     OW13423   1.772   4.740   6.184
 4175SOL    HW113424   1.687   4.760   6.135
 4175SOL    HW213425   1.774   4.643   6.210
 4176SOL     OW13426   5.191   6.676   5.778
 4176SOL    HW113427   5.255   6.615   5.731
 4176SOL    HW213428   5.239   6.724   5.851
 4177SOL     OW13429   4.417   5.045   3.128
 4177SOL    HW113430   4.516   5.032   3.123
 4177SOL    HW213431   4.384   5.017   3.218
 4178SOL     OW13432   3.941   6.438   1.349
 4178SOL    HW113433   3.910   6.464   1.440
 4178SOL    HW213434   3.981   6.347   1.352
 4179SOL     OW13435   4.393   2.530   6.917
 4179SOL    HW113436   4.486   2.514   6.883
 4179SOL    HW213437   4.387   2.622   6.955
 4180SOL     OW13438   4.103   3.952   0.109
 4180SOL    HW113439   4.138   3.866   0.072
 4180SOL    HW213440   4.164   3.984   0.182
 4181SOL     OW13441   5.856   6.648   5.844
 4181SOL    HW113442   5.797   6.727   5.862
 4181SOL    HW213443   5.939   6.656   5.899
 4182SOL     OW13444   0.889   5.827   5.185
 4182SOL    HW113445   0.984   5.818   5.215
 4182SOL    HW213446   0.854   5.738   5.156
 4183SOL     OW13447   4.458   1.776   0.770
 4183SOL    HW113448   4.399   1.754   0.848
 4183SOL    HW213449   4.513   1.696   0.747
 4184SOL     OW13450   3.635   5.720   3.284
 4184SOL    HW113451   3.665   5.810   3.316
 4184SOL    HW213452   3.616   5.662   3.364
 4185SOL     OW13453   4.798   4.047   3.405
 4185SOL    HW113454   4.764   4.130   3.448
 4185SOL    HW213455   4.724   4.002   3.355
 4186SOL     OW13456   2.004   5.893   0.381
 4186SOL    HW113457   2.026   5.964   0.448
 4186SOL    HW213458   2.076   5.890   0.312
 4187SOL     OW13459   2.482   3.636   5.990
 4187SOL    HW113460   2.497   3.563   5.923
 4187SOL    HW213461   2.396   3.618   6.039
 4188SOL     OW13462   4.375   7.013   6.843
 4188SOL    HW113463   4.279   7.020   6.870
 4188SOL    HW213464   4.382   6.956   6.761
 4189SOL     OW13465   4.535   4.633   3.560
 4189SOL    HW113466   4.545   4.693   3.481
 4189SOL    HW213467   4.552   4.685   3.644
 4190SOL     OW13468   6.007   6.550   1.522
 4190SOL    HW113469   6.004   6.626   1.587
 4190SOL    HW213470   6.011   6.587   1.429
 4191SOL     OW13471   4.447   3.303   6.601
 4191SOL    HW113472   4.543   3.327   6.614
 4191SOL    HW213473   4.389   3.380   6.630
 4192SOL     OW13474   1.542   3.774   6.728
 4192SOL    HW113475   1.526   3.851   6.665
 4192SOL    HW213476   1.565   3.693   6.675
 4193SOL     OW13477   0.290   0.149   0.083
 4193SOL    HW113478   0.214   0.104   0.037
 4193SOL    HW213479   0.327   0.088   0.154
 4194SOL     OW13480   4.813   1.755   5.846
 4194SOL    HW113481   4.756   1.734   5.925
 4194SOL    HW213482   4.777   1.708   5.765
 4195SOL     OW13483   3.057   6.788   0.992
 4195SOL    HW113484   3.130   6.854   1.008
 4195SOL    HW213485   2.981   6.832   0.944
 4196SOL     OW13486   6.474   2.827   2.671
 4196SOL    HW113487   6.376   2.822   2.691
 4196SOL    HW213488   6.509   2.735   2.654
 4197SOL     OW13489   3.187   0.987   0.057
 4197SOL    HW113490   3.255   0.914   0.063
 4197SOL    HW213491   3.098   0.952   0.087
 4198SOL     OW13492   5.993   2.528   1.726
 4198SOL    HW113493   6.069   2.475   1.763
 4198SOL    HW213494   5.907   2.496   1.765
 4199SOL     OW13495   0.228   3.861   6.670
 4199SOL    HW113496   0.198   3.767   6.652
 4199SOL    HW213497   0.188   3.922   6.601
 4200SOL     OW13498   4.698   2.008   4.092
 4200SOL    HW113499   4.672   1.921   4.135
 4200SOL    HW213500   4.722   2.074   4.162
 4201SOL     OW13501   6.178   6.881   4.487
 4201SOL    HW113502   6.144   6.834   4.569
 4201SOL    HW213503   6.146   6.832   4.406
 4202SOL     OW13504   4.588   3.965   1.621
 4202SOL    HW113505   4.643   3.985   1.702
 4202SOL    HW213506   4.497   4.006   1.631
 4203SOL     OW13507   5.868   4.626   5.540
 4203SOL    HW113508   5.807   4.550   5.559
 4203SOL    HW213509   5.955   4.611   5.586
 4204SOL     OW13510   1.798   4.168   6.710
 4204SOL    HW113511   1.832   4.260   6.730
 4204SOL    HW213512   1.757   4.167   6.618
 4205SOL     OW13513   4.371   6.630   6.770
 4205SOL    HW113514   4.418   6.545   6.748
 4205SOL    HW213515   4.272   6.613   6.772
 4206SOL     OW13516   2.049   1.868   4.089
 4206SOL    HW113517   2.069   1.804   4.163
 4206SOL    HW213518   2.022   1.956   4.127
 4207SOL     OW13519   0.730   2.614   2.997
 4207SOL    HW113520   0.630   2.608   2.992
 4207SOL    HW213521   0.761   2.576   3.084
 4208SOL     OW13522   1.944   2.185   3.825
 4208SOL    HW113523   1.864   2.169   3.884
 4208SOL    HW213524   2.012   2.238   3.875
 4209SOL     OW13525   6.957   6.080   2.063
 4209SOL    HW113526   6.973   6.130   2.148
 4209SOL    HW213527   6.950   6.144   1.987
 4210SOL     OW13528   3.021   4.242   5.237
 4210SOL    HW113529   3.010   4.340   5.220
 4210SOL    HW213530   2.933   4.196   5.227
 4211SOL     OW13531   3.671   2.714   5.390
 4211SOL    HW113532   3.692   2.812   5.386
 4211SOL    HW213533   3.756   2.662   5.379
 4212SOL     OW13534   6.933   1.960   2.712
 4212SOL    HW113535   6.929   2.049   2.667
 4212SOL    HW213536   7.008   1.960   2.779
 4213SOL     OW13537   3.672   0.073   3.595
 4213SOL    HW113538   3.589   0.045   3.547
 4213SOL    HW213539   3.660   0.165   3.631
 4214SOL     OW13540   6.933   5.562   3.203
 4214SOL    HW113541   6.872   5.638   3.224
 4214SOL    HW213542   6.948   5.559   3.104
 4215SOL     OW13543   5.925   6.812   5.579
 4215SOL    HW113544   5.950   6.751   5.503
 4215SOL    HW213545   5.892   6.756   5.655
 4216SOL     OW13546   2.871   5.490   2.032
 4216SOL    HW113547   2.830   5.402   2.006
 4216SOL    HW213548   2.877   5.548   1.950
 4217SOL     OW13549   1.056   0.203   3.134
 4217SOL    HW113550   1.099   0.216   3.223
 4217SOL    HW213551   1.117   0.150   3.075
 4218SOL     OW13552   2.370   0.825   1.647
 4218SOL    HW113553   2.387   0.733   1.684
 4218SOL    HW213554   2.381   0.823   1.547
 4219SOL     OW13555   3.784   5.195   3.074
 4219SOL    HW113556   3.695   5.235   3.052
 4219SOL    HW213557   3.853   5.267   3.073
 4220SOL     OW13558   5.711   1.672   1.412
 4220SOL    HW113559   5.616   1.689   1.437
 4220SOL    HW213560   5.745   1.748   1.356
 4221SOL     OW13561   0.847   6.202   0.787
 4221SOL    HW113562   0.872   6.187   0.691
 4221SOL    HW213563   0.926   6.183   0.845
 4222SOL     OW13564   4.932   3.360   4.222
 4222SOL    HW113565   4.898   3.451   4.248
 4222SOL    HW213566   5.029   3.353   4.245
 4223SOL     OW13567   3.444   3.809   2.850
 4223SOL    HW113568   3.463   3.884   2.913
 4223SOL    HW213569   3.526   3.752   2.841
 4224SOL     OW13570   4.883   4.905   4.604
 4224SOL    HW113571   4.932   4.856   4.532
 4224SOL    HW213572   4.926   4.994   4.620
 4225SOL     OW13573   1.202   1.971   5.853
 4225SOL    HW113574   1.226   2.017   5.768
 4225SOL    HW213575   1.189   1.873   5.836
 4226SOL     OW13576   0.466   5.535   5.015
 4226SOL    HW113577   0.519   5.476   5.076
 4226SOL    HW213578   0.524   5.611   4.984
 4227SOL     OW13579   5.028   5.292   1.984
 4227SOL    HW113580   4.942   5.243   2.002
 4227SOL    HW213581   5.092   5.231   1.937
 4228SOL     OW13582   1.558   4.656   4.171
 4228SOL    HW113583   1.629   4.726   4.166
 4228SOL    HW213584   1.585   4.577   4.116
 4229SOL     OW13585   5.540   5.613   5.436
 4229SOL    HW113586   5.460   5.606   5.495
 4229SOL    HW213587   5.578   5.522   5.421
 4230SOL     OW13588   6.966   1.146   1.705
 4230SOL    HW113589   7.002   1.101   1.786
 4230SOL    HW213590   6.965   1.082   1.629
 4231SOL     OW13591   0.248   1.499   6.160
 4231SOL    HW113592   0.289   1.557   6.230
 4231SOL    HW213593   0.293   1.410   6.160
 4232SOL     OW13594   1.764   4.822   4.114
 4232SOL    HW113595   1.787   4.784   4.025
 4232SOL    HW213596   1.678   4.874   4.107
 4233SOL     OW13597   5.097   5.481   2.219
 4233SOL    HW113598   5.078   5.459   2.123
 4233SOL    HW213599   5.045   5.419   2.278
 4234SOL     OW13600   3.556   5.013   5.497
 4234SOL    HW113601   3.604   5.099   5.513
 4234SOL    HW213602   3.566   4.986   5.401
 4235SOL     OW13603   0.019   5.991   6.007
 4235SOL    HW113604   0.056   6.053   5.937
 4235SOL    HW213605   0.005   6.042   6.091
 4236SOL     OW13606   0.727   5.643   3.101
 4236SOL    HW113607   0.734   5.545   3.122
 4236SOL    HW213608   0.648   5.681   3.150
 4237SOL     OW13609   0.376   4.656   4.387
 4237SOL    HW113610   0.322   4.670   4.303
 4237SOL    HW213611   0.315   4.625   4.460
 4238SOL     OW13612   3.512   6.428   2.116
 4238SOL    HW113613   3.595   6.395   2.071
 4238SOL    HW213614   3.452   6.351   2.137
 4239SOL     OW13615   4.296   1.559   3.903
 4239SOL    HW113616   4.222   1.562   3.836
 4239SOL    HW213617   4.369   1.620   3.874
 4240SOL     OW13618   5.647   6.560   1.855
 4240SOL    HW113619   5.690   6.514   1.777
 4240SOL    HW213620   5.694   6.533   1.939
 4241SOL     OW13621   6.611   4.069   0.464
 4241SOL    HW113622   6.615   4.065   0.564
 4241SOL    HW213623   6.521   4.038   0.433
 4242SOL     OW13624   3.264   2.171   3.173
 4242SOL    HW113625   3.283   2.141   3.267
 4242SOL    HW213626   3.170   2.204   3.167
 4243SOL     OW13627   4.630   1.569   3.112
 4243SOL    HW113628   4.572   1.648   3.092
 4243SOL    HW213629   4.595   1.489   3.063
 4244SOL     OW13630   3.327   2.904   4.768
 4244SOL    HW113631   3.419   2.922   4.733
 4244SOL    HW213632   3.301   2.809   4.747
 4245SOL     OW13633   5.937   0.418   6.996
 4245SOL    HW113634   5.903   0.343   6.940
 4245SOL    HW213635   5.875   0.435   0.046
 4246SOL     OW13636   0.039   3.688   0.012
 4246SOL    HW113637   7.023   3.636   6.964
 4246SOL    HW213638   0.139   3.686   0.001
 4247SOL     OW13639   0.605   5.801   4.982
 4247SOL    HW113640   0.542   5.873   4.953
 4247SOL    HW213641   0.650   5.829   5.067
 4248SOL     OW13642   2.070   4.232   5.957
 4248SOL    HW113643   2.085   4.293   6.035
 4248SOL    HW213644   2.157   4.192   5.929
 4249SOL     OW13645   5.366   4.308   5.555
 4249SOL    HW113646   5.401   4.217   5.530
 4249SOL    HW213647   5.302   4.299   5.630
 4250SOL     OW13648   1.434   4.666   3.097
 4250SOL    HW113649   1.453   4.633   3.190
 4250SOL    HW213650   1.416   4.588   3.037
 4251SOL     OW13651   5.357   4.174   0.466
 4251SOL    HW113652   5.332   4.266   0.495
 4251SOL    HW213653   5.388   4.121   0.546
 4252SOL     OW13654   0.296   5.565   5.515
 4252SOL    HW113655   0.388   5.525   5.508
 4252SOL    HW213656   0.229   5.500   5.480
 4253SOL     OW13657   3.906   6.564   2.975
 4253SOL    HW113658   3.930   6.496   3.045
 4253SOL    HW213659   3.927   6.528   2.885
 4254SOL     OW13660   2.953   4.230   1.589
 4254SOL    HW113661   2.998   4.149   1.551
 4254SOL    HW213662   2.877   4.201   1.648
 4255SOL     OW13663   0.747   2.483   4.542
 4255SOL    HW113664   0.666   2.456   4.491
 4255SOL    HW213665   0.779   2.572   4.510
 4256SOL     OW13666   2.063   0.927   1.710
 4256SOL    HW113667   2.093   0.949   1.803
 4256SOL    HW213668   2.136   0.947   1.645
 4257SOL     OW13669   4.073   2.231   4.795
 4257SOL    HW113670   4.012   2.309   4.781
 4257SOL    HW213671   4.140   2.253   4.865
 4258SOL     OW13672   5.295   6.276   2.550
 4258SOL    HW113673   5.342   6.264   2.463
 4258SOL    HW213674   5.360   6.271   2.625
 4259SOL     OW13675   1.402   2.768   0.720
 4259SOL    HW113676   1.402   2.865   0.693
 4259SOL    HW213677   1.458   2.757   0.802
 4260SOL     OW13678   4.014   5.733   3.529
 4260SOL    HW113679   3.937   5.671   3.548
 4260SOL    HW213680   3.979   5.824   3.509
 4261SOL     OW13681   1.753   1.243   2.959
 4261SOL    HW113682   1.736   1.332   3.002
 4261SOL    HW213683   1.819   1.192   3.014
 4262SOL     OW13684   0.227   6.221   6.305
 4262SOL    HW113685   0.128   6.208   6.312
 4262SOL    HW213686   0.252   6.239   6.210
 4263SOL     OW13687   4.041   5.272   6.413
 4263SOL    HW113688   4.073   5.362   6.445
 4263SOL    HW213689   4.055   5.265   6.314
 4264SOL     OW13690   0.161   0.419   0.740
 4264SOL    HW113691   0.119   0.485   0.678
 4264SOL    HW213692   0.246   0.385   0.701
 4265SOL     OW13693   0.876   3.007   0.189
 4265SOL    HW113694   0.788   3.053   0.201
 4265SOL    HW213695   0.869   2.943   0.112
 4266SOL     OW13696   3.233   4.469   1.197
 4266SOL    HW113697   3.187   4.509   1.276
 4266SOL    HW213698   3.332   4.478   1.208
 4267SOL     OW13699   2.053   4.466   6.140
 4267SOL    HW113700   2.008   4.487   6.053
 4267SOL    HW213701   2.078   4.551   6.186
 4268SOL     OW13702   1.766   0.876   0.504
 4268SOL    HW113703   1.810   0.922   0.582
 4268SOL    HW213704   1.774   0.777   0.514
 4269SOL     OW13705   2.742   3.732   0.755
 4269SOL    HW113706   2.736   3.755   0.658
 4269SOL    HW213707   2.742   3.632   0.765
 4270SOL     OW13708   3.998   2.703   5.778
 4270SOL    HW113709   4.093   2.716   5.808
 4270SOL    HW213710   3.954   2.792   5.767
 4271SOL     OW13711   1.243   0.344   0.334
 4271SOL    HW113712   1.320   0.287   0.361
 4271SOL    HW213713   1.242   0.427   0.390
 4272SOL     OW13714   0.077   4.312   3.426
 4272SOL    HW113715   0.105   4.405   3.449
 4272SOL    HW213716   0.159   4.255   3.413
 4273SOL     OW13717   5.565   6.201   4.555
 4273SOL    HW113718   5.529   6.162   4.640
 4273SOL    HW213719   5.500   6.185   4.481
 4274SOL     OW13720   1.928   0.384   4.173
 4274SOL    HW113721   1.937   0.288   4.148
 4274SOL    HW213722   1.995   0.438   4.122
 4275SOL     OW13723   1.650   6.941   6.374
 4275SOL    HW113724   1.611   6.880   6.305
 4275SOL    HW213725   1.625   6.908   6.465
 4276SOL     OW13726   1.949   4.476   2.577
 4276SOL    HW113727   1.963   4.431   2.665
 4276SOL    HW213728   2.021   4.544   2.563
 4277SOL     OW13729   0.721   5.455   4.644
 4277SOL    HW113730   0.818   5.436   4.658
 4277SOL    HW213731   0.682   5.388   4.581
 4278SOL     OW13732   0.869   6.516   5.615
 4278SOL    HW113733   0.862   6.449   5.541
 4278SOL    HW213734   0.864   6.608   5.576
 4279SOL     OW13735   2.860   5.756   4.365
 4279SOL    HW113736   2.955   5.740   4.394
 4279SOL    HW213737   2.818   5.669   4.340
 4280SOL     OW13738   4.856   3.394   3.723
 4280SOL    HW113739   4.930   3.395   3.656
 4280SOL    HW213740   4.768   3.402   3.676
 4281SOL     OW13741   2.629   3.739   5.308
 4281SOL    HW113742   2.724   3.755   5.334
 4281SOL    HW213743   2.589   3.823   5.273
 4282SOL     OW13744   0.620   3.331   1.095
 4282SOL    HW113745   0.704   3.284   1.121
 4282SOL    HW213746   0.635   3.430   1.096
 4283SOL     OW13747   2.141   0.457   4.018
 4283SOL    HW113748   2.206   0.461   4.094
 4283SOL    HW213749   2.170   0.387   3.953
 4284SOL     OW13750   6.252   1.785   3.040
 4284SOL    HW113751   6.207   1.762   2.954
 4284SOL    HW213752   6.246   1.884   3.056
 4285SOL     OW13753   0.876   6.507   4.857
 4285SOL    HW113754   0.934   6.567   4.912
 4285SOL    HW213755   0.918   6.493   4.767
 4286SOL     OW13756   5.682   5.683   6.969
 4286SOL    HW113757   5.721   5.708   6.881
 4286SOL    HW213758   5.610   5.615   6.956
 4287SOL     OW13759   3.902   6.307   5.231
 4287SOL    HW113760   3.976   6.368   5.258
 4287SOL    HW213761   3.872   6.329   5.138
 4288SOL     OW13762   1.578   6.505   2.827
 4288SOL    HW113763   1.597   6.591   2.876
 4288SOL    HW213764   1.641   6.434   2.857
 4289SOL     OW13765   6.207   3.415   0.724
 4289SOL    HW113766   6.273   3.345   0.697
 4289SOL    HW213767   6.116   3.375   0.732
 4290SOL     OW13768   2.325   1.221   2.466
 4290SOL    HW113769   2.376   1.167   2.533
 4290SOL    HW213770   2.384   1.242   2.388
 4291SOL     OW13771   6.225   4.688   1.266
 4291SOL    HW113772   6.295   4.684   1.337
 4291SOL    HW213773   6.268   4.684   1.176
 4292SOL     OW13774   5.877   6.070   5.925
 4292SOL    HW113775   5.964   6.045   5.967
 4292SOL    HW213776   5.878   6.043   5.828
 4293SOL     OW13777   0.401   2.374   6.386
 4293SOL    HW113778   0.480   2.373   6.447
 4293SOL    HW213779   0.370   2.280   6.370
 4294SOL     OW13780   5.064   2.284   6.180
 4294SOL    HW113781   4.978   2.334   6.174
 4294SOL    HW213782   5.136   2.335   6.133
 4295SOL     OW13783   3.859   6.366   4.951
 4295SOL    HW113784   3.848   6.291   4.886
 4295SOL    HW213785   3.874   6.451   4.903
 4296SOL     OW13786   2.545   0.926   1.827
 4296SOL    HW113787   2.467   0.982   1.856
 4296SOL    HW213788   2.521   0.873   1.746
 4297SOL     OW13789   5.695   0.840   6.772
 4297SOL    HW113790   5.607   0.839   6.724
 4297SOL    HW213791   5.766   0.870   6.708
 4298SOL     OW13792   2.971   5.098   1.333
 4298SOL    HW113793   2.923   5.179   1.366
 4298SOL    HW213794   3.049   5.079   1.392
 4299SOL     OW13795   1.149   4.043   6.249
 4299SOL    HW113796   1.122   3.966   6.191
 4299SOL    HW213797   1.216   4.099   6.200
 4300SOL     OW13798   5.784   0.282   6.159
 4300SOL    HW113799   5.767   0.200   6.213
 4300SOL    HW213800   5.829   0.351   6.215
 4301SOL     OW13801   2.732   1.655   0.536
 4301SOL    HW113802   2.656   1.716   0.514
 4301SOL    HW213803   2.782   1.632   0.452
 4302SOL     OW13804   1.055   6.605   6.718
 4302SOL    HW113805   1.094   6.689   6.757
 4302SOL    HW213806   0.974   6.629   6.664
 4303SOL     OW13807   6.861   4.004   1.813
 4303SOL    HW113808   6.954   4.012   1.779
 4303SOL    HW213809   6.798   4.043   1.745
 4304SOL     OW13810   3.432   2.828   5.029
 4304SOL    HW113811   3.516   2.868   5.064
 4304SOL    HW213812   3.430   2.837   4.929
 4305SOL     OW13813   6.275   1.211   4.980
 4305SOL    HW113814   6.286   1.127   5.033
 4305SOL    HW213815   6.228   1.280   5.037
 4306SOL     OW13816   6.223   6.126   6.698
 4306SOL    HW113817   6.302   6.166   6.651
 4306SOL    HW213818   6.246   6.110   6.794
 4307SOL     OW13819   5.195   3.502   6.816
 4307SOL    HW113820   5.136   3.514   6.735
 4307SOL    HW213821   5.259   3.427   6.799
 4308SOL     OW13822   4.387   6.765   5.193
 4308SOL    HW113823   4.309   6.823   5.220
 4308SOL    HW213824   4.461   6.823   5.159
 4309SOL     OW13825   1.265   1.039   0.953
 4309SOL    HW113826   1.223   1.102   1.018
 4309SOL    HW213827   1.329   0.980   1.001
 4310SOL     OW13828   1.374   0.901   2.716
 4310SOL    HW113829   1.393   0.890   2.814
 4310SOL    HW213830   1.276   0.901   2.701
 4311SOL     OW13831   1.592   5.928   4.405
 4311SOL    HW113832   1.614   5.833   4.381
 4311SOL    HW213833   1.515   5.959   4.349
 4312SOL     OW13834   1.429   5.050   1.450
 4312SOL    HW113835   1.351   5.112   1.462
 4312SOL    HW213836   1.417   4.969   1.507
 4313SOL     OW13837   4.985   0.190   1.720
 4313SOL    HW113838   4.917   0.131   1.764
 4313SOL    HW213839   5.028   0.249   1.788
 4314SOL     OW13840   5.513   3.463   3.017
 4314SOL    HW113841   5.416   3.488   3.008
 4314SOL    HW213842   5.533   3.445   3.113
 4315SOL     OW13843   2.109   1.776   1.887
 4315SOL    HW113844   2.038   1.726   1.936
 4315SOL    HW213845   2.151   1.843   1.948
 4316SOL     OW13846   0.426   0.592   2.255
 4316SOL    HW113847   0.422   0.567   2.352
 4316SOL    HW213848   0.335   0.586   2.215
 4317SOL     OW13849   4.118   0.320   3.526
 4317SOL    HW113850   4.130   0.354   3.619
 4317SOL    HW213851   4.189   0.358   3.467
 4318SOL     OW13852   0.145   3.263   4.226
 4318SOL    HW113853   0.113   3.255   4.132
 4318SOL    HW213854   0.133   3.175   4.273
 4319SOL     OW13855   2.584   3.457   5.804
 4319SOL    HW113856   2.635   3.372   5.798
 4319SOL    HW213857   2.589   3.505   5.717
 4320SOL     OW13858   0.669   6.131   2.894
 4320SOL    HW113859   0.732   6.184   2.952
 4320SOL    HW213860   0.658   6.178   2.806
 4321SOL     OW13861   0.707   0.780   5.120
 4321SOL    HW113862   0.653   0.784   5.036
 4321SOL    HW213863   0.669   0.709   5.180
 4322SOL     OW13864   5.819   1.275   0.675
 4322SOL    HW113865   5.862   1.191   0.706
 4322SOL    HW213866   5.802   1.335   0.754
 4323SOL     OW13867   6.719   2.082   3.695
 4323SOL    HW113868   6.814   2.102   3.671
 4323SOL    HW213869   6.690   1.998   3.648
 4324SOL     OW13870   6.141   3.361   6.030
 4324SOL    HW113871   6.149   3.300   6.109
 4324SOL    HW213872   6.067   3.426   6.045
 4325SOL     OW13873   1.880   1.728   5.429
 4325SOL    HW113874   1.790   1.726   5.385
 4325SOL    HW213875   1.942   1.667   5.381
 4326SOL     OW13876   5.953   2.099   5.827
 4326SOL    HW113877   5.938   2.186   5.782
 4326SOL    HW213878   5.963   2.113   5.925
 4327SOL     OW13879   5.272   0.302   3.550
 4327SOL    HW113880   5.226   0.390   3.537
 4327SOL    HW213881   5.370   0.312   3.534
 4328SOL     OW13882   5.505   5.304   0.647
 4328SOL    HW113883   5.573   5.259   0.590
 4328SOL    HW213884   5.415   5.261   0.632
 4329SOL     OW13885   4.085   1.516   6.236
 4329SOL    HW113886   4.167   1.501   6.291
 4329SOL    HW213887   4.020   1.572   6.288
 4330SOL     OW13888   1.161   0.244   6.087
 4330SOL    HW113889   1.117   0.332   6.070
 4330SOL    HW213890   1.230   0.254   6.159
 4331SOL     OW13891   5.599   2.511   0.900
 4331SOL    HW113892   5.678   2.452   0.916
 4331SOL    HW213893   5.560   2.540   0.987
 4332SOL     OW13894   5.094   3.399   1.409
 4332SOL    HW113895   5.103   3.482   1.465
 4332SOL    HW213896   5.030   3.337   1.452
 4333SOL     OW13897   5.101   1.897   5.515
 4333SOL    HW113898   5.076   1.833   5.587
 4333SOL    HW213899   5.196   1.880   5.487
 4334SOL     OW13900   4.646   0.155   1.795
 4334SOL    HW113901   4.628   0.225   1.864
 4334SOL    HW213902   4.727   0.103   1.821
 4335SOL     OW13903   3.570   4.204   5.603
 4335SOL    HW113904   3.617   4.293   5.597
 4335SOL    HW213905   3.618   4.145   5.668
 4336SOL     OW13906   1.681   6.687   4.621
 4336SOL    HW113907   1.693   6.687   4.720
 4336SOL    HW213908   1.745   6.622   4.579
 4337SOL     OW13909   0.641   5.203   0.281
 4337SOL    HW113910   0.581   5.231   0.206
 4337SOL    HW213911   0.665   5.284   0.336
 4338SOL     OW13912   6.549   6.069   3.705
 4338SOL    HW113913   6.647   6.079   3.685
 4338SOL    HW213914   6.496   6.121   3.638
 4339SOL     OW13915   6.246   1.063   6.447
 4339SOL    HW113916   6.318   1.104   6.390
 4339SOL    HW213917   6.241   1.111   6.534
 4340SOL     OW13918   4.952   3.031   2.187
 4340SOL    HW113919   4.948   3.128   2.210
 4340SOL    HW213920   4.874   3.007   2.129
 4341SOL     OW13921   0.621   3.676   0.437
 4341SOL    HW113922   0.583   3.745   0.375
 4341SOL    HW213923   0.654   3.598   0.385
 4342SOL     OW13924   6.955   2.667   2.880
 4342SOL    HW113925   7.007   2.625   2.954
 4342SOL    HW213926   6.861   2.633   2.881
 4343SOL     OW13927   2.247   1.500   1.612
 4343SOL    HW113928   2.208   1.560   1.543
 4343SOL    HW213929   2.346   1.494   1.599
 4344SOL     OW13930   2.209   4.167   3.191
 4344SOL    HW113931   2.143   4.206   3.256
 4344SOL    HW213932   2.160   4.113   3.123
 4345SOL     OW13933   2.291   1.289   6.026
 4345SOL    HW113934   2.230   1.352   6.074
 4345SOL    HW213935   2.241   1.245   5.951
 4346SOL     OW13936   0.452   2.726   1.520
 4346SOL    HW113937   0.484   2.801   1.462
 4346SOL    HW213938   0.500   2.728   1.607
 4347SOL     OW13939   6.017   5.964   2.616
 4347SOL    HW113940   6.059   6.040   2.666
 4347SOL    HW213941   6.083   5.889   2.609
 4348SOL     OW13942   1.114   3.933   6.800
 4348SOL    HW113943   1.049   3.920   6.875
 4348SOL    HW213944   1.166   3.849   6.785
 4349SOL     OW13945   0.206   0.208   2.986
 4349SOL    HW113946   0.294   0.183   3.027
 4349SOL    HW213947   0.135   0.147   3.021
 4350SOL     OW13948   5.135   1.394   3.839
 4350SOL    HW113949   5.206   1.354   3.897
 4350SOL    HW213950   5.155   1.490   3.822
 4351SOL     OW13951   2.930   6.128   0.558
 4351SOL    HW113952   2.958   6.050   0.503
 4351SOL    HW213953   2.840   6.160   0.528
 4352SOL     OW13954   6.142   1.577   2.207
 4352SOL    HW113955   6.065   1.571   2.143
 4352SOL    HW213956   6.192   1.661   2.191
 4353SOL     OW13957   3.189   5.608   0.959
 4353SOL    HW113958   3.288   5.595   0.964
 4353SOL    HW213959   3.144   5.520   0.943
 4354SOL     OW13960   1.676   0.537   1.047
 4354SOL    HW113961   1.760   0.577   1.010
 4354SOL    HW213962   1.700   0.463   1.110
 4355SOL     OW13963   4.562   1.125   0.887
 4355SOL    HW113964   4.598   1.185   0.958
 4355SOL    HW213965   4.516   1.046   0.929
 4356SOL     OW13966   3.587   4.328   0.185
 4356SOL    HW113967   3.544   4.319   0.095
 4356SOL    HW213968   3.668   4.386   0.178
 4357SOL     OW13969   6.410   0.671   6.620
 4357SOL    HW113970   6.323   0.624   6.637
 4357SOL    HW213971   6.446   0.642   6.531
 4358SOL     OW13972   6.705   0.783   1.756
 4358SOL    HW113973   6.763   0.714   1.800
 4358SOL    HW213974   6.634   0.812   1.820
 4359SOL     OW13975   6.572   2.693   4.307
 4359SOL    HW113976   6.524   2.771   4.264
 4359SOL    HW213977   6.551   2.610   4.256
 4360SOL     OW13978   2.357   3.296   1.178
 4360SOL    HW113979   2.262   3.321   1.197
 4360SOL    HW213980   2.388   3.341   1.095
 4361SOL     OW13981   5.347   1.661   2.195
 4361SOL    HW113982   5.391   1.742   2.157
 4361SOL    HW213983   5.416   1.590   2.210
 4362SOL     OW13984   5.551   4.359   3.523
 4362SOL    HW113985   5.554   4.277   3.581
 4362SOL    HW213986   5.621   4.352   3.451
 4363SOL     OW13987   4.862   1.298   5.868
 4363SOL    HW113988   4.767   1.324   5.852
 4363SOL    HW213989   4.865   1.223   5.934
 4364SOL     OW13990   3.352   3.527   5.247
 4364SOL    HW113991   3.334   3.476   5.163
 4364SOL    HW213992   3.443   3.504   5.281
 4365SOL     OW13993   3.110   1.306   1.450
 4365SOL    HW113994   3.151   1.341   1.535
 4365SOL    HW213995   3.047   1.374   1.414
 4366SOL     OW13996   5.007   5.108   1.126
 4366SOL    HW113997   5.090   5.080   1.176
 4366SOL    HW213998   5.008   5.207   1.113
 4367SOL     OW13999   0.573   6.336   0.319
 4367SOL    HW114000   0.661   6.383   0.318
 4367SOL    HW214001   0.580   6.252   0.265
 4368SOL     OW14002   5.253   3.669   2.051
 4368SOL    HW114003   5.338   3.658   2.102
 4368SOL    HW214004   5.241   3.592   1.989
 4369SOL     OW14005   3.447   5.716   1.856
 4369SOL    HW114006   3.468   5.766   1.940
 4369SOL    HW214007   3.483   5.623   1.862
 4370SOL     OW14008   5.499   4.799   2.733
 4370SOL    HW114009   5.468   4.724   2.791
 4370SOL    HW214010   5.593   4.782   2.703
 4371SOL     OW14011   6.933   2.156   2.069
 4371SOL    HW114012   6.844   2.113   2.083
 4371SOL    HW214013   6.976   2.175   2.157
 4372SOL     OW14014   4.639   0.393   3.453
 4372SOL    HW114015   4.703   0.316   3.447
 4372SOL    HW214016   4.669   0.465   3.390
 4373SOL     OW14017   6.750   1.779   6.221
 4373SOL    HW114018   6.661   1.737   6.206
 4373SOL    HW214019   6.804   1.721   6.283
 4374SOL     OW14020   3.328   2.025   1.246
 4374SOL    HW114021   3.270   1.982   1.178
 4374SOL    HW214022   3.338   1.965   1.325
 4375SOL     OW14023   3.631   6.614   3.803
 4375SOL    HW114024   3.720   6.647   3.771
 4375SOL    HW214025   3.596   6.675   3.873
 4376SOL     OW14026   6.384   1.919   4.281
 4376SOL    HW114027   6.360   1.870   4.198
 4376SOL    HW214028   6.316   1.991   4.297
 4377SOL     OW14029   6.173   5.250   6.608
 4377SOL    HW114030   6.240   5.190   6.652
 4377SOL    HW214031   6.091   5.255   6.665
 4378SOL     OW14032   2.140   1.393   3.669
 4378SOL    HW114033   2.102   1.449   3.595
 4378SOL    HW214034   2.207   1.329   3.631
 4379SOL     OW14035   2.899   1.802   5.466
 4379SOL    HW114036   2.911   1.849   5.379
 4379SOL    HW214037   2.973   1.736   5.479
 4380SOL     OW14038   0.334   1.575   2.522
 4380SOL    HW114039   0.428   1.594   2.553
 4380SOL    HW214040   0.293   1.660   2.488
 4381SOL     OW14041   1.837   6.051   6.526
 4381SOL    HW114042   1.809   5.971   6.579
 4381SOL    HW214043   1.756   6.094   6.486
 4382SOL     OW14044   0.332   4.210   4.997
 4382SOL    HW114045   0.333   4.203   4.897
 4382SOL    HW214046   0.248   4.255   5.027
 4383SOL     OW14047   6.577   3.670   6.957
 4383SOL    HW114048   6.612   3.622   6.877
 4383SOL    HW214049   6.608   3.624   0.014
 4384SOL     OW14050   5.653   6.743   3.519
 4384SOL    HW114051   5.747   6.712   3.532
 4384SOL    HW214052   5.652   6.831   3.472
 4385SOL     OW14053   4.425   1.674   5.601
 4385SOL    HW114054   4.522   1.659   5.619
 4385SOL    HW214055   4.378   1.586   5.596
 4386SOL     OW14056   1.870   4.025   5.289
 4386SOL    HW114057   1.966   4.053   5.294
 4386SOL    HW214058   1.821   4.059   5.369
 4387SOL     OW14059   6.113   1.936   0.785
 4387SOL    HW114060   6.099   1.891   0.697
 4387SOL    HW214061   6.183   2.007   0.776
 4388SOL     OW14062   4.986   3.800   6.714
 4388SOL    HW114063   4.893   3.812   6.680
 4388SOL    HW214064   5.028   3.722   6.668
 4389SOL     OW14065   0.854   3.148   0.631
 4389SOL    HW114066   0.869   3.070   0.570
 4389SOL    HW214067   0.773   3.131   0.687
 4390SOL     OW14068   6.945   1.415   0.645
 4390SOL    HW114069   7.012   1.342   0.658
 4390SOL    HW214070   6.883   1.391   0.571
 4391SOL     OW14071   1.487   5.785   0.714
 4391SOL    HW114072   1.574   5.754   0.676
 4391SOL    HW214073   1.475   5.746   0.805
 4392SOL     OW14074   1.259   3.242   5.346
 4392SOL    HW114075   1.313   3.168   5.386
 4392SOL    HW214076   1.178   3.258   5.402
 4393SOL     OW14077   5.144   0.806   1.757
 4393SOL    HW114078   5.194   0.862   1.823
 4393SOL    HW214079   5.195   0.722   1.739
 4394SOL     OW14080   1.194   0.465   2.298
 4394SOL    HW114081   1.153   0.439   2.386
 4394SOL    HW214082   1.123   0.471   2.228
 4395SOL     OW14083   2.329   4.760   1.720
 4395SOL    HW114084   2.357   4.855   1.729
 4395SOL    HW214085   2.410   4.702   1.707
 4396SOL     OW14086   3.071   1.169   2.835
 4396SOL    HW114087   3.121   1.243   2.789
 4396SOL    HW214088   3.117   1.082   2.820
 4397SOL     OW14089   3.194   1.884   4.454
 4397SOL    HW114090   3.157   1.973   4.477
 4397SOL    HW214091   3.183   1.821   4.531
 4398SOL     OW14092   1.849   3.165   5.315
 4398SOL    HW114093   1.802   3.166   5.227
 4398SOL    HW214094   1.909   3.245   5.322
 4399SOL     OW14095   2.536   6.470   2.025
 4399SOL    HW114096   2.538   6.392   1.964
 4399SOL    HW214097   2.468   6.455   2.097
 4400SOL     OW14098   1.983   5.719   4.597
 4400SOL    HW114099   1.987   5.676   4.687
 4400SOL    HW214100   1.991   5.648   4.526
 4401SOL     OW14101   3.442   6.391   6.766
 4401SOL    HW114102   3.348   6.394   6.798
 4401SOL    HW214103   3.490   6.474   6.794
 4402SOL     OW14104   1.370   0.474   3.196
 4402SOL    HW114105   1.381   0.449   3.293
 4402SOL    HW214106   1.445   0.533   3.168
 4403SOL     OW14107   0.749   5.054   1.968
 4403SOL    HW114108   0.841   5.071   2.004
 4403SOL    HW214109   0.705   5.141   1.945
 4404SOL     OW14110   0.013   6.567   6.437
 4404SOL    HW114111   0.030   6.607   6.527
 4404SOL    HW214112   0.073   6.609   6.369
 4405SOL     OW14113   1.897   5.711   2.347
 4405SOL    HW114114   1.954   5.751   2.419
 4405SOL    HW214115   1.951   5.645   2.295
 4406SOL     OW14116   5.625   4.080   2.046
 4406SOL    HW114117   5.598   4.020   2.121
 4406SOL    HW214118   5.723   4.071   2.030
 4407SOL     OW14119   5.892   6.866   1.131
 4407SOL    HW114120   5.948   6.942   1.162
 4407SOL    HW214121   5.932   6.780   1.163
 4408SOL     OW14122   4.045   0.957   6.998
 4408SOL    HW114123   4.021   0.991   6.907
 4408SOL    HW214124   3.961   0.933   0.021
 4409SOL     OW14125   2.847   0.579   3.489
 4409SOL    HW114126   2.925   0.517   3.500
 4409SOL    HW214127   2.795   0.581   3.574
 4410SOL     OW14128   0.258   6.799   0.825
 4410SOL    HW114129   0.168   6.833   0.797
 4410SOL    HW214130   0.328   6.866   0.799
 4411SOL     OW14131   4.113   4.649   5.294
 4411SOL    HW114132   4.018   4.620   5.302
 4411SOL    HW214133   4.166   4.578   5.247
 4412SOL     OW14134   4.513   6.309   1.803
 4412SOL    HW114135   4.449   6.237   1.829
 4412SOL    HW214136   4.472   6.398   1.821
 4413SOL     OW14137   4.752   5.938   3.869
 4413SOL    HW114138   4.741   5.898   3.778
 4413SOL    HW214139   4.734   5.869   3.939
 4414SOL     OW14140   5.193   3.886   1.585
 4414SOL    HW114141   5.136   3.950   1.635
 4414SOL    HW214142   5.266   3.852   1.645
 4415SOL     OW14143   1.879   2.940   1.984
 4415SOL    HW114144   1.961   2.993   1.963
 4415SOL    HW214145   1.897   2.880   2.062
 4416SOL     OW14146   5.050   2.475   3.377
 4416SOL    HW114147   4.984   2.462   3.450
 4416SOL    HW214148   5.006   2.459   3.289
 4417SOL     OW14149   6.817   3.976   2.362
 4417SOL    HW114150   6.826   4.003   2.458
 4417SOL    HW214151   6.732   4.014   2.325
 4418SOL     OW14152   6.504   6.797   5.591
 4418SOL    HW114153   6.569   6.741   5.539
 4418SOL    HW214154   6.444   6.845   5.527
 4419SOL     OW14155   6.448   5.681   6.782
 4419SOL    HW114156   6.372   5.700   6.719
 4419SOL    HW214157   6.413   5.671   6.875
 4420SOL     OW14158   3.705   2.089   0.910
 4420SOL    HW114159   3.675   2.058   1.000
 4420SOL    HW214160   3.657   2.173   0.885
 4421SOL     OW14161   1.770   2.726   0.137
 4421SOL    HW114162   1.792   2.817   0.102
 4421SOL    HW214163   1.797   2.657   0.070
 4422SOL     OW14164   6.667   3.413   6.422
 4422SOL    HW114165   6.672   3.511   6.445
 4422SOL    HW214166   6.619   3.402   6.335
 4423SOL     OW14167   6.530   4.244   5.183
 4423SOL    HW114168   6.475   4.227   5.265
 4423SOL    HW214169   6.624   4.265   5.210
 4424SOL     OW14170   4.837   5.786   2.470
 4424SOL    HW114171   4.828   5.714   2.539
 4424SOL    HW214172   4.758   5.847   2.475
 4425SOL     OW14173   1.222   5.374   1.265
 4425SOL    HW114174   1.227   5.315   1.345
 4425SOL    HW214175   1.277   5.456   1.280
 4426SOL     OW14176   0.132   0.702   4.403
 4426SOL    HW114177   0.150   0.732   4.496
 4426SOL    HW214178   0.058   0.634   4.403
 4427SOL     OW14179   2.386   5.668   2.027
 4427SOL    HW114180   2.294   5.632   2.042
 4427SOL    HW214181   2.425   5.696   2.115
 4428SOL     OW14182   5.763   5.783   3.546
 4428SOL    HW114183   5.675   5.790   3.593
 4428SOL    HW214184   5.769   5.695   3.499
 4429SOL     OW14185   2.826   5.955   3.535
 4429SOL    HW114186   2.751   6.014   3.567
 4429SOL    HW214187   2.816   5.938   3.437
 4430SOL     OW14188   5.936   4.200   5.375
 4430SOL    HW114189   5.977   4.116   5.411
 4430SOL    HW214190   5.840   4.205   5.403
 4431SOL     OW14191   4.003   6.505   4.487
 4431SOL    HW114192   4.044   6.417   4.510
 4431SOL    HW214193   3.961   6.500   4.397
 4432SOL     OW14194   0.821   3.912   6.261
 4432SOL    HW114195   0.775   3.945   6.343
 4432SOL    HW214196   0.894   3.975   6.235
 4433SOL     OW14197   0.844   1.016   5.097
 4433SOL    HW114198   0.763   1.064   5.128
 4433SOL    HW214199   0.830   0.917   5.107
 4434SOL     OW14200   6.996   0.343   2.534
 4434SOL    HW114201   0.002   0.252   2.560
 4434SOL    HW214202   0.009   0.411   2.595
 4435SOL     OW14203   2.240   3.715   0.562
 4435SOL    HW114204   2.272   3.798   0.607
 4435SOL    HW214205   2.193   3.657   0.628
 4436SOL     OW14206   4.292   2.370   1.883
 4436SOL    HW114207   4.223   2.410   1.823
 4436SOL    HW214208   4.295   2.271   1.869
 4437SOL     OW14209   6.509   4.294   0.103
 4437SOL    HW114210   6.445   4.263   0.174
 4437SOL    HW214211   6.512   4.394   0.103
 4438SOL     OW14212   4.084   1.181   5.177
 4438SOL    HW114213   4.145   1.145   5.247
 4438SOL    HW214214   3.995   1.201   5.218
 4439SOL     OW14215   2.731   5.952   2.862
 4439SOL    HW114216   2.735   5.982   2.957
 4439SOL    HW214217   2.822   5.954   2.822
 4440SOL     OW14218   1.496   4.444   6.426
 4440SOL    HW114219   1.441   4.406   6.501
 4440SOL    HW214220   1.534   4.371   6.371
 4441SOL     OW14221   6.889   2.377   1.091
 4441SOL    HW114222   6.914   2.429   1.009
 4441SOL    HW214223   6.893   2.437   1.171
 4442SOL     OW14224   1.875   5.330   0.172
 4442SOL    HW114225   1.934   5.402   0.207
 4442SOL    HW214226   1.929   5.247   0.156
 4443SOL     OW14227   0.579   5.562   5.726
 4443SOL    HW114228   0.587   5.512   5.812
 4443SOL    HW214229   0.590   5.660   5.743
 4444SOL     OW14230   6.162   5.369   0.347
 4444SOL    HW114231   6.217   5.441   0.390
 4444SOL    HW214232   6.194   5.355   0.253
 4445SOL     OW14233   1.074   4.626   0.403
 4445SOL    HW114234   0.985   4.644   0.362
 4445SOL    HW214235   1.064   4.562   0.479
 4446SOL     OW14236   4.500   1.816   1.156
 4446SOL    HW114237   4.572   1.747   1.155
 4446SOL    HW214238   4.421   1.783   1.103
 4447SOL     OW14239   4.178   5.722   6.001
 4447SOL    HW114240   4.091   5.769   5.986
 4447SOL    HW214241   4.236   5.777   6.061
 4448SOL     OW14242   3.685   6.703   1.412
 4448SOL    HW114243   3.726   6.677   1.324
 4448SOL    HW214244   3.723   6.646   1.485
 4449SOL     OW14245   3.652   1.670   5.963
 4449SOL    HW114246   3.605   1.585   5.943
 4449SOL    HW214247   3.585   1.742   5.982
 4450SOL     OW14248   2.625   6.623   0.040
 4450SOL    HW114249   2.721   6.643   0.019
 4450SOL    HW214250   2.583   6.702   0.084
 4451SOL     OW14251   4.272   5.124   3.477
 4451SOL    HW114252   4.204   5.129   3.549
 4451SOL    HW214253   4.363   5.119   3.517
 4452SOL     OW14254   4.855   5.941   4.260
 4452SOL    HW114255   4.942   5.975   4.224
 4452SOL    HW214256   4.824   5.865   4.202
 4453SOL     OW14257   6.951   4.699   0.362
 4453SOL    HW114258   6.954   4.658   0.270
 4453SOL    HW214259   7.002   4.641   0.425
 4454SOL     OW14260   1.084   2.630   0.533
 4454SOL    HW114261   1.132   2.579   0.462
 4454SOL    HW214262   1.151   2.669   0.596
 4455SOL     OW14263   1.453   0.322   4.569
 4455SOL    HW114264   1.470   0.244   4.509
 4455SOL    HW214265   1.362   0.315   4.608
 4456SOL     OW14266   2.432   6.964   3.683
 4456SOL    HW114267   2.461   7.012   3.601
 4456SOL    HW214268   2.361   6.898   3.660
 4457SOL     OW14269   1.587   1.707   4.752
 4457SOL    HW114270   1.651   1.719   4.828
 4457SOL    HW214271   1.625   1.641   4.686
 4458SOL     OW14272   1.275   3.426   6.539
 4458SOL    HW114273   1.231   3.417   6.629
 4458SOL    HW214274   1.206   3.453   6.471
 4459SOL     OW14275   0.568   3.265   3.263
 4459SOL    HW114276   0.490   3.208   3.237
 4459SOL    HW214277   0.619   3.291   3.181
 4460SOL     OW14278   0.142   2.339   4.561
 4460SOL    HW114279   0.176   2.250   4.529
 4460SOL    HW214280   0.076   2.375   4.496
 4461SOL     OW14281   1.837   0.669   0.821
 4461SOL    HW114282   1.805   0.634   0.733
 4461SOL    HW214283   1.907   0.740   0.806
 4462SOL     OW14284   6.302   4.276   2.805
 4462SOL    HW114285   6.384   4.332   2.793
 4462SOL    HW214286   6.221   4.334   2.802
 4463SOL     OW14287   5.826   1.722   0.315
 4463SOL    HW114288   5.811   1.721   0.414
 4463SOL    HW214289   5.836   1.816   0.283
 4464SOL     OW14290   0.076   4.127   1.709
 4464SOL    HW114291   0.142   4.184   1.756
 4464SOL    HW214292   0.123   4.061   1.651
 4465SOL     OW14293   3.746   5.246   1.728
 4465SOL    HW114294   3.693   5.330   1.715
 4465SOL    HW214295   3.753   5.226   1.826
 4466SOL     OW14296   0.597   2.528   2.204
 4466SOL    HW114297   0.539   2.492   2.277
 4466SOL    HW214298   0.661   2.595   2.242
 4467SOL     OW14299   5.511   5.000   2.564
 4467SOL    HW114300   5.462   5.072   2.611
 4467SOL    HW214301   5.522   4.921   2.625
 4468SOL     OW14302   1.804   3.240   1.669
 4468SOL    HW114303   1.809   3.291   1.756
 4468SOL    HW214304   1.709   3.232   1.640
 4469SOL     OW14305   2.096   5.482   1.635
 4469SOL    HW114306   2.065   5.577   1.634
 4469SOL    HW214307   2.103   5.449   1.541
 4470SOL     OW14308   1.025   0.101   2.692
 4470SOL    HW114309   0.984   0.045   2.620
 4470SOL    HW214310   1.023   0.051   2.779
 4471SOL     OW14311   1.268   6.845   6.268
 4471SOL    HW114312   1.224   6.780   6.330
 4471SOL    HW214313   1.264   6.937   6.308
 4472SOL     OW14314   1.739   2.578   0.432
 4472SOL    HW114315   1.680   2.651   0.398
 4472SOL    HW214316   1.797   2.614   0.505
 4473SOL     OW14317   0.275   3.761   4.569
 4473SOL    HW114318   0.313   3.670   4.587
 4473SOL    HW214319   0.186   3.752   4.524
 4474SOL     OW14320   3.210   5.863   1.019
 4474SOL    HW114321   3.198   5.767   0.994
 4474SOL    HW214322   3.180   5.877   1.113
 4475SOL     OW14323   1.043   3.925   0.885
 4475SOL    HW114324   1.087   3.930   0.974
 4475SOL    HW214325   0.960   3.981   0.885
 4476SOL     OW14326   5.558   0.989   4.062
 4476SOL    HW114327   5.463   1.022   4.059
 4476SOL    HW214328   5.561   0.903   4.112
 4477SOL     OW14329   0.437   1.013   4.978
 4477SOL    HW114330   0.481   0.923   4.970
 4477SOL    HW214331   0.382   1.031   4.896
 4478SOL     OW14332   1.395   0.124   1.585
 4478SOL    HW114333   1.402   0.201   1.522
 4478SOL    HW214334   1.387   0.159   1.679
 4479SOL     OW14335   1.911   2.059   0.067
 4479SOL    HW114336   1.940   2.081   0.160
 4479SOL    HW214337   1.878   1.965   0.064
 4480SOL     OW14338   0.503   6.752   3.434
 4480SOL    HW114339   0.535   6.728   3.525
 4480SOL    HW214340   0.581   6.776   3.376
 4481SOL     OW14341   1.942   4.089   5.722
 4481SOL    HW114342   1.939   4.145   5.805
 4481SOL    HW214343   2.001   4.010   5.737
 4482SOL     OW14344   1.830   6.967   1.547
 4482SOL    HW114345   1.867   6.966   1.454
 4482SOL    HW214346   1.733   6.943   1.544
 4483SOL     OW14347   1.258   3.639   0.960
 4483SOL    HW114348   1.292   3.595   0.876
 4483SOL    HW214349   1.159   3.625   0.967
 4484SOL     OW14350   2.522   0.927   6.821
 4484SOL    HW114351   2.606   0.881   6.790
 4484SOL    HW214352   2.539   1.025   6.831
 4485SOL     OW14353   6.776   2.586   5.488
 4485SOL    HW114354   6.818   2.667   5.447
 4485SOL    HW214355   6.676   2.596   5.486
 4486SOL     OW14356   5.012   4.761   4.406
 4486SOL    HW114357   5.095   4.739   4.355
 4486SOL    HW214358   4.958   4.678   4.418
 4487SOL     OW14359   0.701   2.727   6.592
 4487SOL    HW114360   0.693   2.692   6.685
 4487SOL    HW214361   0.622   2.697   6.539
 4488SOL     OW14362   6.985   4.148   3.592
 4488SOL    HW114363   6.896   4.183   3.620
 4488SOL    HW214364   0.003   4.215   3.532
 4489SOL     OW14365   3.784   5.996   6.188
 4489SOL    HW114366   3.869   6.018   6.140
 4489SOL    HW214367   3.774   5.897   6.196
 4490SOL     OW14368   5.141   1.390   1.877
 4490SOL    HW114369   5.058   1.446   1.871
 4490SOL    HW214370   5.221   1.449   1.881
 4491SOL     OW14371   1.034   3.225   3.173
 4491SOL    HW114372   1.000   3.282   3.098
 4491SOL    HW214373   0.957   3.195   3.230
 4492SOL     OW14374   6.913   0.996   2.329
 4492SOL    HW114375   6.979   1.067   2.302
 4492SOL    HW214376   6.820   1.033   2.325
 4493SOL     OW14377   5.028   1.353   5.647
 4493SOL    HW114378   4.963   1.336   5.720
 4493SOL    HW214379   5.034   1.273   5.587
 4494SOL     OW14380   1.195   0.687   1.927
 4494SOL    HW114381   1.228   0.764   1.982
 4494SOL    HW214382   1.247   0.682   1.842
 4495SOL     OW14383   4.242   6.552   1.004
 4495SOL    HW114384   4.319   6.493   1.027
 4495SOL    HW214385   4.269   6.648   1.013
 4496SOL     OW14386   2.787   6.347   5.534
 4496SOL    HW114387   2.803   6.332   5.632
 4496SOL    HW214388   2.796   6.444   5.512
 4497SOL     OW14389   4.035   0.992   6.003
 4497SOL    HW114390   3.986   0.985   5.916
 4497SOL    HW214391   4.004   1.075   6.051
 4498SOL     OW14392   0.482   4.898   4.492
 4498SOL    HW114393   0.388   4.916   4.520
 4498SOL    HW214394   0.484   4.831   4.418
 4499SOL     OW14395   5.794   1.210   2.511
 4499SOL    HW114396   5.732   1.254   2.576
 4499SOL    HW214397   5.755   1.123   2.481
 4500SOL     OW14398   4.180   5.934   0.492
 4500SOL    HW114399   4.184   5.941   0.591
 4500SOL    HW214400   4.198   6.024   0.451
 4501SOL     OW14401   5.820   0.857   2.438
 4501SOL    HW114402   5.735   0.809   2.456
 4501SOL    HW214403   5.810   0.914   2.357
 4502SOL     OW14404   0.418   4.132   6.665
 4502SOL    HW114405   0.429   4.052   6.725
 4502SOL    HW214406   0.425   4.103   6.570
 4503SOL     OW14407   3.499   1.624   2.588
 4503SOL    HW114408   3.556   1.542   2.587
 4503SOL    HW214409   3.519   1.680   2.508
 4504SOL     OW14410   0.732   2.500   3.322
 4504SOL    HW114411   0.802   2.567   3.297
 4504SOL    HW214412   0.774   2.409   3.331
 4505SOL     OW14413   6.014   3.355   3.784
 4505SOL    HW114414   6.088   3.387   3.725
 4505SOL    HW214415   5.957   3.433   3.812
 4506SOL     OW14416   4.751   3.920   6.634
 4506SOL    HW114417   4.705   3.870   6.560
 4506SOL    HW214418   4.710   4.011   6.644
 4507SOL     OW14419   6.253   2.307   3.332
 4507SOL    HW114420   6.234   2.238   3.401
 4507SOL    HW214421   6.301   2.265   3.255
 4508SOL     OW14422   0.178   4.958   0.541
 4508SOL    HW114423   0.243   4.921   0.474
 4508SOL    HW214424   0.225   5.026   0.598
 4509SOL     OW14425   5.165   2.274   2.086
 4509SOL    HW114426   5.140   2.341   2.016
 4509SOL    HW214427   5.261   2.285   2.112
 4510SOL     OW14428   4.188   1.751   4.366
 4510SOL    HW114429   4.205   1.710   4.455
 4510SOL    HW214430   4.171   1.679   4.299
 4511SOL     OW14431   6.918   5.194   6.292
 4511SOL    HW114432   6.935   5.223   6.387
 4511SOL    HW214433   6.874   5.269   6.242
 4512SOL     OW14434   3.336   2.979   5.612
 4512SOL    HW114435   3.252   3.019   5.647
 4512SOL    HW214436   3.319   2.883   5.587
 4513SOL     OW14437   0.199   6.976   0.326
 4513SOL    HW114438   0.214   6.925   0.411
 4513SOL    HW214439   0.203   0.048   0.346
 4514SOL     OW14440   4.708   4.991   6.653
 4514SOL    HW114441   4.679   4.897   6.631
 4514SOL    HW214442   4.631   5.053   6.639
 4515SOL     OW14443   3.893   0.778   6.291
 4515SOL    HW114444   3.976   0.833   6.276
 4515SOL    HW214445   3.822   0.835   6.332
 4516SOL     OW14446   3.032   2.685   5.893
 4516SOL    HW114447   3.001   2.732   5.811
 4516SOL    HW214448   3.130   2.700   5.906
 4517SOL     OW14449   4.610   0.638   4.355
 4517SOL    HW114450   4.543   0.702   4.318
 4517SOL    HW214451   4.694   0.642   4.300
 4518SOL     OW14452   0.197   6.620   1.000
 4518SOL    HW114453   0.113   6.598   0.950
 4518SOL    HW214454   0.235   6.705   0.965
 4519SOL     OW14455   4.713   6.845   6.883
 4519SOL    HW114456   4.802   6.889   6.896
 4519SOL    HW214457   4.723   6.746   6.894
 4520SOL     OW14458   4.733   5.341   5.197
 4520SOL    HW114459   4.675   5.421   5.184
 4520SOL    HW214460   4.695   5.263   5.146
 4521SOL     OW14461   4.393   2.336   4.065
 4521SOL    HW114462   4.423   2.243   4.045
 4521SOL    HW214463   4.294   2.342   4.052
 4522SOL     OW14464   5.746   3.884   3.738
 4522SOL    HW114465   5.770   3.922   3.649
 4522SOL    HW214466   5.815   3.816   3.765
 4523SOL     OW14467   6.368   2.955   6.098
 4523SOL    HW114468   6.299   3.028   6.103
 4523SOL    HW214469   6.378   2.913   6.188
 4524SOL     OW14470   1.972   3.830   2.498
 4524SOL    HW114471   2.021   3.770   2.434
 4524SOL    HW214472   2.009   3.922   2.491
 4525SOL     OW14473   3.921   2.611   5.460
 4525SOL    HW114474   3.932   2.512   5.447
 4525SOL    HW214475   3.876   2.628   5.548
 4526SOL     OW14476   1.247   0.260   5.319
 4526SOL    HW114477   1.173   0.195   5.308
 4526SOL    HW214478   1.268   0.303   5.231
 4527SOL     OW14479   0.447   1.819   3.085
 4527SOL    HW114480   0.546   1.824   3.078
 4527SOL    HW214481   0.421   1.806   3.181
 4528SOL     OW14482   5.114   0.428   4.950
 4528SOL    HW114483   5.042   0.434   4.881
 4528SOL    HW214484   5.175   0.352   4.928
 4529SOL     OW14485   1.989   1.790   3.755
 4529SOL    HW114486   1.889   1.787   3.746
 4529SOL    HW214487   2.013   1.825   3.845
 4530SOL     OW14488   4.021   5.836   6.405
 4530SOL    HW114489   4.037   5.738   6.415
 4530SOL    HW214490   3.947   5.851   6.340
 4531SOL     OW14491   1.445   6.447   5.056
 4531SOL    HW114492   1.373   6.517   5.059
 4531SOL    HW214493   1.519   6.472   5.118
 4532SOL     OW14494   6.679   1.558   2.444
 4532SOL    HW114495   6.651   1.630   2.381
 4532SOL    HW214496   6.601   1.530   2.500
 4533SOL     OW14497   2.846   0.012   1.651
 4533SOL    HW114498   2.935   6.996   1.634
 4533SOL    HW214499   2.819   0.064   1.570
 4534SOL     OW14500   5.674   1.301   4.067
 4534SOL    HW114501   5.647   1.209   4.037
 4534SOL    HW214502   5.668   1.364   3.990
 4535SOL     OW14503   2.152   0.434   6.946
 4535SOL    HW114504   2.225   0.374   6.912
 4535SOL    HW214505   2.132   0.504   6.879
 4536SOL     OW14506   3.684   0.765   5.655
 4536SOL    HW114507   3.699   0.814   5.569
 4536SOL    HW214508   3.620   0.816   5.711
 4537SOL     OW14509   2.915   3.314   3.011
 4537SOL    HW114510   2.898   3.284   2.917
 4537SOL    HW214511   2.911   3.234   3.072
 4538SOL     OW14512   0.753   2.178   0.606
 4538SOL    HW114513   0.761   2.121   0.524
 4538SOL    HW214514   0.676   2.241   0.595
 4539SOL     OW14515   1.677   5.649   4.777
 4539SOL    HW114516   1.742   5.685   4.844
 4539SOL    HW214517   1.584   5.662   4.811
 4540SOL     OW14518   1.023   1.720   0.228
 4540SOL    HW114519   1.079   1.802   0.243
 4540SOL    HW214520   1.030   1.660   0.307
 4541SOL     OW14521   4.061   3.208   6.814
 4541SOL    HW114522   4.004   3.273   6.764
 4541SOL    HW214523   4.003   3.138   6.855
 4542SOL     OW14524   0.505   1.432   6.272
 4542SOL    HW114525   0.499   1.342   6.228
 4542SOL    HW214526   0.595   1.473   6.252
 4543SOL     OW14527   3.967   2.035   0.878
 4543SOL    HW114528   3.868   2.046   0.882
 4543SOL    HW214529   3.988   1.941   0.850
 4544SOL     OW14530   4.634   6.705   1.067
 4544SOL    HW114531   4.692   6.651   1.006
 4544SOL    HW214532   4.551   6.732   1.018
 4545SOL     OW14533   2.587   3.121   5.676
 4545SOL    HW114534   2.556   3.051   5.741
 4545SOL    HW214535   2.544   3.105   5.587
 4546SOL     OW14536   3.924   0.113   5.910
 4546SOL    HW114537   3.879   0.171   5.842
 4546SOL    HW214538   3.901   0.146   6.002
 4547SOL     OW14539   0.411   0.335   6.939
 4547SOL    HW114540   0.391   0.266   7.009
 4547SOL    HW214541   0.510   0.348   6.933
 4548SOL     OW14542   3.259   1.253   2.020
 4548SOL    HW114543   3.243   1.352   2.023
 4548SOL    HW214544   3.295   1.222   2.107
 4549SOL     OW14545   0.140   3.511   3.884
 4549SOL    HW114546   0.191   3.445   3.828
 4549SOL    HW214547   0.175   3.603   3.867
 4550SOL     OW14548   1.833   5.788   4.945
 4550SOL    HW114549   1.820   5.783   5.044
 4550SOL    HW214550   1.785   5.868   4.908
 4551SOL     OW14551   3.057   2.395   5.764
 4551SOL    HW114552   3.072   2.328   5.691
 4551SOL    HW214553   3.106   2.480   5.742
 4552SOL     OW14554   4.267   0.916   0.345
 4552SOL    HW114555   4.349   0.903   0.401
 4552SOL    HW214556   4.292   0.909   0.248
 4553SOL     OW14557   0.319   6.279   0.238
 4553SOL    HW114558   0.407   6.278   0.286
 4553SOL    HW214559   0.312   6.198   0.179
 4554SOL     OW14560   5.991   0.025   2.921
 4554SOL    HW114561   5.949   6.996   2.992
 4554SOL    HW214562   5.953   0.000   2.832
 4555SOL     OW14563   0.721   1.098   1.489
 4555SOL    HW114564   0.745   1.043   1.410
 4555SOL    HW214565   0.691   1.038   1.564
 4556SOL     OW14566   5.238   4.731   4.241
 4556SOL    HW114567   5.184   4.648   4.252
 4556SOL    HW214568   5.297   4.722   4.161
 4557SOL     OW14569   0.119   4.900   4.355
 4557SOL    HW114570   0.102   4.843   4.436
 4557SOL    HW214571   0.103   4.845   4.272
 4558SOL     OW14572   1.404   3.857   4.906
 4558SOL    HW114573   1.393   3.852   4.806
 4558SOL    HW214574   1.466   3.785   4.936
 4559SOL     OW14575   6.911   3.196   3.982
 4559SOL    HW114576   6.836   3.135   4.011
 4559SOL    HW214577   6.997   3.146   3.983
 4560SOL     OW14578   5.890   4.447   3.060
 4560SOL    HW114579   5.977   4.406   3.086
 4560SOL    HW214580   5.905   4.537   3.021
 4561SOL     OW14581   4.812   2.431   4.004
 4561SOL    HW114582   4.783   2.402   3.913
 4561SOL    HW214583   4.734   2.471   4.052
 4562SOL     OW14584   3.786   1.194   0.303
 4562SOL    HW114585   3.746   1.251   0.375
 4562SOL    HW214586   3.809   1.251   0.224
 4563SOL     OW14587   0.637   4.426   1.835
 4563SOL    HW114588   0.705   4.480   1.785
 4563SOL    HW214589   0.674   4.335   1.853
 4564SOL     OW14590   2.225   3.993   2.757
 4564SOL    HW114591   2.167   4.042   2.822
 4564SOL    HW214592   2.302   4.051   2.731
 4565SOL     OW14593   1.745   6.857   5.754
 4565SOL    HW114594   1.761   6.867   5.852
 4565SOL    HW214595   1.663   6.800   5.740
 4566SOL     OW14596   6.762   4.537   3.284
 4566SOL    HW114597   6.681   4.497   3.240
 4566SOL    HW214598   6.836   4.470   3.285
 4567SOL     OW14599   0.075   6.758   6.662
 4567SOL    HW114600   0.028   6.846   6.670
 4567SOL    HW214601   0.159   6.770   6.608
 4568SOL     OW14602   1.075   5.214   3.984
 4568SOL    HW114603   0.991   5.267   3.973
 4568SOL    HW214604   1.067   5.127   3.936
 4569SOL     OW14605   1.765   1.484   3.061
 4569SOL    HW114606   1.739   1.574   3.027
 4569SOL    HW214607   1.861   1.485   3.088
 4570SOL     OW14608   4.829   5.075   1.336
 4570SOL    HW114609   4.835   5.162   1.385
 4570SOL    HW214610   4.844   5.090   1.238
 4571SOL     OW14611   2.685   3.828   5.997
 4571SOL    HW114612   2.610   3.763   6.017
 4571SOL    HW214613   2.672   3.911   6.052
 4572SOL     OW14614   3.942   2.978   1.900
 4572SOL    HW114615   4.017   2.916   1.923
 4572SOL    HW214616   3.860   2.925   1.879
 4573SOL     OW14617   2.811   4.949   0.048
 4573SOL    HW114618   2.867   5.007   0.107
 4573SOL    HW214619   2.800   4.859   0.091
 4574SOL     OW14620   5.000   0.639   2.328
 4574SOL    HW114621   4.919   0.668   2.380
 4574SOL    HW214622   5.077   0.629   2.391
 4575SOL     OW14623   0.406   0.592   5.549
 4575SOL    HW114624   0.382   0.496   5.565
 4575SOL    HW214625   0.339   0.633   5.487
 4576SOL     OW14626   3.628   3.637   6.768
 4576SOL    HW114627   3.534   3.667   6.751
 4576SOL    HW214628   3.629   3.539   6.787
 4577SOL     OW14629   0.483   1.733   2.208
 4577SOL    HW114630   0.420   1.792   2.259
 4577SOL    HW214631   0.543   1.790   2.151
 4578SOL     OW14632   1.774   1.249   2.494
 4578SOL    HW114633   1.835   1.219   2.568
 4578SOL    HW214634   1.743   1.170   2.442
 4579SOL     OW14635   4.682   0.921   3.543
 4579SOL    HW114636   4.627   0.916   3.627
 4579SOL    HW214637   4.775   0.949   3.567
 4580SOL     OW14638   0.473   1.359   0.528
 4580SOL    HW114639   0.443   1.286   0.590
 4580SOL    HW214640   0.540   1.417   0.574
 4581SOL     OW14641   2.774   0.418   1.357
 4581SOL    HW114642   2.809   0.326   1.370
 4581SOL    HW214643   2.697   0.415   1.292
 4582SOL     OW14644   0.078   0.685   3.476
 4582SOL    HW114645   0.064   0.597   3.431
 4582SOL    HW214646   0.172   0.715   3.462
 4583SOL     OW14647   1.976   0.048   6.948
 4583SOL    HW114648   2.037   0.010   6.879
 4583SOL    HW214649   1.942   7.001   7.007
 4584SOL     OW14650   0.369   1.763   4.561
 4584SOL    HW114651   0.377   1.803   4.469
 4584SOL    HW214652   0.290   1.703   4.565
 4585SOL     OW14653   1.646   3.142   3.428
 4585SOL    HW114654   1.580   3.174   3.497
 4585SOL    HW214655   1.738   3.142   3.468
 4586SOL     OW14656   6.259   4.823   6.337
 4586SOL    HW114657   6.273   4.921   6.347
 4586SOL    HW214658   6.336   4.784   6.286
 4587SOL     OW14659   4.082   4.063   5.459
 4587SOL    HW114660   3.986   4.073   5.485
 4587SOL    HW214661   4.108   4.138   5.398
 4588SOL     OW14662   3.335   4.001   6.371
 4588SOL    HW114663   3.318   4.011   6.272
 4588SOL    HW214664   3.293   3.917   6.404
 4589SOL     OW14665   5.740   6.102   2.327
 4589SOL    HW114666   5.834   6.124   2.352
 4589SOL    HW214667   5.717   6.148   2.242
 4590SOL     OW14668   3.281   5.649   1.229
 4590SOL    HW114669   3.209   5.593   1.186
 4590SOL    HW214670   3.239   5.730   1.269
 4591SOL     OW14671   2.421   1.173   4.967
 4591SOL    HW114672   2.444   1.192   4.872
 4591SOL    HW214673   2.344   1.229   4.995
 4592SOL     OW14674   2.454   1.598   3.508
 4592SOL    HW114675   2.376   1.588   3.569
 4592SOL    HW214676   2.476   1.510   3.466
 4593SOL     OW14677   1.235   6.369   4.552
 4593SOL    HW114678   1.182   6.375   4.467
 4593SOL    HW214679   1.237   6.273   4.582
 4594SOL     OW14680   2.056   6.296   3.690
 4594SOL    HW114681   2.084   6.200   3.686
 4594SOL    HW214682   2.022   6.317   3.782
 4595SOL     OW14683   5.541   1.773   6.669
 4595SOL    HW114684   5.532   1.786   6.570
 4595SOL    HW214685   5.638   1.771   6.693
 4596SOL     OW14686   0.995   0.963   2.097
 4596SOL    HW114687   1.014   1.005   2.186
 4596SOL    HW214688   0.970   1.033   2.031
 4597SOL     OW14689   2.559   5.697   0.517
 4597SOL    HW114690   2.647   5.732   0.549
 4597SOL    HW214691   2.485   5.735   0.573
 4598SOL     OW14692   0.979   3.958   0.510
 4598SOL    HW114693   1.029   3.890   0.564
 4598SOL    HW214694   0.974   3.929   0.415
 4599SOL     OW14695   3.662   6.695   1.984
 4599SOL    HW114696   3.716   6.615   2.012
 4599SOL    HW214697   3.706   6.738   1.905
 4600SOL     OW14698   0.391   6.957   6.642
 4600SOL    HW114699   0.362   6.938   6.735
 4600SOL    HW214700   0.393   6.872   6.590
 4601SOL     OW14701   1.968   0.494   5.513
 4601SOL    HW114702   1.967   0.412   5.569
 4601SOL    HW214703   1.918   0.477   5.428
 4602SOL     OW14704   3.004   1.838   6.151
 4602SOL    HW114705   2.986   1.880   6.240
 4602SOL    HW214706   3.096   1.800   6.150
 4603SOL     OW14707   3.927   6.788   1.027
 4603SOL    HW114708   3.915   6.887   1.028
 4603SOL    HW214709   4.011   6.764   1.074
 4604SOL     OW14710   6.612   6.811   3.786
 4604SOL    HW114711   6.630   6.901   3.747
 4604SOL    HW214712   6.674   6.795   3.862
 4605SOL     OW14713   3.940   0.824   1.555
 4605SOL    HW114714   3.841   0.829   1.546
 4605SOL    HW214715   3.974   0.741   1.511
 4606SOL     OW14716   6.824   6.727   5.153
 4606SOL    HW114717   6.919   6.719   5.184
 4606SOL    HW214718   6.822   6.725   5.053
 4607SOL     OW14719   1.960   1.719   0.616
 4607SOL    HW114720   1.911   1.632   0.611
 4607SOL    HW214721   1.901   1.792   0.581
 4608SOL     OW14722   7.003   2.934   4.573
 4608SOL    HW114723   6.930   2.905   4.511
 4608SOL    HW214724   0.014   2.854   4.620
 4609SOL     OW14725   4.979   5.596   6.849
 4609SOL    HW114726   4.974   5.554   6.759
 4609SOL    HW214727   4.946   5.531   6.918
 4610SOL     OW14728   5.208   4.933   0.530
 4610SOL    HW114729   5.270   4.870   0.577
 4610SOL    HW214730   5.117   4.893   0.526
 4611SOL     OW14731   6.998   1.106   6.318
 4611SOL    HW114732   0.051   1.141   6.369
 4611SOL    HW214733   7.021   1.099   6.221
 4612SOL     OW14734   2.279   1.354   2.141
 4612SOL    HW114735   2.255   1.441   2.184
 4612SOL    HW214736   2.230   1.345   2.054
 4613SOL     OW14737   1.436   4.818   1.564
 4613SOL    HW114738   1.494   4.762   1.505
 4613SOL    HW214739   1.377   4.759   1.619
 4614SOL     OW14740   6.670   4.701   3.716
 4614SOL    HW114741   6.766   4.726   3.726
 4614SOL    HW214742   6.635   4.665   3.802
 4615SOL     OW14743   1.700   4.161   6.432
 4615SOL    HW114744   1.648   4.162   6.347
 4615SOL    HW214745   1.781   4.220   6.423
 4616SOL     OW14746   1.014   3.504   6.081
 4616SOL    HW114747   0.961   3.547   6.008
 4616SOL    HW214748   0.956   3.441   6.132
 4617SOL     OW14749   0.019   2.776   3.591
 4617SOL    HW114750   0.022   2.681   3.558
 4617SOL    HW214751   0.087   2.830   3.542
 4618SOL     OW14752   1.939   3.647   5.744
 4618SOL    HW114753   1.929   3.670   5.841
 4618SOL    HW214754   1.867   3.582   5.718
 4619SOL     OW14755   4.616   6.047   6.040
 4619SOL    HW114756   4.647   6.053   5.946
 4619SOL    HW214757   4.680   6.096   6.100
 4620SOL     OW14758   0.626   4.815   1.629
 4620SOL    HW114759   0.612   4.843   1.534
 4620SOL    HW214760   0.590   4.723   1.642
 4621SOL     OW14761   3.194   0.321   2.993
 4621SOL    HW114762   3.120   0.347   2.932
 4621SOL    HW214763   3.261   0.265   2.943
 4622SOL     OW14764   5.295   7.006   0.413
 4622SOL    HW114765   5.329   7.015   0.507
 4622SOL    HW214766   5.220   0.044   0.398
 4623SOL     OW14767   3.232   4.890   2.412
 4623SOL    HW114768   3.279   4.943   2.341
 4623SOL    HW214769   3.299   4.852   2.475
 4624SOL     OW14770   4.655   1.712   1.650
 4624SOL    HW114771   4.707   1.778   1.704
 4624SOL    HW214772   4.666   1.620   1.689
 4625SOL     OW14773   1.475   5.840   1.615
 4625SOL    HW114774   1.478   5.749   1.574
 4625SOL    HW214775   1.457   5.908   1.543
 4626SOL     OW14776   4.090   3.219   1.820
 4626SOL    HW114777   4.175   3.192   1.775
 4626SOL    HW214778   4.036   3.138   1.841
 4627SOL     OW14779   5.646   6.885   4.880
 4627SOL    HW114780   5.703   6.950   4.829
 4627SOL    HW214781   5.561   6.930   4.908
 4628SOL     OW14782   5.475   4.570   3.264
 4628SOL    HW114783   5.524   4.485   3.280
 4628SOL    HW214784   5.521   4.621   3.191
 4629SOL     OW14785   1.712   5.500   7.013
 4629SOL    HW114786   1.750   5.429   0.045
 4629SOL    HW214787   1.636   5.545   0.033
 4630SOL     OW14788   1.855   3.644   1.564
 4630SOL    HW114789   1.859   3.650   1.464
 4630SOL    HW214790   1.832   3.550   1.590
 4631SOL     OW14791   6.744   1.000   2.790
 4631SOL    HW114792   6.824   0.939   2.788
 4631SOL    HW214793   6.663   0.948   2.818
 4632SOL     OW14794   2.917   5.222   3.052
 4632SOL    HW114795   2.991   5.161   3.080
 4632SOL    HW214796   2.839   5.168   3.021
 4633SOL     OW14797   4.894   2.533   4.653
 4633SOL    HW114798   4.819   2.472   4.630
 4633SOL    HW214799   4.869   2.587   4.734
 4634SOL     OW14800   4.122   3.360   4.835
 4634SOL    HW114801   4.048   3.300   4.807
 4634SOL    HW214802   4.204   3.340   4.780
 4635SOL     OW14803   4.593   5.615   2.298
 4635SOL    HW114804   4.596   5.703   2.346
 4635SOL    HW214805   4.615   5.542   2.362
 4636SOL     OW14806   1.730   5.302   6.816
 4636SOL    HW114807   1.738   5.372   6.888
 4636SOL    HW214808   1.821   5.270   6.791
 4637SOL     OW14809   2.646   1.981   3.481
 4637SOL    HW114810   2.683   1.920   3.551
 4637SOL    HW214811   2.598   1.928   3.411
 4638SOL     OW14812   4.173   4.716   0.420
 4638SOL    HW114813   4.240   4.702   0.494
 4638SOL    HW214814   4.126   4.630   0.401
 4639SOL     OW14815   3.812   2.007   1.895
 4639SOL    HW114816   3.760   1.922   1.879
 4639SOL    HW214817   3.753   2.073   1.941
 4640SOL     OW14818   6.239   3.371   0.408
 4640SOL    HW114819   6.269   3.397   0.499
 4640SOL    HW214820   6.279   3.434   0.341
 4641SOL     OW14821   1.646   5.516   4.518
 4641SOL    HW114822   1.664   5.570   4.599
 4641SOL    HW214823   1.694   5.428   4.524
 4642SOL     OW14824   6.547   1.193   5.128
 4642SOL    HW114825   6.525   1.254   5.052
 4642SOL    HW214826   6.503   1.228   5.211
 4643SOL     OW14827   0.594   1.514   0.089
 4643SOL    HW114828   0.620   1.423   0.059
 4643SOL    HW214829   0.494   1.521   0.092
 4644SOL     OW14830   1.461   0.394   0.126
 4644SOL    HW114831   1.528   0.325   0.152
 4644SOL    HW214832   1.378   0.383   0.181
 4645SOL     OW14833   6.392   1.725   5.064
 4645SOL    HW114834   6.392   1.723   5.164
 4645SOL    HW214835   6.419   1.816   5.032
 4646SOL     OW14836   2.038   4.301   3.365
 4646SOL    HW114837   2.001   4.221   3.412
 4646SOL    HW214838   2.108   4.344   3.422
 4647SOL     OW14839   1.703   6.228   1.884
 4647SOL    HW114840   1.759   6.147   1.903
 4647SOL    HW214841   1.755   6.310   1.907
 4648SOL     OW14842   3.168   0.952   4.832
 4648SOL    HW114843   3.247   0.911   4.878
 4648SOL    HW214844   3.086   0.938   4.887
 4649SOL     OW14845   6.066   1.813   0.547
 4649SOL    HW114846   6.031   1.725   0.516
 4649SOL    HW214847   6.166   1.813   0.544
 4650SOL     OW14848   4.592   5.957   1.053
 4650SOL    HW114849   4.673   6.003   1.090
 4650SOL    HW214850   4.616   5.863   1.027
 4651SOL     OW14851   0.121   4.096   6.085
 4651SOL    HW114852   0.050   4.050   6.032
 4651SOL    HW214853   0.129   4.191   6.054
 4652SOL     OW14854   6.907   0.012   5.610
 4652SOL    HW114855   6.977   0.052   5.669
 4652SOL    HW214856   6.952   6.995   5.531
 4653SOL     OW14857   7.012   5.734   1.159
 4653SOL    HW114858   6.919   5.755   1.127
 4653SOL    HW214859   7.017   5.639   1.188
 4654SOL     OW14860   0.734   0.402   5.973
 4654SOL    HW114861   0.709   0.440   5.884
 4654SOL    HW214862   0.655   0.406   6.034
 4655SOL     OW14863   5.556   3.666   2.444
 4655SOL    HW114864   5.651   3.666   2.474
 4655SOL    HW214865   5.529   3.572   2.420
 4656SOL     OW14866   6.869   1.255   2.065
 4656SOL    HW114867   6.876   1.350   2.096
 4656SOL    HW214868   6.875   1.194   2.144
 4657SOL     OW14869   3.550   1.416   2.925
 4657SOL    HW114870   3.570   1.510   2.950
 4657SOL    HW214871   3.635   1.368   2.903
 4658SOL     OW14872   1.342   2.026   6.631
 4658SOL    HW114873   1.420   2.071   6.587
 4658SOL    HW214874   1.371   1.983   6.716
 4659SOL     OW14875   2.155   4.454   0.556
 4659SOL    HW114876   2.207   4.373   0.582
 4659SOL    HW214877   2.159   4.521   0.630
 4660SOL     OW14878   0.871   5.366   3.962
 4660SOL    HW114879   0.819   5.345   3.879
 4660SOL    HW214880   0.882   5.465   3.970
 4661SOL     OW14881   0.799   1.400   5.784
 4661SOL    HW114882   0.700   1.395   5.793
 4661SOL    HW214883   0.824   1.477   5.726
 4662SOL     OW14884   2.403   6.905   5.844
 4662SOL    HW114885   2.414   7.001   5.870
 4662SOL    HW214886   2.307   6.886   5.827
 4663SOL     OW14887   1.340   7.000   0.531
 4663SOL    HW114888   1.411   6.949   0.579
 4663SOL    HW214889   1.294   0.035   0.595
 4664SOL     OW14890   5.945   0.025   5.706
 4664SOL    HW114891   5.853   0.061   5.726
 4664SOL    HW214892   5.937   6.970   5.649
 4665SOL     OW14893   0.503   0.491   3.339
 4665SOL    HW114894   0.583   0.550   3.328
 4665SOL    HW214895   0.519   0.426   3.413
 4666SOL     OW14896   1.733   2.182   5.918
 4666SOL    HW114897   1.771   2.253   5.858
 4666SOL    HW214898   1.783   2.182   6.005
 4667SOL     OW14899   0.033   3.371   0.583
 4667SOL    HW114900   0.007   3.276   0.564
 4667SOL    HW214901   6.990   3.433   0.547
 4668SOL     OW14902   5.131   2.198   4.482
 4668SOL    HW114903   5.206   2.254   4.446
 4668SOL    HW214904   5.045   2.249   4.474
 4669SOL     OW14905   5.286   6.970   6.366
 4669SOL    HW114906   5.322   7.020   6.287
 4669SOL    HW214907   5.273   0.006   6.443
 4670SOL     OW14908   0.186   3.607   6.603
 4670SOL    HW114909   0.236   3.524   6.577
 4670SOL    HW214910   0.120   3.630   6.532
 4671SOL     OW14911   7.023   3.078   2.154
 4671SOL    HW114912   0.003   2.981   2.174
 4671SOL    HW214913   7.006   3.129   2.238
 4672SOL     OW14914   3.121   3.879   0.169
 4672SOL    HW114915   3.159   3.838   0.252
 4672SOL    HW214916   3.024   3.856   0.161
 4673SOL     OW14917   5.849   0.845   0.686
 4673SOL    HW114918   5.843   0.925   0.746
 4673SOL    HW214919   5.939   0.803   0.694
 4674SOL     OW14920   0.984   3.134   0.948
 4674SOL    HW114921   1.084   3.141   0.945
 4674SOL    HW214922   0.946   3.169   0.863
 4675SOL     OW14923   2.039   5.435   6.887
 4675SOL    HW114924   2.064   5.349   6.844
 4675SOL    HW214925   2.023   5.420   6.985
 4676SOL     OW14926   0.696   6.362   4.368
 4676SOL    HW114927   0.613   6.324   4.327
 4676SOL    HW214928   0.773   6.301   4.352
 4677SOL     OW14929   3.984   6.893   0.062
 4677SOL    HW114930   3.911   6.853   0.118
 4677SOL    HW214931   4.060   6.829   0.057
 4678SOL     OW14932   1.894   4.248   0.310
 4678SOL    HW114933   1.847   4.175   0.261
 4678SOL    HW214934   1.978   4.273   0.261
 4679SOL     OW14935   2.558   6.678   5.794
 4679SOL    HW114936   2.516   6.768   5.808
 4679SOL    HW214937   2.492   6.606   5.814
 4680SOL     OW14938   1.543   4.716   6.899
 4680SOL    HW114939   1.491   4.758   6.973
 4680SOL    HW214940   1.597   4.640   6.935
 4681SOL     OW14941   6.678   5.918   4.282
 4681SOL    HW114942   6.742   5.861   4.333
 4681SOL    HW214943   6.687   5.898   4.184
 4682SOL     OW14944   3.159   6.145   0.693
 4682SOL    HW114945   3.221   6.070   0.673
 4682SOL    HW214946   3.072   6.130   0.645
 4683SOL     OW14947   0.082   4.777   3.314
 4683SOL    HW114948   0.109   4.701   3.373
 4683SOL    HW214949   7.010   4.791   3.320
 4684SOL     OW14950   1.751   1.370   5.229
 4684SOL    HW114951   1.737   1.338   5.323
 4684SOL    HW214952   1.673   1.344   5.172
 4685SOL     OW14953   4.959   4.519   5.382
 4685SOL    HW114954   4.969   4.616   5.359
 4685SOL    HW214955   5.047   4.473   5.371
 4686SOL     OW14956   5.320   6.170   0.118
 4686SOL    HW114957   5.404   6.177   0.171
 4686SOL    HW214958   5.273   6.085   0.141
 4687SOL     OW14959   5.295   6.527   4.248
 4687SOL    HW114960   5.342   6.440   4.265
 4687SOL    HW214961   5.228   6.544   4.321
 4688SOL     OW14962   0.788   1.889   0.448
 4688SOL    HW114963   0.881   1.893   0.484
 4688SOL    HW214964   0.780   1.812   0.385
 4689SOL     OW14965   1.909   5.010   4.481
 4689SOL    HW114966   2.003   5.045   4.477
 4689SOL    HW214967   1.883   4.997   4.577
 4690SOL     OW14968   1.794   1.170   0.589
 4690SOL    HW114969   1.770   1.203   0.680
 4690SOL    HW214970   1.843   1.084   0.597
 4691SOL     OW14971   3.734   4.657   0.058
 4691SOL    HW114972   3.719   4.664   0.157
 4691SOL    HW214973   3.755   4.748   0.021
 4692SOL     OW14974   0.655   5.990   3.177
 4692SOL    HW114975   0.609   5.912   3.220
 4692SOL    HW214976   0.632   5.993   3.080
 4693SOL     OW14977   0.866   0.879   3.732
 4693SOL    HW114978   0.901   0.787   3.750
 4693SOL    HW214979   0.798   0.875   3.659
 4694SOL     OW14980   1.061   1.069   5.905
 4694SOL    HW114981   1.009   1.012   5.968
 4694SOL    HW214982   1.014   1.155   5.890
 4695SOL     OW14983   3.067   3.006   1.926
 4695SOL    HW114984   3.144   2.943   1.941
 4695SOL    HW214985   3.026   2.987   1.837
 4696SOL     OW14986   5.906   3.830   0.275
 4696SOL    HW114987   5.811   3.853   0.255
 4696SOL    HW214988   5.914   3.803   0.371
 4697SOL     OW14989   1.362   5.386   6.586
 4697SOL    HW114990   1.378   5.393   6.684
 4697SOL    HW214991   1.372   5.291   6.557
 4698SOL     OW14992   6.098   3.624   2.345
 4698SOL    HW114993   6.124   3.697   2.409
 4698SOL    HW214994   6.041   3.557   2.392
 4699SOL     OW14995   6.675   6.985   2.874
 4699SOL    HW114996   6.714   6.896   2.897
 4699SOL    HW214997   6.620   6.977   2.791
 4700SOL     OW14998   5.337   6.834   6.965
 4700SOL    HW114999   5.318   6.859   0.033
 4700SOL    HW215000   5.410   6.766   6.962
 4701SOL     OW15001   0.831   0.917   0.183
 4701SOL    HW115002   0.890   0.998   0.187
 4701SOL    HW215003   0.743   0.941   0.143
 4702SOL     OW15004   2.617   3.372   6.990
 4702SOL    HW115005   2.663   3.387   0.051
 4702SOL    HW215006   2.648   3.439   6.923
 4703SOL     OW15007   1.574   0.917   1.501
 4703SOL    HW115008   1.641   0.888   1.569
 4703SOL    HW215009   1.572   0.851   1.426
 4704SOL     OW15010   4.620   6.922   0.182
 4704SOL    HW115011   4.575   7.003   0.219
 4704SOL    HW215012   4.697   6.896   0.240
 4705SOL     OW15013   3.321   4.122   4.112
 4705SOL    HW115014   3.398   4.142   4.051
 4705SOL    HW215015   3.337   4.164   4.201
 4706SOL     OW15016   4.821   4.852   0.778
 4706SOL    HW115017   4.871   4.816   0.857
 4706SOL    HW215018   4.800   4.948   0.793
 4707SOL     OW15019   3.392   6.162   1.393
 4707SOL    HW115020   3.343   6.176   1.307
 4707SOL    HW215021   3.333   6.113   1.458
 4708SOL     OW15022   1.771   2.831   2.995
 4708SOL    HW115023   1.726   2.840   2.906
 4708SOL    HW215024   1.734   2.898   3.059
 4709SOL     OW15025   2.624   3.847   0.294
 4709SOL    HW115026   2.534   3.806   0.279
 4709SOL    HW215027   2.613   3.944   0.314
 4710SOL     OW15028   5.084   2.742   1.366
 4710SOL    HW115029   5.062   2.760   1.462
 4710SOL    HW215030   5.049   2.651   1.341
 4711SOL     OW15031   2.820   6.630   2.934
 4711SOL    HW115032   2.873   6.559   2.887
 4711SOL    HW215033   2.819   6.713   2.879
 4712SOL     OW15034   1.622   4.360   6.897
 4712SOL    HW115035   1.543   4.340   6.839
 4712SOL    HW215036   1.591   4.395   6.985
 4713SOL     OW15037   2.223   5.664   1.383
 4713SOL    HW115038   2.135   5.616   1.382
 4713SOL    HW215039   2.297   5.597   1.382
 4714SOL     OW15040   2.932   2.048   0.786
 4714SOL    HW115041   2.919   2.147   0.778
 4714SOL    HW215042   2.927   2.006   0.696
 4715SOL     OW15043   5.118   4.192   4.908
 4715SOL    HW115044   5.047   4.240   4.960
 4715SOL    HW215045   5.115   4.095   4.929
 4716SOL     OW15046   2.683   5.183   0.651
 4716SOL    HW115047   2.689   5.273   0.695
 4716SOL    HW215048   2.723   5.188   0.560
 4717SOL     OW15049   1.633   5.676   3.998
 4717SOL    HW115050   1.711   5.614   4.004
 4717SOL    HW215051   1.665   5.771   4.008
 4718SOL     OW15052   5.410   0.945   6.404
 4718SOL    HW115053   5.458   1.031   6.389
 4718SOL    HW215054   5.458   0.871   6.355
 4719SOL     OW15055   4.681   3.154   1.648
 4719SOL    HW115056   4.654   3.099   1.727
 4719SOL    HW215057   4.640   3.245   1.655
 4720SOL     OW15058   2.955   0.941   3.917
 4720SOL    HW115059   3.044   0.960   3.957
 4720SOL    HW215060   2.890   1.012   3.944
 4721SOL     OW15061   1.289   1.772   0.890
 4721SOL    HW115062   1.383   1.793   0.866
 4721SOL    HW215063   1.279   1.774   0.990
 4722SOL     OW15064   3.382   0.571   2.452
 4722SOL    HW115065   3.469   0.542   2.490
 4722SOL    HW215066   3.308   0.521   2.497
 4723SOL     OW15067   2.727   0.086   5.953
 4723SOL    HW115068   2.782   0.022   5.899
 4723SOL    HW215069   2.633   0.087   5.919
 4724SOL     OW15070   4.013   5.043   1.475
 4724SOL    HW115071   4.067   4.988   1.538
 4724SOL    HW215072   4.062   5.128   1.454
 4725SOL     OW15073   5.520   5.045   3.193
 4725SOL    HW115074   5.582   4.985   3.245
 4725SOL    HW215075   5.552   5.052   3.099
 4726SOL     OW15076   0.378   5.923   5.279
 4726SOL    HW115077   0.368   5.920   5.379
 4726SOL    HW215078   0.456   5.868   5.252
 4727SOL     OW15079   6.023   6.384   1.193
 4727SOL    HW115080   5.948   6.343   1.244
 4727SOL    HW215081   6.086   6.312   1.162
 4728SOL     OW15082   0.314   0.624   0.028
 4728SOL    HW115083   0.256   0.550   7.023
 4728SOL    HW215084   0.380   0.649   6.983
 4729SOL     OW15085   2.911   0.377   0.524
 4729SOL    HW115086   2.918   0.415   0.616
 4729SOL    HW215087   2.870   0.444   0.463
 4730SOL     OW15088   1.893   0.609   5.171
 4730SOL    HW115089   1.955   0.684   5.151
 4730SOL    HW215090   1.914   0.532   5.111
 4731SOL     OW15091   5.566   1.786   6.996
 4731SOL    HW115092   5.474   1.789   6.957
 4731SOL    HW215093   5.569   1.715   0.041
 4732SOL     OW15094   0.114   1.519   0.227
 4732SOL    HW115095   0.185   1.578   0.187
 4732SOL    HW215096   0.149   1.477   0.311
 4733SOL     OW15097   6.731   3.406   4.137
 4733SOL    HW115098   6.714   3.498   4.100
 4733SOL    HW215099   6.807   3.364   4.088
 4734SOL     OW15100   4.640   4.468   6.150
 4734SOL    HW115101   4.712   4.405   6.122
 4734SOL    HW215102   4.655   4.557   6.106
 4735SOL     OW15103   0.206   4.586   3.455
 4735SOL    HW115104   0.211   4.659   3.522
 4735SOL    HW215105   0.292   4.534   3.455
 4736SOL     OW15106   2.287   6.995   1.366
 4736SOL    HW115107   2.318   7.021   1.275
 4736SOL    HW215108   2.342   6.918   1.399
 4737SOL     OW15109   3.389   5.277   1.730
 4737SOL    HW115110   3.365   5.191   1.775
 4737SOL    HW215111   3.442   5.258   1.648
 4738SOL     OW15112   6.755   6.232   3.007
 4738SOL    HW115113   6.694   6.177   2.950
 4738SOL    HW215114   6.818   6.172   3.057
 4739SOL     OW15115   4.278   7.017   1.127
 4739SOL    HW115116   4.284   7.016   1.227
 4739SOL    HW215117   4.336   0.063   1.090
 4740SOL     OW15118   0.518   2.212   3.655
 4740SOL    HW115119   0.567   2.185   3.738
 4740SOL    HW215120   0.572   2.188   3.574
 4741SOL     OW15121   3.612   3.484   1.078
 4741SOL    HW115122   3.704   3.495   1.040
 4741SOL    HW215123   3.617   3.432   1.163
 4742SOL     OW15124   4.135   1.056   0.533
 4742SOL    HW115125   4.180   1.037   0.620
 4742SOL    HW215126   4.159   0.985   0.467
 4743SOL     OW15127   1.780   5.982   0.587
 4743SOL    HW115128   1.759   5.909   0.522
 4743SOL    HW215129   1.877   6.005   0.582
 4744SOL     OW15130   1.742   5.377   1.485
 4744SOL    HW115131   1.767   5.315   1.560
 4744SOL    HW215132   1.766   5.335   1.398
 4745SOL     OW15133   1.642   3.397   6.953
 4745SOL    HW115134   1.604   3.306   6.935
 4745SOL    HW215135   1.733   3.404   6.912
 4746SOL     OW15136   5.107   5.680   4.002
 4746SOL    HW115137   5.039   5.701   3.932
 4746SOL    HW215138   5.061   5.668   4.090
 4747SOL     OW15139   2.841   0.756   6.158
 4747SOL    HW115140   2.912   0.686   6.146
 4747SOL    HW215141   2.837   0.783   6.254
 4748SOL     OW15142   2.024   6.745   1.615
 4748SOL    HW115143   2.034   6.700   1.526
 4748SOL    HW215144   1.962   6.824   1.605
 4749SOL     OW15145   2.242   1.896   0.892
 4749SOL    HW115146   2.288   1.959   0.953
 4749SOL    HW215147   2.193   1.827   0.945
 4750SOL     OW15148   4.587   3.284   5.797
 4750SOL    HW115149   4.521   3.210   5.783
 4750SOL    HW215150   4.602   3.298   5.895
 4751SOL     OW15151   4.966   1.617   3.432
 4751SOL    HW115152   4.895   1.613   3.502
 4751SOL    HW215153   4.958   1.704   3.382
 4752SOL     OW15154   5.627   1.366   6.650
 4752SOL    HW115155   5.690   1.292   6.674
 4752SOL    HW215156   5.653   1.449   6.700
 4753SOL     OW15157   3.331   6.633   4.730
 4753SOL    HW115158   3.343   6.687   4.647
 4753SOL    HW215159   3.257   6.671   4.785
 4754SOL     OW15160   4.683   4.720   6.642
 4754SOL    HW115161   4.714   4.630   6.672
 4754SOL    HW215162   4.605   4.710   6.581
 4755SOL     OW15163   0.545   1.307   1.116
 4755SOL    HW115164   0.486   1.238   1.074
 4755SOL    HW215165   0.561   1.283   1.212
 4756SOL     OW15166   6.797   3.842   5.720
 4756SOL    HW115167   6.888   3.846   5.761
 4756SOL    HW215168   6.734   3.899   5.772
 4757SOL     OW15169   2.081   3.526   6.972
 4757SOL    HW115170   2.142   3.604   6.959
 4757SOL    HW215171   2.132   3.441   6.955
 4758SOL     OW15172   2.350   5.641   3.444
 4758SOL    HW115173   2.297   5.567   3.486
 4758SOL    HW215174   2.445   5.612   3.433
 4759SOL     OW15175   0.501   6.747   1.813
 4759SOL    HW115176   0.502   6.847   1.806
 4759SOL    HW215177   0.594   6.714   1.827
 4760SOL     OW15178   2.028   5.588   0.859
 4760SOL    HW115179   1.977   5.671   0.838
 4760SOL    HW215180   2.017   5.522   0.785
 4761SOL     OW15181   5.117   6.948   1.902
 4761SOL    HW115182   5.165   7.018   1.954
 4761SOL    HW215183   5.143   6.954   1.805
 4762SOL     OW15184   1.314   0.071   2.478
 4762SOL    HW115185   1.243   0.141   2.483
 4762SOL    HW215186   1.401   0.110   2.510
 4763SOL     OW15187   5.889   5.597   2.234
 4763SOL    HW115188   5.833   5.675   2.264
 4763SOL    HW215189   5.897   5.598   2.135
 4764SOL     OW15190   4.759   3.173   0.243
 4764SOL    HW115191   4.694   3.103   0.272
 4764SOL    HW215192   4.833   3.179   0.310
 4765SOL     OW15193   4.284   1.801   6.091
 4765SOL    HW115194   4.266   1.708   6.057
 4765SOL    HW215195   4.374   1.831   6.060
 4766SOL     OW15196   1.289   0.951   4.557
 4766SOL    HW115197   1.202   0.976   4.600
 4766SOL    HW215198   1.316   0.860   4.588
 4767SOL     OW15199   1.946   4.663   3.577
 4767SOL    HW115200   2.024   4.679   3.515
 4767SOL    HW215201   1.911   4.751   3.609
 4768SOL     OW15202   4.742   2.227   6.376
 4768SOL    HW115203   4.767   2.321   6.356
 4768SOL    HW215204   4.644   2.220   6.392
 4769SOL     OW15205   1.414   3.243   0.717
 4769SOL    HW115206   1.365   3.299   0.650
 4769SOL    HW215207   1.425   3.150   0.681
 4770SOL     OW15208   0.030   1.487   3.584
 4770SOL    HW115209   0.048   1.428   3.506
 4770SOL    HW215210   7.010   1.570   3.553
 4771SOL     OW15211   1.753   0.071   4.232
 4771SOL    HW115212   1.725   0.166   4.242
 4771SOL    HW215213   1.852   0.064   4.244
 4772SOL     OW15214   2.641   5.446   2.746
 4772SOL    HW115215   2.722   5.398   2.713
 4772SOL    HW215216   2.648   5.543   2.722
 4773SOL     OW15217   2.904   5.202   4.919
 4773SOL    HW115218   2.969   5.234   4.851
 4773SOL    HW215219   2.915   5.255   5.003
 4774SOL     OW15220   0.877   4.130   0.927
 4774SOL    HW115221   0.971   4.162   0.934
 4774SOL    HW215222   0.835   4.166   0.844
 4775SOL     OW15223   6.130   5.455   4.880
 4775SOL    HW115224   6.131   5.469   4.979
 4775SOL    HW215225   6.221   5.470   4.843
 4776SOL     OW15226   0.368   1.609   5.218
 4776SOL    HW115227   0.334   1.669   5.147
 4776SOL    HW215228   0.350   1.514   5.193
 4777SOL     OW15229   1.494   6.734   3.379
 4777SOL    HW115230   1.432   6.736   3.301
 4777SOL    HW215231   1.467   6.804   3.445
 4778SOL     OW15232   1.715   0.764   0.055
 4778SOL    HW115233   1.741   0.716   6.997
 4778SOL    HW215234   1.638   0.826   0.035
 4779SOL     OW15235   5.102   0.712   5.029
 4779SOL    HW115236   5.112   0.754   4.940
 4779SOL    HW215237   5.109   0.612   5.020
 4780SOL     OW15238   4.795   2.802   4.363
 4780SOL    HW115239   4.770   2.788   4.459
 4780SOL    HW215240   4.794   2.899   4.342
 4781SOL     OW15241   1.047   5.150   2.074
 4781SOL    HW115242   1.000   5.199   2.001
 4781SOL    HW215243   1.131   5.109   2.039
 4782SOL     OW15244   0.012   6.319   4.263
 4782SOL    HW115245   0.098   6.355   4.228
 4782SOL    HW215246   7.006   6.246   4.203
 4783SOL     OW15247   7.001   3.694   6.451
 4783SOL    HW115248   6.919   3.747   6.476
 4783SOL    HW215249   0.030   3.747   6.388
 4784SOL     OW15250   5.331   3.551   0.102
 4784SOL    HW115251   5.393   3.495   0.047
 4784SOL    HW215252   5.240   3.549   0.060
 4785SOL     OW15253   0.706   0.397   3.889
 4785SOL    HW115254   0.805   0.404   3.904
 4785SOL    HW215255   0.672   0.483   3.851
 4786SOL     OW15256   0.674   5.766   0.121
 4786SOL    HW115257   0.703   5.801   0.210
 4786SOL    HW215258   0.661   5.667   0.127
 4787SOL     OW15259   4.735   1.093   4.671
 4787SOL    HW115260   4.683   1.075   4.587
 4787SOL    HW215261   4.827   1.055   4.662
 4788SOL     OW15262   0.200   6.428   0.744
 4788SOL    HW115263   0.265   6.352   0.744
 4788SOL    HW215264   0.235   6.501   0.803
 4789SOL     OW15265   6.325   1.283   2.762
 4789SOL    HW115266   6.315   1.214   2.691
 4789SOL    HW215267   6.375   1.245   2.839
 4790SOL     OW15268   6.983   2.005   4.502
 4790SOL    HW115269   0.032   2.065   4.529
 4790SOL    HW215270   6.918   2.057   4.446
 4791SOL     OW15271   0.671   0.297   6.907
 4791SOL    HW115272   0.698   0.279   7.001
 4791SOL    HW215273   0.714   0.231   6.846
 4792SOL     OW15274   1.769   3.612   2.054
 4792SOL    HW115275   1.825   3.561   2.119
 4792SOL    HW215276   1.825   3.683   2.011
 4793SOL     OW15277   1.170   4.385   5.541
 4793SOL    HW115278   1.142   4.348   5.629
 4793SOL    HW215279   1.106   4.456   5.512
 4794SOL     OW15280   4.791   1.851   5.078
 4794SOL    HW115281   4.862   1.800   5.127
 4794SOL    HW215282   4.755   1.795   5.004
 4795SOL     OW15283   6.590   1.376   6.175
 4795SOL    HW115284   6.681   1.398   6.209
 4795SOL    HW215285   6.535   1.459   6.167
 4796SOL     OW15286   4.669   1.351   4.722
 4796SOL    HW115287   4.666   1.365   4.821
 4796SOL    HW215288   4.702   1.258   4.702
 4797SOL     OW15289   2.145   4.914   6.363
 4797SOL    HW115290   2.106   5.002   6.336
 4797SOL    HW215291   2.192   4.925   6.451
 4798SOL     OW15292   3.738   5.729   0.457
 4798SOL    HW115293   3.684   5.759   0.378
 4798SOL    HW215294   3.834   5.755   0.444
 4799SOL     OW15295   4.195   2.755   0.302
 4799SOL    HW115296   4.288   2.754   0.267
 4799SOL    HW215297   4.195   2.789   0.397
 4800SOL     OW15298   0.880   4.586   7.016
 4800SOL    HW115299   0.883   4.606   0.088
 4800SOL    HW215300   0.835   4.498   7.001
 4801SOL     OW15301   5.398   1.907   2.808
 4801SOL    HW115302   5.492   1.881   2.830
 4801SOL    HW215303   5.350   1.933   2.892
 4802SOL     OW15304   6.720   0.254   4.584
 4802SOL    HW115305   6.641   0.296   4.540
 4802SOL    HW215306   6.756   0.315   4.654
 4803SOL     OW15307   4.826   4.134   5.603
 4803SOL    HW115308   4.743   4.183   5.629
 4803SOL    HW215309   4.885   4.124   5.683
 4804SOL     OW15310   4.982   2.169   0.764
 4804SOL    HW115311   4.956   2.079   0.798
 4804SOL    HW215312   4.915   2.200   0.696
 4805SOL     OW15313   5.820   1.310   0.185
 4805SOL    HW115314   5.785   1.298   0.278
 4805SOL    HW215315   5.744   1.302   0.120
 4806SOL     OW15316   1.223   1.641   3.132
 4806SOL    HW115317   1.209   1.544   3.152
 4806SOL    HW215318   1.215   1.656   3.034
 4807SOL     OW15319   6.562   4.141   6.344
 4807SOL    HW115320   6.630   4.130   6.417
 4807SOL    HW215321   6.472   4.112   6.377
 4808SOL     OW15322   3.737   5.751   2.258
 4808SOL    HW115323   3.772   5.667   2.217
 4808SOL    HW215324   3.654   5.779   2.209
 4809SOL     OW15325   3.188   3.613   1.395
 4809SOL    HW115326   3.223   3.662   1.474
 4809SOL    HW215327   3.128   3.538   1.425
 4810SOL     OW15328   1.858   5.348   4.133
 4810SOL    HW115329   1.881   5.441   4.163
 4810SOL    HW215330   1.762   5.330   4.154
 4811SOL     OW15331   3.483   3.507   4.491
 4811SOL    HW115332   3.473   3.408   4.485
 4811SOL    HW215333   3.408   3.551   4.442
 4812SOL     OW15334   1.776   6.379   2.983
 4812SOL    HW115335   1.777   6.396   3.081
 4812SOL    HW215336   1.854   6.423   2.940
 4813SOL     OW15337   0.646   2.425   5.095
 4813SOL    HW115338   0.680   2.336   5.124
 4813SOL    HW215339   0.550   2.434   5.121
 4814SOL     OW15340   6.620   3.146   0.770
 4814SOL    HW115341   6.619   3.186   0.678
 4814SOL    HW215342   6.607   3.047   0.764
 4815SOL     OW15343   6.159   4.639   1.946
 4815SOL    HW115344   6.156   4.556   1.890
 4815SOL    HW215345   6.154   4.720   1.886
 4816SOL     OW15346   3.080   0.729   2.801
 4816SOL    HW115347   3.109   0.824   2.789
 4816SOL    HW215348   3.159   0.669   2.793
 4817SOL     OW15349   4.486   2.238   1.176
 4817SOL    HW115350   4.418   2.285   1.120
 4817SOL    HW215351   4.441   2.163   1.226
 4818SOL     OW15352   4.203   6.935   4.221
 4818SOL    HW115353   4.234   6.993   4.296
 4818SOL    HW215354   4.114   6.967   4.189
 4819SOL     OW15355   2.822   0.747   0.726
 4819SOL    HW115356   2.756   0.791   0.665
 4819SOL    HW215357   2.829   0.799   0.811
 4820SOL     OW15358   6.426   4.301   1.696
 4820SOL    HW115359   6.357   4.353   1.747
 4820SOL    HW215360   6.382   4.259   1.616
 4821SOL     OW15361   0.166   5.856   1.717
 4821SOL    HW115362   0.117   5.942   1.704
 4821SOL    HW215363   0.108   5.780   1.688
 4822SOL     OW15364   0.731   4.169   1.883
 4822SOL    HW115365   0.745   4.157   1.785
 4822SOL    HW215366   0.800   4.117   1.933
 4823SOL     OW15367   0.744   1.424   3.541
 4823SOL    HW115368   0.837   1.407   3.574
 4823SOL    HW215369   0.749   1.475   3.455
 4824SOL     OW15370   6.029   2.806   1.804
 4824SOL    HW115371   5.952   2.860   1.838
 4824SOL    HW215372   6.001   2.710   1.794
 4825SOL     OW15373   0.388   3.090   4.146
 4825SOL    HW115374   0.338   3.026   4.087
 4825SOL    HW215375   0.365   3.184   4.120
 4826SOL     OW15376   7.026   6.422   7.017
 4826SOL    HW115377   0.047   6.462   6.939
 4826SOL    HW215378   6.934   6.460   7.023
 4827SOL     OW15379   5.134   1.551   0.187
 4827SOL    HW115380   5.137   1.637   0.135
 4827SOL    HW215381   5.140   1.474   0.124
 4828SOL     OW15382   5.282   3.924   6.517
 4828SOL    HW115383   5.264   3.904   6.614
 4828SOL    HW215384   5.195   3.929   6.468
 4829SOL     OW15385   3.860   0.375   4.983
 4829SOL    HW115386   3.784   0.385   5.048
 4829SOL    HW215387   3.910   0.461   4.978
 4830SOL     OW15388   4.743   5.648   5.388
 4830SOL    HW115389   4.673   5.610   5.327
 4830SOL    HW215390   4.702   5.720   5.444
 4831SOL     OW15391   5.910   3.443   6.815
 4831SOL    HW115392   5.880   3.397   6.898
 4831SOL    HW215393   5.980   3.510   6.838
 4832SOL     OW15394   1.964   2.638   6.134
 4832SOL    HW115395   1.905   2.689   6.071
 4832SOL    HW215396   1.999   2.556   6.088
 4833SOL     OW15397   6.167   1.706   3.304
 4833SOL    HW115398   6.209   1.723   3.215
 4833SOL    HW215399   6.238   1.703   3.374
 4834SOL     OW15400   5.840   0.399   3.414
 4834SOL    HW115401   5.817   0.496   3.405
 4834SOL    HW215402   5.937   0.390   3.437
 4835SOL     OW15403   1.314   1.001   5.936
 4835SOL    HW115404   1.217   1.025   5.927
 4835SOL    HW215405   1.336   0.989   6.033
 4836SOL     OW15406   5.874   2.978   2.130
 4836SOL    HW115407   5.782   3.008   2.155
 4836SOL    HW215408   5.877   2.957   2.033
 4837SOL     OW15409   0.530   4.125   1.037
 4837SOL    HW115410   0.558   4.208   0.989
 4837SOL    HW215411   0.557   4.132   1.133
 4838SOL     OW15412   3.104   5.119   2.218
 4838SOL    HW115413   3.106   5.025   2.184
 4838SOL    HW215414   3.052   5.122   2.303
 4839SOL     OW15415   0.787   0.115   6.700
 4839SOL    HW115416   0.871   0.118   6.645
 4839SOL    HW215417   0.709   0.097   6.640
 4840SOL     OW15418   6.247   6.576   6.183
 4840SOL    HW115419   6.269   6.508   6.253
 4840SOL    HW215420   6.289   6.663   6.208
 4841SOL     OW15421   2.084   5.368   1.877
 4841SOL    HW115422   2.089   5.440   1.945
 4841SOL    HW215423   2.070   5.408   1.786
 4842SOL     OW15424   3.317   6.398   1.528
 4842SOL    HW115425   3.303   6.477   1.467
 4842SOL    HW215426   3.346   6.319   1.474
 4843SOL     OW15427   1.244   2.880   6.672
 4843SOL    HW115428   1.303   2.800   6.661
 4843SOL    HW215429   1.267   2.948   6.602
 4844SOL     OW15430   0.352   1.567   5.489
 4844SOL    HW115431   0.365   1.608   5.398
 4844SOL    HW215432   0.416   1.491   5.501
 4845SOL     OW15433   5.594   5.476   3.718
 4845SOL    HW115434   5.670   5.527   3.757
 4845SOL    HW215435   5.569   5.401   3.779
 4846SOL     OW15436   0.342   5.215   6.769
 4846SOL    HW115437   0.398   5.297   6.759
 4846SOL    HW215438   0.288   5.221   6.853
 4847SOL     OW15439   5.085   2.729   4.821
 4847SOL    HW115440   5.137   2.745   4.905
 4847SOL    HW215441   5.129   2.656   4.769
 4848SOL     OW15442   2.394   2.044   1.677
 4848SOL    HW115443   2.409   2.080   1.769
 4848SOL    HW215444   2.450   2.097   1.612
 4849SOL     OW15445   1.555   6.304   5.714
 4849SOL    HW115446   1.547   6.365   5.635
 4849SOL    HW215447   1.510   6.217   5.693
 4850SOL     OW15448   3.967   6.896   3.368
 4850SOL    HW115449   4.050   6.879   3.314
 4850SOL    HW215450   3.894   6.929   3.308
 4851SOL     OW15451   5.077   1.182   5.208
 4851SOL    HW115452   4.985   1.193   5.244
 4851SOL    HW215453   5.109   1.089   5.227
 4852SOL     OW15454   1.261   1.770   1.932
 4852SOL    HW115455   1.247   1.785   2.030
 4852SOL    HW215456   1.243   1.855   1.883
 4853SOL     OW15457   3.521   2.001   1.592
 4853SOL    HW115458   3.507   2.100   1.597
 4853SOL    HW215459   3.593   1.982   1.525
 4854SOL     OW15460   3.477   6.877   6.879
 4854SOL    HW115461   3.532   6.947   6.924
 4854SOL    HW215462   3.386   6.874   6.920
 4855SOL     OW15463   6.610   3.303   2.731
 4855SOL    HW115464   6.564   3.373   2.677
 4855SOL    HW215465   6.708   3.321   2.734
 4856SOL     OW15466   1.855   4.191   2.923
 4856SOL    HW115467   1.767   4.160   2.960
 4856SOL    HW215468   1.888   4.269   2.975
 4857SOL     OW15469   0.219   1.264   5.893
 4857SOL    HW115470   0.284   1.274   5.968
 4857SOL    HW215471   0.164   1.347   5.886
 4858SOL     OW15472   1.483   0.659   3.700
 4858SOL    HW115473   1.383   0.659   3.688
 4858SOL    HW215474   1.526   0.699   3.619
 4859SOL     OW15475   3.544   5.678   6.350
 4859SOL    HW115476   3.562   5.583   6.375
 4859SOL    HW215477   3.453   5.704   6.383
 4860SOL     OW15478   4.100   3.888   0.773
 4860SOL    HW115479   4.146   3.845   0.851
 4860SOL    HW215480   4.121   3.836   0.690
 4861SOL     OW15481   5.045   3.920   6.401
 4861SOL    HW115482   4.990   4.003   6.394
 4861SOL    HW215483   4.991   3.841   6.371
 4862SOL     OW15484   0.675   6.378   1.044
 4862SOL    HW115485   0.602   6.420   1.099
 4862SOL    HW215486   0.650   6.383   0.947
 4863SOL     OW15487   5.110   4.491   6.464
 4863SOL    HW115488   5.134   4.434   6.385
 4863SOL    HW215489   5.097   4.433   6.544
 4864SOL     OW15490   3.084   1.276   4.012
 4864SOL    HW115491   3.117   1.182   4.020
 4864SOL    HW215492   3.162   1.339   4.023
 4865SOL     OW15493   1.555   6.743   5.301
 4865SOL    HW115494   1.472   6.720   5.352
 4865SOL    HW215495   1.546   6.834   5.260
 4866SOL     OW15496   6.579   3.973   6.635
 4866SOL    HW115497   6.554   4.041   6.704
 4866SOL    HW215498   6.510   3.900   6.634
 4867SOL     OW15499   4.773   0.884   2.866
 4867SOL    HW115500   4.754   0.840   2.954
 4867SOL    HW215501   4.734   0.830   2.792
 4868SOL     OW15502   6.729   4.368   0.565
 4868SOL    HW115503   6.769   4.336   0.650
 4868SOL    HW215504   6.681   4.292   0.520
 4869SOL     OW15505   0.399   1.435   0.857
 4869SOL    HW115506   0.376   1.338   0.871
 4869SOL    HW215507   0.411   1.480   0.945
 4870SOL     OW15508   0.411   6.593   1.585
 4870SOL    HW115509   0.439   6.631   1.673
 4870SOL    HW215510   0.490   6.586   1.525
 4871SOL     OW15511   1.283   1.368   3.603
 4871SOL    HW115512   1.361   1.331   3.654
 4871SOL    HW215513   1.303   1.463   3.577
 4872SOL     OW15514   6.123   6.445   2.596
 4872SOL    HW115515   6.152   6.531   2.639
 4872SOL    HW215516   6.048   6.464   2.532
 4873SOL     OW15517   6.551   5.302   5.015
 4873SOL    HW115518   6.542   5.362   5.095
 4873SOL    HW215519   6.641   5.315   4.974
 4874SOL     OW15520   4.709   2.852   3.172
 4874SOL    HW115521   4.685   2.905   3.254
 4874SOL    HW215522   4.743   2.762   3.200
 4875SOL     OW15523   6.014   6.221   4.991
 4875SOL    HW115524   5.937   6.166   4.958
 4875SOL    HW215525   5.979   6.308   5.026
 4876SOL     OW15526   0.725   1.171   2.046
 4876SOL    HW115527   0.627   1.172   2.062
 4876SOL    HW215528   0.768   1.246   2.096
 4877SOL     OW15529   6.180   1.427   6.357
 4877SOL    HW115530   6.230   1.509   6.384
 4877SOL    HW215531   6.107   1.451   6.294
 4878SOL     OW15532   6.780   3.609   2.143
 4878SOL    HW115533   6.768   3.702   2.109
 4878SOL    HW215534   6.700   3.584   2.199
 4879SOL     OW15535   5.416   0.889   2.796
 4879SOL    HW115536   5.442   0.915   2.890
 4879SOL    HW215537   5.495   0.850   2.750
 4880SOL     OW15538   6.530   3.165   6.790
 4880SOL    HW115539   6.496   3.071   6.777
 4880SOL    HW215540   6.557   3.203   6.702
 4881SOL     OW15541   1.798   2.773   1.537
 4881SOL    HW115542   1.878   2.793   1.593
 4881SOL    HW215543   1.769   2.678   1.552
 4882SOL     OW15544   5.063   2.433   4.106
 4882SOL    HW115545   5.058   2.480   4.193
 4882SOL    HW215546   4.976   2.442   4.058
 4883SOL     OW15547   6.067   4.751   0.694
 4883SOL    HW115548   6.058   4.662   0.738
 4883SOL    HW215549   6.006   4.817   0.737
 4884SOL     OW15550   1.801   0.850   1.634
 4884SOL    HW115551   1.820   0.837   1.536
 4884SOL    HW215552   1.885   0.875   1.681
 4885SOL     OW15553   1.112   4.286   7.002
 4885SOL    HW115554   1.130   4.341   0.057
 4885SOL    HW215555   1.016   4.260   7.000
 4886SOL     OW15556   2.910   0.612   2.035
 4886SOL    HW115557   2.846   0.637   2.108
 4886SOL    HW215558   2.944   0.520   2.051
 4887SOL     OW15559   5.284   6.427   0.091
 4887SOL    HW115560   5.193   6.442   0.129
 4887SOL    HW215561   5.308   6.330   0.101
 4888SOL     OW15562   4.395   0.272   2.732
 4888SOL    HW115563   4.393   0.322   2.818
 4888SOL    HW215564   4.397   0.173   2.751
 4889SOL     OW15565   6.377   3.462   4.506
 4889SOL    HW115566   6.301   3.489   4.447
 4889SOL    HW215567   6.461   3.454   4.453
 4890SOL     OW15568   6.707   1.501   4.623
 4890SOL    HW115569   6.749   1.591   4.635
 4890SOL    HW215570   6.661   1.496   4.535
 4891SOL     OW15571   3.113   5.093   6.807
 4891SOL    HW115572   3.088   5.137   6.721
 4891SOL    HW215573   3.201   5.047   6.798
 4892SOL     OW15574   4.985   5.309   2.409
 4892SOL    HW115575   4.972   5.211   2.425
 4892SOL    HW215576   4.921   5.361   2.466
 4893SOL     OW15577   0.899   3.275   1.178
 4893SOL    HW115578   0.936   3.218   1.106
 4893SOL    HW215579   0.941   3.250   1.266
 4894SOL     OW15580   5.012   6.412   1.635
 4894SOL    HW115581   5.107   6.386   1.623
 4894SOL    HW215582   4.995   6.437   1.730
 4895SOL     OW15583   0.361   4.550   5.563
 4895SOL    HW115584   0.405   4.519   5.478
 4895SOL    HW215585   0.312   4.474   5.605
 4896SOL     OW15586   2.676   5.048   4.885
 4896SOL    HW115587   2.599   5.092   4.932
 4896SOL    HW215588   2.747   5.116   4.866
 4897SOL     OW15589   1.908   0.752   4.795
 4897SOL    HW115590   1.862   0.666   4.821
 4897SOL    HW215591   1.861   0.829   4.838
 4898SOL     OW15592   4.797   1.666   3.645
 4898SOL    HW115593   4.751   1.754   3.641
 4898SOL    HW215594   4.883   1.675   3.694
 4899SOL     OW15595   6.363   6.611   1.544
 4899SOL    HW115596   6.287   6.677   1.542
 4899SOL    HW215597   6.446   6.656   1.513
 4900SOL     OW15598   4.011   6.157   6.103
 4900SOL    HW115599   4.108   6.174   6.123
 4900SOL    HW215600   3.960   6.242   6.110
 4901SOL     OW15601   1.240   0.589   6.679
 4901SOL    HW115602   1.335   0.561   6.694
 4901SOL    HW215603   1.179   0.535   6.738
 4902SOL     OW15604   2.842   0.002   5.705
 4902SOL    HW115605   2.910   0.042   5.643
 4902SOL    HW215606   2.879   6.945   5.746
 4903SOL     OW15607   5.241   3.502   2.949
 4903SOL    HW115608   5.153   3.481   2.992
 4903SOL    HW215609   5.237   3.474   2.853
 4904SOL     OW15610   1.392   0.290   1.360
 4904SOL    HW115611   1.307   0.273   1.311
 4904SOL    HW215612   1.405   0.389   1.372
 4905SOL     OW15613   2.606   6.989   3.130
 4905SOL    HW115614   2.607   6.914   3.064
 4905SOL    HW215615   2.613   6.953   3.222
 4906SOL     OW15616   4.894   3.815   4.865
 4906SOL    HW115617   4.932   3.763   4.789
 4906SOL    HW215618   4.860   3.752   4.935
 4907SOL     OW15619   4.319   2.298   0.010
 4907SOL    HW115620   4.267   2.228   6.988
 4907SOL    HW215621   4.340   2.373   6.973
 4908SOL     OW15622   3.658   6.984   0.114
 4908SOL    HW115623   3.732   6.919   0.133
 4908SOL    HW215624   3.680   0.046   0.154
 4909SOL     OW15625   5.333   4.860   4.744
 4909SOL    HW115626   5.358   4.935   4.682
 4909SOL    HW215627   5.413   4.802   4.759
 4910SOL     OW15628   4.122   2.403   6.584
 4910SOL    HW115629   4.178   2.459   6.523
 4910SOL    HW215630   4.143   2.306   6.570
 4911SOL     OW15631   6.563   4.120   2.598
 4911SOL    HW115632   6.558   4.074   2.687
 4911SOL    HW215633   6.614   4.205   2.609
 4912SOL     OW15634   5.765   2.782   4.132
 4912SOL    HW115635   5.714   2.746   4.210
 4912SOL    HW215636   5.717   2.757   4.047
 4913SOL     OW15637   0.702   4.198   4.767
 4913SOL    HW115638   0.649   4.258   4.707
 4913SOL    HW215639   0.800   4.213   4.752
 4914SOL     OW15640   4.169   0.396   3.778
 4914SOL    HW115641   4.237   0.468   3.772
 4914SOL    HW215642   4.211   0.312   3.812
 4915SOL     OW15643   3.806   5.366   5.540
 4915SOL    HW115644   3.893   5.324   5.514
 4915SOL    HW215645   3.750   5.299   5.588
 4916SOL     OW15646   5.879   2.267   3.493
 4916SOL    HW115647   5.817   2.285   3.417
 4916SOL    HW215648   5.914   2.354   3.529
 4917SOL     OW15649   3.839   6.793   0.269
 4917SOL    HW115650   3.830   6.813   0.366
 4917SOL    HW215651   3.796   6.705   0.249
 4918SOL     OW15652   5.576   4.951   3.564
 4918SOL    HW115653   5.509   5.025   3.572
 4918SOL    HW215654   5.529   4.864   3.556
 4919SOL     OW15655   3.185   3.485   1.989
 4919SOL    HW115656   3.212   3.468   1.895
 4919SOL    HW215657   3.121   3.563   1.992
 4920SOL     OW15658   5.739   1.594   6.151
 4920SOL    HW115659   5.646   1.613   6.183
 4920SOL    HW215660   5.776   1.675   6.104
 4921SOL     OW15661   0.196   0.036   1.896
 4921SOL    HW115662   0.169   6.998   1.826
 4921SOL    HW215663   0.152   0.124   1.879
 4922SOL     OW15664   3.307   1.450   6.100
 4922SOL    HW115665   3.381   1.456   6.034
 4922SOL    HW215666   3.264   1.360   6.093
 4923SOL     OW15667   3.716   1.648   1.626
 4923SOL    HW115668   3.677   1.631   1.535
 4923SOL    HW215669   3.655   1.709   1.677
 4924SOL     OW15670   2.313   0.941   5.058
 4924SOL    HW115671   2.352   1.026   5.021
 4924SOL    HW215672   2.369   0.911   5.136
 4925SOL     OW15673   5.434   5.764   3.402
 4925SOL    HW115674   5.432   5.665   3.384
 4925SOL    HW215675   5.413   5.813   3.318
 4926SOL     OW15676   5.441   3.068   1.539
 4926SOL    HW115677   5.348   3.069   1.504
 4926SOL    HW215678   5.505   3.093   1.466
 4927SOL     OW15679   2.942   1.392   0.198
 4927SOL    HW115680   2.915   1.483   0.231
 4927SOL    HW215681   2.869   1.326   0.218
 4928SOL     OW15682   6.917   2.340   0.612
 4928SOL    HW115683   6.903   2.381   0.702
 4928SOL    HW215684   6.907   2.240   0.619
 4929SOL     OW15685   0.302   6.668   5.198
 4929SOL    HW115686   0.390   6.709   5.173
 4929SOL    HW215687   0.305   6.570   5.179
 4930SOL     OW15688   4.825   5.620   2.698
 4930SOL    HW115689   4.895   5.650   2.763
 4930SOL    HW215690   4.736   5.655   2.725
 4931SOL     OW15691   0.026   6.878   0.722
 4931SOL    HW115692   0.002   6.963   0.676
 4931SOL    HW215693   6.975   6.846   0.776
 4932SOL     OW15694   3.399   2.847   2.597
 4932SOL    HW115695   3.421   2.751   2.580
 4932SOL    HW215696   3.370   2.890   2.511
 4933SOL     OW15697   1.304   0.349   5.801
 4933SOL    HW115698   1.351   0.345   5.712
 4933SOL    HW215699   1.206   0.365   5.786
 4934SOL     OW15700   3.929   6.770   1.882
 4934SOL    HW115701   3.970   6.682   1.904
 4934SOL    HW215702   3.985   6.844   1.920
 4935SOL     OW15703   0.546   0.950   5.365
 4935SOL    HW115704   0.566   1.012   5.289
 4935SOL    HW215705   0.488   0.875   5.333
 4936SOL     OW15706   4.467   2.435   0.750
 4936SOL    HW115707   4.476   2.341   0.719
 4936SOL    HW215708   4.446   2.494   0.672
 4937SOL     OW15709   4.606   2.798   5.018
 4937SOL    HW115710   4.562   2.710   5.002
 4937SOL    HW215711   4.565   2.842   5.098
 4938SOL     OW15712   3.569   4.728   6.689
 4938SOL    HW115713   3.632   4.657   6.718
 4938SOL    HW215714   3.531   4.704   6.599
 4939SOL     OW15715   5.007   3.528   6.327
 4939SOL    HW115716   5.098   3.512   6.290
 4939SOL    HW215717   4.967   3.609   6.285
 4940SOL     OW15718   2.263   6.519   3.695
 4940SOL    HW115719   2.186   6.461   3.668
 4940SOL    HW215720   2.253   6.609   3.652
 4941SOL     OW15721   5.382   0.609   0.684
 4941SOL    HW115722   5.328   0.675   0.631
 4941SOL    HW215723   5.479   0.629   0.671
 4942SOL     OW15724   4.968   2.909   6.535
 4942SOL    HW115725   4.881   2.860   6.537
 4942SOL    HW215726   5.024   2.873   6.460
 4943SOL     OW15727   5.354   2.753   1.372
 4943SOL    HW115728   5.255   2.766   1.367
 4943SOL    HW215729   5.380   2.737   1.467
 4944SOL     OW15730   2.185   4.180   2.100
 4944SOL    HW115731   2.233   4.092   2.099
 4944SOL    HW215732   2.088   4.166   2.080
 4945SOL     OW15733   6.905   6.360   4.505
 4945SOL    HW115734   6.958   6.351   4.421
 4945SOL    HW215735   6.816   6.316   4.494
 4946SOL     OW15736   0.089   4.169   2.110
 4946SOL    HW115737   0.034   4.245   2.075
 4946SOL    HW215738   0.113   4.108   2.035
 4947SOL     OW15739   6.902   0.630   0.956
 4947SOL    HW115740   6.820   0.686   0.972
 4947SOL    HW215741   6.907   0.558   1.025
 4948SOL     OW15742   2.499   1.252   2.264
 4948SOL    HW115743   2.581   1.309   2.263
 4948SOL    HW215744   2.429   1.293   2.205
 4949SOL     OW15745   5.156   2.543   4.650
 4949SOL    HW115746   5.188   2.535   4.555
 4949SOL    HW215747   5.057   2.546   4.652
 4950SOL     OW15748   3.420   4.878   5.019
 4950SOL    HW115749   3.336   4.878   5.075
 4950SOL    HW215750   3.498   4.899   5.077
 4951SOL     OW15751   4.528   2.134   3.736
 4951SOL    HW115752   4.465   2.145   3.660
 4951SOL    HW215753   4.477   2.124   3.821
 4952SOL     OW15754   0.017   4.746   5.022
 4952SOL    HW115755   7.007   4.771   5.112
 4952SOL    HW215756   0.082   4.816   4.992
 4953SOL     OW15757   1.886   4.921   2.208
 4953SOL    HW115758   1.869   4.907   2.111
 4953SOL    HW215759   1.808   4.887   2.261
 4954SOL     OW15760   6.154   6.347   0.113
 4954SOL    HW115761   6.148   6.341   0.213
 4954SOL    HW215762   6.062   6.364   0.076
 4955SOL     OW15763   1.423   0.848   1.123
 4955SOL    HW115764   1.502   0.891   1.080
 4955SOL    HW215765   1.400   0.763   1.075
 4956SOL     OW15766   6.108   6.300   4.086
 4956SOL    HW115767   6.011   6.281   4.094
 4956SOL    HW215768   6.135   6.302   3.990
 4957SOL     OW15769   2.164   6.017   3.757
 4957SOL    HW115770   2.216   6.055   3.833
 4957SOL    HW215771   2.099   5.949   3.791
 4958SOL     OW15772   0.315   6.711   6.512
 4958SOL    HW115773   0.338   6.655   6.592
 4958SOL    HW215774   0.318   6.655   6.430
 4959SOL     OW15775   0.523   1.423   6.569
 4959SOL    HW115776   0.521   1.395   6.473
 4959SOL    HW215777   0.616   1.449   6.594
 4960SOL     OW15778   4.182   6.960   5.189
 4960SOL    HW115779   4.110   0.002   5.192
 4960SOL    HW215780   4.174   6.899   5.268
 4961SOL     OW15781   4.571   0.842   5.312
 4961SOL    HW115782   4.644   0.877   5.253
 4961SOL    HW215783   4.576   0.742   5.315
 4962SOL     OW15784   6.511   2.223   1.932
 4962SOL    HW115785   6.455   2.305   1.915
 4962SOL    HW215786   6.510   2.165   1.851
 4963SOL     OW15787   6.752   4.838   0.967
 4963SOL    HW115788   6.713   4.748   0.952
 4963SOL    HW215789   6.703   4.906   0.912
 4964SOL     OW15790   3.608   6.623   3.204
 4964SOL    HW115791   3.680   6.560   3.229
 4964SOL    HW215792   3.592   6.688   3.279
 4965SOL     OW15793   6.802   6.416   4.754
 4965SOL    HW115794   6.713   6.454   4.729
 4965SOL    HW215795   6.860   6.413   4.672
 4966SOL     OW15796   4.167   5.589   4.483
 4966SOL    HW115797   4.172   5.551   4.575
 4966SOL    HW215798   4.175   5.516   4.416
 4967SOL     OW15799   5.542   1.936   6.409
 4967SOL    HW115800   5.608   1.945   6.334
 4967SOL    HW215801   5.510   2.027   6.436
 4968SOL     OW15802   5.517   4.364   0.018
 4968SOL    HW115803   5.513   4.390   0.115
 4968SOL    HW215804   5.539   4.267   0.010
 4969SOL     OW15805   1.009   1.835   1.286
 4969SOL    HW115806   1.032   1.930   1.305
 4969SOL    HW215807   0.978   1.825   1.192
 4970SOL     OW15808   1.788   2.954   5.825
 4970SOL    HW115809   1.788   3.032   5.888
 4970SOL    HW215810   1.817   2.984   5.735
 4971SOL     OW15811   6.880   5.387   3.933
 4971SOL    HW115812   6.857   5.291   3.917
 4971SOL    HW215813   6.965   5.409   3.884
 4972SOL     OW15814   1.781   2.354   5.387
 4972SOL    HW115815   1.873   2.374   5.421
 4972SOL    HW215816   1.735   2.293   5.451
 4973SOL     OW15817   5.448   5.618   2.944
 4973SOL    HW115818   5.390   5.593   3.021
 4973SOL    HW215819   5.433   5.714   2.921
 4974SOL     OW15820   4.516   6.304   0.135
 4974SOL    HW115821   4.509   6.205   0.122
 4974SOL    HW215822   4.529   6.348   0.046
 4975SOL     OW15823   4.676   6.059   0.354
 4975SOL    HW115824   4.587   6.063   0.309
 4975SOL    HW215825   4.664   6.066   0.453
 4976SOL     OW15826   2.637   0.768   4.022
 4976SOL    HW115827   2.732   0.751   4.046
 4976SOL    HW215828   2.600   0.690   3.971
 4977SOL     OW15829   2.973   2.683   0.161
 4977SOL    HW115830   2.933   2.592   0.166
 4977SOL    HW215831   2.918   2.746   0.215
 4978SOL     OW15832   6.276   4.235   6.886
 4978SOL    HW115833   6.324   4.209   6.802
 4978SOL    HW215834   6.229   4.322   6.872
 4979SOL     OW15835   1.952   2.097   4.215
 4979SOL    HW115836   1.874   2.097   4.152
 4979SOL    HW215837   1.924   2.058   4.302
 4980SOL     OW15838   2.409   4.739   3.058
 4980SOL    HW115839   2.454   4.651   3.076
 4980SOL    HW215840   2.432   4.769   2.965
 4981SOL     OW15841   4.639   6.451   5.386
 4981SOL    HW115842   4.573   6.376   5.380
 4981SOL    HW215843   4.720   6.419   5.435
 4982SOL     OW15844   3.157   2.183   0.321
 4982SOL    HW115845   3.079   2.130   0.286
 4982SOL    HW215846   3.236   2.123   0.331
 4983SOL     OW15847   6.259   2.832   4.983
 4983SOL    HW115848   6.290   2.826   4.888
 4983SOL    HW215849   6.325   2.882   5.038
 4984SOL     OW15850   4.828   4.292   3.222
 4984SOL    HW115851   4.834   4.261   3.317
 4984SOL    HW215852   4.827   4.212   3.161
 4985SOL     OW15853   5.316   4.311   1.863
 4985SOL    HW115854   5.412   4.340   1.859
 4985SOL    HW215855   5.288   4.279   1.772
 4986SOL     OW15856   4.414   4.468   3.380
 4986SOL    HW115857   4.439   4.515   3.464
 4986SOL    HW215858   4.330   4.509   3.343
 4987SOL     OW15859   0.517   3.454   0.760
 4987SOL    HW115860   0.615   3.460   0.779
 4987SOL    HW215861   0.486   3.539   0.717
 4988SOL     OW15862   1.493   2.158   5.241
 4988SOL    HW115863   1.462   2.117   5.155
 4988SOL    HW215864   1.494   2.257   5.232
 4989SOL     OW15865   0.036   1.139   0.700
 4989SOL    HW115866   6.969   1.118   0.728
 4989SOL    HW215867   0.101   1.089   0.758
 4990SOL     OW15868   0.988   2.246   6.084
 4990SOL    HW115869   0.984   2.336   6.128
 4990SOL    HW215870   1.041   2.184   6.141
 4991SOL     OW15871   2.419   1.887   5.076
 4991SOL    HW115872   2.455   1.962   5.131
 4991SOL    HW215873   2.413   1.915   4.981
 4992SOL     OW15874   4.266   0.520   4.364
 4992SOL    HW115875   4.337   0.467   4.317
 4992SOL    HW215876   4.300   0.611   4.384
 4993SOL     OW15877   1.735   6.305   4.062
 4993SOL    HW115878   1.688   6.239   4.002
 4993SOL    HW215879   1.675   6.384   4.077
 4994SOL     OW15880   0.475   6.868   2.674
 4994SOL    HW115881   0.410   6.849   2.601
 4994SOL    HW215882   0.465   6.964   2.703
 4995SOL     OW15883   6.106   3.061   5.883
 4995SOL    HW115884   6.030   3.023   5.937
 4995SOL    HW215885   6.178   2.992   5.874
 4996SOL     OW15886   0.076   1.811   3.846
 4996SOL    HW115887   0.116   1.813   3.754
 4996SOL    HW215888   7.004   1.797   3.839
 4997SOL     OW15889   0.314   2.181   4.315
 4997SOL    HW115890   0.383   2.150   4.250
 4997SOL    HW215891   0.233   2.213   4.266
 4998SOL     OW15892   0.843   5.404   5.343
 4998SOL    HW115893   0.890   5.439   5.424
 4998SOL    HW215894   0.854   5.305   5.339
 4999SOL     OW15895   6.493   4.996   1.010
 4999SOL    HW115896   6.529   5.015   0.919
 4999SOL    HW215897   6.563   5.019   1.078
 5000SOL     OW15898   0.070   5.461   4.127
 5000SOL    HW115899   7.021   5.402   4.099
 5000SOL    HW215900   0.152   5.406   4.144
 5001SOL     OW15901   4.602   4.810   5.359
 5001SOL    HW115902   4.577   4.898   5.399
 5001SOL    HW215903   4.669   4.824   5.286
 5002SOL     OW15904   2.108   2.508   1.674
 5002SOL    HW115905   2.013   2.514   1.704
 5002SOL    HW215906   2.114   2.446   1.596
 5003SOL     OW15907   6.591   4.978   4.020
 5003SOL    HW115908   6.554   5.007   4.108
 5003SOL    HW215909   6.564   5.044   3.949
 5004SOL     OW15910   3.128   4.307   6.369
 5004SOL    HW115911   3.031   4.308   6.347
 5004SOL    HW215912   3.180   4.275   6.289
 5005SOL     OW15913   4.544   1.736   0.302
 5005SOL    HW115914   4.618   1.683   0.262
 5005SOL    HW215915   4.490   1.777   0.229
 5006SOL     OW15916   5.338   4.661   2.251
 5006SOL    HW115917   5.250   4.707   2.254
 5006SOL    HW215918   5.371   4.645   2.344
 5007SOL     OW15919   3.573   1.542   5.415
 5007SOL    HW115920   3.593   1.590   5.501
 5007SOL    HW215921   3.476   1.551   5.394
 5008SOL     OW15922   6.434   0.707   3.529
 5008SOL    HW115923   6.391   0.673   3.613
 5008SOL    HW215924   6.430   0.636   3.459
 5009SOL     OW15925   1.931   5.720   1.910
 5009SOL    HW115926   1.846   5.771   1.920
 5009SOL    HW215927   1.986   5.760   1.836
 5010SOL     OW15928   3.596   2.998   5.670
 5010SOL    HW115929   3.498   2.997   5.650
 5010SOL    HW215930   3.613   2.955   5.758
 5011SOL     OW15931   1.293   2.558   3.810
 5011SOL    HW115932   1.319   2.653   3.793
 5011SOL    HW215933   1.325   2.501   3.734
 5012SOL     OW15934   5.668   2.969   6.964
 5012SOL    HW115935   5.721   3.028   6.903
 5012SOL    HW215936   5.612   3.025   7.024
 5013SOL     OW15937   4.843   2.102   5.844
 5013SOL    HW115938   4.836   2.021   5.786
 5013SOL    HW215939   4.920   2.091   5.906
 5014SOL     OW15940   6.632   5.816   6.489
 5014SOL    HW115941   6.544   5.771   6.501
 5014SOL    HW215942   6.700   5.750   6.458
 5015SOL     OW15943   5.472   2.062   3.975
 5015SOL    HW115944   5.449   2.080   3.879
 5015SOL    HW215945   5.526   2.139   4.011
 5016SOL     OW15946   2.427   6.251   2.398
 5016SOL    HW115947   2.512   6.251   2.450
 5016SOL    HW215948   2.350   6.229   2.459
 5017SOL     OW15949   1.121   2.113   2.146
 5017SOL    HW115950   1.175   2.032   2.170
 5017SOL    HW215951   1.121   2.177   2.222
 5018SOL     OW15952   0.057   4.997   3.855
 5018SOL    HW115953   0.047   5.082   3.803
 5018SOL    HW215954   7.016   4.996   3.929
 5019SOL     OW15955   2.559   5.273   5.637
 5019SOL    HW115956   2.536   5.331   5.559
 5019SOL    HW215957   2.476   5.254   5.689
 5020SOL     OW15958   4.243   5.105   6.870
 5020SOL    HW115959   4.337   5.107   6.904
 5020SOL    HW215960   4.243   5.077   6.775
 5021SOL     OW15961   2.488   4.072   5.640
 5021SOL    HW115962   2.464   4.097   5.546
 5021SOL    HW215963   2.491   3.972   5.648
 5022SOL     OW15964   2.284   3.739   1.147
 5022SOL    HW115965   2.244   3.700   1.230
 5022SOL    HW215966   2.231   3.819   1.119
 5023SOL     OW15967   6.842   2.837   4.337
 5023SOL    HW115968   6.813   2.798   4.250
 5023SOL    HW215969   6.842   2.765   4.407
 5024SOL     OW15970   4.931   3.444   5.659
 5024SOL    HW115971   5.005   3.475   5.719
 5024SOL    HW215972   4.929   3.344   5.656
 5025SOL     OW15973   6.745   0.933   3.682
 5025SOL    HW115974   6.669   0.998   3.688
 5025SOL    HW215975   6.831   0.983   3.677
 5026SOL     OW15976   0.796   6.296   3.084
 5026SOL    HW115977   0.883   6.297   3.132
 5026SOL    HW215978   0.759   6.389   3.079
 5027SOL     OW15979   0.701   6.060   3.816
 5027SOL    HW115980   0.624   6.011   3.857
 5027SOL    HW215981   0.669   6.149   3.781
 5028SOL     OW15982   0.778   6.952   2.705
 5028SOL    HW115983   0.710   6.895   2.660
 5028SOL    HW215984   0.870   6.929   2.672
 5029SOL     OW15985   6.525   1.466   3.368
 5029SOL    HW115986   6.577   1.484   3.452
 5029SOL    HW215987   6.589   1.454   3.292
 5030SOL     OW15988   2.165   5.841   0.124
 5030SOL    HW115989   2.209   5.759   0.162
 5030SOL    HW215990   2.114   5.815   0.042
 5031SOL     OW15991   5.220   0.936   6.219
 5031SOL    HW115992   5.291   0.918   6.287
 5031SOL    HW215993   5.248   1.013   6.162
 5032SOL     OW15994   1.521   6.009   2.400
 5032SOL    HW115995   1.602   5.981   2.347
 5032SOL    HW215996   1.518   6.109   2.404
 5033SOL     OW15997   0.712   3.816   5.025
 5033SOL    HW115998   0.669   3.887   5.080
 5033SOL    HW215999   0.642   3.763   4.978
 5034SOL     OW16000   6.535   4.104   6.095
 5034SOL    HW116001   6.530   4.187   6.039
 5034SOL    HW216002   6.554   4.128   6.190
 5035SOL     OW16003   6.586   4.588   1.344
 5035SOL    HW116004   6.661   4.591   1.278
 5035SOL    HW216005   6.539   4.501   1.337
 5036SOL     OW16006   1.375   0.835   2.269
 5036SOL    HW116007   1.330   0.871   2.188
 5036SOL    HW216008   1.414   0.910   2.322
 5037SOL     OW16009   4.700   2.815   2.879
 5037SOL    HW116010   4.685   2.860   2.967
 5037SOL    HW216011   4.798   2.815   2.858
 5038SOL     OW16012   3.002   5.615   5.051
 5038SOL    HW116013   3.096   5.584   5.037
 5038SOL    HW216014   2.992   5.646   5.146
 5039SOL     OW16015   1.494   2.125   2.785
 5039SOL    HW116016   1.493   2.069   2.868
 5039SOL    HW216017   1.401   2.158   2.766
 5040SOL     OW16018   3.084   3.465   5.842
 5040SOL    HW116019   3.002   3.422   5.881
 5040SOL    HW216020   3.057   3.526   5.767
 5041SOL     OW16021   0.520   5.816   0.741
 5041SOL    HW116022   0.422   5.837   0.740
 5041SOL    HW216023   0.569   5.887   0.791
 5042SOL     OW16024   5.646   1.505   5.651
 5042SOL    HW116025   5.607   1.414   5.666
 5042SOL    HW216026   5.730   1.497   5.597
 5043SOL     OW16027   5.166   6.642   3.866
 5043SOL    HW116028   5.246   6.702   3.854
 5043SOL    HW216029   5.144   6.598   3.779
 5044SOL     OW16030   5.672   4.933   1.599
 5044SOL    HW116031   5.719   4.887   1.675
 5044SOL    HW216032   5.583   4.889   1.583
 5045SOL     OW16033   5.398   3.816   4.865
 5045SOL    HW116034   5.388   3.719   4.886
 5045SOL    HW216035   5.446   3.827   4.779
 5046SOL     OW16036   3.856   3.432   5.650
 5046SOL    HW116037   3.899   3.389   5.730
 5046SOL    HW216038   3.893   3.524   5.638
 5047SOL     OW16039   0.291   1.901   2.287
 5047SOL    HW116040   0.273   1.999   2.282
 5047SOL    HW216041   0.265   1.867   2.377
 5048SOL     OW16042   5.820   3.541   1.314
 5048SOL    HW116043   5.795   3.566   1.221
 5048SOL    HW216044   5.746   3.487   1.355
 5049SOL     OW16045   0.723   1.943   1.496
 5049SOL    HW116046   0.792   2.011   1.518
 5049SOL    HW216047   0.756   1.852   1.521
 5050SOL     OW16048   1.329   4.207   0.444
 5050SOL    HW116049   1.314   4.136   0.376
 5050SOL    HW216050   1.258   4.202   0.514
 5051SOL     OW16051   2.458   3.563   6.603
 5051SOL    HW116052   2.472   3.579   6.505
 5051SOL    HW216053   2.417   3.644   6.644
 5052SOL     OW16054   5.804   3.219   0.685
 5052SOL    HW116055   5.883   3.209   0.746
 5052SOL    HW216056   5.720   3.221   0.738
 5053SOL     OW16057   1.575   4.103   1.245
 5053SOL    HW116058   1.598   4.050   1.163
 5053SOL    HW216059   1.602   4.052   1.327
 5054SOL     OW16060   4.073   6.074   5.230
 5054SOL    HW116061   4.018   6.157   5.224
 5054SOL    HW216062   4.019   6.001   5.273
 5055SOL     OW16063   1.429   2.023   3.862
 5055SOL    HW116064   1.334   2.042   3.888
 5055SOL    HW216065   1.460   2.091   3.795
 5056SOL     OW16066   3.087   2.218   5.542
 5056SOL    HW116067   3.012   2.164   5.581
 5056SOL    HW216068   3.129   2.166   5.468
 5057SOL     OW16069   0.153   4.104   3.038
 5057SOL    HW116070   0.202   4.172   3.093
 5057SOL    HW216071   0.165   4.126   2.941
 5058SOL     OW16072   3.579   2.001   0.518
 5058SOL    HW116073   3.592   1.936   0.593
 5058SOL    HW216074   3.640   1.976   0.442
 5059SOL     OW16075   4.658   2.103   2.982
 5059SOL    HW116076   4.571   2.149   2.997
 5059SOL    HW216077   4.727   2.170   2.954
 5060SOL     OW16078   6.850   3.354   5.713
 5060SOL    HW116079   6.873   3.385   5.806
 5060SOL    HW216080   6.934   3.336   5.662
 5061SOL     OW16081   4.359   2.676   6.068
 5061SOL    HW116082   4.303   2.701   5.989
 5061SOL    HW216083   4.312   2.704   6.152
 5062SOL     OW16084   5.361   1.063   3.392
 5062SOL    HW116085   5.267   1.050   3.423
 5062SOL    HW216086   5.381   1.161   3.388
 5063SOL     OW16087   1.219   1.276   1.477
 5063SOL    HW116088   1.120   1.266   1.484
 5063SOL    HW216089   1.241   1.339   1.402
 5064SOL     OW16090   5.638   5.121   0.983
 5064SOL    HW116091   5.659   5.090   0.890
 5064SOL    HW216092   5.668   5.052   1.048
 5065SOL     OW16093   2.526   1.490   2.526
 5065SOL    HW116094   2.549   1.440   2.443
 5065SOL    HW216095   2.478   1.574   2.502
 5066SOL     OW16096   1.561   5.387   2.650
 5066SOL    HW116097   1.607   5.470   2.618
 5066SOL    HW216098   1.593   5.308   2.598
 5067SOL     OW16099   5.770   3.145   1.528
 5067SOL    HW116100   5.763   3.046   1.539
 5067SOL    HW216101   5.816   3.184   1.608
 5068SOL     OW16102   1.589   6.157   0.712
 5068SOL    HW116103   1.642   6.241   0.717
 5068SOL    HW216104   1.650   6.081   0.688
 5069SOL     OW16105   4.443   5.475   5.665
 5069SOL    HW116106   4.449   5.572   5.688
 5069SOL    HW216107   4.536   5.436   5.661
 5070SOL     OW16108   5.872   3.423   5.678
 5070SOL    HW116109   5.921   3.509   5.686
 5070SOL    HW216110   5.938   3.347   5.676
 5071SOL     OW16111   2.510   6.344   3.101
 5071SOL    HW116112   2.564   6.269   3.063
 5071SOL    HW216113   2.433   6.307   3.153
 5072SOL     OW16114   0.955   1.288   1.534
 5072SOL    HW116115   0.956   1.328   1.626
 5072SOL    HW216116   0.873   1.231   1.524
 5073SOL     OW16117   1.897   1.208   3.629
 5073SOL    HW116118   1.945   1.229   3.714
 5073SOL    HW216119   1.804   1.245   3.634
 5074SOL     OW16120   3.120   2.127   1.497
 5074SOL    HW116121   3.070   2.059   1.444
 5074SOL    HW216122   3.192   2.083   1.550
 5075SOL     OW16123   6.450   2.694   0.534
 5075SOL    HW116124   6.543   2.730   0.537
 5075SOL    HW216125   6.394   2.751   0.473
 5076SOL     OW16126   0.093   0.950   5.593
 5076SOL    HW116127   0.168   0.963   5.657
 5076SOL    HW216128   0.054   1.038   5.569
 5077SOL     OW16129   0.820   4.268   3.610
 5077SOL    HW116130   0.820   4.169   3.597
 5077SOL    HW216131   0.861   4.291   3.698
 5078SOL     OW16132   6.353   2.320   3.698
 5078SOL    HW116133   6.336   2.258   3.621
 5078SOL    HW216134   6.451   2.332   3.710
 5079SOL     OW16135   1.535   3.453   4.777
 5079SOL    HW116136   1.443   3.427   4.806
 5079SOL    HW216137   1.557   3.543   4.815
 5080SOL     OW16138   6.087   5.916   6.652
 5080SOL    HW116139   6.165   5.952   6.602
 5080SOL    HW216140   6.074   5.969   6.736
 5081SOL     OW16141   2.450   4.661   5.312
 5081SOL    HW116142   2.423   4.606   5.233
 5081SOL    HW216143   2.548   4.678   5.308
 5082SOL     OW16144   5.703   5.923   1.283
 5082SOL    HW116145   5.657   5.957   1.201
 5082SOL    HW216146   5.666   5.833   1.306
 5083SOL     OW16147   2.362   0.330   3.824
 5083SOL    HW116148   2.416   0.252   3.857
 5083SOL    HW216149   2.286   0.297   3.769
 5084SOL     OW16150   3.698   4.496   5.609
 5084SOL    HW116151   3.661   4.473   5.519
 5084SOL    HW216152   3.657   4.582   5.640
 5085SOL     OW16153   0.555   4.707   5.629
 5085SOL    HW116154   0.479   4.646   5.606
 5085SOL    HW216155   0.574   4.768   5.553
 5086SOL     OW16156   1.444   4.902   2.335
 5086SOL    HW116157   1.396   4.816   2.355
 5086SOL    HW216158   1.378   4.976   2.325
 5087SOL     OW16159   7.016   4.762   2.262
 5087SOL    HW116160   6.923   4.735   2.235
 5087SOL    HW216161   0.051   4.752   2.184
 5088SOL     OW16162   4.622   5.400   2.494
 5088SOL    HW116163   4.612   5.317   2.440
 5088SOL    HW216164   4.678   5.381   2.574
 5089SOL     OW16165   5.306   6.168   6.250
 5089SOL    HW116166   5.405   6.158   6.255
 5089SOL    HW216167   5.278   6.182   6.155
 5090SOL     OW16168   2.686   6.454   4.811
 5090SOL    HW116169   2.601   6.416   4.775
 5090SOL    HW216170   2.761   6.390   4.795
 5091SOL     OW16171   6.921   6.307   6.042
 5091SOL    HW116172   6.992   6.368   6.077
 5091SOL    HW216173   6.841   6.312   6.101
 5092SOL     OW16174   3.677   3.576   4.205
 5092SOL    HW116175   3.702   3.611   4.114
 5092SOL    HW216176   3.737   3.500   4.229
 5093SOL     OW16177   2.813   2.320   2.812
 5093SOL    HW116178   2.883   2.268   2.860
 5093SOL    HW216179   2.814   2.297   2.715
 5094SOL     OW16180   1.780   5.921   4.650
 5094SOL    HW116181   1.703   5.959   4.598
 5094SOL    HW216182   1.839   5.868   4.589
 5095SOL     OW16183   6.932   1.171   3.113
 5095SOL    HW116184   6.921   1.188   3.015
 5095SOL    HW216185   6.920   1.073   3.131
 5096SOL     OW16186   6.547   3.055   5.764
 5096SOL    HW116187   6.613   3.098   5.702
 5096SOL    HW216188   6.547   2.956   5.750
 5097SOL     OW16189   0.650   0.495   5.698
 5097SOL    HW116190   0.729   0.536   5.653
 5097SOL    HW216191   0.566   0.528   5.656
 5098SOL     OW16192   3.209   2.710   0.276
 5098SOL    HW116193   3.123   2.687   0.232
 5098SOL    HW216194   3.262   2.627   0.291
 5099SOL     OW16195   1.749   6.231   2.206
 5099SOL    HW116196   1.817   6.157   2.205
 5099SOL    HW216197   1.658   6.192   2.219
 5100SOL     OW16198   5.237   3.228   2.164
 5100SOL    HW116199   5.266   3.150   2.219
 5100SOL    HW216200   5.310   3.254   2.101
 5101SOL     OW16201   3.248   0.351   4.828
 5101SOL    HW116202   3.149   0.347   4.813
 5101SOL    HW216203   3.284   0.258   4.835
 5102SOL     OW16204   5.312   5.318   4.915
 5102SOL    HW116205   5.284   5.307   4.820
 5102SOL    HW216206   5.240   5.282   4.975
 5103SOL     OW16207   1.018   0.484   5.884
 5103SOL    HW116208   1.065   0.561   5.927
 5103SOL    HW216209   0.940   0.456   5.940
 5104SOL     OW16210   3.937   3.422   3.087
 5104SOL    HW116211   3.966   3.349   3.149
 5104SOL    HW216212   3.896   3.381   3.005
 5105SOL     OW16213   4.143   3.082   0.089
 5105SOL    HW116214   4.061   3.139   0.096
 5105SOL    HW216215   4.130   3.013   0.018
 5106SOL     OW16216   3.552   1.611   1.385
 5106SOL    HW116217   3.483   1.683   1.373
 5106SOL    HW216218   3.613   1.610   1.306
 5107SOL     OW16219   6.117   5.288   0.918
 5107SOL    HW116220   6.040   5.236   0.881
 5107SOL    HW216221   6.094   5.386   0.916
 5108SOL     OW16222   3.622   4.804   1.184
 5108SOL    HW116223   3.553   4.853   1.237
 5108SOL    HW216224   3.697   4.775   1.244
 5109SOL     OW16225   1.318   2.533   2.900
 5109SOL    HW116226   1.393   2.544   2.836
 5109SOL    HW216227   1.329   2.599   2.975
 5110SOL     OW16228   4.925   6.874   5.300
 5110SOL    HW116229   4.955   6.785   5.266
 5110SOL    HW216230   4.989   6.945   5.269
 5111SOL     OW16231   1.274   5.540   5.553
 5111SOL    HW116232   1.296   5.546   5.651
 5111SOL    HW216233   1.358   5.549   5.500
 5112SOL     OW16234   1.390   6.190   3.613
 5112SOL    HW116235   1.370   6.110   3.555
 5112SOL    HW216236   1.393   6.272   3.557
 5113SOL     OW16237   1.904   4.261   0.737
 5113SOL    HW116238   1.853   4.347   0.741
 5113SOL    HW216239   1.955   4.257   0.651
 5114SOL     OW16240   4.401   4.557   1.334
 5114SOL    HW116241   4.438   4.626   1.396
 5114SOL    HW216242   4.442   4.568   1.244
 5115SOL     OW16243   1.449   3.905   0.586
 5115SOL    HW116244   1.512   3.833   0.557
 5115SOL    HW216245   1.501   3.979   0.629
 5116SOL     OW16246   0.572   6.687   5.117
 5116SOL    HW116247   0.634   6.627   5.167
 5116SOL    HW216248   0.606   6.701   5.024
 5117SOL     OW16249   0.183   2.482   3.578
 5117SOL    HW116250   0.142   2.391   3.580
 5117SOL    HW216251   0.259   2.483   3.514
 5118SOL     OW16252   4.381   5.733   0.293
 5118SOL    HW116253   4.429   5.704   0.376
 5118SOL    HW216254   4.301   5.675   0.278
 5119SOL     OW16255   5.729   1.727   0.576
 5119SOL    HW116256   5.647   1.731   0.633
 5119SOL    HW216257   5.803   1.683   0.628
 5120SOL     OW16258   5.116   6.805   6.786
 5120SOL    HW116259   5.094   6.715   6.746
 5120SOL    HW216260   5.196   6.796   6.845
 5121SOL     OW16261   1.450   3.396   6.287
 5121SOL    HW116262   1.378   3.402   6.217
 5121SOL    HW216263   1.408   3.396   6.378
 5122SOL     OW16264   4.829   4.641   3.737
 5122SOL    HW116265   4.810   4.604   3.647
 5122SOL    HW216266   4.749   4.630   3.796
 5123SOL     OW16267   5.052   2.898   2.441
 5123SOL    HW116268   5.027   2.801   2.438
 5123SOL    HW216269   5.003   2.947   2.369
 5124SOL     OW16270   1.307   5.932   4.974
 5124SOL    HW116271   1.321   6.028   4.999
 5124SOL    HW216272   1.243   5.890   5.039
 5125SOL     OW16273   6.328   1.852   3.778
 5125SOL    HW116274   6.232   1.880   3.783
 5125SOL    HW216275   6.386   1.931   3.795
 5126SOL     OW16276   1.983   0.889   1.992
 5126SOL    HW116277   1.908   0.874   2.056
 5126SOL    HW216278   2.070   0.873   2.038
 5127SOL     OW16279   2.718   6.191   6.843
 5127SOL    HW116280   2.816   6.190   6.866
 5127SOL    HW216281   2.702   6.257   6.770
 5128SOL     OW16282   5.306   0.125   1.987
 5128SOL    HW116283   5.368   0.181   1.932
 5128SOL    HW216284   5.358   0.055   2.035
 5129SOL     OW16285   6.447   6.757   0.543
 5129SOL    HW116286   6.534   6.778   0.587
 5129SOL    HW216287   6.373   6.805   0.591
 5130SOL     OW16288   6.325   5.190   2.276
 5130SOL    HW116289   6.313   5.259   2.205
 5130SOL    HW216290   6.378   5.113   2.241
 5131SOL     OW16291   2.154   2.315   2.425
 5131SOL    HW116292   2.182   2.299   2.520
 5131SOL    HW216293   2.056   2.298   2.416
 5132SOL     OW16294   2.617   5.980   5.239
 5132SOL    HW116295   2.713   5.985   5.266
 5132SOL    HW216296   2.572   5.905   5.288
 5133SOL     OW16297   3.416   6.003   5.493
 5133SOL    HW116298   3.430   6.041   5.585
 5133SOL    HW216299   3.441   6.072   5.425
 5134SOL     OW16300   6.427   3.660   6.248
 5134SOL    HW116301   6.442   3.570   6.206
 5134SOL    HW216302   6.402   3.726   6.176
 5135SOL     OW16303   6.296   1.395   4.414
 5135SOL    HW116304   6.269   1.328   4.345
 5135SOL    HW216305   6.220   1.411   4.477
 5136SOL     OW16306   3.867   2.044   5.962
 5136SOL    HW116307   3.773   2.077   5.954
 5136SOL    HW216308   3.908   2.080   6.046
 5137SOL     OW16309   3.474   3.135   0.092
 5137SOL    HW116310   3.542   3.065   0.072
 5137SOL    HW216311   3.520   3.223   0.105
 5138SOL     OW16312   2.378   3.411   6.243
 5138SOL    HW116313   2.302   3.447   6.189
 5138SOL    HW216314   2.436   3.486   6.275
 5139SOL     OW16315   0.630   0.059   3.406
 5139SOL    HW116316   0.558   0.071   3.337
 5139SOL    HW216317   0.712   0.108   3.377
 5140SOL     OW16318   3.014   2.922   1.670
 5140SOL    HW116319   2.982   3.014   1.645
 5140SOL    HW216320   2.953   2.854   1.630
 5141SOL     OW16321   0.670   4.442   6.120
 5141SOL    HW116322   0.716   4.415   6.204
 5141SOL    HW216323   0.631   4.361   6.076
 5142SOL     OW16324   6.106   2.961   2.756
 5142SOL    HW116325   6.145   2.937   2.667
 5142SOL    HW216326   6.031   2.898   2.777
 5143SOL     OW16327   6.878   5.310   5.135
 5143SOL    HW116328   6.839   5.374   5.068
 5143SOL    HW216329   6.845   5.218   5.116
 5144SOL     OW16330   1.965   1.451   5.059
 5144SOL    HW116331   1.936   1.507   4.982
 5144SOL    HW216332   1.887   1.430   5.117
 5145SOL     OW16333   3.515   5.369   5.778
 5145SOL    HW116334   3.615   5.368   5.790
 5145SOL    HW216335   3.478   5.280   5.804
 5146SOL     OW16336   2.617   5.154   6.999
 5146SOL    HW116337   2.679   5.084   0.010
 5146SOL    HW216338   2.581   5.210   0.047
 5147SOL     OW16339   6.633   5.382   6.477
 5147SOL    HW116340   6.629   5.465   6.422
 5147SOL    HW216341   6.571   5.314   6.439
 5148SOL     OW16342   0.640   0.361   0.652
 5148SOL    HW116343   0.572   0.296   0.686
 5148SOL    HW216344   0.686   0.406   0.728
 5149SOL     OW16345   0.262   0.693   5.852
 5149SOL    HW116346   0.354   0.702   5.815
 5149SOL    HW216347   0.207   0.636   5.791
 5150SOL     OW16348   2.426   5.613   4.554
 5150SOL    HW116349   2.361   5.601   4.479
 5150SOL    HW216350   2.486   5.690   4.534
 5151SOL     OW16351   4.207   1.083   5.622
 5151SOL    HW116352   4.254   1.100   5.535
 5151SOL    HW216353   4.254   1.009   5.671
 5152SOL     OW16354   0.712   4.879   0.300
 5152SOL    HW116355   0.664   4.967   0.303
 5152SOL    HW216356   0.709   4.835   0.389
 5153SOL     OW16357   1.906   2.081   1.217
 5153SOL    HW116358   1.938   2.020   1.289
 5153SOL    HW216359   1.922   2.040   1.128
 5154SOL     OW16360   1.693   4.493   5.835
 5154SOL    HW116361   1.675   4.573   5.778
 5154SOL    HW216362   1.666   4.411   5.785
 5155SOL     OW16363   3.614   0.673   2.810
 5155SOL    HW116364   3.678   0.621   2.867
 5155SOL    HW216365   3.644   0.671   2.715
 5156SOL     OW16366   5.512   2.728   6.171
 5156SOL    HW116367   5.535   2.682   6.256
 5156SOL    HW216368   5.578   2.702   6.100
 5157SOL     OW16369   6.237   2.489   4.097
 5157SOL    HW116370   6.179   2.571   4.098
 5157SOL    HW216371   6.237   2.447   4.188
 5158SOL     OW16372   3.935   0.582   1.112
 5158SOL    HW116373   3.915   0.622   1.202
 5158SOL    HW216374   3.873   0.621   1.044
 5159SOL     OW16375   2.148   3.593   5.131
 5159SOL    HW116376   2.181   3.500   5.147
 5159SOL    HW216377   2.204   3.658   5.182
 5160SOL     OW16378   1.930   2.658   4.362
 5160SOL    HW116379   1.973   2.588   4.306
 5160SOL    HW216380   1.845   2.622   4.400
 5161SOL     OW16381   2.055   3.136   6.528
 5161SOL    HW116382   1.963   3.126   6.565
 5161SOL    HW216383   2.116   3.069   6.570
 5162SOL     OW16384   6.713   5.158   4.664
 5162SOL    HW116385   6.630   5.107   4.645
 5162SOL    HW216386   6.784   5.095   4.696
 5163SOL     OW16387   5.669   4.138   0.974
 5163SOL    HW116388   5.702   4.075   1.045
 5163SOL    HW216389   5.673   4.094   0.885
 5164SOL     OW16390   5.829   5.969   5.675
 5164SOL    HW116391   5.896   5.895   5.687
 5164SOL    HW216392   5.745   5.932   5.635
 5165SOL     OW16393   6.260   3.859   4.756
 5165SOL    HW116394   6.321   3.876   4.833
 5165SOL    HW216395   6.190   3.794   4.783
 5166SOL     OW16396   1.624   6.899   1.852
 5166SOL    HW116397   1.543   6.863   1.899
 5166SOL    HW216398   1.616   6.882   1.754
 5167SOL     OW16399   1.702   0.420   5.355
 5167SOL    HW116400   1.639   0.449   5.282
 5167SOL    HW216401   1.669   0.453   5.443
 5168SOL     OW16402   4.112   1.961   2.885
 5168SOL    HW116403   4.158   2.043   2.851
 5168SOL    HW216404   4.076   1.909   2.808
 5169SOL     OW16405   4.095   4.466   6.501
 5169SOL    HW116406   4.137   4.557   6.502
 5169SOL    HW216407   4.109   4.422   6.590
 5170SOL     OW16408   4.412   5.444   4.374
 5170SOL    HW116409   4.383   5.403   4.287
 5170SOL    HW216410   4.419   5.372   4.443
 5171SOL     OW16411   2.515   4.848   4.727
 5171SOL    HW116412   2.584   4.917   4.750
 5171SOL    HW216413   2.549   4.757   4.751
 5172SOL     OW16414   1.846   4.491   0.451
 5172SOL    HW116415   1.855   4.411   0.393
 5172SOL    HW216416   1.925   4.551   0.437
 5173SOL     OW16417   6.849   2.590   6.086
 5173SOL    HW116418   6.942   2.570   6.054
 5173SOL    HW216419   6.793   2.508   6.079
 5174SOL     OW16420   1.937   4.852   5.822
 5174SOL    HW116421   2.011   4.860   5.889
 5174SOL    HW216422   1.861   4.911   5.850
 5175SOL     OW16423   0.274   5.313   5.834
 5175SOL    HW116424   0.232   5.245   5.774
 5175SOL    HW216425   0.333   5.373   5.780
 5176SOL     OW16426   4.806   4.229   5.993
 5176SOL    HW116427   4.718   4.235   5.944
 5176SOL    HW216428   4.881   4.229   5.927
 5177SOL     OW16429   5.252   5.719   5.942
 5177SOL    HW116430   5.180   5.783   5.918
 5177SOL    HW216431   5.342   5.762   5.931
 5178SOL     OW16432   2.476   2.327   1.141
 5178SOL    HW116433   2.498   2.401   1.205
 5178SOL    HW216434   2.429   2.365   1.061
 5179SOL     OW16435   3.201   6.272   5.593
 5179SOL    HW116436   3.278   6.272   5.528
 5179SOL    HW216437   3.115   6.276   5.542
 5180SOL     OW16438   3.345   1.645   0.259
 5180SOL    HW116439   3.307   1.552   0.259
 5180SOL    HW216440   3.292   1.702   0.322
 5181SOL     OW16441   2.933   5.949   2.423
 5181SOL    HW116442   2.841   5.974   2.394
 5181SOL    HW216443   2.951   5.853   2.401
 5182SOL     OW16444   4.662   3.890   1.369
 5182SOL    HW116445   4.633   3.920   1.460
 5182SOL    HW216446   4.665   3.969   1.307
 5183SOL     OW16447   4.026   1.187   3.461
 5183SOL    HW116448   4.074   1.102   3.481
 5183SOL    HW216449   3.931   1.181   3.492
 5184SOL     OW16450   1.003   2.266   2.906
 5184SOL    HW116451   1.029   2.181   2.860
 5184SOL    HW216452   1.083   2.324   2.918
 5185SOL     OW16453   3.735   0.162   1.879
 5185SOL    HW116454   3.720   0.251   1.836
 5185SOL    HW216455   3.648   0.114   1.889
 5186SOL     OW16456   5.448   4.998   0.098
 5186SOL    HW116457   5.394   5.040   0.170
 5186SOL    HW216458   5.501   4.922   0.137
 5187SOL     OW16459   5.086   1.545   4.646
 5187SOL    HW116460   5.151   1.585   4.711
 5187SOL    HW216461   5.083   1.601   4.563
 5188SOL     OW16462   1.159   2.623   3.493
 5188SOL    HW116463   1.143   2.583   3.583
 5188SOL    HW216464   1.170   2.551   3.425
 5189SOL     OW16465   4.413   5.949   6.973
 5189SOL    HW116466   4.363   5.863   6.962
 5189SOL    HW216467   4.423   5.969   0.044
 5190SOL     OW16468   2.003   2.856   2.725
 5190SOL    HW116469   1.996   2.953   2.745
 5190SOL    HW216470   2.067   2.813   2.789
 5191SOL     OW16471   5.302   0.421   2.208
 5191SOL    HW116472   5.376   0.356   2.192
 5191SOL    HW216473   5.319   0.505   2.157
 5192SOL     OW16474   6.173   4.410   1.791
 5192SOL    HW116475   6.106   4.337   1.783
 5192SOL    HW216476   6.158   4.478   1.719
 5193SOL     OW16477   4.747   4.179   2.173
 5193SOL    HW116478   4.821   4.119   2.142
 5193SOL    HW216479   4.677   4.186   2.102
 5194SOL     OW16480   4.989   1.221   0.373
 5194SOL    HW116481   4.970   1.133   0.329
 5194SOL    HW216482   5.032   1.206   0.462
 5195SOL     OW16483   6.249   6.281   5.116
 5195SOL    HW116484   6.169   6.266   5.058
 5195SOL    HW216485   6.222   6.278   5.212
 5196SOL     OW16486   7.009   3.712   2.297
 5196SOL    HW116487   7.025   3.798   2.344
 5196SOL    HW216488   6.931   3.722   2.235
 5197SOL     OW16489   3.270   5.598   5.343
 5197SOL    HW116490   3.289   5.520   5.404
 5197SOL    HW216491   3.246   5.678   5.398
 5198SOL     OW16492   4.115   1.019   4.942
 5198SOL    HW116493   4.132   1.093   5.007
 5198SOL    HW216494   4.058   1.052   4.868
 5199SOL     OW16495   0.400   5.569   1.515
 5199SOL    HW116496   0.453   5.623   1.581
 5199SOL    HW216497   0.347   5.631   1.456
 5200SOL     OW16498   6.715   0.145   5.116
 5200SOL    HW116499   6.666   0.117   5.198
 5200SOL    HW216500   6.650   0.170   5.045
 5201SOL     OW16501   5.661   4.882   5.322
 5201SOL    HW116502   5.596   4.862   5.395
 5201SOL    HW216503   5.706   4.798   5.293
 5202SOL     OW16504   3.907   2.946   5.725
 5202SOL    HW116505   3.808   2.940   5.711
 5202SOL    HW216506   3.951   2.974   5.639
 5203SOL     OW16507   1.451   0.279   6.023
 5203SOL    HW116508   1.408   0.321   5.943
 5203SOL    HW216509   1.460   0.180   6.008
 5204SOL     OW16510   2.191   0.729   1.307
 5204SOL    HW116511   2.266   0.677   1.265
 5204SOL    HW216512   2.157   0.679   1.387
 5205SOL     OW16513   6.747   0.257   1.542
 5205SOL    HW116514   6.833   0.255   1.490
 5205SOL    HW216515   6.754   0.194   1.620
 5206SOL     OW16516   1.225   4.336   3.975
 5206SOL    HW116517   1.314   4.377   3.956
 5206SOL    HW216518   1.190   4.370   4.062
 5207SOL     OW16519   5.509   6.589   4.860
 5207SOL    HW116520   5.582   6.546   4.807
 5207SOL    HW216521   5.530   6.686   4.873
 5208SOL     OW16522   6.507   1.998   0.593
 5208SOL    HW116523   6.604   1.978   0.606
 5208SOL    HW216524   6.497   2.093   0.562
 5209SOL     OW16525   5.429   6.614   3.637
 5209SOL    HW116526   5.490   6.541   3.667
 5209SOL    HW216527   5.482   6.685   3.591
 5210SOL     OW16528   5.701   4.510   1.127
 5210SOL    HW116529   5.645   4.525   1.209
 5210SOL    HW216530   5.771   4.581   1.121
 5211SOL     OW16531   5.246   3.107   4.873
 5211SOL    HW116532   5.339   3.082   4.848
 5211SOL    HW216533   5.186   3.096   4.794
 5212SOL     OW16534   0.131   3.923   0.718
 5212SOL    HW116535   0.073   3.990   0.673
 5212SOL    HW216536   0.203   3.971   0.769
 5213SOL     OW16537   3.832   3.342   2.836
 5213SOL    HW116538   3.833   3.266   2.771
 5213SOL    HW216539   3.881   3.419   2.796
 5214SOL     OW16540   5.411   3.259   5.738
 5214SOL    HW116541   5.456   3.280   5.825
 5214SOL    HW216542   5.313   3.248   5.753
 5215SOL     OW16543   0.012   5.057   5.298
 5215SOL    HW116544   0.057   5.122   5.360
 5215SOL    HW216545   6.963   5.102   5.252
 5216SOL     OW16546   5.417   4.869   1.316
 5216SOL    HW116547   5.481   4.798   1.286
 5216SOL    HW216548   5.408   4.865   1.415
 5217SOL     OW16549   4.689   0.098   2.780
 5217SOL    HW116550   4.593   0.073   2.764
 5217SOL    HW216551   4.727   0.041   2.852
 5218SOL     OW16552   6.333   6.969   0.703
 5218SOL    HW116553   6.419   6.980   0.753
 5218SOL    HW216554   6.256   6.987   0.765
 5219SOL     OW16555   3.461   1.325   5.160
 5219SOL    HW116556   3.512   1.345   5.076
 5219SOL    HW216557   3.425   1.410   5.198
 5220SOL     OW16558   2.357   4.934   4.507
 5220SOL    HW116559   2.302   4.861   4.466
 5220SOL    HW216560   2.430   4.893   4.562
 5221SOL     OW16561   5.227   6.069   1.273
 5221SOL    HW116562   5.152   6.121   1.313
 5221SOL    HW216563   5.275   6.126   1.206
 5222SOL     OW16564   0.027   3.466   2.100
 5222SOL    HW116565   7.025   3.516   2.182
 5222SOL    HW216566   6.986   3.396   2.078
 5223SOL     OW16567   6.362   2.753   0.872
 5223SOL    HW116568   6.277   2.707   0.895
 5223SOL    HW216569   6.386   2.816   0.946
 5224SOL     OW16570   1.209   1.943   5.050
 5224SOL    HW116571   1.247   1.941   5.142
 5224SOL    HW216572   1.113   1.916   5.052
 5225SOL     OW16573   6.913   1.922   4.964
 5225SOL    HW116574   6.978   1.862   4.917
 5225SOL    HW216575   6.954   2.013   4.975
 5226SOL     OW16576   0.094   6.143   4.511
 5226SOL    HW116577   0.056   6.234   4.491
 5226SOL    HW216578   0.191   6.152   4.533
 5227SOL     OW16579   0.814   3.463   5.857
 5227SOL    HW116580   0.783   3.556   5.874
 5227SOL    HW216581   0.791   3.436   5.764
 5228SOL     OW16582   0.951   2.024   5.399
 5228SOL    HW116583   0.956   1.924   5.390
 5228SOL    HW216584   0.909   2.062   5.316
 5229SOL     OW16585   3.410   2.051   6.142
 5229SOL    HW116586   3.389   2.047   6.239
 5229SOL    HW216587   3.363   2.128   6.100
 5230SOL     OW16588   6.492   0.630   2.412
 5230SOL    HW116589   6.569   0.644   2.351
 5230SOL    HW216590   6.476   0.531   2.423
 5231SOL     OW16591   6.441   3.806   2.269
 5231SOL    HW116592   6.475   3.898   2.287
 5231SOL    HW216593   6.423   3.796   2.171
 5232SOL     OW16594   1.754   2.386   5.708
 5232SOL    HW116595   1.744   2.478   5.671
 5232SOL    HW216596   1.664   2.347   5.726
 5233SOL     OW16597   3.767   7.013   3.219
 5233SOL    HW116598   3.721   0.053   3.277
 5233SOL    HW216599   3.723   7.011   3.129
 5234SOL     OW16600   2.665   2.807   6.196
 5234SOL    HW116601   2.648   2.904   6.215
 5234SOL    HW216602   2.706   2.797   6.106
 5235SOL     OW16603   2.229   1.838   1.639
 5235SOL    HW116604   2.288   1.908   1.679
 5235SOL    HW216605   2.169   1.802   1.710
 5236SOL     OW16606   3.077   4.861   2.038
 5236SOL    HW116607   3.021   4.810   2.104
 5236SOL    HW216608   3.076   4.812   1.951
 5237SOL     OW16609   1.730   1.725   1.718
 5237SOL    HW116610   1.678   1.690   1.640
 5237SOL    HW216611   1.825   1.742   1.690
 5238SOL     OW16612   6.870   0.369   2.964
 5238SOL    HW116613   6.864   0.272   2.989
 5238SOL    HW216614   6.795   0.392   2.902
 5239SOL     OW16615   2.492   4.249   1.102
 5239SOL    HW116616   2.584   4.219   1.127
 5239SOL    HW216617   2.462   4.320   1.166
 5240SOL     OW16618   2.354   4.270   6.170
 5240SOL    HW116619   2.328   4.360   6.137
 5240SOL    HW216620   2.313   4.254   6.260
 5241SOL     OW16621   2.238   6.693   2.694
 5241SOL    HW116622   2.269   6.786   2.674
 5241SOL    HW216623   2.178   6.694   2.775
 5242SOL     OW16624   3.684   6.894   6.008
 5242SOL    HW116625   3.649   6.839   6.084
 5242SOL    HW216626   3.783   6.900   6.015
 5243SOL     OW16627   2.604   5.850   3.219
 5243SOL    HW116628   2.633   5.759   3.247
 5243SOL    HW216629   2.685   5.907   3.202
 5244SOL     OW16630   4.174   0.816   6.619
 5244SOL    HW116631   4.190   0.787   6.714
 5244SOL    HW216632   4.096   0.879   6.617
 5245SOL     OW16633   3.069   3.927   1.545
 5245SOL    HW116634   3.147   3.867   1.564
 5245SOL    HW216635   3.004   3.923   1.620
 5246SOL     OW16636   5.881   3.968   6.272
 5246SOL    HW116637   5.854   4.055   6.314
 5246SOL    HW216638   5.880   3.978   6.173
 5247SOL     OW16639   5.102   1.537   6.687
 5247SOL    HW116640   5.199   1.535   6.663
 5247SOL    HW216641   5.067   1.631   6.678
 5248SOL     OW16642   5.311   1.351   4.056
 5248SOL    HW116643   5.312   1.444   4.093
 5248SOL    HW216644   5.395   1.335   4.003
 5249SOL     OW16645   6.947   4.993   1.076
 5249SOL    HW116646   6.887   4.929   1.028
 5249SOL    HW216647   6.976   4.952   1.163
 5250SOL     OW16648   2.763   5.431   1.198
 5250SOL    HW116649   2.761   5.380   1.284
 5250SOL    HW216650   2.700   5.389   1.133
 5251SOL     OW16651   0.427   4.819   0.007
 5251SOL    HW116652   0.449   4.722   0.000
 5251SOL    HW216653   0.347   4.831   0.065
 5252SOL     OW16654   3.884   5.789   2.721
 5252SOL    HW116655   3.961   5.725   2.724
 5252SOL    HW216656   3.805   5.744   2.679
 5253SOL     OW16657   0.332   6.145   4.936
 5253SOL    HW116658   0.234   6.134   4.953
 5253SOL    HW216659   0.359   6.087   4.859
 5254SOL     OW16660   4.432   5.764   2.501
 5254SOL    HW116661   4.337   5.788   2.483
 5254SOL    HW216662   4.487   5.847   2.506
 5255SOL     OW16663   6.545   1.940   5.725
 5255SOL    HW116664   6.563   1.913   5.819
 5255SOL    HW216665   6.446   1.944   5.710
 5256SOL     OW16666   5.815   1.810   2.782
 5256SOL    HW116667   5.909   1.839   2.764
 5256SOL    HW216668   5.752   1.864   2.726
 5257SOL     OW16669   4.462   1.983   6.625
 5257SOL    HW116670   4.500   2.074   6.643
 5257SOL    HW216671   4.394   1.960   6.694
 5258SOL     OW16672   4.669   1.526   5.073
 5258SOL    HW116673   4.631   1.437   5.098
 5258SOL    HW216674   4.614   1.599   5.113
 5259SOL     OW16675   5.503   5.231   3.863
 5259SOL    HW116676   5.582   5.182   3.828
 5259SOL    HW216677   5.465   5.182   3.942
 5260SOL     OW16678   2.293   5.802   1.627
 5260SOL    HW116679   2.393   5.803   1.630
 5260SOL    HW216680   2.262   5.749   1.549
 5261SOL     OW16681   5.897   4.798   6.836
 5261SOL    HW116682   5.858   4.839   6.919
 5261SOL    HW216683   5.979   4.849   6.809
 5262SOL     OW16684   1.578   1.151   1.708
 5262SOL    HW116685   1.566   1.074   1.645
 5262SOL    HW216686   1.648   1.128   1.776
 5263SOL     OW16687   2.059   6.311   3.115
 5263SOL    HW116688   2.075   6.378   3.042
 5263SOL    HW216689   1.984   6.251   3.089
 5264SOL     OW16690   6.638   2.693   1.894
 5264SOL    HW116691   6.589   2.766   1.846
 5264SOL    HW216692   6.716   2.732   1.943
 5265SOL     OW16693   6.475   5.827   5.502
 5265SOL    HW116694   6.394   5.781   5.466
 5265SOL    HW216695   6.468   5.925   5.484
 5266SOL     OW16696   1.411   6.896   6.042
 5266SOL    HW116697   1.383   6.862   6.132
 5266SOL    HW216698   1.505   6.930   6.047
 5267SOL     OW16699   5.675   1.867   3.935
 5267SOL    HW116700   5.672   1.825   3.844
 5267SOL    HW216701   5.596   1.928   3.946
 5268SOL     OW16702   5.406   0.095   6.180
 5268SOL    HW116703   5.424   0.143   6.094
 5268SOL    HW216704   5.482   0.110   6.243
 5269SOL     OW16705   1.235   0.457   3.811
 5269SOL    HW116706   1.296   0.513   3.867
 5269SOL    HW216707   1.273   0.365   3.803
 5270SOL     OW16708   0.783   2.047   6.434
 5270SOL    HW116709   0.771   2.144   6.412
 5270SOL    HW216710   0.723   1.992   6.376
 5271SOL     OW16711   1.276   4.923   4.168
 5271SOL    HW116712   1.201   4.981   4.203
 5271SOL    HW216713   1.289   4.845   4.229
 5272SOL     OW16714   4.246   0.556   6.152
 5272SOL    HW116715   4.230   0.574   6.249
 5272SOL    HW216716   4.288   0.636   6.109
 5273SOL     OW16717   2.935   1.615   2.880
 5273SOL    HW116718   2.913   1.587   2.787
 5273SOL    HW216719   3.002   1.689   2.878
 5274SOL     OW16720   5.247   5.092   1.288
 5274SOL    HW116721   5.314   5.018   1.276
 5274SOL    HW216722   5.292   5.180   1.269
 5275SOL     OW16723   5.256   1.564   6.396
 5275SOL    HW116724   5.305   1.548   6.482
 5275SOL    HW216725   5.176   1.621   6.415
 5276SOL     OW16726   4.052   6.427   1.715
 5276SOL    HW116727   4.145   6.393   1.699
 5276SOL    HW216728   4.026   6.411   1.810
 5277SOL     OW16729   2.167   3.014   1.994
 5277SOL    HW116730   2.205   2.950   2.060
 5277SOL    HW216731   2.242   3.065   1.950
 5278SOL     OW16732   3.595   3.124   2.499
 5278SOL    HW116733   3.604   3.084   2.407
 5278SOL    HW216734   3.612   3.222   2.494
 5279SOL     OW16735   1.579   6.167   3.066
 5279SOL    HW116736   1.630   6.246   3.033
 5279SOL    HW216737   1.492   6.160   3.017
 5280SOL     OW16738   4.016   1.097   4.665
 5280SOL    HW116739   4.079   1.149   4.607
 5280SOL    HW216740   3.998   1.008   4.622
 5281SOL     OW16741   7.010   2.507   3.859
 5281SOL    HW116742   6.938   2.488   3.926
 5281SOL    HW216743   0.028   2.594   3.882
 5282SOL     OW16744   4.961   2.246   1.129
 5282SOL    HW116745   5.055   2.213   1.117
 5282SOL    HW216746   4.935   2.301   1.050
 5283SOL     OW16747   4.736   4.547   6.400
 5283SOL    HW116748   4.801   4.622   6.413
 5283SOL    HW216749   4.700   4.550   6.307
 5284SOL     OW16750   5.068   2.901   3.685
 5284SOL    HW116751   5.074   2.810   3.725
 5284SOL    HW216752   4.997   2.954   3.733
 5285SOL     OW16753   4.418   6.625   2.394
 5285SOL    HW116754   4.329   6.647   2.434
 5285SOL    HW216755   4.481   6.596   2.467
 5286SOL     OW16756   2.137   4.959   1.819
 5286SOL    HW116757   2.049   4.946   1.773
 5286SOL    HW216758   2.129   5.032   1.887
 5287SOL     OW16759   0.615   0.960   2.586
 5287SOL    HW116760   0.614   1.059   2.569
 5287SOL    HW216761   0.589   0.911   2.503
 5288SOL     OW16762   4.323   0.418   0.520
 5288SOL    HW116763   4.267   0.490   0.562
 5288SOL    HW216764   4.307   0.419   0.421
 5289SOL     OW16765   1.389   6.003   1.372
 5289SOL    HW116766   1.435   6.091   1.386
 5289SOL    HW216767   1.304   6.018   1.322
 5290SOL     OW16768   5.803   5.942   0.069
 5290SOL    HW116769   5.782   6.039   0.065
 5290SOL    HW216770   5.736   5.891   0.014
 5291SOL     OW16771   1.154   5.805   6.606
 5291SOL    HW116772   1.104   5.784   6.690
 5291SOL    HW216773   1.251   5.818   6.626
 5292SOL     OW16774   5.488   1.537   1.167
 5292SOL    HW116775   5.490   1.629   1.126
 5292SOL    HW216776   5.509   1.545   1.265
 5293SOL     OW16777   1.464   1.540   4.323
 5293SOL    HW116778   1.426   1.579   4.407
 5293SOL    HW216779   1.486   1.613   4.259
 5294SOL     OW16780   4.100   2.956   6.256
 5294SOL    HW116781   4.140   2.999   6.175
 5294SOL    HW216782   4.153   2.981   6.337
 5295SOL     OW16783   6.499   1.906   2.490
 5295SOL    HW116784   6.437   1.831   2.469
 5295SOL    HW216785   6.456   1.993   2.465
 5296SOL     OW16786   0.281   3.211   6.637
 5296SOL    HW116787   0.365   3.157   6.626
 5296SOL    HW216788   0.204   3.149   6.653
 5297SOL     OW16789   1.262   2.724   1.846
 5297SOL    HW116790   1.180   2.781   1.834
 5297SOL    HW216791   1.272   2.663   1.768
 5298SOL     OW16792   1.187   4.497   1.855
 5298SOL    HW116793   1.162   4.401   1.847
 5298SOL    HW216794   1.227   4.514   1.945
 5299SOL     OW16795   2.883   0.249   1.037
 5299SOL    HW116796   2.934   0.192   0.972
 5299SOL    HW216797   2.930   0.249   1.125
 5300SOL     OW16798   0.381   5.324   3.982
 5300SOL    HW116799   0.350   5.231   3.961
 5300SOL    HW216800   0.366   5.343   4.079
 5301SOL     OW16801   4.477   0.349   6.980
 5301SOL    HW116802   4.572   0.377   6.994
 5301SOL    HW216803   4.462   0.330   6.883
 5302SOL     OW16804   6.442   4.143   3.217
 5302SOL    HW116805   6.342   4.139   3.214
 5302SOL    HW216806   6.480   4.054   3.192
 5303SOL     OW16807   1.807   5.025   3.442
 5303SOL    HW116808   1.879   5.047   3.376
 5303SOL    HW216809   1.760   4.942   3.412
 5304SOL     OW16810   4.515   2.932   5.802
 5304SOL    HW116811   4.547   2.916   5.895
 5304SOL    HW216812   4.554   2.863   5.741
 5305SOL     OW16813   3.102   1.356   4.291
 5305SOL    HW116814   3.079   1.326   4.199
 5305SOL    HW216815   3.130   1.277   4.346
 5306SOL     OW16816   2.435   6.435   4.560
 5306SOL    HW116817   2.370   6.451   4.485
 5306SOL    HW216818   2.398   6.471   4.645
 5307SOL     OW16819   4.500   0.124   0.268
 5307SOL    HW116820   4.547   0.210   0.287
 5307SOL    HW216821   4.459   0.089   0.353
 5308SOL     OW16822   6.355   1.560   1.921
 5308SOL    HW116823   6.367   1.609   1.836
 5308SOL    HW216824   6.445   1.541   1.961
 5309SOL     OW16825   3.842   3.702   4.975
 5309SOL    HW116826   3.811   3.627   4.917
 5309SOL    HW216827   3.920   3.748   4.933
 5310SOL     OW16828   5.435   2.806   0.770
 5310SOL    HW116829   5.393   2.867   0.836
 5310SOL    HW216830   5.434   2.713   0.804
 5311SOL     OW16831   0.379   6.247   6.757
 5311SOL    HW116832   0.311   6.184   6.719
 5311SOL    HW216833   0.461   6.195   6.782
 5312SOL     OW16834   0.503   3.121   2.051
 5312SOL    HW116835   0.404   3.127   2.054
 5312SOL    HW216836   0.538   3.182   1.979
 5313SOL     OW16837   0.399   6.205   0.750
 5313SOL    HW116838   0.421   6.163   0.838
 5313SOL    HW216839   0.474   6.265   0.722
 5314SOL     OW16840   3.727   5.275   1.345
 5314SOL    HW116841   3.795   5.326   1.292
 5314SOL    HW216842   3.658   5.337   1.381
 5315SOL     OW16843   5.426   2.284   2.188
 5315SOL    HW116844   5.461   2.346   2.118
 5315SOL    HW216845   5.474   2.196   2.181
 5316SOL     OW16846   5.668   5.279   4.176
 5316SOL    HW116847   5.687   5.251   4.270
 5316SOL    HW216848   5.754   5.303   4.131
 5317SOL     OW16849   6.821   5.528   2.417
 5317SOL    HW116850   6.749   5.482   2.366
 5317SOL    HW216851   6.829   5.623   2.386
 5318SOL     OW16852   0.453   2.634   4.228
 5318SOL    HW116853   0.531   2.652   4.167
 5318SOL    HW216854   0.448   2.706   4.297
 5319SOL     OW16855   3.313   6.675   2.657
 5319SOL    HW116856   3.342   6.737   2.584
 5319SOL    HW216857   3.295   6.584   2.619
 5320SOL     OW16858   6.826   3.092   6.322
 5320SOL    HW116859   6.879   3.176   6.338
 5320SOL    HW216860   6.753   3.085   6.390
 5321SOL     OW16861   2.835   4.317   6.267
 5321SOL    HW116862   2.746   4.284   6.299
 5321SOL    HW216863   2.825   4.409   6.230
 5322SOL     OW16864   2.354   5.791   0.997
 5322SOL    HW116865   2.266   5.838   0.998
 5322SOL    HW216866   2.411   5.827   1.071
 5323SOL     OW16867   5.352   3.127   0.377
 5323SOL    HW116868   5.336   3.079   0.463
 5323SOL    HW216869   5.275   3.187   0.356
 5324SOL     OW16870   4.017   2.773   1.273
 5324SOL    HW116871   3.950   2.787   1.346
 5324SOL    HW216872   4.040   2.676   1.267
 5325SOL     OW16873   4.128   6.268   4.510
 5325SOL    HW116874   4.133   6.249   4.608
 5325SOL    HW216875   4.066   6.202   4.466
 5326SOL     OW16876   0.497   0.399   2.496
 5326SOL    HW116877   0.583   0.400   2.546
 5326SOL    HW216878   0.509   0.356   2.407
 5327SOL     OW16879   6.969   0.584   3.714
 5327SOL    HW116880   7.026   0.628   3.645
 5327SOL    HW216881   6.873   0.589   3.686
 5328SOL     OW16882   3.832   4.876   6.960
 5328SOL    HW116883   3.930   4.887   6.974
 5328SOL    HW216884   3.807   4.913   6.870
 5329SOL     OW16885   0.357   5.503   6.648
 5329SOL    HW116886   0.316   5.417   6.617
 5329SOL    HW216887   0.448   5.513   6.608
 5330SOL     OW16888   3.362   4.386   0.320
 5330SOL    HW116889   3.351   4.347   0.411
 5330SOL    HW216890   3.458   4.380   0.293
 5331SOL     OW16891   5.383   1.106   6.762
 5331SOL    HW116892   5.350   1.141   6.674
 5331SOL    HW216893   5.419   1.014   6.750
 5332SOL     OW16894   6.210   3.096   0.345
 5332SOL    HW116895   6.274   3.090   0.269
 5332SOL    HW216896   6.201   3.191   0.374
 5333SOL     OW16897   1.001   0.665   3.836
 5333SOL    HW116898   1.022   0.724   3.914
 5333SOL    HW216899   0.995   0.570   3.867
 5334SOL     OW16900   3.432   6.209   1.869
 5334SOL    HW116901   3.509   6.269   1.891
 5334SOL    HW216902   3.349   6.263   1.859
 5335SOL     OW16903   0.069   4.475   2.293
 5335SOL    HW116904   0.016   4.470   2.209
 5335SOL    HW216905   0.114   4.565   2.299
 5336SOL     OW16906   1.768   3.778   5.229
 5336SOL    HW116907   1.814   3.866   5.241
 5336SOL    HW216908   1.709   3.760   5.309
 5337SOL     OW16909   6.663   3.225   1.208
 5337SOL    HW116910   6.760   3.241   1.189
 5337SOL    HW216911   6.651   3.210   1.307
 5338SOL     OW16912   6.948   3.263   1.254
 5338SOL    HW116913   6.966   3.279   1.157
 5338SOL    HW216914   0.007   3.269   1.305
 5339SOL     OW16915   5.538   2.900   2.874
 5339SOL    HW116916   5.602   2.845   2.820
 5339SOL    HW216917   5.456   2.845   2.894
 5340SOL     OW16918   4.959   3.120   1.612
 5340SOL    HW116919   5.004   3.172   1.684
 5340SOL    HW216920   4.863   3.149   1.605
 5341SOL     OW16921   4.898   5.002   3.709
 5341SOL    HW116922   4.835   5.009   3.786
 5341SOL    HW216923   4.864   4.935   3.643
 5342SOL     OW16924   6.333   5.717   4.449
 5342SOL    HW116925   6.269   5.644   4.476
 5342SOL    HW216926   6.310   5.749   4.357
 5343SOL     OW16927   3.895   3.386   6.671
 5343SOL    HW116928   3.883   3.422   6.579
 5343SOL    HW216929   3.925   3.459   6.732
 5344SOL     OW16930   6.518   1.865   6.817
 5344SOL    HW116931   6.577   1.872   6.898
 5344SOL    HW216932   6.574   1.872   6.735
 5345SOL     OW16933   3.542   1.416   0.075
 5345SOL    HW116934   3.505   1.478   0.144
 5345SOL    HW216935   3.475   1.344   0.055
 5346SOL     OW16936   2.784   6.602   3.427
 5346SOL    HW116937   2.795   6.569   3.521
 5346SOL    HW216938   2.689   6.587   3.398
 5347SOL     OW16939   5.296   1.679   5.215
 5347SOL    HW116940   5.260   1.655   5.305
 5347SOL    HW216941   5.394   1.695   5.221
 5348SOL     OW16942   5.117   2.959   5.129
 5348SOL    HW116943   5.187   2.962   5.058
 5348SOL    HW216944   5.035   3.006   5.097
 5349SOL     OW16945   1.040   4.210   1.428
 5349SOL    HW116946   1.115   4.157   1.469
 5349SOL    HW216947   0.989   4.152   1.365
 5350SOL     OW16948   0.844   6.637   5.946
 5350SOL    HW116949   0.934   6.681   5.955
 5350SOL    HW216950   0.854   6.550   5.898
 5351SOL     OW16951   0.265   5.815   3.175
 5351SOL    HW116952   0.292   5.804   3.079
 5351SOL    HW216953   0.332   5.767   3.233
 5352SOL     OW16954   1.507   2.665   5.868
 5352SOL    HW116955   1.413   2.632   5.873
 5352SOL    HW216956   1.507   2.765   5.866
 5353SOL     OW16957   3.133   6.430   3.624
 5353SOL    HW116958   3.098   6.506   3.678
 5353SOL    HW216959   3.233   6.431   3.625
 5354SOL     OW16960   3.973   6.012   1.867
 5354SOL    HW116961   4.028   5.984   1.788
 5354SOL    HW216962   3.974   5.939   1.936
 5355SOL     OW16963   5.161   5.842   5.378
 5355SOL    HW116964   5.210   5.928   5.391
 5355SOL    HW216965   5.142   5.828   5.281
 5356SOL     OW16966   1.123   6.629   1.469
 5356SOL    HW116967   1.164   6.686   1.398
 5356SOL    HW216968   1.171   6.644   1.556
 5357SOL     OW16969   6.433   3.507   2.663
 5357SOL    HW116970   6.408   3.474   2.572
 5357SOL    HW216971   6.440   3.607   2.662
 5358SOL     OW16972   6.113   0.839   6.440
 5358SOL    HW116973   6.168   0.922   6.442
 5358SOL    HW216974   6.169   0.762   6.409
 5359SOL     OW16975   2.880   2.204   0.034
 5359SOL    HW116976   2.781   2.214   0.023
 5359SOL    HW216977   2.904   2.107   0.033
 5360SOL     OW16978   5.592   6.012   3.898
 5360SOL    HW116979   5.642   6.068   3.832
 5360SOL    HW216980   5.510   6.060   3.928
 5361SOL     OW16981   1.834   3.814   3.264
 5361SOL    HW116982   1.870   3.759   3.189
 5361SOL    HW216983   1.881   3.788   3.349
 5362SOL     OW16984   6.716   1.324   3.195
 5362SOL    HW116985   6.792   1.269   3.161
 5362SOL    HW216986   6.643   1.264   3.229
 5363SOL     OW16987   5.521   5.487   4.065
 5363SOL    HW116988   5.593   5.506   3.998
 5363SOL    HW216989   5.542   5.401   4.112
 5364SOL     OW16990   4.884   2.367   2.366
 5364SOL    HW116991   4.925   2.278   2.385
 5364SOL    HW216992   4.794   2.354   2.323
 5365SOL     OW16993   3.079   3.913   5.502
 5365SOL    HW116994   3.153   3.857   5.465
 5365SOL    HW216995   3.083   3.913   5.602
 5366SOL     OW16996   0.795   4.797   3.406
 5366SOL    HW116997   0.875   4.856   3.417
 5366SOL    HW216998   0.712   4.852   3.418
 5367SOL     OW16999   5.933   6.264   1.415
 5367SOL    HW117000   5.942   6.167   1.438
 5367SOL    HW217001   6.012   6.314   1.452
 5368SOL     OW17002   0.248   5.538   5.156
 5368SOL    HW117003   0.323   5.543   5.090
 5368SOL    HW217004   0.260   5.458   5.214
 5369SOL     OW17005   4.430   0.003   2.816
 5369SOL    HW117006   4.382   6.949   2.779
 5369SOL    HW217007   4.384   0.035   2.898
 5370SOL     OW17008   2.553   2.168   0.683
 5370SOL    HW117009   2.498   2.246   0.711
 5370SOL    HW217010   2.520   2.134   0.595
 5371SOL     OW17011   5.751   5.481   3.493
 5371SOL    HW117012   5.663   5.471   3.538
 5371SOL    HW217013   5.820   5.427   3.541
 5372SOL     OW17014   1.595   0.096   3.753
 5372SOL    HW117015   1.690   0.105   3.721
 5372SOL    HW217016   1.595   0.082   3.852
 5373SOL     OW17017   3.393   0.671   6.726
 5373SOL    HW117018   3.414   0.617   6.645
 5373SOL    HW217019   3.391   0.612   6.807
 5374SOL     OW17020   1.341   3.843   1.344
 5374SOL    HW117021   1.411   3.844   1.416
 5374SOL    HW217022   1.373   3.791   1.266
 5375SOL     OW17023   2.624   4.641   4.863
 5375SOL    HW117024   2.548   4.613   4.921
 5375SOL    HW217025   2.708   4.648   4.917
 5376SOL     OW17026   1.016   1.020   1.184
 5376SOL    HW117027   0.965   1.034   1.099
 5376SOL    HW217028   1.084   1.094   1.195
 5377SOL     OW17029   0.669   2.145   2.090
 5377SOL    HW117030   0.717   2.111   2.009
 5377SOL    HW217031   0.571   2.151   2.071
 5378SOL     OW17032   5.151   0.064   2.538
 5378SOL    HW117033   5.085   0.055   2.613
 5378SOL    HW217034   5.105   0.050   2.451
 5379SOL     OW17035   2.429   2.056   3.666
 5379SOL    HW117036   2.354   2.007   3.621
 5379SOL    HW217037   2.507   2.061   3.604
 5380SOL     OW17038   4.815   6.438   1.213
 5380SOL    HW117039   4.894   6.426   1.154
 5380SOL    HW217040   4.732   6.407   1.165
 5381SOL     OW17041   3.495   1.832   3.203
 5381SOL    HW117042   3.443   1.910   3.238
 5381SOL    HW217043   3.580   1.865   3.161
 5382SOL     OW17044   4.192   0.426   2.569
 5382SOL    HW117045   4.202   0.507   2.627
 5382SOL    HW217046   4.265   0.361   2.589
 5383SOL     OW17047   2.492   3.511   5.320
 5383SOL    HW117048   2.535   3.602   5.314
 5383SOL    HW217049   2.446   3.502   5.408
 5384SOL     OW17050   5.129   6.722   6.418
 5384SOL    HW117051   5.157   6.818   6.418
 5384SOL    HW217052   5.206   6.665   6.446
 5385SOL     OW17053   3.001   3.277   0.083
 5385SOL    HW117054   3.089   3.285   0.037
 5385SOL    HW217055   3.015   3.277   0.182
 5386SOL     OW17056   4.051   5.035   3.642
 5386SOL    HW117057   4.103   4.950   3.656
 5386SOL    HW217058   3.975   5.018   3.580
 5387SOL     OW17059   1.203   2.594   4.224
 5387SOL    HW117060   1.301   2.575   4.218
 5387SOL    HW217061   1.184   2.648   4.306
 5388SOL     OW17062   6.745   6.318   3.677
 5388SOL    HW117063   6.816   6.286   3.740
 5388SOL    HW217064   6.788   6.356   3.595
 5389SOL     OW17065   5.202   1.784   4.279
 5389SOL    HW117066   5.260   1.718   4.231
 5389SOL    HW217067   5.137   1.736   4.337
 5390SOL     OW17068   5.565   3.643   3.474
 5390SOL    HW117069   5.499   3.624   3.547
 5390SOL    HW217070   5.658   3.635   3.511
 5391SOL     OW17071   4.586   2.541   1.407
 5391SOL    HW117072   4.593   2.441   1.408
 5391SOL    HW217073   4.622   2.577   1.321
 5392SOL     OW17074   5.235   0.581   4.149
 5392SOL    HW117075   5.193   0.548   4.233
 5392SOL    HW217076   5.297   0.510   4.113
 5393SOL     OW17077   4.071   1.514   3.451
 5393SOL    HW117078   4.105   1.420   3.456
 5393SOL    HW217079   4.125   1.566   3.385
 5394SOL     OW17080   6.921   2.786   2.486
 5394SOL    HW117081   6.985   2.759   2.558
 5394SOL    HW217082   6.832   2.808   2.527
 5395SOL     OW17083   0.110   1.185   1.194
 5395SOL    HW117084   0.055   1.113   1.153
 5395SOL    HW217085   0.052   1.265   1.213
 5396SOL     OW17086   4.116   2.507   1.261
 5396SOL    HW117087   4.040   2.444   1.252
 5396SOL    HW217088   4.193   2.461   1.306
 5397SOL     OW17089   0.331   0.431   1.970
 5397SOL    HW117090   0.283   0.481   2.041
 5397SOL    HW217091   0.382   0.495   1.912
 5398SOL     OW17092   6.150   2.554   3.426
 5398SOL    HW117093   6.095   2.583   3.349
 5398SOL    HW217094   6.205   2.474   3.401
 5399SOL     OW17095   2.201   2.852   0.782
 5399SOL    HW117096   2.242   2.760   0.774
 5399SOL    HW217097   2.272   2.917   0.806
 5400SOL     OW17098   5.311   3.170   1.154
 5400SOL    HW117099   5.232   3.112   1.131
 5400SOL    HW217100   5.282   3.266   1.155
 5401SOL     OW17101   5.182   3.107   1.426
 5401SOL    HW117102   5.170   3.115   1.327
 5401SOL    HW217103   5.093   3.105   1.471
 5402SOL     OW17104   1.843   5.997   2.006
 5402SOL    HW117105   1.913   6.033   1.944
 5402SOL    HW217106   1.769   5.956   1.953
 5403SOL     OW17107   5.701   1.940   6.177
 5403SOL    HW117108   5.733   1.877   6.106
 5403SOL    HW217109   5.741   2.030   6.163
 5404SOL     OW17110   4.715   6.619   0.326
 5404SOL    HW117111   4.771   6.662   0.255
 5404SOL    HW217112   4.766   6.543   0.366
 5405SOL     OW17113   0.223   5.310   6.480
 5405SOL    HW117114   0.192   5.394   6.437
 5405SOL    HW217115   0.145   5.265   6.524
 5406SOL     OW17116   2.522   0.938   5.426
 5406SOL    HW117117   2.523   0.979   5.335
 5406SOL    HW217118   2.429   0.944   5.464
 5407SOL     OW17119   1.599   0.215   3.091
 5407SOL    HW117120   1.500   0.222   3.088
 5407SOL    HW217121   1.640   0.296   3.050
 5408SOL     OW17122   2.102   2.158   4.557
 5408SOL    HW117123   2.198   2.187   4.562
 5408SOL    HW217124   2.046   2.236   4.529
 5409SOL     OW17125   0.720   3.334   3.052
 5409SOL    HW117126   0.781   3.349   2.975
 5409SOL    HW217127   0.630   3.373   3.032
 5410SOL     OW17128   6.106   2.200   0.497
 5410SOL    HW117129   6.102   2.278   0.559
 5410SOL    HW217130   6.027   2.141   0.511
 5411SOL     OW17131   3.230   5.274   1.352
 5411SOL    HW117132   3.276   5.206   1.295
 5411SOL    HW217133   3.188   5.344   1.294
 5412SOL     OW17134   1.471   2.395   5.590
 5412SOL    HW117135   1.380   2.384   5.629
 5412SOL    HW217136   1.506   2.487   5.611
 5413SOL     OW17137   6.986   5.541   5.811
 5413SOL    HW117138   0.047   5.588   5.815
 5413SOL    HW217139   6.949   5.546   5.718
 5414SOL     OW17140   5.378   5.234   5.878
 5414SOL    HW117141   5.444   5.201   5.945
 5414SOL    HW217142   5.369   5.167   5.804
 5415SOL     OW17143   1.500   1.504   6.354
 5415SOL    HW117144   1.530   1.411   6.331
 5415SOL    HW217145   1.426   1.531   6.292
 5416SOL     OW17146   3.504   6.043   6.194
 5416SOL    HW117147   3.484   5.972   6.261
 5416SOL    HW217148   3.603   6.056   6.187
 5417SOL     OW17149   5.820   0.248   2.362
 5417SOL    HW117150   5.749   0.230   2.431
 5417SOL    HW217151   5.886   0.313   2.398
 5418SOL     OW17152   0.374   3.921   5.604
 5418SOL    HW117153   0.411   3.969   5.524
 5418SOL    HW217154   0.285   3.883   5.581
 5419SOL     OW17155   3.773   1.423   6.139
 5419SOL    HW117156   3.745   1.517   6.160
 5419SOL    HW217157   3.832   1.423   6.058
 5420SOL     OW17158   1.523   2.317   0.941
 5420SOL    HW117159   1.443   2.364   0.904
 5420SOL    HW217160   1.493   2.249   1.008
 5421SOL     OW17161   3.985   5.113   1.888
 5421SOL    HW117162   4.004   5.105   1.986
 5421SOL    HW217163   3.996   5.208   1.860
 5422SOL     OW17164   2.588   6.083   3.562
 5422SOL    HW117165   2.561   6.173   3.598
 5422SOL    HW217166   2.510   6.040   3.517
 5423SOL     OW17167   4.055   6.754   1.590
 5423SOL    HW117168   4.122   6.685   1.564
 5423SOL    HW217169   4.023   6.736   1.683
 5424SOL     OW17170   3.998   3.872   5.283
 5424SOL    HW117171   4.044   3.787   5.306
 5424SOL    HW217172   4.035   3.946   5.339
 5425SOL     OW17173   1.604   5.215   5.422
 5425SOL    HW117174   1.585   5.205   5.324
 5425SOL    HW217175   1.698   5.245   5.434
 5426SOL     OW17176   0.736   4.307   6.977
 5426SOL    HW117177   0.676   4.338   6.904
 5426SOL    HW217178   0.703   4.220   7.014
 5427SOL     OW17179   4.962   2.282   0.472
 5427SOL    HW117180   4.873   2.241   0.489
 5427SOL    HW217181   4.953   2.355   0.405
 5428SOL     OW17182   4.637   5.836   3.021
 5428SOL    HW117183   4.597   5.801   2.936
 5428SOL    HW217184   4.566   5.850   3.089
 5429SOL     OW17185   2.362   6.567   3.990
 5429SOL    HW117186   2.319   6.647   4.031
 5429SOL    HW217187   2.340   6.565   3.892
 5430SOL     OW17188   1.321   4.242   5.100
 5430SOL    HW117189   1.404   4.268   5.150
 5430SOL    HW217190   1.345   4.209   5.010
 5431SOL     OW17191   4.862   4.550   0.870
 5431SOL    HW117192   4.862   4.455   0.901
 5431SOL    HW217193   4.781   4.567   0.813
 5432SOL     OW17194   0.439   5.196   6.361
 5432SOL    HW117195   0.344   5.218   6.380
 5432SOL    HW217196   0.460   5.218   6.265
 5433SOL     OW17197   2.801   6.952   1.226
 5433SOL    HW117198   2.849   6.865   1.225
 5433SOL    HW217199   2.713   6.942   1.180
 5434SOL     OW17200   4.958   6.052   4.007
 5434SOL    HW117201   5.045   6.004   4.001
 5434SOL    HW217202   4.892   6.011   3.944
 5435SOL     OW17203   6.846   3.878   6.560
 5435SOL    HW117204   6.786   3.914   6.631
 5435SOL    HW217205   6.852   3.944   6.485
 5436SOL     OW17206   1.883   4.415   1.942
 5436SOL    HW117207   1.829   4.496   1.921
 5436SOL    HW217208   1.927   4.381   1.858
 5437SOL     OW17209   3.226   6.161   0.109
 5437SOL    HW117210   3.226   6.171   0.209
 5437SOL    HW217211   3.134   6.177   0.074
 5438SOL     OW17212   5.764   0.063   2.696
 5438SOL    HW117213   5.692   0.007   2.737
 5438SOL    HW217214   5.776   0.146   2.750
 5439SOL     OW17215   1.614   4.128   1.918
 5439SOL    HW117216   1.537   4.078   1.959
 5439SOL    HW217217   1.688   4.136   1.985
 5440SOL     OW17218   6.304   0.053   3.790
 5440SOL    HW117219   6.340   0.064   3.697
 5440SOL    HW217220   6.205   0.041   3.786
 5441SOL     OW17221   5.979   2.243   4.598
 5441SOL    HW117222   5.927   2.288   4.670
 5441SOL    HW217223   5.916   2.215   4.525
 5442SOL     OW17224   2.599   0.111   6.732
 5442SOL    HW117225   2.653   0.027   6.725
 5442SOL    HW217226   2.540   0.120   6.652
 5443SOL     OW17227   6.057   0.590   3.056
 5443SOL    HW117228   6.050   0.528   2.978
 5443SOL    HW217229   6.056   0.536   3.141
 5444SOL     OW17230   1.080   1.357   5.902
 5444SOL    HW117231   1.085   1.362   5.802
 5444SOL    HW217232   0.987   1.378   5.932
 5445SOL     OW17233   6.131   6.711   5.191
 5445SOL    HW117234   6.038   6.717   5.228
 5445SOL    HW217235   6.163   6.803   5.167
 5446SOL     OW17236   1.471   5.228   5.694
 5446SOL    HW117237   1.502   5.167   5.766
 5446SOL    HW217238   1.516   5.204   5.608
 5447SOL     OW17239   6.744   2.377   1.474
 5447SOL    HW117240   6.701   2.311   1.535
 5447SOL    HW217241   6.791   2.447   1.529
 5448SOL     OW17242   6.319   4.926   1.791
 5448SOL    HW117243   6.336   5.023   1.774
 5448SOL    HW217244   6.229   4.914   1.832
 5449SOL     OW17245   2.091   6.757   1.881
 5449SOL    HW117246   2.136   6.846   1.882
 5449SOL    HW217247   2.065   6.733   1.788
 5450SOL     OW17248   4.468   5.595   1.460
 5450SOL    HW117249   4.400   5.664   1.434
 5450SOL    HW217250   4.530   5.634   1.528
 5451SOL     OW17251   0.589   6.280   3.725
 5451SOL    HW117252   0.632   6.354   3.777
 5451SOL    HW217253   0.594   6.300   3.628
 5452SOL     OW17254   2.446   4.459   2.786
 5452SOL    HW117255   2.355   4.473   2.825
 5452SOL    HW217256   2.454   4.364   2.753
 5453SOL     OW17257   5.877   4.683   4.091
 5453SOL    HW117258   5.801   4.748   4.094
 5453SOL    HW217259   5.964   4.733   4.091
 5454SOL     OW17260   5.836   4.196   2.283
 5454SOL    HW117261   5.757   4.171   2.338
 5454SOL    HW217262   5.920   4.173   2.333
 5455SOL     OW17263   2.616   2.098   3.100
 5455SOL    HW117264   2.665   2.184   3.108
 5455SOL    HW217265   2.524   2.114   3.065
 5456SOL     OW17266   5.574   2.326   0.687
 5456SOL    HW117267   5.522   2.253   0.732
 5456SOL    HW217268   5.577   2.406   0.747
 5457SOL     OW17269   6.950   1.364   0.022
 5457SOL    HW117270   7.007   1.379   6.968
 5457SOL    HW217271   6.965   1.438   0.088
 5458SOL     OW17272   5.527   4.787   5.805
 5458SOL    HW117273   5.500   4.816   5.897
 5458SOL    HW217274   5.625   4.767   5.803
 5459SOL     OW17275   2.163   3.101   5.265
 5459SOL    HW117276   2.127   3.021   5.313
 5459SOL    HW217277   2.213   3.071   5.184
 5460SOL     OW17278   0.510   0.586   1.145
 5460SOL    HW117279   0.432   0.558   1.089
 5460SOL    HW217280   0.489   0.672   1.192
 5461SOL     OW17281   6.192   1.468   6.757
 5461SOL    HW117282   6.236   1.378   6.758
 5461SOL    HW217283   6.246   1.531   6.813
 5462SOL     OW17284   5.174   5.541   6.341
 5462SOL    HW117285   5.161   5.448   6.375
 5462SOL    HW217286   5.248   5.543   6.274
 5463SOL     OW17287   1.760   5.049   5.904
 5463SOL    HW117288   1.834   5.098   5.951
 5463SOL    HW217289   1.672   5.085   5.935
 5464SOL     OW17290   2.033   5.298   4.617
 5464SOL    HW117291   2.104   5.228   4.629
 5464SOL    HW217292   2.016   5.344   4.704
 5465SOL     OW17293   0.332   0.287   5.150
 5465SOL    HW117294   0.340   0.386   5.135
 5465SOL    HW217295   0.312   0.241   5.063
 5466SOL     OW17296   4.913   2.181   5.084
 5466SOL    HW117297   4.967   2.254   5.041
 5466SOL    HW217298   4.975   2.113   5.122
 5467SOL     OW17299   5.883   3.417   4.099
 5467SOL    HW117300   5.975   3.454   4.116
 5467SOL    HW217301   5.845   3.460   4.017
 5468SOL     OW17302   6.952   2.749   1.511
 5468SOL    HW117303   0.024   2.738   1.494
 5468SOL    HW217304   6.925   2.843   1.489
 5469SOL     OW17305   4.064   2.011   3.833
 5469SOL    HW117306   4.071   2.110   3.845
 5469SOL    HW217307   4.036   1.969   3.919
 5470SOL     OW17308   3.311   5.146   3.277
 5470SOL    HW117309   3.349   5.222   3.331
 5470SOL    HW217310   3.290   5.069   3.337
 5471SOL     OW17311   5.568   0.967   3.047
 5471SOL    HW117312   5.520   1.055   3.040
 5471SOL    HW217313   5.662   0.983   3.075
 5472SOL     OW17314   2.441   3.815   6.697
 5472SOL    HW117315   2.387   3.884   6.650
 5472SOL    HW217316   2.490   3.857   6.774
 5473SOL     OW17317   2.925   4.744   2.216
 5473SOL    HW117318   2.866   4.763   2.294
 5473SOL    HW217319   2.878   4.684   2.152
 5474SOL     OW17320   1.132   4.831   1.989
 5474SOL    HW117321   1.197   4.777   2.041
 5474SOL    HW217322   1.041   4.790   1.996
 5475SOL     OW17323   1.447   1.151   5.241
 5475SOL    HW117324   1.547   1.144   5.246
 5475SOL    HW217325   1.411   1.174   5.331
 5476SOL     OW17326   2.105   0.898   4.664
 5476SOL    HW117327   2.120   0.982   4.716
 5476SOL    HW217328   2.041   0.839   4.712
 5477SOL     OW17329   2.247   3.040   3.219
 5477SOL    HW117330   2.304   3.099   3.162
 5477SOL    HW217331   2.160   3.024   3.174
 5478SOL     OW17332   5.991   4.091   5.956
 5478SOL    HW117333   6.029   4.146   5.882
 5478SOL    HW217334   5.971   4.150   6.034
 5479SOL     OW17335   5.499   3.326   4.426
 5479SOL    HW117336   5.594   3.333   4.394
 5479SOL    HW217337   5.458   3.417   4.425
 5480SOL     OW17338   1.252   3.626   4.756
 5480SOL    HW117339   1.266   3.532   4.787
 5480SOL    HW217340   1.180   3.669   4.810
 5481SOL     OW17341   3.862   1.477   6.456
 5481SOL    HW117342   3.856   1.576   6.466
 5481SOL    HW217343   3.838   1.451   6.362
 5482SOL     OW17344   5.558   3.671   2.091
 5482SOL    HW117345   5.640   3.670   2.148
 5482SOL    HW217346   5.578   3.627   2.003
 5483SOL     OW17347   6.574   2.818   0.203
 5483SOL    HW117348   6.483   2.827   0.243
 5483SOL    HW217349   6.593   2.722   0.184
 5484SOL     OW17350   6.418   0.416   5.561
 5484SOL    HW117351   6.398   0.336   5.618
 5484SOL    HW217352   6.458   0.385   5.474
 5485SOL     OW17353   2.992   0.511   4.571
 5485SOL    HW117354   2.955   0.550   4.655
 5485SOL    HW217355   3.083   0.549   4.555
 5486SOL     OW17356   1.167   0.421   3.534
 5486SOL    HW117357   1.140   0.459   3.623
 5486SOL    HW217358   1.267   0.426   3.525
 5487SOL     OW17359   4.096   5.321   1.384
 5487SOL    HW117360   4.032   5.397   1.383
 5487SOL    HW217361   4.168   5.339   1.452
 5488SOL     OW17362   4.561   1.344   5.842
 5488SOL    HW117363   4.567   1.394   5.928
 5488SOL    HW217364   4.535   1.407   5.769
 5489SOL     OW17365   6.544   4.376   2.177
 5489SOL    HW117366   6.465   4.378   2.238
 5489SOL    HW217367   6.623   4.337   2.225
 5490SOL     OW17368   2.561   2.098   6.337
 5490SOL    HW117369   2.560   2.046   6.251
 5490SOL    HW217370   2.568   2.034   6.414
 5491SOL     OW17371   0.529   5.828   2.518
 5491SOL    HW117372   0.463   5.880   2.572
 5491SOL    HW217373   0.532   5.865   2.425
 5492SOL     OW17374   1.219   1.440   4.736
 5492SOL    HW117375   1.262   1.484   4.815
 5492SOL    HW217376   1.272   1.360   4.709
 5493SOL     OW17377   3.050   1.703   0.720
 5493SOL    HW117378   2.999   1.765   0.779
 5493SOL    HW217379   3.066   1.746   0.632
 5494SOL     OW17380   5.966   2.943   2.467
 5494SOL    HW117381   5.933   2.981   2.553
 5494SOL    HW217382   5.916   2.983   2.391
 5495SOL     OW17383   3.713   3.015   3.809
 5495SOL    HW117384   3.673   2.978   3.893
 5495SOL    HW217385   3.672   2.969   3.730
 5496SOL     OW17386   4.802   5.171   2.084
 5496SOL    HW117387   4.733   5.218   2.139
 5496SOL    HW217388   4.814   5.078   2.116
 5497SOL     OW17389   5.671   0.183   1.080
 5497SOL    HW117390   5.710   0.128   1.006
 5497SOL    HW217391   5.572   0.190   1.068
 5498SOL     OW17392   4.188   1.251   4.516
 5498SOL    HW117393   4.198   1.305   4.432
 5498SOL    HW217394   4.278   1.222   4.548
 5499SOL     OW17395   0.512   1.375   5.765
 5499SOL    HW117396   0.491   1.277   5.764
 5499SOL    HW217397   0.438   1.425   5.809
 5500SOL     OW17398   1.738   6.392   0.844
 5500SOL    HW117399   1.789   6.311   0.873
 5500SOL    HW217400   1.786   6.436   0.768
 5501SOL     OW17401   2.993   0.638   2.556
 5501SOL    HW117402   3.019   0.672   2.646
 5501SOL    HW217403   3.024   0.701   2.485
 5502SOL     OW17404   4.550   2.987   0.279
 5502SOL    HW117405   4.495   3.013   0.359
 5502SOL    HW217406   4.491   2.981   0.199
 5503SOL     OW17407   0.215   6.469   4.660
 5503SOL    HW117408   0.115   6.463   4.666
 5503SOL    HW217409   0.250   6.512   4.743
 5504SOL     OW17410   2.822   2.083   4.422
 5504SOL    HW117411   2.807   2.112   4.327
 5504SOL    HW217412   2.737   2.096   4.474
 5505SOL     OW17413   3.867   4.651   6.678
 5505SOL    HW117414   3.825   4.586   6.740
 5505SOL    HW217415   3.956   4.679   6.713
 5506SOL     OW17416   0.057   6.525   6.132
 5506SOL    HW117417   0.121   6.596   6.101
 5506SOL    HW217418   6.995   6.566   6.152
 5507SOL     OW17419   3.494   5.743   4.597
 5507SOL    HW117420   3.588   5.709   4.592
 5507SOL    HW217421   3.432   5.666   4.615
 5508SOL     OW17422   1.642   0.482   5.604
 5508SOL    HW117423   1.702   0.463   5.682
 5508SOL    HW217424   1.585   0.562   5.624
 5509SOL     OW17425   6.086   6.983   6.494
 5509SOL    HW117426   6.089   0.008   6.408
 5509SOL    HW217427   6.097   6.886   6.474
 5510SOL     OW17428   5.937   0.682   6.062
 5510SOL    HW117429   5.962   0.587   6.041
 5510SOL    HW217430   6.001   0.744   6.017
 5511SOL     OW17431   6.893   2.551   1.305
 5511SOL    HW117432   6.842   2.469   1.331
 5511SOL    HW217433   6.925   2.599   1.387
 5512SOL     OW17434   0.370   0.720   0.417
 5512SOL    HW117435   0.275   0.727   0.386
 5512SOL    HW217436   0.376   0.656   0.493
 5513SOL     OW17437   3.026   5.863   4.913
 5513SOL    HW117438   3.006   5.921   4.992
 5513SOL    HW217439   3.003   5.768   4.936
 5514SOL     OW17440   5.792   5.579   3.942
 5514SOL    HW117441   5.886   5.578   3.906
 5514SOL    HW217442   5.773   5.669   3.981
 5515SOL     OW17443   6.533   3.893   3.240
 5515SOL    HW117444   6.565   3.869   3.148
 5515SOL    HW217445   6.465   3.825   3.270
 5516SOL     OW17446   1.339   2.949   6.281
 5516SOL    HW117447   1.438   2.941   6.263
 5516SOL    HW217448   1.290   2.955   6.194
 5517SOL     OW17449   2.862   0.853   2.218
 5517SOL    HW117450   2.779   0.837   2.163
 5517SOL    HW217451   2.938   0.876   2.157
 5518SOL     OW17452   5.420   4.694   5.247
 5518SOL    HW117453   5.435   4.713   5.345
 5518SOL    HW217454   5.452   4.602   5.225
 5519SOL     OW17455   5.392   3.732   3.061
 5519SOL    HW117456   5.347   3.649   3.030
 5519SOL    HW217457   5.394   3.799   2.987
 5520SOL     OW17458   1.901   2.681   0.672
 5520SOL    HW117459   1.978   2.643   0.723
 5520SOL    HW217460   1.818   2.675   0.727
 5521SOL     OW17461   5.129   5.459   0.830
 5521SOL    HW117462   5.179   5.429   0.911
 5521SOL    HW217463   5.078   5.382   0.792
 5522SOL     OW17464   1.914   2.865   2.267
 5522SOL    HW117465   1.909   2.905   2.359
 5522SOL    HW217466   2.010   2.862   2.237
 5523SOL     OW17467   3.713   0.837   1.872
 5523SOL    HW117468   3.695   0.767   1.941
 5523SOL    HW217469   3.627   0.874   1.838
 5524SOL     OW17470   5.907   6.215   5.554
 5524SOL    HW117471   5.874   6.137   5.607
 5524SOL    HW217472   5.990   6.252   5.598
 5525SOL     OW17473   6.456   5.773   3.771
 5525SOL    HW117474   6.504   5.857   3.746
 5525SOL    HW217475   6.363   5.795   3.799
 5526SOL     OW17476   5.495   3.303   4.708
 5526SOL    HW117477   5.522   3.314   4.612
 5526SOL    HW217478   5.546   3.227   4.749
 5527SOL     OW17479   1.970   3.242   0.217
 5527SOL    HW117480   2.068   3.239   0.196
 5527SOL    HW217481   1.922   3.178   0.157
 5528SOL     OW17482   6.398   3.628   3.104
 5528SOL    HW117483   6.332   3.642   3.030
 5528SOL    HW217484   6.491   3.634   3.066
 5529SOL     OW17485   0.625   1.154   4.292
 5529SOL    HW117486   0.581   1.216   4.227
 5529SOL    HW217487   0.660   1.207   4.369
 5530SOL     OW17488   7.003   3.529   6.781
 5530SOL    HW117489   0.066   3.558   6.748
 5530SOL    HW217490   6.966   3.459   6.719
 5531SOL     OW17491   1.635   2.853   6.582
 5531SOL    HW117492   1.611   2.761   6.552
 5531SOL    HW217493   1.733   2.856   6.605
 5532SOL     OW17494   2.107   2.407   1.434
 5532SOL    HW117495   2.112   2.316   1.476
 5532SOL    HW217496   2.154   2.406   1.346
 5533SOL     OW17497   3.541   0.333   0.590
 5533SOL    HW117498   3.633   0.322   0.628
 5533SOL    HW217499   3.541   0.303   0.494
 5534SOL     OW17500   6.928   4.026   5.257
 5534SOL    HW117501   6.908   4.029   5.159
 5534SOL    HW217502   0.000   4.025   5.271
 5535SOL     OW17503   6.225   3.270   4.037
 5535SOL    HW117504   6.205   3.197   3.972
 5535SOL    HW217505   6.286   3.235   4.109
 5536SOL     OW17506   2.885   0.515   3.897
 5536SOL    HW117507   2.879   0.583   3.970
 5536SOL    HW217508   2.912   0.427   3.936
 5537SOL     OW17509   4.020   1.652   4.868
 5537SOL    HW117510   4.044   1.574   4.811
 5537SOL    HW217511   3.997   1.730   4.809
 5538SOL     OW17512   5.458   2.574   2.352
 5538SOL    HW117513   5.363   2.586   2.325
 5538SOL    HW217514   5.467   2.492   2.409
 5539SOL     OW17515   2.468   0.092   0.210
 5539SOL    HW117516   2.464   0.173   0.268
 5539SOL    HW217517   2.499   0.119   0.118
 5540SOL     OW17518   5.056   0.293   5.620
 5540SOL    HW117519   5.034   0.376   5.570
 5540SOL    HW217520   4.974   0.259   5.667
 5541SOL     OW17521   4.849   3.437   0.120
 5541SOL    HW117522   4.791   3.496   0.176
 5541SOL    HW217523   4.854   3.346   0.162
 5542SOL     OW17524   4.622   4.558   0.405
 5542SOL    HW117525   4.636   4.489   0.475
 5542SOL    HW217526   4.659   4.646   0.437
 5543SOL     OW17527   1.483   0.483   6.705
 5543SOL    HW117528   1.518   0.436   6.624
 5543SOL    HW217529   1.531   0.451   6.786
 5544SOL     OW17530   3.642   4.896   0.431
 5544SOL    HW117531   3.555   4.945   0.417
 5544SOL    HW217532   3.669   4.904   0.527
 5545SOL     OW17533   5.006   0.798   4.161
 5545SOL    HW117534   5.082   0.757   4.211
 5545SOL    HW217535   4.977   0.882   4.207
 5546SOL     OW17536   0.270   5.169   4.420
 5546SOL    HW117537   0.237   5.075   4.423
 5546SOL    HW217538   0.273   5.207   4.512
 5547SOL     OW17539   5.118   2.117   4.831
 5547SOL    HW117540   5.082   2.067   4.910
 5547SOL    HW217541   5.172   2.056   4.774
 5548SOL     OW17542   0.680   4.815   5.057
 5548SOL    HW117543   0.693   4.801   4.959
 5548SOL    HW217544   0.620   4.743   5.093
 5549SOL     OW17545   4.233   2.752   0.575
 5549SOL    HW117546   4.316   2.699   0.587
 5549SOL    HW217547   4.157   2.691   0.550
 5550SOL     OW17548   2.251   4.184   1.644
 5550SOL    HW117549   2.273   4.239   1.725
 5550SOL    HW217550   2.185   4.113   1.669
 5551SOL     OW17551   1.904   5.413   2.841
 5551SOL    HW117552   1.896   5.390   2.744
 5551SOL    HW217553   1.886   5.332   2.897
 5552SOL     OW17554   0.865   6.660   0.182
 5552SOL    HW117555   0.859   6.705   0.093
 5552SOL    HW217556   0.958   6.623   0.194
 5553SOL     OW17557   5.240   0.433   0.119
 5553SOL    HW117558   5.237   0.447   0.218
 5553SOL    HW217559   5.163   0.481   0.077
 5554SOL     OW17560   6.852   1.712   1.361
 5554SOL    HW117561   6.926   1.774   1.336
 5554SOL    HW217562   6.787   1.705   1.285
 5555SOL     OW17563   1.473   4.922   2.997
 5555SOL    HW117564   1.478   4.889   2.902
 5555SOL    HW217565   1.443   4.847   3.056
 5556SOL     OW17566   6.958   0.879   4.552
 5556SOL    HW117567   0.026   0.883   4.518
 5556SOL    HW217568   6.897   0.920   4.484
 5557SOL     OW17569   3.682   5.978   3.369
 5557SOL    HW117570   3.604   6.014   3.421
 5557SOL    HW217571   3.701   6.039   3.292
 5558SOL     OW17572   3.979   4.139   6.942
 5558SOL    HW117573   3.901   4.135   7.004
 5558SOL    HW217574   4.057   4.092   6.984
 5559SOL     OW17575   3.382   1.256   2.572
 5559SOL    HW117576   3.372   1.292   2.664
 5559SOL    HW217577   3.402   1.331   2.509
 5560SOL     OW17578   0.707   5.312   3.702
 5560SOL    HW117579   0.643   5.235   3.705
 5560SOL    HW217580   0.661   5.392   3.665
 5561SOL     OW17581   3.272   6.336   2.994
 5561SOL    HW117582   3.303   6.279   2.918
 5561SOL    HW217583   3.311   6.428   2.985
 5562SOL     OW17584   3.494   3.680   0.926
 5562SOL    HW117585   3.535   3.602   0.973
 5562SOL    HW217586   3.495   3.663   0.828
 5563SOL     OW17587   2.379   4.508   2.424
 5563SOL    HW117588   2.465   4.534   2.469
 5563SOL    HW217589   2.304   4.512   2.489
 5564SOL     OW17590   5.141   0.487   6.004
 5564SOL    HW117591   5.192   0.407   5.974
 5564SOL    HW217592   5.051   0.488   5.960
 5565SOL     OW17593   3.250   1.672   6.243
 5565SOL    HW117594   3.263   1.595   6.180
 5565SOL    HW217595   3.194   1.642   6.320
 5566SOL     OW17596   1.487   3.987   6.568
 5566SOL    HW117597   1.410   4.049   6.584
 5566SOL    HW217598   1.568   4.040   6.544
 5567SOL     OW17599   0.559   4.067   0.465
 5567SOL    HW117600   0.525   4.013   0.388
 5567SOL    HW217601   0.523   4.029   0.551
 5568SOL     OW17602   4.715   4.710   1.093
 5568SOL    HW117603   4.788   4.717   1.025
 5568SOL    HW217604   4.755   4.689   1.182
 5569SOL     OW17605   2.215   2.656   2.799
 5569SOL    HW117606   2.129   2.644   2.847
 5569SOL    HW217607   2.291   2.627   2.857
 5570SOL     OW17608   6.802   3.878   2.052
 5570SOL    HW117609   6.804   3.933   2.135
 5570SOL    HW217610   6.852   3.925   1.979
 5571SOL     OW17611   6.367   4.724   1.034
 5571SOL    HW117612   6.343   4.751   0.940
 5571SOL    HW217613   6.437   4.787   1.069
 5572SOL     OW17614   1.972   4.251   4.870
 5572SOL    HW117615   1.901   4.196   4.912
 5572SOL    HW217616   1.947   4.348   4.875
 5573SOL     OW17617   2.911   5.016   3.722
 5573SOL    HW117618   2.897   5.100   3.774
 5573SOL    HW217619   2.931   5.039   3.626
 5574SOL     OW17620   0.416   2.313   5.548
 5574SOL    HW117621   0.374   2.222   5.549
 5574SOL    HW217622   0.513   2.304   5.527
 5575SOL     OW17623   0.031   0.211   1.554
 5575SOL    HW117624   7.020   0.121   1.574
 5575SOL    HW217625   0.040   0.263   1.640
 5576SOL     OW17626   1.301   5.286   2.925
 5576SOL    HW117627   1.297   5.270   3.023
 5576SOL    HW217628   1.360   5.364   2.906
 5577SOL     OW17629   2.293   2.881   5.585
 5577SOL    HW117630   2.299   2.811   5.514
 5577SOL    HW217631   2.352   2.959   5.561
 5578SOL     OW17632   3.530   4.116   3.379
 5578SOL    HW117633   3.509   4.093   3.474
 5578SOL    HW217634   3.455   4.087   3.320
 5579SOL     OW17635   6.780   3.322   2.242
 5579SOL    HW117636   6.802   3.330   2.145
 5579SOL    HW217637   6.685   3.351   2.258
 5580SOL     OW17638   5.279   2.218   5.733
 5580SOL    HW117639   5.205   2.239   5.669
 5580SOL    HW217640   5.263   2.128   5.773
 5581SOL     OW17641   1.405   2.656   6.679
 5581SOL    HW117642   1.423   2.681   6.774
 5581SOL    HW217643   1.479   2.598   6.645
 5582SOL     OW17644   2.530   3.151   6.234
 5582SOL    HW117645   2.469   3.230   6.247
 5582SOL    HW217646   2.482   3.068   6.260
 5583SOL     OW17647   5.319   0.582   1.303
 5583SOL    HW117648   5.368   0.536   1.229
 5583SOL    HW217649   5.242   0.524   1.333
 5584SOL     OW17650   1.585   3.040   4.324
 5584SOL    HW117651   1.499   3.007   4.284
 5584SOL    HW217652   1.623   3.112   4.266
 5585SOL     OW17653   5.258   4.967   1.757
 5585SOL    HW117654   5.194   4.907   1.709
 5585SOL    HW217655   5.227   4.978   1.852
 5586SOL     OW17656   0.046   4.070   0.434
 5586SOL    HW117657   0.027   4.023   0.348
 5586SOL    HW217658   0.018   4.166   0.427
 5587SOL     OW17659   5.961   1.075   6.054
 5587SOL    HW117660   5.979   1.084   6.152
 5587SOL    HW217661   6.009   0.994   6.018
 5588SOL     OW17662   4.102   6.520   0.768
 5588SOL    HW117663   4.094   6.611   0.727
 5588SOL    HW217664   4.154   6.527   0.853
 5589SOL     OW17665   5.945   5.079   6.016
 5589SOL    HW117666   5.868   5.089   5.953
 5589SOL    HW217667   5.996   4.996   5.994
 5590SOL     OW17668   6.206   5.845   3.470
 5590SOL    HW117669   6.134   5.868   3.536
 5590SOL    HW217670   6.206   5.911   3.396
 5591SOL     OW17671   5.820   0.864   1.914
 5591SOL    HW117672   5.893   0.815   1.867
 5591SOL    HW217673   5.836   0.963   1.907
 5592SOL     OW17674   1.142   3.899   3.381
 5592SOL    HW117675   1.110   3.820   3.328
 5592SOL    HW217676   1.080   3.915   3.458
 5593SOL     OW17677   6.938   3.715   0.343
 5593SOL    HW117678   7.006   3.760   0.285
 5593SOL    HW217679   6.978   3.699   0.434
 5594SOL     OW17680   6.203   2.121   6.385
 5594SOL    HW117681   6.191   2.074   6.473
 5594SOL    HW217682   6.264   2.199   6.398
 5595SOL     OW17683   1.207   2.690   5.927
 5595SOL    HW117684   1.188   2.734   6.014
 5595SOL    HW217685   1.208   2.590   5.939
 5596SOL     OW17686   2.857   6.037   3.083
 5596SOL    HW117687   2.920   5.998   3.149
 5596SOL    HW217688   2.890   6.127   3.054
 5597SOL     OW17689   5.040   3.328   2.632
 5597SOL    HW117690   5.138   3.323   2.610
 5597SOL    HW217691   5.024   3.282   2.719
 5598SOL     OW17692   5.215   1.623   4.954
 5598SOL    HW117693   5.156   1.546   4.927
 5598SOL    HW217694   5.202   1.642   5.051
 5599SOL     OW17695   0.822   0.562   3.499
 5599SOL    HW117696   0.846   0.630   3.568
 5599SOL    HW217697   0.752   0.599   3.438
 5600SOL     OW17698   1.456   2.123   4.932
 5600SOL    HW117699   1.497   2.079   4.853
 5600SOL    HW217700   1.357   2.123   4.923
 5601SOL     OW17701   2.438   0.584   6.036
 5601SOL    HW117702   2.424   0.504   6.096
 5601SOL    HW217703   2.501   0.560   5.963
 5602SOL     OW17704   1.768   1.160   0.103
 5602SOL    HW117705   1.690   1.206   0.061
 5602SOL    HW217706   1.830   1.127   0.032
 5603SOL     OW17707   6.076   4.624   6.528
 5603SOL    HW117708   5.980   4.651   6.530
 5603SOL    HW217709   6.129   4.691   6.476
 5604SOL     OW17710   5.982   1.514   6.171
 5604SOL    HW117711   6.011   1.505   6.076
 5604SOL    HW217712   5.882   1.519   6.175
 5605SOL     OW17713   1.482   2.663   6.165
 5605SOL    HW117714   1.527   2.747   6.137
 5605SOL    HW217715   1.462   2.607   6.085
 5606SOL     OW17716   5.747   0.292   3.187
 5606SOL    HW117717   5.807   0.312   3.109
 5606SOL    HW217718   5.789   0.327   3.271
 5607SOL     OW17719   5.953   0.946   1.306
 5607SOL    HW117720   5.866   0.906   1.335
 5607SOL    HW217721   6.014   0.874   1.274
 5608SOL     OW17722   4.278   6.548   4.705
 5608SOL    HW117723   4.320   6.569   4.617
 5608SOL    HW217724   4.181   6.530   4.693
 5609SOL     OW17725   1.764   5.458   5.183
 5609SOL    HW117726   1.834   5.404   5.230
 5609SOL    HW217727   1.754   5.424   5.089
 5610SOL     OW17728   4.517   0.224   6.385
 5610SOL    HW117729   4.538   0.178   6.471
 5610SOL    HW217730   4.551   0.318   6.387
 5611SOL     OW17731   2.180   4.599   3.848
 5611SOL    HW117732   2.133   4.638   3.928
 5611SOL    HW217733   2.216   4.674   3.792
 5612SOL     OW17734   2.289   0.561   5.104
 5612SOL    HW117735   2.301   0.528   5.010
 5612SOL    HW217736   2.247   0.490   5.159
 5613SOL     OW17737   3.807   4.981   1.668
 5613SOL    HW117738   3.848   5.018   1.585
 5613SOL    HW217739   3.767   5.056   1.722
 5614SOL     OW17740   4.865   2.403   3.580
 5614SOL    HW117741   4.804   2.355   3.644
 5614SOL    HW217742   4.899   2.487   3.623
 5615SOL     OW17743   1.687   1.328   1.140
 5615SOL    HW117744   1.761   1.318   1.207
 5615SOL    HW217745   1.670   1.425   1.123
 5616SOL     OW17746   2.362   0.552   4.536
 5616SOL    HW117747   2.289   0.526   4.474
 5616SOL    HW217748   2.435   0.484   4.533
 5617SOL     OW17749   0.960   0.638   5.023
 5617SOL    HW117750   0.867   0.625   5.056
 5617SOL    HW217751   0.964   0.719   4.965
 5618SOL     OW17752   6.543   4.410   2.771
 5618SOL    HW117753   6.603   4.450   2.840
 5618SOL    HW217754   6.585   4.417   2.681
 5619SOL     OW17755   2.138   4.044   4.945
 5619SOL    HW117756   2.217   4.035   5.004
 5619SOL    HW217757   2.093   4.132   4.963
 5620SOL     OW17758   3.692   2.250   6.489
 5620SOL    HW117759   3.751   2.327   6.512
 5620SOL    HW217760   3.596   2.277   6.499
 5621SOL     OW17761   1.998   1.961   6.420
 5621SOL    HW117762   2.037   2.034   6.365
 5621SOL    HW217763   1.902   1.979   6.437
 5622SOL     OW17764   5.625   0.835   5.124
 5622SOL    HW117765   5.535   0.813   5.162
 5622SOL    HW217766   5.649   0.928   5.150
 5623SOL     OW17767   0.892   5.610   6.542
 5623SOL    HW117768   0.890   5.660   6.628
 5623SOL    HW217769   0.987   5.599   6.512
 5624SOL     OW17770   1.149   4.284   2.943
 5624SOL    HW117771   1.097   4.233   3.012
 5624SOL    HW217772   1.085   4.328   2.880
 5625SOL     OW17773   6.477   2.358   5.768
 5625SOL    HW117774   6.382   2.326   5.764
 5625SOL    HW217775   6.485   2.446   5.721
 5626SOL     OW17776   4.640   7.024   4.211
 5626SOL    HW117777   4.616   0.076   4.154
 5626SOL    HW217778   4.718   0.020   4.270
 5627SOL     OW17779   1.147   6.171   0.862
 5627SOL    HW117780   1.208   6.103   0.903
 5627SOL    HW217781   1.202   6.239   0.813
 5628SOL     OW17782   0.748   1.254   4.537
 5628SOL    HW117783   0.846   1.260   4.514
 5628SOL    HW217784   0.737   1.268   4.636
 5629SOL     OW17785   3.568   3.283   2.898
 5629SOL    HW117786   3.547   3.214   2.829
 5629SOL    HW217787   3.668   3.294   2.905
 5630SOL     OW17788   0.183   4.428   1.453
 5630SOL    HW117789   0.128   4.371   1.514
 5630SOL    HW217790   0.255   4.474   1.505
 5631SOL     OW17791   4.579   0.575   6.737
 5631SOL    HW117792   4.539   0.483   6.730
 5631SOL    HW217793   4.592   0.612   6.645
 5632SOL     OW17794   2.809   3.139   6.950
 5632SOL    HW117795   2.842   3.201   7.021
 5632SOL    HW217796   2.886   3.092   6.907
 5633SOL     OW17797   6.145   2.564   4.988
 5633SOL    HW117798   6.049   2.540   5.003
 5633SOL    HW217799   6.153   2.662   4.971
 5634SOL     OW17800   4.981   5.640   4.557
 5634SOL    HW117801   4.884   5.643   4.533
 5634SOL    HW217802   5.029   5.715   4.511
 5635SOL     OW17803   3.154   2.061   5.322
 5635SOL    HW117804   3.191   2.143   5.278
 5635SOL    HW217805   3.078   2.025   5.267
 5636SOL     OW17806   4.062   5.929   3.989
 5636SOL    HW117807   4.128   5.857   4.011
 5636SOL    HW217808   4.096   6.017   4.021
 5637SOL     OW17809   6.159   0.154   3.080
 5637SOL    HW117810   6.103   0.096   3.022
 5637SOL    HW217811   6.222   0.098   3.134
 5638SOL     OW17812   4.884   4.191   6.642
 5638SOL    HW117813   4.858   4.179   6.546
 5638SOL    HW217814   4.942   4.115   6.670
 5639SOL     OW17815   3.181   0.161   6.864
 5639SOL    HW117816   3.217   0.162   6.771
 5639SOL    HW217817   3.081   0.173   6.862
 5640SOL     OW17818   2.094   0.041   2.978
 5640SOL    HW117819   2.034   0.032   2.898
 5640SOL    HW217820   2.173   7.008   2.968
 5641SOL     OW17821   6.250   6.136   4.475
 5641SOL    HW117822   6.345   6.106   4.472
 5641SOL    HW217823   6.190   6.057   4.460
 5642SOL     OW17824   1.790   1.827   0.022
 5642SOL    HW117825   1.783   1.745   0.079
 5642SOL    HW217826   1.817   1.800   6.956
 5643SOL     OW17827   5.581   1.963   4.930
 5643SOL    HW117828   5.588   1.930   5.024
 5643SOL    HW217829   5.507   1.915   4.883
 5644SOL     OW17830   2.934   6.864   6.269
 5644SOL    HW117831   2.839   6.833   6.271
 5644SOL    HW217832   2.942   6.944   6.210
 5645SOL     OW17833   4.982   3.699   4.627
 5645SOL    HW117834   5.054   3.637   4.597
 5645SOL    HW217835   5.001   3.791   4.594
 5646SOL     OW17836   1.530   4.146   3.057
 5646SOL    HW117837   1.560   4.052   3.038
 5646SOL    HW217838   1.503   4.153   3.153
 5647SOL     OW17839   6.577   6.826   2.373
 5647SOL    HW117840   6.516   6.751   2.401
 5647SOL    HW217841   6.672   6.798   2.385
 5648SOL     OW17842   4.876   6.253   3.347
 5648SOL    HW117843   4.902   6.331   3.290
 5648SOL    HW217844   4.861   6.285   3.441
 5649SOL     OW17845   1.049   6.813   4.596
 5649SOL    HW117846   1.060   6.756   4.677
 5649SOL    HW217847   1.121   6.882   4.594
 5650SOL     OW17848   6.657   4.311   6.603
 5650SOL    HW117849   6.654   4.233   6.666
 5650SOL    HW217850   6.753   4.334   6.584
 5651SOL     OW17851   3.165   0.698   0.988
 5651SOL    HW117852   3.226   0.725   0.914
 5651SOL    HW217853   3.174   0.600   1.005
 5652SOL     OW17854   0.335   6.275   1.625
 5652SOL    HW117855   0.423   6.253   1.582
 5652SOL    HW217856   0.261   6.260   1.559
 5653SOL     OW17857   0.107   0.293   1.845
 5653SOL    HW117858   0.188   0.330   1.890
 5653SOL    HW217859   0.025   0.331   1.888
 5654SOL     OW17860   3.480   5.798   4.241
 5654SOL    HW117861   3.396   5.839   4.278
 5654SOL    HW217862   3.531   5.755   4.315
 5655SOL     OW17863   5.625   2.676   5.228
 5655SOL    HW117864   5.634   2.720   5.317
 5655SOL    HW217865   5.530   2.649   5.214
 5656SOL     OW17866   6.564   3.458   0.146
 5656SOL    HW117867   6.646   3.506   0.176
 5656SOL    HW217868   6.591   3.381   0.088
 5657SOL     OW17869   5.426   5.569   4.760
 5657SOL    HW117870   5.473   5.481   4.748
 5657SOL    HW217871   5.491   5.643   4.743
 5658SOL     OW17872   2.127   3.116   5.595
 5658SOL    HW117873   2.182   3.198   5.577
 5658SOL    HW217874   2.185   3.035   5.588
 5659SOL     OW17875   2.579   3.918   6.906
 5659SOL    HW117876   2.647   3.845   6.920
 5659SOL    HW217877   2.588   3.986   6.979
 5660SOL     OW17878   4.333   0.911   5.800
 5660SOL    HW117879   4.295   0.864   5.880
 5660SOL    HW217880   4.414   0.862   5.768
 5661SOL     OW17881   1.325   5.609   5.816
 5661SOL    HW117882   1.413   5.563   5.825
 5661SOL    HW217883   1.332   5.703   5.848
 5662SOL     OW17884   3.467   6.334   1.050
 5662SOL    HW117885   3.435   6.240   1.039
 5662SOL    HW217886   3.406   6.383   1.112
 5663SOL     OW17887   1.921   3.374   6.032
 5663SOL    HW117888   1.969   3.318   5.964
 5663SOL    HW217889   1.824   3.351   6.031
 5664SOL     OW17890   4.815   4.453   4.685
 5664SOL    HW117891   4.779   4.385   4.749
 5664SOL    HW217892   4.833   4.538   4.734
 5665SOL     OW17893   1.790   1.495   0.530
 5665SOL    HW117894   1.803   1.420   0.465
 5665SOL    HW217895   1.718   1.471   0.595
 5666SOL     OW17896   5.889   2.503   5.035
 5666SOL    HW117897   5.824   2.578   5.025
 5666SOL    HW217898   5.878   2.460   5.125
 5667SOL     OW17899   2.545   4.642   4.133
 5667SOL    HW117900   2.472   4.577   4.154
 5667SOL    HW217901   2.599   4.659   4.215
 5668SOL     OW17902   4.845   3.846   3.618
 5668SOL    HW117903   4.820   3.878   3.709
 5668SOL    HW217904   4.820   3.916   3.550
 5669SOL     OW17905   5.455   4.281   6.091
 5669SOL    HW117906   5.422   4.191   6.121
 5669SOL    HW217907   5.377   4.338   6.065
 5670SOL     OW17908   1.515   2.533   3.380
 5670SOL    HW117909   1.450   2.608   3.366
 5670SOL    HW217910   1.608   2.567   3.363
 5671SOL     OW17911   0.520   5.837   3.928
 5671SOL    HW117912   0.558   5.877   4.011
 5671SOL    HW217913   0.435   5.789   3.950
 5672SOL     OW17914   5.194   3.328   4.306
 5672SOL    HW117915   5.267   3.310   4.372
 5672SOL    HW217916   5.213   3.280   4.221
 5673SOL     OW17917   0.907   1.570   0.815
 5673SOL    HW117918   0.949   1.563   0.905
 5673SOL    HW217919   0.829   1.632   0.819
 5674SOL     OW17920   2.284   4.734   4.860
 5674SOL    HW117921   2.258   4.785   4.942
 5674SOL    HW217922   2.349   4.788   4.806
 5675SOL     OW17923   2.703   1.586   1.255
 5675SOL    HW117924   2.737   1.510   1.200
 5675SOL    HW217925   2.689   1.666   1.196
 5676SOL     OW17926   3.169   1.097   1.788
 5676SOL    HW117927   3.219   1.124   1.870
 5676SOL    HW217928   3.113   1.016   1.808
 5677SOL     OW17929   0.137   1.488   6.520
 5677SOL    HW117930   0.070   1.493   6.594
 5677SOL    HW217931   0.205   1.562   6.532
 5678SOL     OW17932   3.496   2.032   2.045
 5678SOL    HW117933   3.462   2.042   2.138
 5678SOL    HW217934   3.569   2.098   2.028
 5679SOL     OW17935   6.310   3.502   5.198
 5679SOL    HW117936   6.358   3.432   5.251
 5679SOL    HW217937   6.272   3.571   5.260
 5680SOL     OW17938   0.936   5.991   4.934
 5680SOL    HW117939   0.916   5.974   5.031
 5680SOL    HW217940   0.916   5.909   4.881
 5681SOL     OW17941   1.077   3.567   4.170
 5681SOL    HW117942   1.002   3.502   4.154
 5681SOL    HW217943   1.136   3.571   4.090
 5682SOL     OW17944   2.062   4.587   1.407
 5682SOL    HW117945   1.986   4.568   1.345
 5682SOL    HW217946   2.027   4.612   1.497
 5683SOL     OW17947   6.559   0.772   5.837
 5683SOL    HW117948   6.507   0.845   5.882
 5683SOL    HW217949   6.657   0.785   5.854
 5684SOL     OW17950   2.160   3.043   4.903
 5684SOL    HW117951   2.124   3.135   4.888
 5684SOL    HW217952   2.239   3.049   4.964
 5685SOL     OW17953   2.379   1.969   2.279
 5685SOL    HW117954   2.369   2.057   2.325
 5685SOL    HW217955   2.319   1.966   2.199
 5686SOL     OW17956   4.814   5.676   5.759
 5686SOL    HW117957   4.830   5.707   5.853
 5686SOL    HW217958   4.899   5.684   5.706
 5687SOL     OW17959   1.653   6.230   6.381
 5687SOL    HW117960   1.562   6.249   6.344
 5687SOL    HW217961   1.683   6.307   6.437
 5688SOL     OW17962   1.834   1.995   2.785
 5688SOL    HW117963   1.927   1.997   2.823
 5688SOL    HW217964   1.786   1.914   2.820
 5689SOL     OW17965   0.215   2.589   1.197
 5689SOL    HW117966   0.185   2.497   1.225
 5689SOL    HW217967   0.294   2.581   1.136
 5690SOL     OW17968   2.226   4.941   6.665
 5690SOL    HW117969   2.187   4.860   6.709
 5690SOL    HW217970   2.323   4.923   6.644
 5691SOL     OW17971   3.885   1.788   3.109
 5691SOL    HW117972   3.930   1.821   3.191
 5691SOL    HW217973   3.949   1.790   3.032
 5692SOL     OW17974   5.758   4.787   1.814
 5692SOL    HW117975   5.783   4.691   1.826
 5692SOL    HW217976   5.762   4.834   1.902
 5693SOL     OW17977   4.205   0.398   1.523
 5693SOL    HW117978   4.105   0.395   1.528
 5693SOL    HW217979   4.244   0.352   1.602
 5694SOL     OW17980   0.870   0.057   1.658
 5694SOL    HW117981   0.812   0.074   1.578
 5694SOL    HW217982   0.963   0.091   1.640
 5695SOL     OW17983   2.644   0.861   2.072
 5695SOL    HW117984   2.633   0.894   1.979
 5695SOL    HW217985   2.559   0.874   2.123
 5696SOL     OW17986   1.003   0.795   4.095
 5696SOL    HW117987   0.918   0.745   4.116
 5696SOL    HW217988   1.006   0.879   4.148
 5697SOL     OW17989   6.289   2.475   0.502
 5697SOL    HW117990   6.343   2.558   0.507
 5697SOL    HW217991   6.248   2.455   0.591
 5698SOL     OW17992   2.864   1.790   4.487
 5698SOL    HW117993   2.957   1.759   4.467
 5698SOL    HW217994   2.852   1.884   4.456
 5699SOL     OW17995   2.096   2.604   2.403
 5699SOL    HW117996   2.138   2.514   2.390
 5699SOL    HW217997   2.152   2.659   2.465
 5700SOL     OW17998   6.470   0.356   2.423
 5700SOL    HW117999   6.442   0.281   2.362
 5700SOL    HW218000   6.467   0.324   2.518
 5701SOL     OW18001   0.452   0.655   0.734
 5701SOL    HW118002   0.550   0.648   0.712
 5701SOL    HW218003   0.441   0.650   0.833
 5702SOL     OW18004   2.470   0.254   4.596
 5702SOL    HW118005   2.519   0.235   4.681
 5702SOL    HW218006   2.388   0.197   4.593
 5703SOL     OW18007   0.446   3.369   6.302
 5703SOL    HW118008   0.484   3.416   6.223
 5703SOL    HW218009   0.346   3.371   6.297
 5704SOL     OW18010   4.243   5.535   4.007
 5704SOL    HW118011   4.272   5.617   4.056
 5704SOL    HW218012   4.173   5.560   3.939
 5705SOL     OW18013   6.058   0.795   5.546
 5705SOL    HW118014   5.976   0.741   5.561
 5705SOL    HW218015   6.060   0.872   5.609
 5706SOL     OW18016   5.006   1.881   0.511
 5706SOL    HW118017   4.928   1.885   0.449
 5706SOL    HW218018   5.078   1.942   0.479
 5707SOL     OW18019   5.924   5.423   1.416
 5707SOL    HW118020   5.890   5.451   1.327
 5707SOL    HW218021   5.942   5.324   1.416
 5708SOL     OW18022   5.458   6.186   2.325
 5708SOL    HW118023   5.544   6.139   2.344
 5708SOL    HW218024   5.411   6.141   2.249
 5709SOL     OW18025   7.003   2.425   2.394
 5709SOL    HW118026   0.075   2.421   2.381
 5709SOL    HW218027   6.982   2.469   2.481
 5710SOL     OW18028   3.947   1.785   0.773
 5710SOL    HW118029   3.998   1.757   0.691
 5710SOL    HW218030   3.849   1.790   0.751
 5711SOL     OW18031   5.308   1.929   3.072
 5711SOL    HW118032   5.393   1.976   3.095
 5711SOL    HW218033   5.251   1.921   3.154
 5712SOL     OW18034   6.335   0.054   0.411
 5712SOL    HW118035   6.306   0.042   0.506
 5712SOL    HW218036   6.261   0.025   0.350
 5713SOL     OW18037   2.220   0.967   0.596
 5713SOL    HW118038   2.225   0.902   0.520
 5713SOL    HW218039   2.270   1.051   0.571
 5714SOL     OW18040   6.202   0.496   0.381
 5714SOL    HW118041   6.301   0.499   0.396
 5714SOL    HW218042   6.183   0.451   0.293
 5715SOL     OW18043   0.357   0.244   2.215
 5715SOL    HW118044   0.365   0.300   2.133
 5715SOL    HW218045   0.261   0.219   2.229
 5716SOL     OW18046   6.367   4.248   5.437
 5716SOL    HW118047   6.369   4.163   5.490
 5716SOL    HW218048   6.280   4.295   5.452
 5717SOL     OW18049   0.927   5.277   3.556
 5717SOL    HW118050   0.999   5.208   3.567
 5717SOL    HW218051   0.850   5.256   3.616
 5718SOL     OW18052   1.012   3.197   6.864
 5718SOL    HW118053   1.107   3.169   6.855
 5718SOL    HW218054   1.004   3.271   6.930
 5719SOL     OW18055   2.584   3.236   0.599
 5719SOL    HW118056   2.641   3.192   0.529
 5719SOL    HW218057   2.599   3.192   0.687
 5720SOL     OW18058   2.892   4.704   5.762
 5720SOL    HW118059   2.898   4.689   5.663
 5720SOL    HW218060   2.880   4.616   5.808
 5721SOL     OW18061   1.529   2.707   6.935
 5721SOL    HW118062   1.476   2.791   6.947
 5721SOL    HW218063   1.627   2.729   6.936
 5722SOL     OW18064   1.481   0.085   6.782
 5722SOL    HW118065   1.557   0.144   6.812
 5722SOL    HW218066   1.401   0.142   6.763
 5723SOL     OW18067   3.857   3.277   0.433
 5723SOL    HW118068   3.770   3.238   0.402
 5723SOL    HW218069   3.929   3.209   0.423
 5724SOL     OW18070   5.280   1.919   5.844
 5724SOL    HW118071   5.243   1.940   5.935
 5724SOL    HW218072   5.367   1.871   5.854
 5725SOL     OW18073   0.230   4.590   5.119
 5725SOL    HW118074   0.149   4.626   5.073
 5725SOL    HW218075   0.205   4.510   5.173
 5726SOL     OW18076   5.310   4.080   2.531
 5726SOL    HW118077   5.373   4.132   2.589
 5726SOL    HW218078   5.298   3.988   2.569
 5727SOL     OW18079   0.706   2.593   5.328
 5727SOL    HW118080   0.664   2.533   5.260
 5727SOL    HW218081   0.717   2.685   5.290
 5728SOL     OW18082   3.942   0.113   4.892
 5728SOL    HW118083   3.896   0.050   4.953
 5728SOL    HW218084   3.930   0.207   4.924
 5729SOL     OW18085   2.708   2.116   4.895
 5729SOL    HW118086   2.756   2.049   4.839
 5729SOL    HW218087   2.758   2.129   4.981
 5730SOL     OW18088   6.835   4.252   4.889
 5730SOL    HW118089   6.909   4.261   4.822
 5730SOL    HW218090   6.748   4.247   4.840
 5731SOL     OW18091   0.695   6.942   3.025
 5731SOL    HW118092   0.784   6.914   2.988
 5731SOL    HW218093   0.685   6.906   3.118
 5732SOL     OW18094   0.389   0.760   3.670
 5732SOL    HW118095   0.357   0.817   3.746
 5732SOL    HW218096   0.343   0.789   3.586
 5733SOL     OW18097   3.147   0.297   5.214
 5733SOL    HW118098   3.112   0.348   5.293
 5733SOL    HW218099   3.122   0.346   5.130
 5734SOL     OW18100   1.824   6.757   3.864
 5734SOL    HW118101   1.788   6.664   3.877
 5734SOL    HW218102   1.778   6.799   3.786
 5735SOL     OW18103   3.421   0.499   1.832
 5735SOL    HW118104   3.357   0.424   1.817
 5735SOL    HW218105   3.376   0.586   1.809
 5736SOL     OW18106   1.610   5.730   6.788
 5736SOL    HW118107   1.660   5.654   6.830
 5736SOL    HW218108   1.650   5.750   6.698
 5737SOL     OW18109   5.462   4.465   0.275
 5737SOL    HW118110   5.365   4.492   0.267
 5737SOL    HW218111   5.488   4.465   0.371
 5738SOL     OW18112   1.182   4.473   5.162
 5738SOL    HW118113   1.231   4.389   5.141
 5738SOL    HW218114   1.148   4.514   5.077
 5739SOL     OW18115   0.839   2.446   1.817
 5739SOL    HW118116   0.770   2.379   1.789
 5739SOL    HW218117   0.918   2.398   1.855
 5740SOL     OW18118   3.686   5.607   6.992
 5740SOL    HW118119   3.693   5.524   0.020
 5740SOL    HW218120   3.600   5.605   6.940
 5741SOL     OW18121   0.359   4.576   1.613
 5741SOL    HW118122   0.340   4.559   1.709
 5741SOL    HW218123   0.314   4.660   1.584
 5742SOL     OW18124   0.299   5.881   4.217
 5742SOL    HW118125   0.206   5.904   4.247
 5742SOL    HW218126   0.294   5.812   4.145
 5743SOL     OW18127   1.714   6.188   4.446
 5743SOL    HW118128   1.654   6.237   4.509
 5743SOL    HW218129   1.676   6.097   4.428
 5744SOL     OW18130   5.987   0.190   1.708
 5744SOL    HW118131   6.051   0.127   1.664
 5744SOL    HW218132   6.010   0.284   1.684
 5745SOL     OW18133   1.260   2.301   3.067
 5745SOL    HW118134   1.304   2.377   3.018
 5745SOL    HW218135   1.319   2.269   3.140
 5746SOL     OW18136   6.487   4.550   0.179
 5746SOL    HW118137   6.420   4.623   0.167
 5746SOL    HW218138   6.553   4.575   0.249
 5747SOL     OW18139   0.420   6.429   3.272
 5747SOL    HW118140   0.410   6.518   3.227
 5747SOL    HW218141   0.403   6.357   3.205
 5748SOL     OW18142   2.244   6.782   3.623
 5748SOL    HW118143   2.193   6.810   3.705
 5748SOL    HW218144   2.187   6.798   3.542
 5749SOL     OW18145   1.963   1.057   3.155
 5749SOL    HW118146   1.947   1.128   3.225
 5749SOL    HW218147   2.058   1.061   3.124
 5750SOL     OW18148   6.181   5.842   2.220
 5750SOL    HW118149   6.153   5.781   2.294
 5750SOL    HW218150   6.102   5.866   2.165
 5751SOL     OW18151   1.094   3.116   6.193
 5751SOL    HW118152   1.128   3.161   6.111
 5751SOL    HW218153   1.010   3.161   6.223
 5752SOL     OW18154   1.108   1.096   6.436
 5752SOL    HW118155   1.084   1.039   6.514
 5752SOL    HW218156   1.124   1.190   6.468
 5753SOL     OW18157   4.256   1.636   0.335
 5753SOL    HW118158   4.343   1.681   0.313
 5753SOL    HW218159   4.260   1.541   0.305
 5754SOL     OW18160   6.606   5.318   0.546
 5754SOL    HW118161   6.585   5.401   0.598
 5754SOL    HW218162   6.675   5.265   0.595
 5755SOL     OW18163   3.283   3.753   1.618
 5755SOL    HW118164   3.293   3.687   1.693
 5755SOL    HW218165   3.372   3.796   1.601
 5756SOL     OW18166   7.026   6.617   4.328
 5756SOL    HW118167   0.009   6.518   4.334
 5756SOL    HW218168   6.943   6.646   4.376
 5757SOL     OW18169   0.150   6.351   2.084
 5757SOL    HW118170   0.247   6.344   2.108
 5757SOL    HW218171   0.141   6.351   1.984
 5758SOL     OW18172   2.471   1.346   5.391
 5758SOL    HW118173   2.406   1.285   5.437
 5758SOL    HW218174   2.533   1.387   5.458
 5759SOL     OW18175   0.260   2.096   5.552
 5759SOL    HW118176   0.235   2.085   5.456
 5759SOL    HW218177   0.196   2.044   5.609
 5760SOL     OW18178   1.188   5.208   1.484
 5760SOL    HW118179   1.160   5.114   1.502
 5760SOL    HW218180   1.126   5.271   1.530
 5761SOL     OW18181   5.519   0.405   4.407
 5761SOL    HW118182   5.558   0.433   4.494
 5761SOL    HW218183   5.447   0.469   4.380
 5762SOL     OW18184   5.740   6.456   1.362
 5762SOL    HW118185   5.798   6.383   1.399
 5762SOL    HW218186   5.650   6.419   1.339
 5763SOL     OW18187   2.026   1.414   0.915
 5763SOL    HW118188   2.118   1.377   0.926
 5763SOL    HW218189   1.989   1.385   0.827
 5764SOL     OW18190   4.722   2.691   6.295
 5764SOL    HW118191   4.703   2.729   6.386
 5764SOL    HW218192   4.776   2.757   6.243
 5765SOL     OW18193   6.598   5.822   0.532
 5765SOL    HW118194   6.611   5.800   0.435
 5765SOL    HW218195   6.566   5.741   0.581
 5766SOL     OW18196   3.243   1.321   3.099
 5766SOL    HW118197   3.255   1.329   3.000
 5766SOL    HW218198   3.145   1.315   3.119
 5767SOL     OW18199   5.632   0.700   0.726
 5767SOL    HW118200   5.702   0.748   0.673
 5767SOL    HW218201   5.590   0.763   0.790
 5768SOL     OW18202   6.314   1.045   2.570
 5768SOL    HW118203   6.223   1.020   2.536
 5768SOL    HW218204   6.363   0.962   2.597
 5769SOL     OW18205   1.947   5.342   3.349
 5769SOL    HW118206   1.867   5.351   3.409
 5769SOL    HW218207   1.945   5.254   3.303
 5770SOL     OW18208   5.721   2.433   1.781
 5770SOL    HW118209   5.632   2.424   1.825
 5770SOL    HW218210   5.709   2.438   1.681
 5771SOL     OW18211   0.587   0.892   0.814
 5771SOL    HW118212   0.512   0.830   0.791
 5771SOL    HW218213   0.652   0.897   0.738
 5772SOL     OW18214   6.366   4.209   6.611
 5772SOL    HW118215   6.462   4.231   6.630
 5772SOL    HW218216   6.321   4.289   6.571
 5773SOL     OW18217   4.872   5.970   5.175
 5773SOL    HW118218   4.855   6.022   5.258
 5773SOL    HW218219   4.927   5.889   5.197
 5774SOL     OW18220   2.243   4.833   2.714
 5774SOL    HW118221   2.329   4.803   2.755
 5774SOL    HW218222   2.260   4.910   2.653
 5775SOL     OW18223   0.770   0.527   0.171
 5775SOL    HW118224   0.825   0.553   0.251
 5775SOL    HW218225   0.674   0.546   0.189
 5776SOL     OW18226   4.342   1.257   6.144
 5776SOL    HW118227   4.411   1.316   6.185
 5776SOL    HW218228   4.383   1.203   6.071
 5777SOL     OW18229   5.747   0.451   5.204
 5777SOL    HW118230   5.765   0.393   5.284
 5777SOL    HW218231   5.775   0.545   5.224
 5778SOL     OW18232   2.626   6.648   4.065
 5778SOL    HW118233   2.690   6.571   4.066
 5778SOL    HW218234   2.532   6.613   4.059
 5779SOL     OW18235   4.167   0.053   0.839
 5779SOL    HW118236   4.157   0.150   0.818
 5779SOL    HW218237   4.099   0.027   0.909
 5780SOL     OW18238   5.941   3.870   0.775
 5780SOL    HW118239   5.857   3.923   0.782
 5780SOL    HW218240   5.947   3.829   0.684
 5781SOL     OW18241   3.106   4.690   5.268
 5781SOL    HW118242   3.052   4.608   5.253
 5781SOL    HW218243   3.054   4.754   5.325
 5782SOL     OW18244   4.482   1.755   3.502
 5782SOL    HW118245   4.456   1.849   3.525
 5782SOL    HW218246   4.554   1.756   3.432
 5783SOL     OW18247   2.342   6.471   2.213
 5783SOL    HW118248   2.362   6.559   2.256
 5783SOL    HW218249   2.375   6.397   2.271
 5784SOL     OW18250   1.220   6.031   6.822
 5784SOL    HW118251   1.128   5.996   6.807
 5784SOL    HW218252   1.286   5.973   6.774
 5785SOL     OW18253   2.083   1.980   6.685
 5785SOL    HW118254   2.181   1.963   6.685
 5785SOL    HW218255   2.050   1.992   6.591
 5786SOL     OW18256   0.705   2.509   6.168
 5786SOL    HW118257   0.625   2.468   6.123
 5786SOL    HW218258   0.788   2.484   6.119
 5787SOL     OW18259   0.411   2.803   5.325
 5787SOL    HW118260   0.398   2.902   5.330
 5787SOL    HW218261   0.453   2.770   5.409
 5788SOL     OW18262   0.270   1.792   1.851
 5788SOL    HW118263   0.172   1.811   1.838
 5788SOL    HW218264   0.324   1.861   1.804
 5789SOL     OW18265   2.956   5.461   6.704
 5789SOL    HW118266   2.945   5.541   6.645
 5789SOL    HW218267   2.871   5.441   6.751
 5790SOL     OW18268   6.580   6.337   2.659
 5790SOL    HW118269   6.654   6.270   2.665
 5790SOL    HW218270   6.536   6.330   2.570
 5791SOL     OW18271   4.088   0.931   1.115
 5791SOL    HW118272   4.087   0.936   1.215
 5791SOL    HW218273   4.012   0.984   1.078
 5792SOL     OW18274   4.622   2.181   2.321
 5792SOL    HW118275   4.524   2.166   2.330
 5792SOL    HW218276   4.641   2.228   2.234
 5793SOL     OW18277   3.530   1.792   0.107
 5793SOL    HW118278   3.485   1.720   0.160
 5793SOL    HW218279   3.465   1.866   0.091
 5794SOL     OW18280   3.394   5.774   7.024
 5794SOL    HW118281   3.421   5.720   6.945
 5794SOL    HW218282   3.321   5.727   0.047
 5795SOL     OW18283   0.972   0.353   1.023
 5795SOL    HW118284   0.980   0.285   0.950
 5795SOL    HW218285   0.876   0.359   1.052
 5796SOL     OW18286   4.825   0.505   5.963
 5796SOL    HW118287   4.745   0.565   5.956
 5796SOL    HW218288   4.884   0.518   5.883
 5797SOL     OW18289   0.489   2.733   6.950
 5797SOL    HW118290   0.564   2.693   6.897
 5797SOL    HW218291   0.434   2.660   6.990
 5798SOL     OW18292   2.074   2.864   4.465
 5798SOL    HW118293   2.008   2.802   4.422
 5798SOL    HW218294   2.080   2.844   4.563
 5799SOL     OW18295   2.757   0.213   3.591
 5799SOL    HW118296   2.820   0.289   3.579
 5799SOL    HW218297   2.671   0.233   3.543
 5800SOL     OW18298   1.157   6.298   2.370
 5800SOL    HW118299   1.230   6.266   2.431
 5800SOL    HW218300   1.129   6.223   2.310
 5801SOL     OW18301   1.636   1.800   2.908
 5801SOL    HW118302   1.595   1.873   2.964
 5801SOL    HW218303   1.569   1.727   2.895
 5802SOL     OW18304   0.668   0.277   3.009
 5802SOL    HW118305   0.738   0.336   3.049
 5802SOL    HW218306   0.638   0.317   2.922
 5803SOL     OW18307   0.630   6.834   4.198
 5803SOL    HW118308   0.567   6.759   4.176
 5803SOL    HW218309   0.591   6.889   4.272
 5804SOL     OW18310   6.640   2.055   3.251
 5804SOL    HW118311   6.693   2.053   3.167
 5804SOL    HW218312   6.687   2.112   3.318
 5805SOL     OW18313   0.810   2.637   1.628
 5805SOL    HW118314   0.830   2.570   1.700
 5805SOL    HW218315   0.729   2.690   1.655
 5806SOL     OW18316   6.456   3.887   1.989
 5806SOL    HW118317   6.445   3.987   1.983
 5806SOL    HW218318   6.545   3.861   1.952
 5807SOL     OW18319   0.985   1.705   2.078
 5807SOL    HW118320   0.983   1.706   1.978
 5807SOL    HW218321   0.940   1.787   2.114
 5808SOL     OW18322   0.031   0.464   5.454
 5808SOL    HW118323   0.056   0.460   5.551
 5808SOL    HW218324   6.982   0.400   5.437
 5809SOL     OW18325   0.055   3.689   4.394
 5809SOL    HW118326   0.090   3.690   4.300
 5809SOL    HW218327   7.014   3.616   4.404
 5810SOL     OW18328   1.763   6.545   5.769
 5810SOL    HW118329   1.707   6.572   5.691
 5810SOL    HW218330   1.860   6.549   5.744
 5811SOL     OW18331   3.851   5.214   6.874
 5811SOL    HW118332   3.883   5.158   6.950
 5811SOL    HW218333   3.792   5.159   6.815
 5812SOL     OW18334   6.380   3.864   6.050
 5812SOL    HW118335   6.293   3.884   6.093
 5812SOL    HW218336   6.424   3.949   6.022
 5813SOL     OW18337   5.650   4.457   0.512
 5813SOL    HW118338   5.718   4.392   0.545
 5813SOL    HW218339   5.683   4.498   0.427
 5814SOL     OW18340   5.629   1.352   2.707
 5814SOL    HW118341   5.549   1.302   2.674
 5814SOL    HW218342   5.600   1.415   2.779
 5815SOL     OW18343   6.806   3.577   5.140
 5815SOL    HW118344   6.784   3.668   5.105
 5815SOL    HW218345   6.906   3.568   5.147
 5816SOL     OW18346   6.905   4.020   1.215
 5816SOL    HW118347   6.965   4.024   1.135
 5816SOL    HW218348   6.853   3.935   1.213
 5817SOL     OW18349   6.878   2.848   3.843
 5817SOL    HW118350   6.799   2.900   3.810
 5817SOL    HW218351   6.925   2.805   3.766
 5818SOL     OW18352   2.591   0.127   4.386
 5818SOL    HW118353   2.586   0.135   4.486
 5818SOL    HW218354   2.503   0.094   4.351
 5819SOL     OW18355   4.513   4.159   1.182
 5819SOL    HW118356   4.473   4.213   1.108
 5819SOL    HW218357   4.481   4.195   1.270
 5820SOL     OW18358   0.080   6.848   2.791
 5820SOL    HW118359   0.163   6.884   2.834
 5820SOL    HW218360   0.098   6.757   2.755
 5821SOL     OW18361   6.336   6.573   2.151
 5821SOL    HW118362   6.405   6.555   2.221
 5821SOL    HW218363   6.345   6.668   2.119
 5822SOL     OW18364   0.534   3.967   2.465
 5822SOL    HW118365   0.588   4.050   2.451
 5822SOL    HW218366   0.454   3.988   2.520
 5823SOL     OW18367   2.786   6.676   4.943
 5823SOL    HW118368   2.705   6.702   4.996
 5823SOL    HW218369   2.763   6.597   4.885
 5824SOL     OW18370   2.066   6.081   2.338
 5824SOL    HW118371   2.078   6.052   2.433
 5824SOL    HW218372   2.122   6.025   2.278
 5825SOL     OW18373   4.223   1.835   4.995
 5825SOL    HW118374   4.192   1.893   5.070
 5825SOL    HW218375   4.145   1.786   4.956
 5826SOL     OW18376   1.531   6.328   4.597
 5826SOL    HW118377   1.432   6.343   4.594
 5826SOL    HW218378   1.567   6.362   4.684
 5827SOL     OW18379   2.213   3.922   3.405
 5827SOL    HW118380   2.180   3.994   3.344
 5827SOL    HW218381   2.294   3.879   3.366
 5828SOL     OW18382   4.619   6.732   5.486
 5828SOL    HW118383   4.676   6.734   5.568
 5828SOL    HW218384   4.652   6.661   5.424
 5829SOL     OW18385   1.819   0.496   2.692
 5829SOL    HW118386   1.737   0.443   2.671
 5829SOL    HW218387   1.900   0.446   2.661
 5830SOL     OW18388   4.705   5.598   4.501
 5830SOL    HW118389   4.611   5.602   4.535
 5830SOL    HW218390   4.703   5.588   4.401
 5831SOL     OW18391   2.273   1.885   4.466
 5831SOL    HW118392   2.189   1.836   4.441
 5831SOL    HW218393   2.279   1.894   4.565
 5832SOL     OW18394   2.430   5.378   3.904
 5832SOL    HW118395   2.464   5.460   3.949
 5832SOL    HW218396   2.501   5.339   3.845
 5833SOL     OW18397   3.020   4.669   0.725
 5833SOL    HW118398   2.932   4.669   0.774
 5833SOL    HW218399   3.095   4.662   0.791
 5834SOL     OW18400   6.294   2.412   6.378
 5834SOL    HW118401   6.389   2.395   6.405
 5834SOL    HW218402   6.236   2.415   6.459
 5835SOL     OW18403   4.330   1.561   3.341
 5835SOL    HW118404   4.335   1.467   3.375
 5835SOL    HW218405   4.354   1.624   3.415
 5836SOL     OW18406   4.641   5.306   1.350
 5836SOL    HW118407   4.701   5.386   1.360
 5836SOL    HW218408   4.546   5.334   1.365
 5837SOL     OW18409   2.543   4.135   0.282
 5837SOL    HW118410   2.598   4.125   0.199
 5837SOL    HW218411   2.472   4.204   0.267
 5838SOL     OW18412   3.235   3.270   6.949
 5838SOL    HW118413   3.301   3.232   7.014
 5838SOL    HW218414   3.225   3.208   6.871
 5839SOL     OW18415   2.027   1.385   0.631
 5839SOL    HW118416   1.944   1.439   0.619
 5839SOL    HW218417   2.027   1.308   0.567
 5840SOL     OW18418   0.515   3.514   2.476
 5840SOL    HW118419   0.430   3.503   2.423
 5840SOL    HW218420   0.529   3.433   2.532
 5841SOL     OW18421   5.293   1.478   0.558
 5841SOL    HW118422   5.220   1.453   0.621
 5841SOL    HW218423   5.367   1.524   0.608
 5842SOL     OW18424   3.329   2.083   2.334
 5842SOL    HW118425   3.382   2.128   2.405
 5842SOL    HW218426   3.246   2.136   2.315
 5843SOL     OW18427   3.133   3.146   0.932
 5843SOL    HW118428   3.219   3.196   0.928
 5843SOL    HW218429   3.103   3.122   0.840
 5844SOL     OW18430   0.587   5.413   5.271
 5844SOL    HW118431   0.679   5.429   5.305
 5844SOL    HW218432   0.547   5.335   5.320
 5845SOL     OW18433   1.755   6.605   2.528
 5845SOL    HW118434   1.803   6.691   2.545
 5845SOL    HW218435   1.659   6.624   2.509
 5846SOL     OW18436   0.638   4.775   5.875
 5846SOL    HW118437   0.586   4.744   5.795
 5846SOL    HW218438   0.734   4.750   5.864
 5847SOL     OW18439   1.938   4.265   6.294
 5847SOL    HW118440   1.982   4.333   6.235
 5847SOL    HW218441   1.981   4.176   6.278
 5848SOL     OW18442   2.511   6.458   1.600
 5848SOL    HW118443   2.431   6.435   1.656
 5848SOL    HW218444   2.565   6.529   1.646
 5849SOL     OW18445   2.673   5.542   6.538
 5849SOL    HW118446   2.755   5.594   6.514
 5849SOL    HW218447   2.696   5.445   6.547
 5850SOL     OW18448   6.075   1.511   1.718
 5850SOL    HW118449   6.092   1.521   1.620
 5850SOL    HW218450   6.117   1.426   1.750
 5851SOL     OW18451   0.375   3.922   4.759
 5851SOL    HW118452   0.325   3.860   4.698
 5851SOL    HW218453   0.458   3.876   4.792
 5852SOL     OW18454   5.100   3.995   2.862
 5852SOL    HW118455   5.125   4.081   2.906
 5852SOL    HW218456   5.051   4.014   2.777
 5853SOL     OW18457   4.688   4.926   0.078
 5853SOL    HW118458   4.707   4.879   7.018
 5853SOL    HW218459   4.767   4.918   0.138
 5854SOL     OW18460   2.891   4.496   5.489
 5854SOL    HW118461   2.792   4.493   5.505
 5854SOL    HW218462   2.908   4.489   5.390
 5855SOL     OW18463   1.866   2.021   4.471
 5855SOL    HW118464   1.790   2.068   4.517
 5855SOL    HW218465   1.950   2.036   4.522
 5856SOL     OW18466   0.232   0.378   2.773
 5856SOL    HW118467   0.168   0.455   2.779
 5856SOL    HW218468   0.214   0.314   2.848
 5857SOL     OW18469   5.620   5.199   6.987
 5857SOL    HW118470   5.555   5.146   0.016
 5857SOL    HW218471   5.653   5.143   6.911
 5858SOL     OW18472   2.343   1.701   2.426
 5858SOL    HW118473   2.348   1.794   2.390
 5858SOL    HW218474   2.285   1.645   2.367
 5859SOL     OW18475   5.460   5.483   2.070
 5859SOL    HW118476   5.451   5.580   2.049
 5859SOL    HW218477   5.463   5.470   2.169
 5860SOL     OW18478   2.069   3.139   2.837
 5860SOL    HW118479   1.975   3.142   2.872
 5860SOL    HW218480   2.118   3.220   2.867
 5861SOL     OW18481   5.831   0.697   5.236
 5861SOL    HW118482   5.908   0.757   5.257
 5861SOL    HW218483   5.752   0.753   5.211
 5862SOL     OW18484   6.910   5.111   3.141
 5862SOL    HW118485   6.850   5.032   3.129
 5862SOL    HW218486   6.858   5.187   3.181
 5863SOL     OW18487   4.167   6.910   5.983
 5863SOL    HW118488   4.092   6.886   6.045
 5863SOL    HW218489   4.183   7.009   5.988
 5864SOL     OW18490   3.885   3.004   2.870
 5864SOL    HW118491   3.804   2.973   2.820
 5864SOL    HW218492   3.959   3.023   2.805
 5865SOL     OW18493   6.476   6.932   1.527
 5865SOL    HW118494   6.382   6.898   1.530
 5865SOL    HW218495   6.490   6.998   1.601
 5866SOL     OW18496   3.621   3.477   3.513
 5866SOL    HW118497   3.530   3.518   3.500
 5866SOL    HW218498   3.612   3.389   3.559
 5867SOL     OW18499   3.753   1.244   1.076
 5867SOL    HW118500   3.697   1.175   1.122
 5867SOL    HW218501   3.807   1.201   1.005
 5868SOL     OW18502   1.525   0.502   0.587
 5868SOL    HW118503   1.460   0.554   0.642
 5868SOL    HW218504   1.534   0.410   0.626
 5869SOL     OW18505   1.709   5.652   2.663
 5869SOL    HW118506   1.767   5.718   2.614
 5869SOL    HW218507   1.687   5.688   2.753
 5870SOL     OW18508   4.707   0.416   3.720
 5870SOL    HW118509   4.799   0.446   3.694
 5870SOL    HW218510   4.652   0.401   3.638
 5871SOL     OW18511   3.784   3.274   3.745
 5871SOL    HW118512   3.687   3.267   3.768
 5871SOL    HW218513   3.839   3.230   3.816
 5872SOL     OW18514   3.912   6.124   1.158
 5872SOL    HW118515   3.828   6.176   1.173
 5872SOL    HW218516   3.969   6.171   1.090
 5873SOL     OW18517   4.173   6.220   1.935
 5873SOL    HW118518   4.124   6.147   1.888
 5873SOL    HW218519   4.242   6.180   1.996
 5874SOL     OW18520   0.498   4.612   5.083
 5874SOL    HW118521   0.399   4.604   5.095
 5874SOL    HW218522   0.525   4.568   4.997
 5875SOL     OW18523   3.933   2.197   1.310
 5875SOL    HW118524   3.910   2.270   1.245
 5875SOL    HW218525   3.928   2.233   1.403
 5876SOL     OW18526   3.351   2.895   1.920
 5876SOL    HW118527   3.379   2.990   1.933
 5876SOL    HW218528   3.410   2.835   1.974
 5877SOL     OW18529   5.221   4.331   1.573
 5877SOL    HW118530   5.141   4.385   1.600
 5877SOL    HW218531   5.216   4.310   1.476
 5878SOL     OW18532   1.710   3.820   2.558
 5878SOL    HW118533   1.809   3.804   2.556
 5878SOL    HW218534   1.692   3.907   2.604
 5879SOL     OW18535   1.957   3.429   4.162
 5879SOL    HW118536   1.995   3.369   4.092
 5879SOL    HW218537   1.878   3.385   4.206
 5880SOL     OW18538   3.189   5.621   0.088
 5880SOL    HW118539   3.091   5.602   0.078
 5880SOL    HW218540   3.239   5.535   0.094
 5881SOL     OW18541   1.909   6.503   4.493
 5881SOL    HW118542   1.984   6.547   4.443
 5881SOL    HW218543   1.914   6.404   4.478
 5882SOL     OW18544   5.152   0.150   3.340
 5882SOL    HW118545   5.162   0.193   3.429
 5882SOL    HW218546   5.190   0.209   3.269
 5883SOL     OW18547   0.598   3.103   4.698
 5883SOL    HW118548   0.632   3.150   4.617
 5883SOL    HW218549   0.673   3.056   4.744
 5884SOL     OW18550   0.509   0.734   3.048
 5884SOL    HW118551   0.493   0.831   3.029
 5884SOL    HW218552   0.425   0.693   3.083
 5885SOL     OW18553   5.859   6.763   0.870
 5885SOL    HW118554   5.839   6.800   0.960
 5885SOL    HW218555   5.892   6.669   0.878
 5886SOL     OW18556   6.047   1.784   6.230
 5886SOL    HW118557   6.050   1.810   6.326
 5886SOL    HW218558   6.022   1.687   6.223
 5887SOL     OW18559   3.962   6.053   2.598
 5887SOL    HW118560   3.934   5.992   2.672
 5887SOL    HW218561   3.912   6.028   2.515
 5888SOL     OW18562   6.743   6.899   2.041
 5888SOL    HW118563   6.827   6.845   2.051
 5888SOL    HW218564   6.737   6.964   2.117
 5889SOL     OW18565   2.536   6.819   6.550
 5889SOL    HW118566   2.447   6.823   6.505
 5889SOL    HW218567   2.524   6.831   6.648
 5890SOL     OW18568   3.998   5.254   6.145
 5890SOL    HW118569   4.083   5.217   6.108
 5890SOL    HW218570   3.941   5.179   6.178
 5891SOL     OW18571   2.212   3.811   6.046
 5891SOL    HW118572   2.120   3.783   6.075
 5891SOL    HW218573   2.212   3.834   5.949
 5892SOL     OW18574   2.252   6.313   2.687
 5892SOL    HW118575   2.313   6.368   2.745
 5892SOL    HW218576   2.157   6.328   2.716
 5893SOL     OW18577   1.415   2.042   3.443
 5893SOL    HW118578   1.334   1.984   3.449
 5893SOL    HW218579   1.401   2.112   3.373
 5894SOL     OW18580   1.348   3.876   3.991
 5894SOL    HW118581   1.350   3.880   4.091
 5894SOL    HW218582   1.264   3.831   3.962
 5895SOL     OW18583   5.785   3.939   3.484
 5895SOL    HW118584   5.808   4.023   3.435
 5895SOL    HW218585   5.722   3.884   3.429
 5896SOL     OW18586   5.334   3.549   6.431
 5896SOL    HW118587   5.288   3.549   6.342
 5896SOL    HW218588   5.345   3.454   6.462
 5897SOL     OW18589   4.736   5.108   0.834
 5897SOL    HW118590   4.673   5.135   0.762
 5897SOL    HW218591   4.697   5.130   0.923
 5898SOL     OW18592   2.921   6.551   3.181
 5898SOL    HW118593   2.865   6.613   3.127
 5898SOL    HW218594   2.885   6.546   3.274
 5899SOL     OW18595   5.696   0.360   3.721
 5899SOL    HW118596   5.649   0.272   3.710
 5899SOL    HW218597   5.790   0.352   3.688
 5900SOL     OW18598   3.928   4.864   1.977
 5900SOL    HW118599   3.950   4.941   1.918
 5900SOL    HW218600   3.832   4.837   1.963
 5901SOL     OW18601   2.998   6.385   4.733
 5901SOL    HW118602   3.081   6.365   4.785
 5901SOL    HW218603   2.997   6.481   4.706
 5902SOL     OW18604   6.043   2.364   0.054
 5902SOL    HW118605   5.952   2.346   0.017
 5902SOL    HW218606   6.072   2.286   0.109
 5903SOL     OW18607   0.401   2.997   5.849
 5903SOL    HW118608   0.448   3.073   5.894
 5903SOL    HW218609   0.363   2.936   5.919
 5904SOL     OW18610   1.719   2.839   2.657
 5904SOL    HW118611   1.684   2.747   2.637
 5904SOL    HW218612   1.819   2.838   2.655
 5905SOL     OW18613   0.067   4.635   2.840
 5905SOL    HW118614   0.122   4.699   2.786
 5905SOL    HW218615   7.003   4.626   2.798
 5906SOL     OW18616   1.441   1.368   2.587
 5906SOL    HW118617   1.376   1.441   2.569
 5906SOL    HW218618   1.533   1.398   2.563
 5907SOL     OW18619   2.305   0.333   2.758
 5907SOL    HW118620   2.265   0.423   2.776
 5907SOL    HW218621   2.256   0.290   2.682
 5908SOL     OW18622   1.036   2.960   5.867
 5908SOL    HW118623   0.948   2.985   5.908
 5908SOL    HW218624   1.072   2.880   5.913
 5909SOL     OW18625   6.649   4.591   0.387
 5909SOL    HW118626   6.578   4.587   0.458
 5909SOL    HW218627   6.734   4.553   0.422
 5910SOL     OW18628   1.437   1.788   3.224
 5910SOL    HW118629   1.349   1.741   3.216
 5910SOL    HW218630   1.491   1.746   3.296
 5911SOL     OW18631   6.375   5.723   6.524
 5911SOL    HW118632   6.319   5.800   6.494
 5911SOL    HW218633   6.324   5.638   6.511
 5912SOL     OW18634   6.982   6.992   3.712
 5912SOL    HW118635   7.025   6.904   3.690
 5912SOL    HW218636   0.027   0.033   3.730
 5913SOL     OW18637   6.404   2.296   1.043
 5913SOL    HW118638   6.455   2.340   1.117
 5913SOL    HW218639   6.307   2.319   1.052
 5914SOL     OW18640   0.931   6.560   0.727
 5914SOL    HW118641   0.929   6.539   0.825
 5914SOL    HW218642   0.842   6.539   0.687
 5915SOL     OW18643   4.147   0.681   5.691
 5915SOL    HW118644   4.195   0.684   5.603
 5915SOL    HW218645   4.214   0.666   5.764
 5916SOL     OW18646   0.826   0.172   2.372
 5916SOL    HW118647   0.742   0.222   2.350
 5916SOL    HW218648   0.847   0.109   2.298
 5917SOL     OW18649   3.177   2.854   0.512
 5917SOL    HW118650   3.187   2.794   0.433
 5917SOL    HW218651   3.266   2.872   0.553
 5918SOL     OW18652   3.351   0.005   4.311
 5918SOL    HW118653   3.325   0.096   4.278
 5918SOL    HW218654   3.377   6.975   4.233
 5919SOL     OW18655   3.257   3.171   4.842
 5919SOL    HW118656   3.280   3.075   4.823
 5919SOL    HW218657   3.160   3.179   4.861
 5920SOL     OW18658   0.459   0.292   5.871
 5920SOL    HW118659   0.494   0.351   5.944
 5920SOL    HW218660   0.466   0.196   5.900
 5921SOL     OW18661   2.430   4.350   0.080
 5921SOL    HW118662   2.357   4.414   0.054
 5921SOL    HW218663   2.519   4.392   0.062
 5922SOL     OW18664   5.311   2.964   2.577
 5922SOL    HW118665   5.225   2.967   2.524
 5922SOL    HW218666   5.367   2.888   2.545
 5923SOL     OW18667   5.971   0.810   3.184
 5923SOL    HW118668   6.010   0.728   3.141
 5923SOL    HW218669   6.017   0.891   3.150
 5924SOL     OW18670   5.820   6.414   3.500
 5924SOL    HW118671   5.796   6.472   3.423
 5924SOL    HW218672   5.911   6.375   3.485
 5925SOL     OW18673   4.354   1.467   0.942
 5925SOL    HW118674   4.419   1.464   0.866
 5925SOL    HW218675   4.302   1.382   0.945
 5926SOL     OW18676   5.592   3.820   3.261
 5926SOL    HW118677   5.549   3.787   3.177
 5926SOL    HW218678   5.592   3.746   3.329
 5927SOL     OW18679   0.582   5.294   1.866
 5927SOL    HW118680   0.630   5.370   1.910
 5927SOL    HW218681   0.570   5.314   1.769
 5928SOL     OW18682   2.799   6.926   6.775
 5928SOL    HW118683   2.718   6.872   6.794
 5928SOL    HW218684   2.846   6.890   6.694
 5929SOL     OW18685   1.137   0.650   0.754
 5929SOL    HW118686   1.202   0.723   0.773
 5929SOL    HW218687   1.053   0.665   0.806
 5930SOL     OW18688   1.611   3.900   2.233
 5930SOL    HW118689   1.658   3.885   2.320
 5930SOL    HW218690   1.679   3.909   2.160
 5931SOL     OW18691   5.074   6.063   3.013
 5931SOL    HW118692   4.979   6.046   3.040
 5931SOL    HW218693   5.091   6.019   2.925
 5932SOL     OW18694   3.140   6.469   0.446
 5932SOL    HW118695   3.074   6.512   0.507
 5932SOL    HW218696   3.226   6.521   0.446
 5933SOL     OW18697   6.212   5.801   4.179
 5933SOL    HW118698   6.275   5.734   4.142
 5933SOL    HW218699   6.125   5.756   4.202
 5934SOL     OW18700   2.851   3.337   0.513
 5934SOL    HW118701   2.833   3.432   0.537
 5934SOL    HW218702   2.943   3.329   0.475
 5935SOL     OW18703   0.657   0.318   5.268
 5935SOL    HW118704   0.743   0.275   5.296
 5935SOL    HW218705   0.583   0.283   5.325
 5936SOL     OW18706   3.587   2.954   1.622
 5936SOL    HW118707   3.488   2.945   1.614
 5936SOL    HW218708   3.612   3.051   1.623
 5937SOL     OW18709   0.511   2.348   0.639
 5937SOL    HW118710   0.458   2.384   0.562
 5937SOL    HW218711   0.451   2.341   0.719
 5938SOL     OW18712   0.194   3.817   3.923
 5938SOL    HW118713   0.099   3.847   3.927
 5938SOL    HW218714   0.227   3.819   3.829
 5939SOL     OW18715   4.212   1.247   5.844
 5939SOL    HW118716   4.246   1.207   5.929
 5939SOL    HW218717   4.202   1.175   5.775
 5940SOL     OW18718   4.563   5.049   1.541
 5940SOL    HW118719   4.629   5.002   1.601
 5940SOL    HW218720   4.613   5.107   1.476
 5941SOL     OW18721   0.043   1.961   3.007
 5941SOL    HW118722   0.084   1.871   3.023
 5941SOL    HW218723   6.971   1.951   2.993
 5942SOL     OW18724   5.558   2.565   6.391
 5942SOL    HW118725   5.497   2.530   6.462
 5942SOL    HW218726   5.594   2.489   6.337
 5943SOL     OW18727   1.862   4.594   1.229
 5943SOL    HW118728   1.898   4.653   1.157
 5943SOL    HW218729   1.809   4.519   1.188
 5944SOL     OW18730   5.988   3.624   6.000
 5944SOL    HW118731   6.010   3.694   5.931
 5944SOL    HW218732   5.919   3.660   6.063
 5945SOL     OW18733   6.564   6.644   4.624
 5945SOL    HW118734   6.544   6.716   4.691
 5945SOL    HW218735   6.491   6.576   4.626
 5946SOL     OW18736   1.892   3.156   6.848
 5946SOL    HW118737   1.822   3.091   6.820
 5946SOL    HW218738   1.909   3.221   6.774
 5947SOL     OW18739   3.367   3.821   4.649
 5947SOL    HW118740   3.274   3.789   4.629
 5947SOL    HW218741   3.410   3.760   4.716
 5948SOL     OW18742   4.792   3.687   1.254
 5948SOL    HW118743   4.746   3.754   1.313
 5948SOL    HW218744   4.871   3.730   1.209
 5949SOL     OW18745   0.398   4.262   3.015
 5949SOL    HW118746   0.416   4.252   2.917
 5949SOL    HW218747   0.465   4.208   3.066
 5950SOL     OW18748   3.088   6.923   4.666
 5950SOL    HW118749   3.109   6.877   4.580
 5950SOL    HW218750   2.991   6.947   4.668
 5951SOL     OW18751   6.929   4.171   6.635
 5951SOL    HW118752   6.944   4.161   6.733
 5951SOL    HW218753   6.966   4.091   6.587
 5952SOL     OW18754   3.768   4.195   1.556
 5952SOL    HW118755   3.794   4.174   1.650
 5952SOL    HW218756   3.706   4.123   1.521
 5953SOL     OW18757   6.523   3.385   6.188
 5953SOL    HW118758   6.553   3.447   6.115
 5953SOL    HW218759   6.541   3.291   6.161
 5954SOL     OW18760   2.069   5.516   3.809
 5954SOL    HW118761   1.978   5.536   3.844
 5954SOL    HW218762   2.106   5.435   3.856
 5955SOL     OW18763   5.039   2.883   0.541
 5955SOL    HW118764   4.998   2.897   0.450
 5955SOL    HW218765   5.028   2.788   0.568
 5956SOL     OW18766   4.795   2.817   5.558
 5956SOL    HW118767   4.782   2.911   5.589
 5956SOL    HW218768   4.719   2.761   5.590
 5957SOL     OW18769   6.680   1.799   3.572
 5957SOL    HW118770   6.660   1.705   3.600
 5957SOL    HW218771   6.645   1.814   3.480
 5958SOL     OW18772   2.447   6.650   3.313
 5958SOL    HW118773   2.392   6.732   3.297
 5958SOL    HW218774   2.479   6.613   3.226
 5959SOL     OW18775   5.688   3.110   2.964
 5959SOL    HW118776   5.643   3.027   2.931
 5959SOL    HW218777   5.744   3.149   2.890
 5960SOL     OW18778   5.043   0.990   5.982
 5960SOL    HW118779   5.124   1.047   5.999
 5960SOL    HW218780   5.070   0.909   5.930
 5961SOL     OW18781   2.860   2.325   3.634
 5961SOL    HW118782   2.795   2.308   3.560
 5961SOL    HW218783   2.938   2.376   3.599
 5962SOL     OW18784   4.663   4.775   0.564
 5962SOL    HW118785   4.731   4.786   0.637
 5962SOL    HW218786   4.630   4.865   0.535
 5963SOL     OW18787   1.900   3.601   0.790
 5963SOL    HW118788   1.903   3.627   0.694
 5963SOL    HW218789   1.989   3.564   0.817
 5964SOL     OW18790   1.930   0.047   3.305
 5964SOL    HW118791   1.894   7.006   3.242
 5964SOL    HW218792   1.912   0.139   3.271
 5965SOL     OW18793   2.431   0.302   0.904
 5965SOL    HW118794   2.429   0.269   0.998
 5965SOL    HW218795   2.411   0.227   0.841
 5966SOL     OW18796   2.913   1.927   5.237
 5966SOL    HW118797   2.935   1.998   5.170
 5966SOL    HW218798   2.844   1.865   5.199
 5967SOL     OW18799   4.826   2.230   5.421
 5967SOL    HW118800   4.791   2.182   5.340
 5967SOL    HW218801   4.770   2.206   5.500
 5968SOL     OW18802   5.951   2.241   2.512
 5968SOL    HW118803   6.000   2.261   2.598
 5968SOL    HW218804   6.014   2.253   2.435
 5969SOL     OW18805   4.453   6.996   0.796
 5969SOL    HW118806   4.354   7.006   0.811
 5969SOL    HW218807   4.490   0.056   0.763
 5970SOL     OW18808   6.615   2.855   0.785
 5970SOL    HW118809   6.539   2.794   0.804
 5970SOL    HW218810   6.666   2.874   0.869
 5971SOL     OW18811   0.039   5.437   3.742
 5971SOL    HW118812   0.024   5.338   3.741
 5971SOL    HW218813   0.003   5.478   3.658
 5972SOL     OW18814   6.071   5.216   0.591
 5972SOL    HW118815   6.138   5.274   0.638
 5972SOL    HW218816   5.987   5.268   0.576
 5973SOL     OW18817   2.877   1.049   2.426
 5973SOL    HW118818   2.856   1.002   2.340
 5973SOL    HW218819   2.871   1.148   2.412
 5974SOL     OW18820   5.629   1.591   4.790
 5974SOL    HW118821   5.658   1.554   4.701
 5974SOL    HW218822   5.570   1.670   4.775
 5975SOL     OW18823   4.290   5.406   1.553
 5975SOL    HW118824   4.310   5.351   1.634
 5975SOL    HW218825   4.364   5.473   1.539
 5976SOL     OW18826   1.528   4.062   5.639
 5976SOL    HW118827   1.492   4.013   5.718
 5976SOL    HW218828   1.526   4.161   5.657
 5977SOL     OW18829   6.798   5.240   1.014
 5977SOL    HW118830   6.831   5.152   1.047
 5977SOL    HW218831   6.819   5.250   0.917
 5978SOL     OW18832   2.721   3.682   6.940
 5978SOL    HW118833   2.794   3.614   6.931
 5978SOL    HW218834   2.642   3.642   6.986
 5979SOL     OW18835   6.296   0.358   1.134
 5979SOL    HW118836   6.221   0.349   1.069
 5979SOL    HW218837   6.260   0.378   1.225
 5980SOL     OW18838   2.904   2.309   0.838
 5980SOL    HW118839   2.942   2.402   0.838
 5980SOL    HW218840   2.849   2.296   0.920
 5981SOL     OW18841   2.895   2.151   1.179
 5981SOL    HW118842   2.974   2.135   1.119
 5981SOL    HW218843   2.812   2.159   1.123
 5982SOL     OW18844   5.448   2.850   1.921
 5982SOL    HW118845   5.371   2.914   1.926
 5982SOL    HW218846   5.515   2.883   1.855
 5983SOL     OW18847   0.090   0.890   3.682
 5983SOL    HW118848   0.075   0.819   3.613
 5983SOL    HW218849   0.100   0.846   3.772
 5984SOL     OW18850   6.012   6.063   3.280
 5984SOL    HW118851   6.084   6.132   3.270
 5984SOL    HW218852   5.967   6.049   3.192
 5985SOL     OW18853   6.656   3.691   2.464
 5985SOL    HW118854   6.724   3.619   2.478
 5985SOL    HW218855   6.699   3.769   2.418
 5986SOL     OW18856   4.029   3.915   3.657
 5986SOL    HW118857   3.941   3.957   3.632
 5986SOL    HW218858   4.101   3.984   3.652
 5987SOL     OW18859   6.990   5.926   5.029
 5987SOL    HW118860   0.004   5.951   4.941
 5987SOL    HW218861   7.003   6.001   5.094
 5988SOL     OW18862   0.963   3.088   6.610
 5988SOL    HW118863   0.995   3.123   6.698
 5988SOL    HW218864   1.029   3.112   6.538
 5989SOL     OW18865   1.106   6.573   5.363
 5989SOL    HW118866   1.078   6.514   5.287
 5989SOL    HW218867   1.084   6.668   5.341
 5990SOL     OW18868   2.712   4.422   1.690
 5990SOL    HW118869   2.749   4.378   1.608
 5990SOL    HW218870   2.788   4.448   1.750
 5991SOL     OW18871   5.291   1.001   1.101
 5991SOL    HW118872   5.216   1.056   1.066
 5991SOL    HW218873   5.329   0.945   1.027
 5992SOL     OW18874   3.552   5.338   3.015
 5992SOL    HW118875   3.492   5.260   2.998
 5992SOL    HW218876   3.539   5.406   2.943
 5993SOL     OW18877   5.794   2.280   0.538
 5993SOL    HW118878   5.814   2.184   0.555
 5993SOL    HW218879   5.720   2.310   0.598
 5994SOL     OW18880   6.733   3.705   0.148
 5994SOL    HW118881   6.743   3.781   0.084
 5994SOL    HW218882   6.782   3.725   0.232
 5995SOL     OW18883   5.178   3.408   1.129
 5995SOL    HW118884   5.197   3.496   1.086
 5995SOL    HW218885   5.132   3.423   1.217
 5996SOL     OW18886   2.404   6.759   1.119
 5996SOL    HW118887   2.359   6.703   1.189
 5996SOL    HW218888   2.497   6.725   1.104
 5997SOL     OW18889   5.987   0.518   4.003
 5997SOL    HW118890   5.904   0.543   4.053
 5997SOL    HW218891   6.059   0.585   4.022
 5998SOL     OW18892   6.888   6.079   6.771
 5998SOL    HW118893   6.938   6.147   6.717
 5998SOL    HW218894   6.928   6.072   6.862
 5999SOL     OW18895   4.807   3.425   1.438
 5999SOL    HW118896   4.780   3.460   1.527
 5999SOL    HW218897   4.808   3.499   1.371
 6000SOL     OW18898   1.093   4.470   0.623
 6000SOL    HW118899   1.162   4.509   0.685
 6000SOL    HW218900   1.103   4.371   0.622
 6001SOL     OW18901   5.850   5.450   5.995
 6001SOL    HW118902   5.849   5.549   6.012
 6001SOL    HW218903   5.836   5.402   6.081
 6002SOL     OW18904   5.318   5.057   5.436
 6002SOL    HW118905   5.252   5.084   5.506
 6002SOL    HW218906   5.275   4.993   5.373
 6003SOL     OW18907   2.305   2.176   5.050
 6003SOL    HW118908   2.356   2.132   4.976
 6003SOL    HW218909   2.336   2.139   5.138
 6004SOL     OW18910   5.198   3.370   5.548
 6004SOL    HW118911   5.264   3.390   5.475
 6004SOL    HW218912   5.204   3.441   5.618
 6005SOL     OW18913   3.813   4.112   0.139
 6005SOL    HW118914   3.762   4.196   0.156
 6005SOL    HW218915   3.884   4.101   0.208
 6006SOL     OW18916   3.292   6.033   6.653
 6006SOL    HW118917   3.320   6.116   6.605
 6006SOL    HW218918   3.328   6.035   6.747
 6007SOL     OW18919   2.429   6.426   4.978
 6007SOL    HW118920   2.523   6.429   5.012
 6007SOL    HW218921   2.370   6.385   5.046
 6008SOL     OW18922   2.297   4.248   6.464
 6008SOL    HW118923   2.298   4.161   6.512
 6008SOL    HW218924   2.228   4.308   6.505
 6009SOL     OW18925   4.179   5.073   2.684
 6009SOL    HW118926   4.247   5.145   2.678
 6009SOL    HW218927   4.217   4.988   2.646
 6010SOL     OW18928   0.433   4.981   4.842
 6010SOL    HW118929   0.513   4.921   4.854
 6010SOL    HW218930   0.464   5.075   4.830
 6011SOL     OW18931   5.570   1.614   3.295
 6011SOL    HW118932   5.633   1.665   3.237
 6011SOL    HW218933   5.501   1.677   3.332
 6012SOL     OW18934   6.631   0.440   5.812
 6012SOL    HW118935   6.643   0.536   5.786
 6012SOL    HW218936   6.712   0.388   5.785
 6013SOL     OW18937   5.886   1.782   2.167
 6013SOL    HW118938   5.953   1.758   2.097
 6013SOL    HW218939   5.858   1.877   2.154
 6014SOL     OW18940   3.216   3.106   4.204
 6014SOL    HW118941   3.215   3.076   4.299
 6014SOL    HW218942   3.125   3.142   4.180
 6015SOL     OW18943   6.034   0.078   4.158
 6015SOL    HW118944   6.090   0.002   4.125
 6015SOL    HW218945   5.938   0.060   4.138
 6016SOL     OW18946   4.179   2.180   4.330
 6016SOL    HW118947   4.087   2.197   4.366
 6016SOL    HW218948   4.188   2.224   4.240
 6017SOL     OW18949   1.471   1.726   5.738
 6017SOL    HW118950   1.447   1.712   5.641
 6017SOL    HW218951   1.540   1.797   5.746
 6018SOL     OW18952   2.542   1.238   3.786
 6018SOL    HW118953   2.592   1.277   3.864
 6018SOL    HW218954   2.582   1.150   3.762
 6019SOL     OW18955   6.522   4.747   6.746
 6019SOL    HW118956   6.514   4.822   6.812
 6019SOL    HW218957   6.600   4.689   6.770
 6020SOL     OW18958   0.808   5.341   6.085
 6020SOL    HW118959   0.878   5.352   6.014
 6020SOL    HW218960   0.848   5.295   6.164
 6021SOL     OW18961   5.601   6.884   3.267
 6021SOL    HW118962   5.620   6.799   3.217
 6021SOL    HW218963   5.503   6.903   3.264
 6022SOL     OW18964   6.351   3.069   1.670
 6022SOL    HW118965   6.265   3.092   1.625
 6022SOL    HW218966   6.392   3.152   1.708
 6023SOL     OW18967   4.836   6.498   2.279
 6023SOL    HW118968   4.901   6.554   2.227
 6023SOL    HW218969   4.764   6.466   2.218
 6024SOL     OW18970   0.663   6.459   6.383
 6024SOL    HW118971   0.644   6.422   6.474
 6024SOL    HW218972   0.626   6.551   6.376
 6025SOL     OW18973   2.516   0.398   5.360
 6025SOL    HW118974   2.487   0.493   5.350
 6025SOL    HW218975   2.616   0.393   5.356
 6026SOL     OW18976   6.075   6.050   3.771
 6026SOL    HW118977   6.033   6.035   3.682
 6026SOL    HW218978   6.004   6.053   3.842
 6027SOL     OW18979   5.799   5.500   6.319
 6027SOL    HW118980   5.781   5.480   6.415
 6027SOL    HW218981   5.719   5.474   6.265
 6028SOL     OW18982   5.990   6.006   6.338
 6028SOL    HW118983   5.956   5.912   6.329
 6028SOL    HW218984   5.916   6.066   6.367
 6029SOL     OW18985   3.290   1.389   2.853
 6029SOL    HW118986   3.387   1.398   2.878
 6029SOL    HW218987   3.261   1.469   2.802
 6030SOL     OW18988   6.172   3.476   4.333
 6030SOL    HW118989   6.190   3.489   4.235
 6030SOL    HW218990   6.190   3.381   4.358
 6031SOL     OW18991   0.083   6.398   5.084
 6031SOL    HW118992   0.062   6.409   5.181
 6031SOL    HW218993   0.180   6.380   5.072
 6032SOL     OW18994   3.213   6.597   3.214
 6032SOL    HW118995   3.291   6.570   3.157
 6032SOL    HW218996   3.129   6.559   3.176
 6033SOL     OW18997   0.565   1.582   2.718
 6033SOL    HW118998   0.654   1.551   2.685
 6033SOL    HW218999   0.539   1.528   2.799
 6034SOL     OW19000   0.222   6.777   0.538
 6034SOL    HW119001   0.171   6.836   0.601
 6034SOL    HW219002   0.173   6.690   0.526
 6035SOL     OW19003   2.732   0.308   2.533
 6035SOL    HW119004   2.776   0.342   2.450
 6035SOL    HW219005   2.732   0.208   2.532
 6036SOL     OW19006   6.365   3.222   0.614
 6036SOL    HW119007   6.322   3.135   0.638
 6036SOL    HW219008   6.458   3.205   0.583
 6037SOL     OW19009   4.533   1.346   6.330
 6037SOL    HW119010   4.603   1.397   6.280
 6037SOL    HW219011   4.545   1.361   6.428
 6038SOL     OW19012   1.181   1.279   6.140
 6038SOL    HW119013   1.132   1.331   6.210
 6038SOL    HW219014   1.139   1.296   6.050
 6039SOL     OW19015   4.005   3.517   3.894
 6039SOL    HW119016   3.976   3.516   3.798
 6039SOL    HW219017   4.076   3.586   3.907
 6040SOL     OW19018   0.646   2.068   0.273
 6040SOL    HW119019   0.562   2.029   0.233
 6040SOL    HW219020   0.694   1.996   0.324
 6041SOL     OW19021   0.876   3.555   5.438
 6041SOL    HW119022   0.975   3.543   5.449
 6041SOL    HW219023   0.855   3.557   5.340
 6042SOL     OW19024   3.108   5.941   3.804
 6042SOL    HW119025   3.148   5.855   3.834
 6042SOL    HW219026   3.181   6.001   3.770
 6043SOL     OW19027   2.563   0.342   2.835
 6043SOL    HW119028   2.607   0.283   2.767
 6043SOL    HW219029   2.464   0.340   2.823
 6044SOL     OW19030   0.575   3.176   0.725
 6044SOL    HW119031   0.545   3.269   0.740
 6044SOL    HW219032   0.546   3.118   0.801
 6045SOL     OW19033   5.810   1.171   3.552
 6045SOL    HW119034   5.778   1.078   3.531
 6045SOL    HW219035   5.802   1.227   3.470
 6046SOL     OW19036   3.249   3.262   2.858
 6046SOL    HW119037   3.292   3.217   2.779
 6046SOL    HW219038   3.150   3.260   2.847
 6047SOL     OW19039   6.635   1.441   0.264
 6047SOL    HW119040   6.686   1.369   0.312
 6047SOL    HW219041   6.637   1.525   0.318
 6048SOL     OW19042   5.807   6.011   3.089
 6048SOL    HW119043   5.743   5.976   3.158
 6048SOL    HW219044   5.833   5.937   3.027
 6049SOL     OW19045   4.633   5.382   6.805
 6049SOL    HW119046   4.731   5.381   6.829
 6049SOL    HW219047   4.606   5.475   6.779
 6050SOL     OW19048   2.706   5.277   2.445
 6050SOL    HW119049   2.780   5.308   2.504
 6050SOL    HW219050   2.725   5.184   2.412
 6051SOL     OW19051   0.617   1.502   3.201
 6051SOL    HW119052   0.527   1.459   3.212
 6051SOL    HW219053   0.676   1.441   3.148
 6052SOL     OW19054   5.250   5.361   0.412
 6052SOL    HW119055   5.236   5.298   0.489
 6052SOL    HW219056   5.166   5.413   0.396
 6053SOL     OW19057   4.477   2.294   6.422
 6053SOL    HW119058   4.473   2.363   6.350
 6053SOL    HW219059   4.387   2.252   6.433
 6054SOL     OW19060   4.219   3.767   1.026
 6054SOL    HW119061   4.293   3.724   1.077
 6054SOL    HW219062   4.132   3.724   1.051
 6055SOL     OW19063   2.649   3.314   1.437
 6055SOL    HW119064   2.635   3.268   1.525
 6055SOL    HW219065   2.579   3.384   1.425
 6056SOL     OW19066   5.128   5.927   3.586
 6056SOL    HW119067   5.224   5.954   3.581
 6056SOL    HW219068   5.076   5.974   3.514
 6057SOL     OW19069   5.424   0.698   3.871
 6057SOL    HW119070   5.491   0.707   3.797
 6057SOL    HW219071   5.411   0.601   3.892
 6058SOL     OW19072   0.087   2.509   5.993
 6058SOL    HW119073   0.083   2.409   5.999
 6058SOL    HW219074   0.182   2.539   6.005
 6059SOL     OW19075   4.650   2.554   6.811
 6059SOL    HW119076   4.720   2.512   6.753
 6059SOL    HW219077   4.683   2.557   6.906
 6060SOL     OW19078   2.289   2.432   0.171
 6060SOL    HW119079   2.294   2.523   0.213
 6060SOL    HW219080   2.195   2.411   0.146
 6061SOL     OW19081   3.541   4.019   6.918
 6061SOL    HW119082   3.453   3.976   6.939
 6061SOL    HW219083   3.609   3.989   6.986
 6062SOL     OW19084   2.126   1.850   6.180
 6062SOL    HW119085   2.173   1.928   6.138
 6062SOL    HW219086   2.194   1.790   6.223
 6063SOL     OW19087   4.557   4.405   0.186
 6063SOL    HW119088   4.578   4.464   0.264
 6063SOL    HW219089   4.606   4.437   0.105
 6064SOL     OW19090   6.191   6.130   0.909
 6064SOL    HW119091   6.167   6.213   0.859
 6064SOL    HW219092   6.113   6.099   0.963
 6065SOL     OW19093   2.225   6.274   1.474
 6065SOL    HW119094   2.308   6.219   1.464
 6065SOL    HW219095   2.227   6.323   1.561
 6066SOL     OW19096   5.549   5.399   2.671
 6066SOL    HW119097   5.479   5.421   2.739
 6066SOL    HW219098   5.601   5.319   2.702
 6067SOL     OW19099   0.061   6.445   5.792
 6067SOL    HW119100   0.145   6.469   5.841
 6067SOL    HW219101   7.012   6.501   5.826
 6068SOL     OW19102   4.999   2.120   4.228
 6068SOL    HW119103   5.069   2.127   4.299
 6068SOL    HW219104   5.044   2.110   4.139
 6069SOL     OW19105   6.904   4.621   6.271
 6069SOL    HW119106   6.904   4.550   6.341
 6069SOL    HW219107   6.879   4.708   6.312
 6070SOL     OW19108   2.393   1.646   0.813
 6070SOL    HW119109   2.370   1.742   0.824
 6070SOL    HW219110   2.322   1.590   0.856
 6071SOL     OW19111   5.461   0.998   5.731
 6071SOL    HW119112   5.528   1.013   5.803
 6071SOL    HW219113   5.369   1.001   5.769
 6072SOL     OW19114   6.674   3.560   6.686
 6072SOL    HW119115   6.661   3.605   6.598
 6072SOL    HW219116   6.723   3.474   6.672
 6073SOL     OW19117   5.068   3.745   0.063
 6073SOL    HW119118   4.969   3.733   0.054
 6073SOL    HW219119   5.094   3.831   0.018
 6074SOL     OW19120   1.136   6.792   1.822
 6074SOL    HW119121   1.150   6.883   1.861
 6074SOL    HW219122   1.145   6.724   1.895
 6075SOL     OW19123   5.852   0.587   6.788
 6075SOL    HW119124   5.800   0.668   6.815
 6075SOL    HW219125   5.874   0.534   6.870
 6076SOL     OW19126   0.585   5.871   2.878
 6076SOL    HW119127   0.673   5.833   2.908
 6076SOL    HW219128   0.596   5.969   2.860
 6077SOL     OW19129   5.115   5.841   2.671
 6077SOL    HW119130   5.020   5.873   2.670
 6077SOL    HW219131   5.140   5.810   2.579
 6078SOL     OW19132   4.924   4.120   0.229
 6078SOL    HW119133   4.924   4.218   0.210
 6078SOL    HW219134   5.016   4.091   0.257
 6079SOL     OW19135   3.272   1.783   6.867
 6079SOL    HW119136   3.179   1.754   6.891
 6079SOL    HW219137   3.296   1.864   6.920
 6080SOL     OW19138   6.613   3.581   6.015
 6080SOL    HW119139   6.670   3.550   5.938
 6080SOL    HW219140   6.525   3.612   5.980
 6081SOL     OW19141   1.505   3.180   3.648
 6081SOL    HW119142   1.499   3.118   3.726
 6081SOL    HW219143   1.431   3.247   3.653
 6082SOL     OW19144   5.324   1.228   1.659
 6082SOL    HW119145   5.261   1.168   1.608
 6082SOL    HW219146   5.277   1.265   1.739
 6083SOL     OW19147   4.865   0.100   6.588
 6083SOL    HW119148   4.958   0.094   6.624
 6083SOL    HW219149   4.864   0.155   6.505
 6084SOL     OW19150   6.397   5.424   2.825
 6084SOL    HW119151   6.436   5.338   2.855
 6084SOL    HW219152   6.315   5.445   2.879
 6085SOL     OW19153   0.828   6.402   0.345
 6085SOL    HW119154   0.856   6.309   0.370
 6085SOL    HW219155   0.897   6.443   0.286
 6086SOL     OW19156   3.293   3.741   7.025
 6086SOL    HW119157   3.227   3.773   0.067
 6086SOL    HW219158   3.348   3.668   0.037
 6087SOL     OW19159   4.467   0.210   0.665
 6087SOL    HW119160   4.400   0.280   0.641
 6087SOL    HW219161   4.558   0.251   0.671
 6088SOL     OW19162   4.683   5.323   2.966
 6088SOL    HW119163   4.726   5.388   3.028
 6088SOL    HW219164   4.697   5.230   3.000
 6089SOL     OW19165   6.179   3.827   3.369
 6089SOL    HW119166   6.098   3.793   3.320
 6089SOL    HW219167   6.253   3.761   3.359
 6090SOL     OW19168   3.643   5.383   4.264
 6090SOL    HW119169   3.701   5.450   4.311
 6090SOL    HW219170   3.605   5.424   4.181
 6091SOL     OW19171   0.724   1.527   1.098
 6091SOL    HW119172   0.817   1.498   1.122
 6091SOL    HW219173   0.664   1.447   1.093
 6092SOL     OW19174   2.591   0.020   1.391
 6092SOL    HW119175   2.559   6.963   1.436
 6092SOL    HW219176   2.686   0.006   1.360
 6093SOL     OW19177   2.575   2.460   2.177
 6093SOL    HW119178   2.569   2.555   2.147
 6093SOL    HW219179   2.617   2.404   2.106
 6094SOL     OW19180   0.800   6.278   5.406
 6094SOL    HW119181   0.705   6.266   5.377
 6094SOL    HW219182   0.853   6.198   5.382
 6095SOL     OW19183   5.055   4.773   1.669
 6095SOL    HW119184   5.018   4.681   1.652
 6095SOL    HW219185   5.064   4.822   1.582
 6096SOL     OW19186   5.134   5.744   3.264
 6096SOL    HW119187   5.158   5.841   3.275
 6096SOL    HW219188   5.066   5.719   3.333
 6097SOL     OW19189   2.489   5.055   2.187
 6097SOL    HW119190   2.441   4.968   2.203
 6097SOL    HW219191   2.579   5.036   2.148
 6098SOL     OW19192   6.389   0.554   5.193
 6098SOL    HW119193   6.465   0.490   5.203
 6098SOL    HW219194   6.424   0.648   5.187
 6099SOL     OW19195   4.043   0.093   5.590
 6099SOL    HW119196   4.084   0.183   5.601
 6099SOL    HW219197   4.113   0.023   5.608
 6100SOL     OW19198   0.854   5.533   5.104
 6100SOL    HW119199   0.808   5.477   5.036
 6100SOL    HW219200   0.858   5.483   5.191
 6101SOL     OW19201   0.108   3.318   1.708
 6101SOL    HW119202   0.191   3.350   1.663
 6101SOL    HW219203   0.097   3.220   1.693
 6102SOL     OW19204   3.662   0.004   2.786
 6102SOL    HW119205   3.628   0.068   2.855
 6102SOL    HW219206   3.755   7.002   2.810
 6103SOL     OW19207   6.301   2.041   2.362
 6103SOL    HW119208   6.308   2.047   2.262
 6103SOL    HW219209   6.215   1.996   2.386
 6104SOL     OW19210   6.826   0.811   4.974
 6104SOL    HW119211   6.885   0.875   4.925
 6104SOL    HW219212   6.735   0.852   4.984
 6105SOL     OW19213   3.837   4.610   6.293
 6105SOL    HW119214   3.768   4.567   6.235
 6105SOL    HW219215   3.881   4.540   6.349
 6106SOL     OW19216   6.069   5.127   5.313
 6106SOL    HW119217   6.042   5.154   5.405
 6106SOL    HW219218   6.045   5.031   5.299
 6107SOL     OW19219   5.612   5.107   5.631
 6107SOL    HW119220   5.657   5.019   5.616
 6107SOL    HW219221   5.513   5.093   5.635
 6108SOL     OW19222   2.086   1.193   6.722
 6108SOL    HW119223   2.156   1.128   6.692
 6108SOL    HW219224   2.129   1.269   6.771
 6109SOL     OW19225   0.049   6.791   3.982
 6109SOL    HW119226   0.029   6.799   3.885
 6109SOL    HW219227   6.997   6.749   4.028
 6110SOL     OW19228   1.826   1.309   4.451
 6110SOL    HW119229   1.908   1.295   4.396
 6110SOL    HW219230   1.748   1.326   4.390
 6111SOL     OW19231   2.107   3.455   0.862
 6111SOL    HW119232   2.119   3.364   0.821
 6111SOL    HW219233   2.176   3.469   0.933
 6112SOL     OW19234   4.845   6.668   3.718
 6112SOL    HW119235   4.908   6.635   3.789
 6112SOL    HW219236   4.875   6.758   3.686
 6113SOL     OW19237   2.073   5.484   1.086
 6113SOL    HW119238   2.085   5.385   1.078
 6113SOL    HW219239   2.053   5.522   0.996
 6114SOL     OW19240   5.036   2.498   1.248
 6114SOL    HW119241   4.995   2.430   1.188
 6114SOL    HW219242   5.105   2.455   1.306
 6115SOL     OW19243   1.112   0.847   5.728
 6115SOL    HW119244   1.167   0.838   5.811
 6115SOL    HW219245   1.059   0.932   5.733
 6116SOL     OW19246   5.735   3.671   7.008
 6116SOL    HW119247   5.696   3.741   6.947
 6116SOL    HW219248   5.730   3.703   0.076
 6117SOL     OW19249   1.670   2.107   1.584
 6117SOL    HW119250   1.608   2.054   1.642
 6117SOL    HW219251   1.708   2.183   1.637
 6118SOL     OW19252   5.677   1.635   2.273
 6118SOL    HW119253   5.758   1.673   2.229
 6118SOL    HW219254   5.624   1.582   2.207
 6119SOL     OW19255   6.385   1.289   7.026
 6119SOL    HW119256   6.484   1.293   7.017
 6119SOL    HW219257   6.349   1.378   0.028
 6120SOL     OW19258   3.265   0.574   4.188
 6120SOL    HW119259   3.182   0.627   4.204
 6120SOL    HW219260   3.257   0.527   4.100
 6121SOL     OW19261   1.951   2.002   5.055
 6121SOL    HW119262   2.031   1.955   5.093
 6121SOL    HW219263   1.980   2.087   5.011
 6122SOL     OW19264   5.236   4.890   5.226
 6122SOL    HW119265   5.298   4.811   5.230
 6122SOL    HW219266   5.215   4.911   5.131
 6123SOL     OW19267   5.894   1.455   5.510
 6123SOL    HW119268   5.987   1.485   5.487
 6123SOL    HW219269   5.832   1.474   5.434
 6124SOL     OW19270   2.482   5.991   4.126
 6124SOL    HW119271   2.517   6.002   4.033
 6124SOL    HW219272   2.555   6.008   4.192
 6125SOL     OW19273   2.851   1.603   6.078
 6125SOL    HW119274   2.903   1.530   6.034
 6125SOL    HW219275   2.914   1.669   6.118
 6126SOL     OW19276   5.872   3.006   5.990
 6126SOL    HW119277   5.817   2.994   5.907
 6126SOL    HW219278   5.855   3.096   6.029
 6127SOL     OW19279   4.977   2.116   2.726
 6127SOL    HW119280   5.059   2.074   2.688
 6127SOL    HW219281   4.959   2.203   2.681
 6128SOL     OW19282   5.849   5.751   6.766
 6128SOL    HW119283   5.926   5.703   6.724
 6128SOL    HW219284   5.880   5.838   6.805
 6129SOL     OW19285   2.524   5.734   2.265
 6129SOL    HW119286   2.591   5.660   2.271
 6129SOL    HW219287   2.468   5.735   2.348
 6130SOL     OW19288   5.820   3.123   0.439
 6130SOL    HW119289   5.769   3.038   0.431
 6130SOL    HW219290   5.810   3.160   0.531
 6131SOL     OW19291   6.535   2.517   2.679
 6131SOL    HW119292   6.471   2.507   2.755
 6131SOL    HW219293   6.554   2.427   2.640
 6132SOL     OW19294   4.337   0.290   6.195
 6132SOL    HW119295   4.315   0.387   6.190
 6132SOL    HW219296   4.407   0.275   6.264
 6133SOL     OW19297   0.287   2.086   3.069
 6133SOL    HW119298   0.368   2.037   3.038
 6133SOL    HW219299   0.205   2.035   3.041
 6134SOL     OW19300   0.514   6.359   5.400
 6134SOL    HW119301   0.456   6.305   5.339
 6134SOL    HW219302   0.471   6.364   5.490
 6135SOL     OW19303   6.814   6.574   0.504
 6135SOL    HW119304   6.811   6.611   0.411
 6135SOL    HW219305   6.909   6.573   0.536
 6136SOL     OW19306   0.912   2.684   3.220
 6136SOL    HW119307   0.889   2.736   3.137
 6136SOL    HW219308   0.965   2.741   3.282
 6137SOL     OW19309   0.240   4.267   1.189
 6137SOL    HW119310   0.211   4.306   1.277
 6137SOL    HW219311   0.278   4.176   1.205
 6138SOL     OW19312   4.724   0.413   2.226
 6138SOL    HW119313   4.796   0.387   2.290
 6138SOL    HW219314   4.651   0.461   2.275
 6139SOL     OW19315   1.402   0.716   5.247
 6139SOL    HW119316   1.313   0.671   5.251
 6139SOL    HW219317   1.392   0.803   5.199
 6140SOL     OW19318   1.336   6.994   3.003
 6140SOL    HW119319   1.393   6.949   2.935
 6140SOL    HW219320   1.358   0.065   3.007
 6141SOL     OW19321   0.892   0.908   6.058
 6141SOL    HW119322   0.881   0.873   6.151
 6141SOL    HW219323   0.826   0.863   5.998
 6142SOL     OW19324   6.559   0.727   1.535
 6142SOL    HW119325   6.611   0.756   1.614
 6142SOL    HW219326   6.596   0.769   1.452
 6143SOL     OW19327   0.164   3.336   5.278
 6143SOL    HW119328   0.123   3.256   5.234
 6143SOL    HW219329   0.102   3.372   5.348
 6144SOL     OW19330   3.920   5.118   2.732
 6144SOL    HW119331   3.898   5.032   2.779
 6144SOL    HW219332   4.015   5.117   2.702
 6145SOL     OW19333   4.977   3.605   3.881
 6145SOL    HW119334   4.958   3.540   3.806
 6145SOL    HW219335   4.908   3.678   3.879
 6146SOL     OW19336   5.799   0.255   5.003
 6146SOL    HW119337   5.778   0.168   5.048
 6146SOL    HW219338   5.781   0.330   5.066
 6147SOL     OW19339   1.170   2.851   5.097
 6147SOL    HW119340   1.114   2.931   5.119
 6147SOL    HW219341   1.115   2.786   5.044
 6148SOL     OW19342   3.654   5.110   0.052
 6148SOL    HW119343   3.707   5.034   0.014
 6148SOL    HW219344   3.580   5.134   7.016
 6149SOL     OW19345   3.581   0.995   1.491
 6149SOL    HW119346   3.498   1.022   1.540
 6149SOL    HW219347   3.590   0.896   1.492
 6150SOL     OW19348   0.960   4.015   5.010
 6150SOL    HW119349   0.875   3.976   5.045
 6150SOL    HW219350   1.038   3.973   5.056
 6151SOL     OW19351   4.280   5.253   3.240
 6151SOL    HW119352   4.264   5.231   3.336
 6151SOL    HW219353   4.350   5.191   3.203
 6152SOL     OW19354   1.940   4.334   3.682
 6152SOL    HW119355   1.990   4.269   3.739
 6152SOL    HW219356   1.984   4.423   3.686
 6153SOL     OW19357   5.400   5.846   1.139
 6153SOL    HW119358   5.417   5.752   1.112
 6153SOL    HW219359   5.311   5.853   1.185
 6154SOL     OW19360   5.142   3.781   2.289
 6154SOL    HW119361   5.207   3.752   2.219
 6154SOL    HW219362   5.142   3.881   2.295
 6155SOL     OW19363   1.841   1.765   3.333
 6155SOL    HW119364   1.924   1.784   3.386
 6155SOL    HW219365   1.865   1.758   3.236
 6156SOL     OW19366   5.552   4.531   1.355
 6156SOL    HW119367   5.491   4.572   1.423
 6156SOL    HW219368   5.634   4.497   1.400
 6157SOL     OW19369   0.564   2.784   1.775
 6157SOL    HW119370   0.560   2.691   1.810
 6157SOL    HW219371   0.604   2.844   1.845
 6158SOL     OW19372   2.985   2.242   4.749
 6158SOL    HW119373   2.901   2.296   4.757
 6158SOL    HW219374   3.032   2.240   4.837
 6159SOL     OW19375   6.291   2.462   0.236
 6159SOL    HW119376   6.286   2.485   0.333
 6159SOL    HW219377   6.206   2.488   0.190
 6160SOL     OW19378   0.956   0.320   1.435
 6160SOL    HW119379   1.003   0.232   1.427
 6160SOL    HW219380   1.022   0.392   1.455
 6161SOL     OW19381   4.432   3.614   6.778
 6161SOL    HW119382   4.343   3.584   6.743
 6161SOL    HW219383   4.422   3.705   6.819
 6162SOL     OW19384   6.157   5.581   1.965
 6162SOL    HW119385   6.226   5.649   1.940
 6162SOL    HW219386   6.132   5.527   1.884
 6163SOL     OW19387   6.131   6.200   2.709
 6163SOL    HW119388   6.137   6.279   2.648
 6163SOL    HW219389   6.210   6.198   2.770
 6164SOL     OW19390   3.025   3.850   4.513
 6164SOL    HW119391   3.019   3.919   4.584
 6164SOL    HW219392   3.110   3.863   4.461
 6165SOL     OW19393   3.359   1.581   0.619
 6165SOL    HW119394   3.449   1.563   0.660
 6165SOL    HW219395   3.316   1.494   0.594
 6166SOL     OW19396   2.326   2.173   6.460
 6166SOL    HW119397   2.415   2.151   6.420
 6166SOL    HW219398   2.337   2.199   6.556
 6167SOL     OW19399   1.770   3.530   2.553
 6167SOL    HW119400   1.758   3.630   2.553
 6167SOL    HW219401   1.848   3.506   2.612
 6168SOL     OW19402   0.477   3.741   3.560
 6168SOL    HW119403   0.460   3.810   3.490
 6168SOL    HW219404   0.475   3.650   3.519
 6169SOL     OW19405   2.146   0.574   6.488
 6169SOL    HW119406   2.223   0.532   6.440
 6169SOL    HW219407   2.170   0.588   6.584
 6170SOL     OW19408   2.703   3.744   1.028
 6170SOL    HW119409   2.720   3.739   0.930
 6170SOL    HW219410   2.704   3.652   1.067
 6171SOL     OW19411   2.220   3.942   2.200
 6171SOL    HW119412   2.196   3.863   2.144
 6171SOL    HW219413   2.208   3.919   2.297
 6172SOL     OW19414   2.743   5.562   2.284
 6172SOL    HW119415   2.777   5.554   2.190
 6172SOL    HW219416   2.750   5.473   2.330
 6173SOL     OW19417   1.236   5.900   2.062
 6173SOL    HW119418   1.276   5.840   2.131
 6173SOL    HW219419   1.309   5.938   2.005
 6174SOL     OW19420   6.041   4.783   2.156
 6174SOL    HW119421   6.100   4.702   2.151
 6174SOL    HW219422   5.945   4.755   2.150
 6175SOL     OW19423   4.967   0.087   3.150
 6175SOL    HW119424   5.046   0.107   3.208
 6175SOL    HW219425   4.939   0.170   3.101
 6176SOL     OW19426   5.788   3.459   6.564
 6176SOL    HW119427   5.845   3.438   6.643
 6176SOL    HW219428   5.828   3.535   6.513
 6177SOL     OW19429   0.088   2.737   1.009
 6177SOL    HW119430   0.141   2.690   1.079
 6177SOL    HW219431   0.009   2.782   1.052
 6178SOL     OW19432   6.085   3.583   1.777
 6178SOL    HW119433   5.999   3.632   1.766
 6178SOL    HW219434   6.155   3.646   1.812
 6179SOL     OW19435   0.641   2.012   5.634
 6179SOL    HW119436   0.638   2.100   5.587
 6179SOL    HW219437   0.722   2.008   5.692
 6180SOL     OW19438   3.194   6.724   6.382
 6180SOL    HW119439   3.096   6.734   6.364
 6180SOL    HW219440   3.242   6.804   6.346
 6181SOL     OW19441   4.947   5.698   0.125
 6181SOL    HW119442   4.891   5.732   0.200
 6181SOL    HW219443   4.889   5.679   0.045
 6182SOL     OW19444   4.512   6.381   6.695
 6182SOL    HW119445   4.441   6.315   6.722
 6182SOL    HW219446   4.558   6.349   6.612
 6183SOL     OW19447   3.315   0.801   3.045
 6183SOL    HW119448   3.354   0.866   2.980
 6183SOL    HW219449   3.300   0.713   2.998
 6184SOL     OW19450   5.942   0.477   6.364
 6184SOL    HW119451   6.014   0.462   6.296
 6184SOL    HW219452   5.916   0.573   6.364
 6185SOL     OW19453   0.757   3.795   6.017
 6185SOL    HW119454   0.838   3.790   5.960
 6185SOL    HW219455   0.777   3.847   6.100
 6186SOL     OW19456   5.714   0.110   4.604
 6186SOL    HW119457   5.765   0.030   4.635
 6186SOL    HW219458   5.774   0.170   4.551
 6187SOL     OW19459   3.321   5.201   4.451
 6187SOL    HW119460   3.274   5.139   4.513
 6187SOL    HW219461   3.416   5.173   4.441
 6188SOL     OW19462   2.543   0.161   1.648
 6188SOL    HW119463   2.496   0.074   1.667
 6188SOL    HW219464   2.585   0.157   1.558
 6189SOL     OW19465   5.733   5.147   3.709
 6189SOL    HW119466   5.808   5.203   3.674
 6189SOL    HW219467   5.732   5.059   3.662
 6190SOL     OW19468   5.115   2.625   6.300
 6190SOL    HW119469   5.193   2.564   6.317
 6190SOL    HW219470   5.136   2.683   6.221
 6191SOL     OW19471   6.575   2.242   6.776
 6191SOL    HW119472   6.604   2.149   6.797
 6191SOL    HW219473   6.645   2.289   6.724
 6192SOL     OW19474   3.121   2.456   0.472
 6192SOL    HW119475   3.087   2.431   0.382
 6192SOL    HW219476   3.210   2.502   0.463
 6193SOL     OW19477   5.751   0.475   0.838
 6193SOL    HW119478   5.716   0.557   0.795
 6193SOL    HW219479   5.793   0.498   0.926
 6194SOL     OW19480   2.423   0.722   0.726
 6194SOL    HW119481   2.358   0.660   0.770
 6194SOL    HW219482   2.413   0.814   0.765
 6195SOL     OW19483   2.818   6.353   6.139
 6195SOL    HW119484   2.724   6.340   6.107
 6195SOL    HW219485   2.870   6.401   6.069
 6196SOL     OW19486   0.411   1.061   6.439
 6196SOL    HW119487   0.374   1.058   6.532
 6196SOL    HW219488   0.511   1.050   6.443
 6197SOL     OW19489   2.272   2.715   0.207
 6197SOL    HW119490   2.283   2.764   0.294
 6197SOL    HW219491   2.212   2.767   0.146
 6198SOL     OW19492   4.198   4.731   2.363
 6198SOL    HW119493   4.109   4.699   2.396
 6198SOL    HW219494   4.190   4.755   2.266
 6199SOL     OW19495   1.378   0.615   6.262
 6199SOL    HW119496   1.453   0.631   6.198
 6199SOL    HW219497   1.364   0.517   6.274
 6200SOL     OW19498   3.368   0.225   5.956
 6200SOL    HW119499   3.328   0.308   5.996
 6200SOL    HW219500   3.389   0.241   5.859
 6201SOL     OW19501   2.284   4.217   3.957
 6201SOL    HW119502   2.343   4.236   3.879
 6201SOL    HW219503   2.198   4.178   3.924
 6202SOL     OW19504   3.144   2.400   1.411
 6202SOL    HW119505   3.117   2.327   1.474
 6202SOL    HW219506   3.217   2.454   1.453
 6203SOL     OW19507   4.780   1.897   5.547
 6203SOL    HW119508   4.836   1.909   5.464
 6203SOL    HW219509   4.715   1.972   5.555
 6204SOL     OW19510   1.523   6.711   5.689
 6204SOL    HW119511   1.481   6.685   5.602
 6204SOL    HW219512   1.459   6.691   5.763
 6205SOL     OW19513   5.503   5.767   0.144
 6205SOL    HW119514   5.597   5.752   0.115
 6205SOL    HW219515   5.469   5.687   0.194
 6206SOL     OW19516   4.961   6.842   3.202
 6206SOL    HW119517   5.007   6.804   3.283
 6206SOL    HW219518   4.961   6.942   3.208
 6207SOL     OW19519   1.875   3.931   4.624
 6207SOL    HW119520   1.943   4.003   4.612
 6207SOL    HW219521   1.910   3.863   4.688
 6208SOL     OW19522   5.457   6.549   6.585
 6208SOL    HW119523   5.475   6.646   6.605
 6208SOL    HW219524   5.433   6.538   6.489
 6209SOL     OW19525   3.217   5.252   0.639
 6209SOL    HW119526   3.314   5.228   0.638
 6209SOL    HW219527   3.184   5.255   0.733
 6210SOL     OW19528   6.072   4.755   3.265
 6210SOL    HW119529   6.141   4.823   3.289
 6210SOL    HW219530   6.037   4.774   3.174
 6211SOL     OW19531   2.436   0.804   4.831
 6211SOL    HW119532   2.432   0.849   4.742
 6211SOL    HW219533   2.378   0.854   4.896
 6212SOL     OW19534   6.549   6.526   3.763
 6212SOL    HW119535   6.621   6.462   3.736
 6212SOL    HW219536   6.581   6.620   3.753
 6213SOL     OW19537   0.285   6.511   6.319
 6213SOL    HW119538   0.206   6.516   6.258
 6213SOL    HW219539   0.270   6.437   6.386
 6214SOL     OW19540   6.534   5.186   2.464
 6214SOL    HW119541   6.464   5.210   2.397
 6214SOL    HW219542   6.545   5.261   2.529
 6215SOL     OW19543   2.926   4.433   1.285
 6215SOL    HW119544   2.988   4.463   1.357
 6215SOL    HW219545   2.951   4.478   1.199
 6216SOL     OW19546   6.412   2.102   2.885
 6216SOL    HW119547   6.499   2.079   2.842
 6216SOL    HW219548   6.338   2.096   2.818
 6217SOL     OW19549   5.588   2.989   2.154
 6217SOL    HW119550   5.529   2.976   2.234
 6217SOL    HW219551   5.571   2.916   2.088
 6218SOL     OW19552   3.592   4.929   4.563
 6218SOL    HW119553   3.615   4.833   4.547
 6218SOL    HW219554   3.673   4.986   4.551
 6219SOL     OW19555   1.054   1.750   4.481
 6219SOL    HW119556   1.085   1.802   4.401
 6219SOL    HW219557   0.958   1.771   4.499
 6220SOL     OW19558   1.225   4.157   5.365
 6220SOL    HW119559   1.229   4.238   5.423
 6220SOL    HW219560   1.250   4.181   5.272
 6221SOL     OW19561   4.488   4.857   4.675
 6221SOL    HW119562   4.576   4.835   4.715
 6221SOL    HW219563   4.488   4.835   4.577
 6222SOL     OW19564   0.095   1.440   0.972
 6222SOL    HW119565   0.138   1.489   1.048
 6222SOL    HW219566   0.155   1.366   0.942
 6223SOL     OW19567   5.164   3.903   4.978
 6223SOL    HW119568   5.237   3.868   4.919
 6223SOL    HW219569   5.075   3.877   4.939
 6224SOL     OW19570   2.813   0.675   5.163
 6224SOL    HW119571   2.784   0.767   5.138
 6224SOL    HW219572   2.759   0.644   5.242
 6225SOL     OW19573   4.592   2.201   6.714
 6225SOL    HW119574   4.662   2.195   6.786
 6225SOL    HW219575   4.617   2.273   6.650
 6226SOL     OW19576   6.339   0.060   4.417
 6226SOL    HW119577   6.395   0.041   4.337
 6226SOL    HW219578   6.271   7.014   4.429
 6227SOL     OW19579   3.055   4.378   6.622
 6227SOL    HW119580   3.075   4.370   6.524
 6227SOL    HW219581   3.093   4.299   6.670
 6228SOL     OW19582   0.072   0.589   2.741
 6228SOL    HW119583   7.002   0.587   2.713
 6228SOL    HW219584   0.106   0.683   2.738
 6229SOL     OW19585   1.642   2.743   1.918
 6229SOL    HW119586   1.597   2.828   1.890
 6229SOL    HW219587   1.740   2.751   1.905
 6230SOL     OW19588   2.149   2.282   3.591
 6230SOL    HW119589   2.086   2.250   3.662
 6230SOL    HW219590   2.098   2.333   3.522
 6231SOL     OW19591   0.001   5.171   1.601
 6231SOL    HW119592   6.978   5.197   1.683
 6231SOL    HW219593   0.086   5.224   1.595
 6232SOL     OW19594   1.157   1.621   6.600
 6232SOL    HW119595   1.222   1.573   6.658
 6232SOL    HW219596   1.092   1.556   6.561
 6233SOL     OW19597   4.764   1.910   0.373
 6233SOL    HW119598   4.686   1.847   0.377
 6233SOL    HW219599   4.735   2.000   0.406
 6234SOL     OW19600   2.246   2.448   3.783
 6234SOL    HW119601   2.211   2.394   3.706
 6234SOL    HW219602   2.218   2.544   3.771
 6235SOL     OW19603   2.330   6.127   3.453
 6235SOL    HW119604   2.274   6.047   3.474
 6235SOL    HW219605   2.321   6.195   3.526
 6236SOL     OW19606   0.017   3.914   0.170
 6236SOL    HW119607   6.946   3.933   0.164
 6236SOL    HW219608   0.038   3.833   0.114
 6237SOL     OW19609   4.310   6.709   0.254
 6237SOL    HW119610   4.364   6.628   0.281
 6237SOL    HW219611   4.366   6.768   0.196
 6238SOL     OW19612   4.789   4.116   1.233
 6238SOL    HW119613   4.841   4.115   1.148
 6238SOL    HW219614   4.695   4.143   1.214
 6239SOL     OW19615   2.309   1.004   3.414
 6239SOL    HW119616   2.242   0.964   3.477
 6239SOL    HW219617   2.393   0.950   3.415
 6240SOL     OW19618   2.517   3.468   0.448
 6240SOL    HW119619   2.420   3.483   0.467
 6240SOL    HW219620   2.550   3.390   0.502
 6241SOL     OW19621   4.469   6.969   1.816
 6241SOL    HW119622   4.549   0.003   1.815
 6241SOL    HW219623   4.459   6.926   1.727
 6242SOL     OW19624   3.723   2.172   3.853
 6242SOL    HW119625   3.648   2.167   3.920
 6242SOL    HW219626   3.809   2.149   3.898
 6243SOL     OW19627   5.460   5.247   3.347
 6243SOL    HW119628   5.437   5.230   3.443
 6243SOL    HW219629   5.487   5.162   3.303
 6244SOL     OW19630   1.842   2.299   2.059
 6244SOL    HW119631   1.761   2.342   2.019
 6244SOL    HW219632   1.896   2.369   2.107
 6245SOL     OW19633   1.943   3.666   0.539
 6245SOL    HW119634   1.955   3.570   0.514
 6245SOL    HW219635   1.877   3.709   0.477
 6246SOL     OW19636   3.440   1.351   6.451
 6246SOL    HW119637   3.450   1.451   6.459
 6246SOL    HW219638   3.503   1.306   6.514
 6247SOL     OW19639   6.398   5.987   2.946
 6247SOL    HW119640   6.494   5.959   2.947
 6247SOL    HW219641   6.392   6.085   2.928
 6248SOL     OW19642   1.023   4.777   0.918
 6248SOL    HW119643   0.979   4.687   0.922
 6248SOL    HW219644   1.031   4.814   1.010
 6249SOL     OW19645   5.291   4.057   6.136
 6249SOL    HW119646   5.322   3.962   6.139
 6249SOL    HW219647   5.197   4.061   6.104
 6250SOL     OW19648   5.422   5.338   6.189
 6250SOL    HW119649   5.490   5.283   6.237
 6250SOL    HW219650   5.347   5.280   6.160
 6251SOL     OW19651   4.587   2.031   1.002
 6251SOL    HW119652   4.569   2.103   1.069
 6251SOL    HW219653   4.557   1.943   1.038
 6252SOL     OW19654   2.193   6.443   5.198
 6252SOL    HW119655   2.196   6.351   5.160
 6252SOL    HW219656   2.188   6.438   5.298
 6253SOL     OW19657   1.760   3.668   1.262
 6253SOL    HW119658   1.836   3.733   1.265
 6253SOL    HW219659   1.704   3.686   1.181
 6254SOL     OW19660   5.183   0.480   0.418
 6254SOL    HW119661   5.165   0.569   0.459
 6254SOL    HW219662   5.217   0.417   0.488
 6255SOL     OW19663   0.015   1.669   2.192
 6255SOL    HW119664   0.086   1.675   2.122
 6255SOL    HW219665   7.006   1.761   2.210
 6256SOL     OW19666   3.081   5.040   3.169
 6256SOL    HW119667   3.163   5.073   3.215
 6256SOL    HW219668   3.107   4.987   3.088
 6257SOL     OW19669   4.243   2.813   6.667
 6257SOL    HW119670   4.257   2.898   6.717
 6257SOL    HW219671   4.329   2.763   6.662
 6258SOL     OW19672   5.081   2.402   3.069
 6258SOL    HW119673   5.146   2.441   3.005
 6258SOL    HW219674   4.999   2.373   3.021
 6259SOL     OW19675   3.094   2.165   1.815
 6259SOL    HW119676   3.038   2.238   1.855
 6259SOL    HW219677   3.043   2.120   1.741
 6260SOL     OW19678   3.360   3.206   0.502
 6260SOL    HW119679   3.419   3.284   0.481
 6260SOL    HW219680   3.380   3.173   0.594
 6261SOL     OW19681   4.584   0.711   6.979
 6261SOL    HW119682   4.585   0.668   6.889
 6261SOL    HW219683   4.560   0.643   0.022
 6262SOL     OW19684   0.317   5.851   5.543
 6262SOL    HW119685   0.231   5.884   5.581
 6262SOL    HW219686   0.310   5.753   5.523
 6263SOL     OW19687   6.314   0.867   0.947
 6263SOL    HW119688   6.364   0.780   0.947
 6263SOL    HW219689   6.340   0.920   0.866
 6264SOL     OW19690   2.161   1.361   6.918
 6264SOL    HW119691   2.086   1.416   6.955
 6264SOL    HW219692   2.195   1.300   6.989
 6265SOL     OW19693   4.394   2.894   1.125
 6265SOL    HW119694   4.439   2.951   1.195
 6265SOL    HW219695   4.405   2.797   1.150
 6266SOL     OW19696   2.354   6.900   2.166
 6266SOL    HW119697   2.388   6.816   2.207
 6266SOL    HW219698   2.429   6.967   2.161
 6267SOL     OW19699   2.431   6.838   0.079
 6267SOL    HW119700   2.352   6.783   0.054
 6267SOL    HW219701   2.400   6.920   0.127
 6268SOL     OW19702   3.003   5.031   2.753
 6268SOL    HW119703   2.950   5.114   2.734
 6268SOL    HW219704   3.017   4.981   2.667
 6269SOL     OW19705   6.329   4.807   0.746
 6269SOL    HW119706   6.359   4.860   0.667
 6269SOL    HW219707   6.232   4.785   0.736
 6270SOL     OW19708   0.515   1.422   4.507
 6270SOL    HW119709   0.589   1.381   4.560
 6270SOL    HW219710   0.549   1.503   4.458
 6271SOL     OW19711   6.219   1.343   1.041
 6271SOL    HW119712   6.176   1.253   1.030
 6271SOL    HW219713   6.149   1.414   1.031
 6272SOL     OW19714   1.367   2.404   3.607
 6272SOL    HW119715   1.431   2.328   3.618
 6272SOL    HW219716   1.408   2.473   3.547
 6273SOL     OW19717   4.200   0.283   1.773
 6273SOL    HW119718   4.254   0.294   1.857
 6273SOL    HW219719   4.149   0.197   1.777
 6274SOL     OW19720   3.435   6.324   6.266
 6274SOL    HW119721   3.426   6.225   6.250
 6274SOL    HW219722   3.388   6.374   6.193
 6275SOL     OW19723   2.362   0.391   4.177
 6275SOL    HW119724   2.459   0.408   4.162
 6275SOL    HW219725   2.337   0.301   4.141
 6276SOL     OW19726   1.520   4.946   4.071
 6276SOL    HW119727   1.425   4.923   4.094
 6276SOL    HW219728   1.539   5.040   4.099
 6277SOL     OW19729   5.374   3.165   3.382
 6277SOL    HW119730   5.340   3.152   3.475
 6277SOL    HW219731   5.403   3.077   3.344
 6278SOL     OW19732   5.477   0.742   4.208
 6278SOL    HW119733   5.485   0.766   4.305
 6278SOL    HW219734   5.388   0.699   4.192
 6279SOL     OW19735   4.822   1.748   6.912
 6279SOL    HW119736   4.724   1.743   6.889
 6279SOL    HW219737   4.867   1.816   6.854
 6280SOL     OW19738   0.633   5.148   5.932
 6280SOL    HW119739   0.549   5.146   5.986
 6280SOL    HW219740   0.693   5.221   5.965
 6281SOL     OW19741   3.039   6.707   5.033
 6281SOL    HW119742   3.053   6.608   5.033
 6281SOL    HW219743   2.948   6.728   4.999
 6282SOL     OW19744   1.814   6.900   3.631
 6282SOL    HW119745   1.908   6.887   3.660
 6282SOL    HW219746   1.809   6.977   3.567
 6283SOL     OW19747   0.039   2.722   5.416
 6283SOL    HW119748   0.060   2.687   5.508
 6283SOL    HW219749   0.121   2.715   5.359
 6284SOL     OW19750   2.514   4.403   6.380
 6284SOL    HW119751   2.465   4.319   6.408
 6284SOL    HW219752   2.527   4.461   6.460
 6285SOL     OW19753   1.824   4.747   2.773
 6285SOL    HW119754   1.841   4.687   2.695
 6285SOL    HW219755   1.731   4.783   2.769
 6286SOL     OW19756   5.847   6.906   4.689
 6286SOL    HW119757   5.939   6.872   4.705
 6286SOL    HW219758   5.807   6.859   4.610
 6287SOL     OW19759   4.643   4.491   1.908
 6287SOL    HW119760   4.562   4.545   1.931
 6287SOL    HW219761   4.627   4.395   1.931
 6288SOL     OW19762   5.118   3.651   0.977
 6288SOL    HW119763   5.071   3.718   1.035
 6288SOL    HW219764   5.212   3.683   0.959
 6289SOL     OW19765   1.130   0.776   2.521
 6289SOL    HW119766   1.096   0.684   2.503
 6289SOL    HW219767   1.200   0.800   2.452
 6290SOL     OW19768   6.069   3.422   3.270
 6290SOL    HW119769   6.053   3.477   3.351
 6290SOL    HW219770   6.147   3.361   3.286
 6291SOL     OW19771   3.924   3.670   3.231
 6291SOL    HW119772   3.968   3.646   3.318
 6291SOL    HW219773   3.937   3.595   3.166
 6292SOL     OW19774   0.235   1.599   2.017
 6292SOL    HW119775   0.276   1.673   1.965
 6292SOL    HW219776   0.306   1.537   2.051
 6293SOL     OW19777   5.061   5.903   0.947
 6293SOL    HW119778   5.010   5.829   0.902
 6293SOL    HW219779   5.158   5.894   0.925
 6294SOL     OW19780   3.885   5.351   2.358
 6294SOL    HW119781   3.926   5.296   2.285
 6294SOL    HW219782   3.787   5.362   2.340
 6295SOL     OW19783   6.417   6.141   6.021
 6295SOL    HW119784   6.331   6.142   6.073
 6295SOL    HW219785   6.399   6.115   5.926
 6296SOL     OW19786   6.385   1.286   2.428
 6296SOL    HW119787   6.395   1.357   2.498
 6296SOL    HW219788   6.405   1.197   2.468
 6297SOL     OW19789   5.446   0.450   5.661
 6297SOL    HW119790   5.450   0.504   5.577
 6297SOL    HW219791   5.443   0.352   5.638
 6298SOL     OW19792   0.679   2.031   4.411
 6298SOL    HW119793   0.768   2.070   4.431
 6298SOL    HW219794   0.642   2.072   4.327
 6299SOL     OW19795   6.652   3.264   0.535
 6299SOL    HW119796   6.688   3.347   0.579
 6299SOL    HW219797   6.716   3.235   0.463
 6300SOL     OW19798   5.317   1.076   4.107
 6300SOL    HW119799   5.279   1.009   4.043
 6300SOL    HW219800   5.279   1.166   4.088
 6301SOL     OW19801   3.288   0.262   0.676
 6301SOL    HW119802   3.257   0.200   0.604
 6301SOL    HW219803   3.378   0.299   0.653
 6302SOL     OW19804   0.224   1.025   3.120
 6302SOL    HW119805   0.173   1.036   3.206
 6302SOL    HW219806   0.197   1.097   3.056
 6303SOL     OW19807   2.351   6.183   5.435
 6303SOL    HW119808   2.404   6.267   5.423
 6303SOL    HW219809   2.253   6.204   5.428
 6304SOL     OW19810   3.446   0.891   5.782
 6304SOL    HW119811   3.428   0.913   5.878
 6304SOL    HW219812   3.422   0.969   5.725
 6305SOL     OW19813   5.539   1.378   2.197
 6305SOL    HW119814   5.633   1.345   2.187
 6305SOL    HW219815   5.481   1.304   2.232
 6306SOL     OW19816   5.909   2.678   4.756
 6306SOL    HW119817   5.901   2.751   4.689
 6306SOL    HW219818   5.858   2.702   4.838
 6307SOL     OW19819   2.531   4.564   0.721
 6307SOL    HW119820   2.559   4.471   0.744
 6307SOL    HW219821   2.597   4.629   0.760
 6308SOL     OW19822   3.410   1.958   5.708
 6308SOL    HW119823   3.504   1.925   5.720
 6308SOL    HW219824   3.381   1.940   5.614
 6309SOL     OW19825   5.757   2.149   5.030
 6309SOL    HW119826   5.671   2.184   5.066
 6309SOL    HW219827   5.740   2.067   4.976
 6310SOL     OW19828   1.373   4.759   4.854
 6310SOL    HW119829   1.471   4.742   4.858
 6310SOL    HW219830   1.350   4.838   4.912
 6311SOL     OW19831   6.184   6.361   4.350
 6311SOL    HW119832   6.139   6.347   4.261
 6311SOL    HW219833   6.236   6.279   4.374
 6312SOL     OW19834   5.032   4.625   6.023
 6312SOL    HW119835   5.067   4.577   5.943
 6312SOL    HW219836   4.934   4.643   6.011
 6313SOL     OW19837   2.363   5.148   3.434
 6313SOL    HW119838   2.272   5.127   3.469
 6313SOL    HW219839   2.431   5.130   3.505
 6314SOL     OW19840   2.930   6.955   3.702
 6314SOL    HW119841   2.832   6.957   3.719
 6314SOL    HW219842   2.979   6.938   3.788
 6315SOL     OW19843   2.208   3.357   0.408
 6315SOL    HW119844   2.108   3.360   0.401
 6315SOL    HW219845   2.247   3.334   0.318
 6316SOL     OW19846   4.812   1.758   6.143
 6316SOL    HW119847   4.876   1.762   6.066
 6316SOL    HW219848   4.774   1.848   6.159
 6317SOL     OW19849   6.219   5.838   3.902
 6317SOL    HW119850   6.209   5.834   4.002
 6317SOL    HW219851   6.188   5.928   3.870
 6318SOL     OW19852   2.029   1.802   4.707
 6318SOL    HW119853   1.985   1.878   4.755
 6318SOL    HW219854   2.128   1.806   4.722
 6319SOL     OW19855   0.382   1.428   2.914
 6319SOL    HW119856   0.393   1.481   2.997
 6319SOL    HW219857   0.329   1.345   2.933
 6320SOL     OW19858   6.955   2.101   3.283
 6320SOL    HW119859   6.932   2.077   3.188
 6320SOL    HW219860   0.028   2.100   3.295
 6321SOL     OW19861   2.511   3.628   6.326
 6321SOL    HW119862   2.464   3.706   6.285
 6321SOL    HW219863   2.602   3.656   6.357
 6322SOL     OW19864   1.094   1.019   0.390
 6322SOL    HW119865   1.054   1.067   0.312
 6322SOL    HW219866   1.142   0.937   0.359
 6323SOL     OW19867   4.071   1.391   1.218
 6323SOL    HW119868   4.025   1.337   1.288
 6323SOL    HW219869   4.147   1.338   1.179
 6324SOL     OW19870   4.331   1.823   0.137
 6324SOL    HW119871   4.312   1.900   0.075
 6324SOL    HW219872   4.285   1.741   0.103
 6325SOL     OW19873   1.318   2.436   2.352
 6325SOL    HW119874   1.335   2.492   2.433
 6325SOL    HW219875   1.300   2.496   2.274
 6326SOL     OW19876   4.863   6.029   1.123
 6326SOL    HW119877   4.890   6.081   1.204
 6326SOL    HW219878   4.940   6.022   1.060
 6327SOL     OW19879   3.807   5.461   5.793
 6327SOL    HW119880   3.786   5.449   5.696
 6327SOL    HW219881   3.774   5.551   5.823
 6328SOL     OW19882   3.122   4.124   6.653
 6328SOL    HW119883   3.202   4.095   6.601
 6328SOL    HW219884   3.123   4.080   6.743
 6329SOL     OW19885   1.305   1.835   2.619
 6329SOL    HW119886   1.400   1.822   2.591
 6329SOL    HW219887   1.273   1.925   2.588
 6330SOL     OW19888   3.389   0.799   0.057
 6330SOL    HW119889   3.415   0.725   7.021
 6330SOL    HW219890   3.454   0.874   0.048
 6331SOL     OW19891   5.703   2.787   2.623
 6331SOL    HW119892   5.771   2.714   2.625
 6331SOL    HW219893   5.746   2.873   2.651
 6332SOL     OW19894   5.248   6.091   2.151
 6332SOL    HW119895   5.202   6.008   2.119
 6332SOL    HW219896   5.257   6.155   2.075
 6333SOL     OW19897   2.125   5.558   2.856
 6333SOL    HW119898   2.034   5.517   2.856
 6333SOL    HW219899   2.188   5.501   2.909
 6334SOL     OW19900   2.841   1.553   2.604
 6334SOL    HW119901   2.741   1.560   2.602
 6334SOL    HW219902   2.881   1.645   2.595
 6335SOL     OW19903   0.338   1.499   6.779
 6335SOL    HW119904   0.353   1.597   6.794
 6335SOL    HW219905   0.393   1.468   6.702
 6336SOL     OW19906   0.312   3.062   5.328
 6336SOL    HW119907   0.318   3.091   5.424
 6336SOL    HW219908   0.218   3.073   5.296
 6337SOL     OW19909   7.002   4.464   5.319
 6337SOL    HW119910   6.943   4.410   5.259
 6337SOL    HW219911   0.071   4.436   5.306
 6338SOL     OW19912   3.738   1.178   3.922
 6338SOL    HW119913   3.690   1.091   3.932
 6338SOL    HW219914   3.825   1.163   3.876
 6339SOL     OW19915   6.908   2.723   5.189
 6339SOL    HW119916   6.975   2.739   5.262
 6339SOL    HW219917   6.952   2.676   5.113
 6340SOL     OW19918   2.513   5.338   4.338
 6340SOL    HW119919   2.454   5.262   4.308
 6340SOL    HW219920   2.463   5.424   4.329
 6341SOL     OW19921   6.456   5.048   2.668
 6341SOL    HW119922   6.360   5.021   2.680
 6341SOL    HW219923   6.469   5.081   2.574
 6342SOL     OW19924   1.424   3.034   1.110
 6342SOL    HW119925   1.522   3.039   1.093
 6342SOL    HW219926   1.399   3.098   1.183
 6343SOL     OW19927   4.043   0.773   0.282
 6343SOL    HW119928   4.127   0.827   0.284
 6343SOL    HW219929   3.978   0.815   0.220
 6344SOL     OW19930   0.158   4.517   4.510
 6344SOL    HW119931   0.162   4.418   4.511
 6344SOL    HW219932   0.066   4.546   4.482
 6345SOL     OW19933   2.722   2.252   2.325
 6345SOL    HW119934   2.664   2.334   2.326
 6345SOL    HW219935   2.786   2.258   2.248
 6346SOL     OW19936   0.672   5.614   3.910
 6346SOL    HW119937   0.641   5.564   3.830
 6346SOL    HW219938   0.623   5.702   3.915
 6347SOL     OW19939   3.311   6.932   1.315
 6347SOL    HW119940   3.239   6.864   1.301
 6347SOL    HW219941   3.272   7.017   1.349
 6348SOL     OW19942   1.031   2.339   5.135
 6348SOL    HW119943   1.070   2.276   5.202
 6348SOL    HW219944   1.040   2.433   5.169
 6349SOL     OW19945   2.431   0.607   0.174
 6349SOL    HW119946   2.368   0.684   0.182
 6349SOL    HW219947   2.379   0.522   0.165
 6350SOL     OW19948   1.210   6.067   2.718
 6350SOL    HW119949   1.186   5.970   2.714
 6350SOL    HW219950   1.131   6.120   2.748
 6351SOL     OW19951   0.093   1.382   3.157
 6351SOL    HW119952   0.012   1.335   3.121
 6351SOL    HW219953   0.079   1.481   3.151
 6352SOL     OW19954   6.916   6.321   2.539
 6352SOL    HW119955   6.852   6.245   2.548
 6352SOL    HW219956   6.976   6.323   2.619
 6353SOL     OW19957   7.021   6.542   2.183
 6353SOL    HW119958   0.044   6.571   2.265
 6353SOL    HW219959   0.044   6.468   2.139
 6354SOL     OW19960   0.373   6.745   4.192
 6354SOL    HW119961   0.358   6.693   4.108
 6354SOL    HW219962   0.331   6.698   4.269
 6355SOL     OW19963   0.999   2.226   1.917
 6355SOL    HW119964   1.021   2.199   2.010
 6355SOL    HW219965   1.081   2.215   1.859
 6356SOL     OW19966   2.854   2.798   1.032
 6356SOL    HW119967   2.776   2.755   1.078
 6356SOL    HW219968   2.921   2.826   1.101
 6357SOL     OW19969   4.633   1.998   0.738
 6357SOL    HW119970   4.648   2.041   0.827
 6357SOL    HW219971   4.595   1.907   0.751
 6358SOL     OW19972   0.609   2.802   4.032
 6358SOL    HW119973   0.621   2.891   4.078
 6358SOL    HW219974   0.634   2.810   3.936
 6359SOL     OW19975   0.012   0.930   6.697
 6359SOL    HW119976   6.993   0.921   6.609
 6359SOL    HW219977   6.969   0.931   6.770
 6360SOL     OW19978   3.078   5.951   4.155
 6360SOL    HW119979   3.044   6.039   4.122
 6360SOL    HW219980   3.115   5.898   4.079
 6361SOL     OW19981   3.762   6.122   5.846
 6361SOL    HW119982   3.695   6.082   5.908
 6361SOL    HW219983   3.754   6.222   5.848
 6362SOL     OW19984   6.413   5.495   6.203
 6362SOL    HW119985   6.374   5.449   6.124
 6362SOL    HW219986   6.487   5.556   6.173
 6363SOL     OW19987   0.876   5.755   4.007
 6363SOL    HW119988   0.824   5.778   4.089
 6363SOL    HW219989   0.829   5.680   3.959
 6364SOL     OW19990   2.115   2.865   6.007
 6364SOL    HW119991   2.098   2.840   5.912
 6364SOL    HW219992   2.111   2.783   6.064
 6365SOL     OW19993   4.844   5.360   2.698
 6365SOL    HW119994   4.856   5.459   2.693
 6365SOL    HW219995   4.786   5.337   2.776
 6366SOL     OW19996   6.835   4.253   5.727
 6366SOL    HW119997   6.748   4.222   5.689
 6366SOL    HW219998   6.910   4.200   5.687
 6367SOL     OW19999   6.116   5.547   2.375
 6367SOL    HW120000   6.106   5.448   2.383
 6367SOL    HW220001   6.037   5.585   2.327
 6368SOL     OW20002   3.498   0.562   3.496
 6368SOL    HW120003   3.424   0.630   3.499
 6368SOL    HW220004   3.519   0.540   3.401
 6369SOL     OW20005   2.273   5.074   5.532
 6369SOL    HW120006   2.302   5.066   5.436
 6369SOL    HW220007   2.262   5.171   5.555
 6370SOL     OW20008   5.846   2.748   2.309
 6370SOL    HW120009   5.819   2.800   2.390
 6370SOL    HW220010   5.876   2.812   2.238
 6371SOL     OW20011   4.920   2.137   3.370
 6371SOL    HW120012   4.973   2.158   3.287
 6371SOL    HW220013   4.949   2.197   3.444
 6372SOL     OW20014   2.952   6.113   2.118
 6372SOL    HW120015   3.012   6.036   2.139
 6372SOL    HW220016   2.995   6.198   2.147
 6373SOL     OW20017   3.728   4.513   6.861
 6373SOL    HW120018   3.678   4.432   6.894
 6373SOL    HW220019   3.724   4.585   6.930
 6374SOL     OW20020   2.905   3.469   2.624
 6374SOL    HW120021   2.814   3.507   2.611
 6374SOL    HW220022   2.933   3.419   2.542
 6375SOL     OW20023   1.781   6.119   2.539
 6375SOL    HW120024   1.706   6.072   2.493
 6375SOL    HW220025   1.790   6.211   2.501
 6376SOL     OW20026   0.483   2.601   5.764
 6376SOL    HW120027   0.431   2.653   5.832
 6376SOL    HW220028   0.482   2.504   5.789
 6377SOL     OW20029   0.647   1.580   4.338
 6377SOL    HW120030   0.623   1.647   4.268
 6377SOL    HW220031   0.740   1.548   4.322
 6378SOL     OW20032   4.526   4.817   3.768
 6378SOL    HW120033   4.617   4.836   3.803
 6378SOL    HW220034   4.473   4.766   3.836
 6379SOL     OW20035   2.334   4.976   2.506
 6379SOL    HW120036   2.338   4.910   2.431
 6379SOL    HW220037   2.352   5.068   2.471
 6380SOL     OW20038   0.755   0.694   5.891
 6380SOL    HW120039   0.778   0.611   5.943
 6380SOL    HW220040   0.797   0.689   5.800
 6381SOL     OW20041   2.870   3.226   1.856
 6381SOL    HW120042   2.932   3.165   1.905
 6381SOL    HW220043   2.915   3.260   1.773
 6382SOL     OW20044   1.414   4.461   4.833
 6382SOL    HW120045   1.506   4.466   4.873
 6382SOL    HW220046   1.347   4.488   4.901
 6383SOL     OW20047   4.262   1.250   3.895
 6383SOL    HW120048   4.279   1.347   3.910
 6383SOL    HW220049   4.348   1.204   3.874
 6384SOL     OW20050   6.362   4.374   2.367
 6384SOL    HW120051   6.343   4.432   2.446
 6384SOL    HW220052   6.299   4.296   2.368
 6385SOL     OW20053   0.344   6.254   4.556
 6385SOL    HW120054   0.406   6.226   4.629
 6385SOL    HW220055   0.293   6.336   4.585
 6386SOL     OW20056   2.796   5.629   1.780
 6386SOL    HW120057   2.765   5.711   1.732
 6386SOL    HW220058   2.721   5.591   1.833
 6387SOL     OW20059   6.861   1.970   5.237
 6387SOL    HW120060   6.836   1.892   5.295
 6387SOL    HW220061   6.858   1.942   5.141
 6388SOL     OW20062   2.165   4.818   3.146
 6388SOL    HW120063   2.259   4.815   3.113
 6388SOL    HW220064   2.103   4.792   3.071
 6389SOL     OW20065   0.825   4.573   1.690
 6389SOL    HW120066   0.791   4.602   1.600
 6389SOL    HW220067   0.924   4.559   1.686
 6390SOL     OW20068   0.184   3.657   4.166
 6390SOL    HW120069   0.251   3.583   4.165
 6390SOL    HW220070   0.172   3.693   4.074
 6391SOL     OW20071   3.647   0.758   6.679
 6391SOL    HW120072   3.679   0.695   6.609
 6391SOL    HW220073   3.551   0.739   6.700
 6392SOL     OW20074   1.470   6.495   4.266
 6392SOL    HW120075   1.533   6.474   4.340
 6392SOL    HW220076   1.377   6.470   4.292
 6393SOL     OW20077   5.342   1.256   0.782
 6393SOL    HW120078   5.329   1.298   0.871
 6393SOL    HW220079   5.438   1.264   0.754
 6394SOL     OW20080   3.226   5.042   1.744
 6394SOL    HW120081   3.257   4.951   1.771
 6394SOL    HW220082   3.160   5.076   1.810
 6395SOL     OW20083   6.063   1.547   0.988
 6395SOL    HW120084   6.065   1.647   0.991
 6395SOL    HW220085   5.969   1.515   0.975
 6396SOL     OW20086   5.662   3.812   5.567
 6396SOL    HW120087   5.680   3.757   5.485
 6396SOL    HW220088   5.599   3.763   5.627
 6397SOL     OW20089   7.002   0.466   6.865
 6397SOL    HW120090   7.008   0.565   6.877
 6397SOL    HW220091   6.983   0.446   6.769
 6398SOL     OW20092   4.131   0.614   1.358
 6398SOL    HW120093   4.189   0.549   1.407
 6398SOL    HW220094   4.061   0.565   1.307
 6399SOL     OW20095   2.632   5.807   6.634
 6399SOL    HW120096   2.623   5.856   6.547
 6399SOL    HW220097   2.639   5.709   6.615
 6400SOL     OW20098   2.893   5.227   4.172
 6400SOL    HW120099   2.861   5.291   4.242
 6400SOL    HW220100   2.858   5.135   4.191
 6401SOL     OW20101   1.407   4.479   4.568
 6401SOL    HW120102   1.409   4.463   4.667
 6401SOL    HW220103   1.390   4.393   4.521
 6402SOL     OW20104   1.920   2.567   3.186
 6402SOL    HW120105   1.957   2.629   3.118
 6402SOL    HW220106   1.824   2.547   3.166
 6403SOL     OW20107   0.898   5.862   1.579
 6403SOL    HW120108   0.899   5.894   1.674
 6403SOL    HW220109   0.980   5.809   1.561
 6404SOL     OW20110   5.032   1.098   3.398
 6404SOL    HW120111   5.055   1.154   3.477
 6404SOL    HW220112   4.946   1.130   3.359
 6405SOL     OW20113   2.655   1.199   1.707
 6405SOL    HW120114   2.585   1.238   1.767
 6405SOL    HW220115   2.714   1.139   1.759
 6406SOL     OW20116   2.919   2.268   3.249
 6406SOL    HW120117   2.852   2.248   3.321
 6406SOL    HW220118   2.878   2.327   3.180
 6407SOL     OW20119   4.367   5.277   6.223
 6407SOL    HW120120   4.454   5.252   6.179
 6407SOL    HW220121   4.338   5.367   6.189
 6408SOL     OW20122   6.337   1.810   0.561
 6408SOL    HW120123   6.351   1.801   0.463
 6408SOL    HW220124   6.406   1.872   0.599
 6409SOL     OW20125   1.330   4.293   2.060
 6409SOL    HW120126   1.379   4.302   1.973
 6409SOL    HW220127   1.397   4.286   2.134
 6410SOL     OW20128   1.407   1.121   1.986
 6410SOL    HW120129   1.478   1.077   1.931
 6410SOL    HW220130   1.450   1.178   2.056
 6411SOL     OW20131   2.075   0.941   3.556
 6411SOL    HW120132   2.021   1.015   3.597
 6411SOL    HW220133   2.083   0.866   3.622
 6412SOL     OW20134   0.095   1.835   4.782
 6412SOL    HW120135   0.117   1.906   4.715
 6412SOL    HW220136   0.076   1.749   4.733
 6413SOL     OW20137   0.379   4.588   0.351
 6413SOL    HW120138   0.410   4.555   0.440
 6413SOL    HW220139   0.387   4.514   0.284
 6414SOL     OW20140   6.517   6.626   2.668
 6414SOL    HW120141   6.614   6.647   2.655
 6414SOL    HW220142   6.505   6.527   2.677
 6415SOL     OW20143   1.712   1.664   2.219
 6415SOL    HW120144   1.669   1.575   2.202
 6415SOL    HW220145   1.730   1.673   2.317
 6416SOL     OW20146   2.095   6.383   6.323
 6416SOL    HW120147   2.184   6.425   6.307
 6416SOL    HW220148   2.061   6.344   6.237
 6417SOL     OW20149   0.180   6.637   3.036
 6417SOL    HW120150   0.276   6.614   3.046
 6417SOL    HW220151   0.170   6.729   2.998
 6418SOL     OW20152   6.624   5.930   2.446
 6418SOL    HW120153   6.582   5.934   2.355
 6418SOL    HW220154   6.552   5.921   2.515
 6419SOL     OW20155   2.558   3.662   1.316
 6419SOL    HW120156   2.582   3.702   1.228
 6419SOL    HW220157   2.579   3.727   1.389
 6420SOL     OW20158   0.682   3.503   6.982
 6420SOL    HW120159   0.638   3.416   6.964
 6420SOL    HW220160   0.770   3.507   6.935
 6421SOL     OW20161   5.764   2.049   1.140
 6421SOL    HW120162   5.768   2.148   1.152
 6421SOL    HW220163   5.804   2.004   1.220
 6422SOL     OW20164   6.250   2.096   3.493
 6422SOL    HW120165   6.223   2.024   3.430
 6422SOL    HW220166   6.226   2.070   3.586
 6423SOL     OW20167   4.969   4.093   1.029
 6423SOL    HW120168   5.065   4.109   1.007
 6423SOL    HW220169   4.911   4.145   0.967
 6424SOL     OW20170   6.482   4.693   5.032
 6424SOL    HW120171   6.491   4.630   5.109
 6424SOL    HW220172   6.569   4.700   4.983
 6425SOL     OW20173   0.635   4.947   1.089
 6425SOL    HW120174   0.663   5.018   1.152
 6425SOL    HW220175   0.713   4.889   1.066
 6426SOL     OW20176   6.520   2.503   3.575
 6426SOL    HW120177   6.551   2.478   3.667
 6426SOL    HW220178   6.536   2.427   3.512
 6427SOL     OW20179   1.169   3.199   5.910
 6427SOL    HW120180   1.116   3.114   5.908
 6427SOL    HW220181   1.141   3.258   5.834
 6428SOL     OW20182   6.876   3.243   3.667
 6428SOL    HW120183   6.920   3.332   3.656
 6428SOL    HW220184   6.878   3.217   3.763
 6429SOL     OW20185   0.588   0.953   4.588
 6429SOL    HW120186   0.575   1.006   4.672
 6429SOL    HW220187   0.668   0.987   4.540
 6430SOL     OW20188   6.146   3.792   0.132
 6430SOL    HW120189   6.062   3.820   0.178
 6430SOL    HW220190   6.185   3.712   0.178
 6431SOL     OW20191   5.586   0.899   3.393
 6431SOL    HW120192   5.512   0.965   3.404
 6431SOL    HW220193   5.667   0.945   3.357
 6432SOL     OW20194   5.999   3.509   0.402
 6432SOL    HW120195   5.927   3.478   0.339
 6432SOL    HW220196   6.077   3.447   0.396
 6433SOL     OW20197   2.580   3.576   1.667
 6433SOL    HW120198   2.569   3.671   1.695
 6433SOL    HW220199   2.672   3.545   1.690
 6434SOL     OW20200   2.029   5.525   0.237
 6434SOL    HW120201   2.095   5.561   0.171
 6434SOL    HW220202   2.034   5.579   0.321
 6435SOL     OW20203   4.334   4.104   0.285
 6435SOL    HW120204   4.280   4.105   0.370
 6435SOL    HW220205   4.418   4.052   0.301
 6436SOL     OW20206   1.538   2.592   2.683
 6436SOL    HW120207   1.557   2.568   2.587
 6436SOL    HW220208   1.614   2.562   2.741
 6437SOL     OW20209   0.506   0.690   6.811
 6437SOL    HW120210   0.409   0.693   6.789
 6437SOL    HW220211   0.559   0.680   6.727
 6438SOL     OW20212   0.970   3.840   3.869
 6438SOL    HW120213   1.014   3.766   3.818
 6438SOL    HW220214   0.987   3.828   3.967
 6439SOL     OW20215   0.116   6.357   1.784
 6439SOL    HW120216   0.191   6.321   1.728
 6439SOL    HW220217   0.134   6.453   1.805
 6440SOL     OW20218   0.479   1.002   1.960
 6440SOL    HW120219   0.409   0.980   2.027
 6440SOL    HW220220   0.474   0.937   1.884
 6441SOL     OW20221   3.830   1.643   3.422
 6441SOL    HW120222   3.889   1.567   3.451
 6441SOL    HW220223   3.869   1.686   3.341
 6442SOL     OW20224   3.864   0.304   3.284
 6442SOL    HW120225   3.926   0.229   3.308
 6442SOL    HW220226   3.794   0.313   3.355
 6443SOL     OW20227   2.328   0.925   0.016
 6443SOL    HW120228   2.231   0.904   0.003
 6443SOL    HW220229   2.371   0.936   6.953
 6444SOL     OW20230   0.646   0.778   3.573
 6444SOL    HW120231   0.553   0.758   3.601
 6444SOL    HW220232   0.652   0.778   3.473
 6445SOL     OW20233   3.604   3.746   5.513
 6445SOL    HW120234   3.649   3.657   5.517
 6445SOL    HW220235   3.513   3.739   5.554
 6446SOL     OW20236   6.901   1.926   0.843
 6446SOL    HW120237   6.832   1.855   0.831
 6446SOL    HW220238   6.867   1.996   0.906
 6447SOL     OW20239   1.759   0.014   2.995
 6447SOL    HW120240   1.703   6.978   2.941
 6447SOL    HW220241   1.700   0.075   3.048
 6448SOL     OW20242   6.649   2.391   2.119
 6448SOL    HW120243   6.653   2.345   2.031
 6448SOL    HW220244   6.591   2.338   2.181
 6449SOL     OW20245   3.364   2.648   1.252
 6449SOL    HW120246   3.304   2.602   1.186
 6449SOL    HW220247   3.380   2.588   1.330
 6450SOL     OW20248   6.617   3.175   6.509
 6450SOL    HW120249   6.619   3.266   6.467
 6450SOL    HW220250   6.530   3.130   6.488
 6451SOL     OW20251   2.248   6.805   4.047
 6451SOL    HW120252   2.328   6.865   4.052
 6451SOL    HW220253   2.184   6.828   4.120
 6452SOL     OW20254   3.923   6.305   3.579
 6452SOL    HW120255   3.848   6.339   3.522
 6452SOL    HW220256   3.908   6.333   3.674
 6453SOL     OW20257   2.123   4.385   6.630
 6453SOL    HW120258   2.068   4.445   6.572
 6453SOL    HW220259   2.063   4.324   6.682
 6454SOL     OW20260   3.020   1.398   4.999
 6454SOL    HW120261   2.979   1.465   5.061
 6454SOL    HW220262   3.120   1.407   5.002
 6455SOL     OW20263   6.096   2.736   5.697
 6455SOL    HW120264   6.170   2.795   5.728
 6455SOL    HW220265   6.103   2.721   5.599
 6456SOL     OW20266   6.677   0.546   4.723
 6456SOL    HW120267   6.602   0.603   4.756
 6456SOL    HW220268   6.703   0.481   4.795
 6457SOL     OW20269   6.630   3.033   2.782
 6457SOL    HW120270   6.549   2.983   2.752
 6457SOL    HW220271   6.625   3.128   2.751
 6458SOL     OW20272   1.389   6.410   3.119
 6458SOL    HW120273   1.433   6.403   3.209
 6458SOL    HW220274   1.414   6.331   3.064
 6459SOL     OW20275   5.545   4.946   0.507
 6459SOL    HW120276   5.490   4.958   0.424
 6459SOL    HW220277   5.516   4.862   0.554
 6460SOL     OW20278   2.831   4.784   0.464
 6460SOL    HW120279   2.883   4.869   0.475
 6460SOL    HW220280   2.878   4.710   0.511
 6461SOL     OW20281   3.912   5.837   4.958
 6461SOL    HW120282   3.973   5.833   5.037
 6461SOL    HW220283   3.827   5.881   4.984
 6462SOL     OW20284   2.269   2.777   3.488
 6462SOL    HW120285   2.171   2.792   3.494
 6462SOL    HW220286   2.317   2.843   3.545
 6463SOL     OW20287   1.061   4.722   5.561
 6463SOL    HW120288   1.023   4.647   5.507
 6463SOL    HW220289   1.056   4.700   5.658
 6464SOL     OW20290   1.095   5.338   2.527
 6464SOL    HW120291   1.134   5.255   2.488
 6464SOL    HW220292   1.166   5.409   2.529
 6465SOL     OW20293   6.509   1.059   2.961
 6465SOL    HW120294   6.509   1.045   3.060
 6465SOL    HW220295   6.580   1.125   2.937
 6466SOL     OW20296   0.525   3.293   5.498
 6466SOL    HW120297   0.457   3.240   5.550
 6466SOL    HW220298   0.548   3.244   5.414
 6467SOL     OW20299   2.694   1.170   6.003
 6467SOL    HW120300   2.620   1.106   5.979
 6467SOL    HW220301   2.682   1.201   6.097
 6468SOL     OW20302   4.808   4.254   0.882
 6468SOL    HW120303   4.843   4.252   0.788
 6468SOL    HW220304   4.712   4.224   0.883
 6469SOL     OW20305   6.232   1.193   6.045
 6469SOL    HW120306   6.279   1.210   6.132
 6469SOL    HW220307   6.133   1.201   6.059
 6470SOL     OW20308   6.477   5.982   5.184
 6470SOL    HW120309   6.521   6.051   5.243
 6470SOL    HW220310   6.516   5.892   5.204
 6471SOL     OW20311   5.404   5.605   5.677
 6471SOL    HW120312   5.329   5.541   5.694
 6471SOL    HW220313   5.388   5.689   5.730
 6472SOL     OW20314   1.440   5.724   1.001
 6472SOL    HW120315   1.502   5.714   1.078
 6472SOL    HW220316   1.379   5.645   0.996
 6473SOL     OW20317   2.507   1.116   5.217
 6473SOL    HW120318   2.486   1.141   5.123
 6473SOL    HW220319   2.469   1.184   5.279
 6474SOL     OW20320   2.617   3.638   5.604
 6474SOL    HW120321   2.654   3.676   5.520
 6474SOL    HW220322   2.650   3.691   5.682
 6475SOL     OW20323   4.477   5.961   4.033
 6475SOL    HW120324   4.539   6.030   4.070
 6475SOL    HW220325   4.462   5.978   3.935
 6476SOL     OW20326   5.149   4.919   2.585
 6476SOL    HW120327   5.171   4.852   2.515
 6476SOL    HW220328   5.219   4.916   2.657
 6477SOL     OW20329   6.828   6.685   6.995
 6477SOL    HW120330   6.914   6.728   6.970
 6477SOL    HW220331   6.796   6.628   6.919
 6478SOL     OW20332   4.999   6.440   1.015
 6478SOL    HW120333   5.043   6.412   0.930
 6478SOL    HW220334   5.035   6.528   1.044
 6479SOL     OW20335   4.282   6.035   2.511
 6479SOL    HW120336   4.184   6.056   2.511
 6479SOL    HW220337   4.321   6.060   2.600
 6480SOL     OW20338   2.604   1.433   0.860
 6480SOL    HW120339   2.574   1.338   0.858
 6480SOL    HW220340   2.535   1.491   0.817
 6481SOL     OW20341   4.579   0.598   1.509
 6481SOL    HW120342   4.626   0.680   1.543
 6481SOL    HW220343   4.633   0.558   1.434
 6482SOL     OW20344   0.306   0.298   6.708
 6482SOL    HW120345   0.345   0.326   6.795
 6482SOL    HW220346   0.357   0.220   6.672
 6483SOL     OW20347   2.116   5.570   2.054
 6483SOL    HW120348   2.113   5.542   2.150
 6483SOL    HW220349   2.043   5.636   2.036
 6484SOL     OW20350   5.629   5.930   3.286
 6484SOL    HW120351   5.532   5.933   3.258
 6484SOL    HW220352   5.635   5.908   3.383
 6485SOL     OW20353   0.824   3.174   3.350
 6485SOL    HW120354   0.738   3.213   3.318
 6485SOL    HW220355   0.814   3.145   3.445
 6486SOL     OW20356   1.928   3.387   2.981
 6486SOL    HW120357   1.892   3.294   2.970
 6486SOL    HW220358   1.898   3.424   3.069
 6487SOL     OW20359   5.711   5.551   3.021
 6487SOL    HW120360   5.615   5.576   3.016
 6487SOL    HW220361   5.729   5.506   3.109
 6488SOL     OW20362   3.395   4.931   5.686
 6488SOL    HW120363   3.359   5.010   5.735
 6488SOL    HW220364   3.439   4.962   5.601
 6489SOL     OW20365   2.337   1.873   5.421
 6489SOL    HW120366   2.326   1.915   5.512
 6489SOL    HW220367   2.302   1.936   5.352
 6490SOL     OW20368   4.550   1.379   0.764
 6490SOL    HW120369   4.504   1.380   0.675
 6490SOL    HW220370   4.564   1.284   0.793
 6491SOL     OW20371   4.066   1.247   6.188
 6491SOL    HW120372   4.162   1.256   6.164
 6491SOL    HW220373   4.028   1.337   6.209
 6492SOL     OW20374   5.684   5.951   6.620
 6492SOL    HW120375   5.592   5.929   6.654
 6492SOL    HW220376   5.749   5.885   6.657
 6493SOL     OW20377   1.023   6.042   5.464
 6493SOL    HW120378   1.066   6.097   5.535
 6493SOL    HW220379   1.059   5.949   5.468
 6494SOL     OW20380   1.488   0.116   3.471
 6494SOL    HW120381   1.543   0.176   3.413
 6494SOL    HW220382   1.502   0.141   3.567
 6495SOL     OW20383   5.267   5.237   2.449
 6495SOL    HW120384   5.291   5.182   2.529
 6495SOL    HW220385   5.168   5.252   2.447
 6496SOL     OW20386   1.066   6.979   2.925
 6496SOL    HW120387   1.159   6.975   2.961
 6496SOL    HW220388   1.015   6.897   2.954
 6497SOL     OW20389   0.329   5.603   0.062
 6497SOL    HW120390   0.265   5.528   0.042
 6497SOL    HW220391   0.349   5.652   7.004
 6498SOL     OW20392   1.603   4.253   3.833
 6498SOL    HW120393   1.529   4.194   3.804
 6498SOL    HW220394   1.615   4.327   3.766
 6499SOL     OW20395   5.944   1.059   4.062
 6499SOL    HW120396   5.875   1.048   3.991
 6499SOL    HW220397   5.921   1.002   4.141
 6500SOL     OW20398   5.187   4.766   3.460
 6500SOL    HW120399   5.126   4.702   3.506
 6500SOL    HW220400   5.282   4.745   3.484
 6501SOL     OW20401   0.088   3.485   0.835
 6501SOL    HW120402   0.099   3.446   0.744
 6501SOL    HW220403   0.170   3.468   0.889
 6502SOL     OW20404   1.322   4.642   2.063
 6502SOL    HW120405   1.331   4.659   2.161
 6502SOL    HW220406   1.410   4.611   2.027
 6503SOL     OW20407   4.501   0.397   4.278
 6503SOL    HW120408   4.527   0.490   4.305
 6503SOL    HW220409   4.574   0.333   4.305
 6504SOL     OW20410   2.081   1.222   0.423
 6504SOL    HW120411   2.035   1.147   0.377
 6504SOL    HW220412   2.180   1.208   0.419
 6505SOL     OW20413   5.251   5.342   1.043
 6505SOL    HW120414   5.347   5.346   1.069
 6505SOL    HW220415   5.199   5.408   1.097
 6506SOL     OW20416   1.810   1.938   0.539
 6506SOL    HW120417   1.734   1.922   0.476
 6506SOL    HW220418   1.888   1.973   0.488
 6507SOL     OW20419   3.426   0.736   2.221
 6507SOL    HW120420   3.336   0.699   2.196
 6507SOL    HW220421   3.437   0.732   2.320
 6508SOL     OW20422   2.664   1.502   2.226
 6508SOL    HW120423   2.672   1.602   2.234
 6508SOL    HW220424   2.719   1.471   2.148
 6509SOL     OW20425   0.906   2.677   4.404
 6509SOL    HW120426   0.994   2.670   4.452
 6509SOL    HW220427   0.877   2.773   4.400
 6510SOL     OW20428   5.474   5.249   6.614
 6510SOL    HW120429   5.397   5.185   6.620
 6510SOL    HW220430   5.459   5.326   6.675
 6511SOL     OW20431   6.149   6.006   5.538
 6511SOL    HW120432   6.122   5.911   5.545
 6511SOL    HW220433   6.098   6.061   5.604
 6512SOL     OW20434   5.165   6.520   3.618
 6512SOL    HW120435   5.260   6.547   3.633
 6512SOL    HW220436   5.162   6.426   3.585
 6513SOL     OW20437   2.415   6.919   2.810
 6513SOL    HW120438   2.510   6.892   2.802
 6513SOL    HW220439   2.387   6.969   2.728
 6514SOL     OW20440   3.242   6.823   3.331
 6514SOL    HW120441   3.249   6.727   3.303
 6514SOL    HW220442   3.150   6.839   3.367
 6515SOL     OW20443   0.498   0.920   4.296
 6515SOL    HW120444   0.538   1.011   4.308
 6515SOL    HW220445   0.518   0.864   4.376
 6516SOL     OW20446   1.584   1.594   5.938
 6516SOL    HW120447   1.543   1.650   5.867
 6516SOL    HW220448   1.515   1.535   5.979
 6517SOL     OW20449   1.465   2.051   0.231
 6517SOL    HW120450   1.473   2.041   0.131
 6517SOL    HW220451   1.376   2.016   0.261
 6518SOL     OW20452   5.937   6.199   0.365
 6518SOL    HW120453   5.968   6.144   0.287
 6518SOL    HW220454   5.987   6.286   0.366
 6519SOL     OW20455   1.676   1.915   3.491
 6519SOL    HW120456   1.594   1.966   3.467
 6519SOL    HW220457   1.709   1.865   3.411
 6520SOL     OW20458   6.141   5.081   1.407
 6520SOL    HW120459   6.183   5.039   1.327
 6520SOL    HW220460   6.182   5.171   1.423
 6521SOL     OW20461   1.385   1.881   5.298
 6521SOL    HW120462   1.395   1.819   5.376
 6521SOL    HW220463   1.425   1.970   5.321
 6522SOL     OW20464   2.701   5.795   4.754
 6522SOL    HW120465   2.765   5.871   4.765
 6522SOL    HW220466   2.678   5.758   4.844
 6523SOL     OW20467   2.012   2.209   6.850
 6523SOL    HW120468   2.021   2.156   6.934
 6523SOL    HW220469   2.013   2.148   6.771
 6524SOL     OW20470   3.738   4.159   4.500
 6524SOL    HW120471   3.762   4.121   4.410
 6524SOL    HW220472   3.641   4.143   4.517
 6525SOL     OW20473   0.456   2.662   4.641
 6525SOL    HW120474   0.478   2.744   4.588
 6525SOL    HW220475   0.501   2.583   4.600
 6526SOL     OW20476   1.665   5.695   4.306
 6526SOL    HW120477   1.739   5.710   4.241
 6526SOL    HW220478   1.695   5.630   4.376
 6527SOL     OW20479   2.313   1.039   4.025
 6527SOL    HW120480   2.412   1.034   4.034
 6527SOL    HW220481   2.270   1.019   4.114
 6528SOL     OW20482   6.879   6.902   3.184
 6528SOL    HW120483   6.964   6.920   3.135
 6528SOL    HW220484   6.858   6.978   3.244
 6529SOL     OW20485   6.526   2.577   1.566
 6529SOL    HW120486   6.489   2.659   1.609
 6529SOL    HW220487   6.617   2.558   1.604
 6530SOL     OW20488   0.224   2.094   0.258
 6530SOL    HW120489   0.174   2.024   0.308
 6530SOL    HW220490   0.215   2.182   0.306
 6531SOL     OW20491   5.065   2.970   4.692
 6531SOL    HW120492   5.143   2.996   4.635
 6531SOL    HW220493   5.072   2.873   4.716
 6532SOL     OW20494   1.361   2.326   6.760
 6532SOL    HW120495   1.284   2.389   6.751
 6532SOL    HW220496   1.355   2.256   6.688
 6533SOL     OW20497   4.628   0.876   1.026
 6533SOL    HW120498   4.556   0.808   1.008
 6533SOL    HW220499   4.636   0.891   1.124
 6534SOL     OW20500   1.941   2.984   0.414
 6534SOL    HW120501   2.004   2.914   0.449
 6534SOL    HW220502   1.934   2.975   0.314
 6535SOL     OW20503   2.159   3.545   5.481
 6535SOL    HW120504   2.203   3.626   5.443
 6535SOL    HW220505   2.061   3.548   5.460
 6536SOL     OW20506   6.788   2.635   6.828
 6536SOL    HW120507   6.800   2.701   6.902
 6536SOL    HW220508   6.805   2.679   6.741
 6537SOL     OW20509   1.025   0.215   6.929
 6537SOL    HW120510   1.072   0.190   7.014
 6537SOL    HW220511   0.927   0.221   6.945
 6538SOL     OW20512   2.139   3.340   6.394
 6538SOL    HW120513   2.096   3.252   6.416
 6538SOL    HW220514   2.226   3.323   6.347
 6539SOL     OW20515   2.603   1.373   6.587
 6539SOL    HW120516   2.645   1.306   6.526
 6539SOL    HW220517   2.574   1.453   6.535
 6540SOL     OW20518   3.031   2.054   4.014
 6540SOL    HW120519   3.018   2.136   4.069
 6540SOL    HW220520   3.108   2.001   4.051
 6541SOL     OW20521   2.847   2.586   5.320
 6541SOL    HW120522   2.903   2.503   5.327
 6541SOL    HW220523   2.908   2.665   5.311
 6542SOL     OW20524   6.208   4.655   3.612
 6542SOL    HW120525   6.140   4.614   3.673
 6542SOL    HW220526   6.241   4.585   3.548
 6543SOL     OW20527   0.728   5.250   6.755
 6543SOL    HW120528   0.702   5.283   6.665
 6543SOL    HW220529   0.677   5.166   6.775
 6544SOL     OW20530   6.437   6.008   3.270
 6544SOL    HW120531   6.394   5.918   3.279
 6544SOL    HW220532   6.425   6.042   3.177
 6545SOL     OW20533   5.277   2.858   6.136
 6545SOL    HW120534   5.232   2.810   6.061
 6545SOL    HW220535   5.362   2.811   6.159
 6546SOL     OW20536   3.630   4.793   5.844
 6546SOL    HW120537   3.569   4.833   5.775
 6546SOL    HW220538   3.702   4.741   5.798
 6547SOL     OW20539   5.228   1.105   6.983
 6547SOL    HW120540   5.280   1.105   6.898
 6547SOL    HW220541   5.132   1.085   6.964
 6548SOL     OW20542   6.174   4.632   5.329
 6548SOL    HW120543   6.157   4.536   5.307
 6548SOL    HW220544   6.101   4.689   5.290
 6549SOL     OW20545   3.020   1.085   2.082
 6549SOL    HW120546   3.092   1.120   2.022
 6549SOL    HW220547   3.031   1.122   2.174
 6550SOL     OW20548   0.821   5.498   3.408
 6550SOL    HW120549   0.879   5.425   3.442
 6550SOL    HW220550   0.860   5.587   3.433
 6551SOL     OW20551   2.746   4.952   2.071
 6551SOL    HW120552   2.818   4.914   2.128
 6551SOL    HW220553   2.733   4.893   1.991
 6552SOL     OW20554   4.532   5.201   6.606
 6552SOL    HW120555   4.470   5.257   6.551
 6552SOL    HW220556   4.565   5.256   6.684
 6553SOL     OW20557   0.035   3.091   2.710
 6553SOL    HW120558   0.072   3.146   2.785
 6553SOL    HW220559   6.980   3.043   2.741
 6554SOL     OW20560   0.059   3.599   5.143
 6554SOL    HW120561   0.038   3.554   5.230
 6554SOL    HW220562   0.158   3.604   5.132
 6555SOL     OW20563   0.623   1.421   1.875
 6555SOL    HW120564   0.583   1.456   1.960
 6555SOL    HW220565   0.573   1.339   1.846
 6556SOL     OW20566   3.252   0.417   3.971
 6556SOL    HW120567   3.238   0.326   3.932
 6556SOL    HW220568   3.219   0.487   3.907
 6557SOL     OW20569   5.893   6.498   0.974
 6557SOL    HW120570   5.935   6.441   1.045
 6557SOL    HW220571   5.850   6.440   0.906
 6558SOL     OW20572   6.927   6.046   6.260
 6558SOL    HW120573   6.922   6.114   6.333
 6558SOL    HW220574   6.932   5.955   6.300
 6559SOL     OW20575   3.298   2.899   1.162
 6559SOL    HW120576   3.301   2.900   1.062
 6559SOL    HW220577   3.343   2.818   1.197
 6560SOL     OW20578   3.679   1.840   0.737
 6560SOL    HW120579   3.637   1.750   0.749
 6560SOL    HW220580   3.657   1.898   0.816
 6561SOL     OW20581   3.795   3.994   3.931
 6561SOL    HW120582   3.796   3.905   3.885
 6561SOL    HW220583   3.846   3.988   4.016
 6562SOL     OW20584   5.841   3.656   5.380
 6562SOL    HW120585   5.820   3.707   5.297
 6562SOL    HW220586   5.794   3.568   5.378
 6563SOL     OW20587   1.095   5.178   2.764
 6563SOL    HW120588   1.181   5.200   2.811
 6563SOL    HW220589   1.088   5.232   2.680
 6564SOL     OW20590   1.104   6.338   3.100
 6564SOL    HW120591   1.066   6.311   3.188
 6564SOL    HW220592   1.201   6.359   3.109
 6565SOL     OW20593   6.666   3.703   5.353
 6565SOL    HW120594   6.713   3.638   5.294
 6565SOL    HW220595   6.640   3.659   5.439
 6566SOL     OW20596   3.786   6.717   0.810
 6566SOL    HW120597   3.846   6.739   0.887
 6566SOL    HW220598   3.720   6.647   0.838
 6567SOL     OW20599   6.389   3.169   1.347
 6567SOL    HW120600   6.301   3.178   1.394
 6567SOL    HW220601   6.408   3.252   1.295
 6568SOL     OW20602   3.913   3.934   1.170
 6568SOL    HW120603   3.962   3.848   1.180
 6568SOL    HW220604   3.969   4.009   1.207
 6569SOL     OW20605   0.602   4.497   6.551
 6569SOL    HW120606   0.505   4.507   6.529
 6569SOL    HW220607   0.642   4.587   6.569
 6570SOL     OW20608   5.930   3.416   1.550
 6570SOL    HW120609   5.892   3.457   1.467
 6570SOL    HW220610   5.986   3.484   1.598
 6571SOL     OW20611   2.640   6.331   3.818
 6571SOL    HW120612   2.550   6.310   3.780
 6571SOL    HW220613   2.670   6.420   3.784
 6572SOL     OW20614   1.353   4.344   6.636
 6572SOL    HW120615   1.298   4.262   6.649
 6572SOL    HW220616   1.346   4.403   6.717
 6573SOL     OW20617   1.706   1.940   2.139
 6573SOL    HW120618   1.714   1.845   2.167
 6573SOL    HW220619   1.618   1.954   2.093
 6574SOL     OW20620   1.845   4.814   3.797
 6574SOL    HW120621   1.827   4.717   3.812
 6574SOL    HW220622   1.939   4.836   3.824
 6575SOL     OW20623   2.120   0.848   2.241
 6575SOL    HW120624   2.193   0.836   2.307
 6575SOL    HW220625   2.037   0.876   2.287
 6576SOL     OW20626   1.209   6.650   4.409
 6576SOL    HW120627   1.173   6.743   4.417
 6576SOL    HW220628   1.246   6.621   4.497
 6577SOL     OW20629   6.583   2.731   4.882
 6577SOL    HW120630   6.541   2.732   4.791
 6577SOL    HW220631   6.651   2.804   4.888
 6578SOL     OW20632   6.741   5.326   3.255
 6578SOL    HW120633   6.643   5.307   3.259
 6578SOL    HW220634   6.756   5.422   3.234
 6579SOL     OW20635   0.897   4.069   2.795
 6579SOL    HW120636   0.826   4.066   2.723
 6579SOL    HW220637   0.987   4.072   2.752
 6580SOL     OW20638   5.896   2.577   1.472
 6580SOL    HW120639   5.801   2.548   1.473
 6580SOL    HW220640   5.941   2.549   1.557
 6581SOL     OW20641   2.383   2.485   5.488
 6581SOL    HW120642   2.304   2.535   5.454
 6581SOL    HW220643   2.467   2.536   5.469
 6582SOL     OW20644   0.016   0.293   2.240
 6582SOL    HW120645   0.042   0.197   2.240
 6582SOL    HW220646   7.004   0.317   2.329
 6583SOL     OW20647   5.063   2.185   5.542
 6583SOL    HW120648   5.073   2.086   5.540
 6583SOL    HW220649   4.978   2.211   5.496
 6584SOL     OW20650   5.792   2.205   6.876
 6584SOL    HW120651   5.746   2.256   6.803
 6584SOL    HW220652   5.730   2.134   6.911
 6585SOL     OW20653   2.439   0.926   0.957
 6585SOL    HW120654   2.362   0.865   0.977
 6585SOL    HW220655   2.524   0.886   0.991
 6586SOL     OW20656   0.082   1.391   6.829
 6586SOL    HW120657   0.161   1.448   6.855
 6586SOL    HW220658   0.115   1.304   6.794
 6587SOL     OW20659   1.887   6.827   2.594
 6587SOL    HW120660   1.954   6.865   2.658
 6587SOL    HW220661   1.893   6.877   2.507
 6588SOL     OW20662   2.130   2.795   7.008
 6588SOL    HW120663   2.204   2.846   6.964
 6588SOL    HW220664   2.104   2.717   6.950
 6589SOL     OW20665   5.367   1.564   5.548
 6589SOL    HW120666   5.310   1.597   5.624
 6589SOL    HW220667   5.447   1.518   5.585
 6590SOL     OW20668   6.346   1.139   5.679
 6590SOL    HW120669   6.384   1.093   5.599
 6590SOL    HW220670   6.366   1.237   5.674
 6591SOL     OW20671   5.148   0.871   2.678
 6591SOL    HW120672   5.140   0.780   2.718
 6591SOL    HW220673   5.238   0.910   2.699
 6592SOL     OW20674   5.439   5.803   4.530
 6592SOL    HW120675   5.505   5.766   4.596
 6592SOL    HW220676   5.465   5.775   4.437
 6593SOL     OW20677   4.429   0.867   2.717
 6593SOL    HW120678   4.330   0.872   2.709
 6593SOL    HW220679   4.461   0.779   2.683
 6594SOL     OW20680   5.838   1.153   6.794
 6594SOL    HW120681   5.889   1.107   6.721
 6594SOL    HW220682   5.902   1.187   6.863
 6595SOL     OW20683   1.349   3.673   0.034
 6595SOL    HW120684   1.298   3.708   0.112
 6595SOL    HW220685   1.440   3.714   0.032
 6596SOL     OW20686   3.567   6.520   5.205
 6596SOL    HW120687   3.641   6.516   5.272
 6596SOL    HW220688   3.479   6.509   5.251
 6597SOL     OW20689   6.729   4.603   6.901
 6597SOL    HW120690   6.737   4.517   6.952
 6597SOL    HW220691   6.819   4.627   6.863
 6598SOL     OW20692   2.305   5.576   5.044
 6598SOL    HW120693   2.217   5.572   4.998
 6598SOL    HW220694   2.357   5.655   5.010
 6599SOL     OW20695   4.628   3.744   5.644
 6599SOL    HW120696   4.623   3.645   5.658
 6599SOL    HW220697   4.683   3.764   5.563
 6600SOL     OW20698   4.630   5.541   4.216
 6600SOL    HW120699   4.555   5.529   4.281
 6600SOL    HW220700   4.663   5.451   4.185
 6601SOL     OW20701   0.711   0.127   1.446
 6601SOL    HW120702   0.612   0.125   1.431
 6601SOL    HW220703   0.748   0.215   1.415
 6602SOL     OW20704   6.240   1.326   1.844
 6602SOL    HW120705   6.270   1.409   1.892
 6602SOL    HW220706   6.303   1.306   1.769
 6603SOL     OW20707   2.700   1.991   2.645
 6603SOL    HW120708   2.686   2.016   2.549
 6603SOL    HW220709   2.663   2.064   2.703
 6604SOL     OW20710   4.052   5.929   3.259
 6604SOL    HW120711   4.118   5.999   3.288
 6604SOL    HW220712   4.099   5.862   3.201
 6605SOL     OW20713   5.894   6.430   0.123
 6605SOL    HW120714   5.823   6.423   0.193
 6605SOL    HW220715   5.855   6.408   0.034
 6606SOL     OW20716   6.141   1.608   2.752
 6606SOL    HW120717   6.158   1.560   2.666
 6606SOL    HW220718   6.102   1.545   2.819
 6607SOL     OW20719   0.848   2.001   3.185
 6607SOL    HW120720   0.794   1.951   3.117
 6607SOL    HW220721   0.931   1.950   3.206
 6608SOL     OW20722   5.901   4.575   5.000
 6608SOL    HW120723   5.842   4.496   5.021
 6608SOL    HW220724   5.980   4.574   5.062
 6609SOL     OW20725   5.662   1.287   6.967
 6609SOL    HW120726   5.690   1.255   6.877
 6609SOL    HW220727   5.575   1.244   6.992
 6610SOL     OW20728   3.140   0.841   0.406
 6610SOL    HW120729   3.096   0.894   0.479
 6610SOL    HW220730   3.229   0.882   0.386
 6611SOL     OW20731   5.400   3.183   2.981
 6611SOL    HW120732   5.444   3.095   2.964
 6611SOL    HW220733   5.469   3.255   2.986
 6612SOL     OW20734   1.158   5.856   6.157
 6612SOL    HW120735   1.132   5.760   6.149
 6612SOL    HW220736   1.106   5.898   6.232
 6613SOL     OW20737   5.019   4.852   0.984
 6613SOL    HW120738   4.985   4.936   1.027
 6613SOL    HW220739   5.086   4.809   1.045
 6614SOL     OW20740   4.890   5.458   5.998
 6614SOL    HW120741   4.937   5.531   6.047
 6614SOL    HW220742   4.815   5.496   5.944
 6615SOL     OW20743   0.812   4.493   5.088
 6615SOL    HW120744   0.765   4.514   5.002
 6615SOL    HW220745   0.850   4.577   5.126
 6616SOL     OW20746   4.856   0.500   4.490
 6616SOL    HW120747   4.837   0.572   4.556
 6616SOL    HW220748   4.813   0.521   4.403
 6617SOL     OW20749   4.645   6.922   5.200
 6617SOL    HW120750   4.593   6.936   5.283
 6617SOL    HW220751   4.717   6.854   5.217
 6618SOL     OW20752   0.511   5.273   1.233
 6618SOL    HW120753   0.600   5.234   1.254
 6618SOL    HW220754   0.517   5.373   1.238
 6619SOL     OW20755   6.672   6.382   1.769
 6619SOL    HW120756   6.701   6.289   1.791
 6619SOL    HW220757   6.632   6.383   1.677
 6620SOL     OW20758   4.107   3.117   5.793
 6620SOL    HW120759   4.108   3.204   5.744
 6620SOL    HW220760   4.025   3.065   5.767
 6621SOL     OW20761   2.339   3.750   0.269
 6621SOL    HW120762   2.268   3.761   0.201
 6621SOL    HW220763   2.309   3.685   0.339
 6622SOL     OW20764   6.190   6.665   0.775
 6622SOL    HW120765   6.147   6.602   0.711
 6622SOL    HW220766   6.244   6.613   0.842
 6623SOL     OW20767   3.565   3.759   2.434
 6623SOL    HW120768   3.632   3.811   2.486
 6623SOL    HW220769   3.530   3.814   2.359
 6624SOL     OW20770   4.593   5.247   3.776
 6624SOL    HW120771   4.498   5.255   3.808
 6624SOL    HW220772   4.634   5.337   3.770
 6625SOL     OW20773   5.820   0.180   6.821
 6625SOL    HW120774   5.845   0.182   6.724
 6625SOL    HW220775   5.734   0.231   6.834
 6626SOL     OW20776   3.076   5.375   3.558
 6626SOL    HW120777   3.026   5.293   3.532
 6626SOL    HW220778   3.064   5.445   3.487
 6627SOL     OW20779   2.023   5.872   1.666
 6627SOL    HW120780   2.009   5.957   1.717
 6627SOL    HW220781   2.121   5.858   1.650
 6628SOL     OW20782   3.914   5.995   3.566
 6628SOL    HW120783   3.939   6.083   3.526
 6628SOL    HW220784   3.830   5.962   3.524
 6629SOL     OW20785   3.530   3.445   0.455
 6629SOL    HW120786   3.527   3.511   0.380
 6629SOL    HW220787   3.626   3.425   0.477
 6630SOL     OW20788   2.721   1.875   5.991
 6630SOL    HW120789   2.789   1.937   5.951
 6630SOL    HW220790   2.768   1.802   6.040
 6631SOL     OW20791   4.550   0.614   1.879
 6631SOL    HW120792   4.564   0.704   1.920
 6631SOL    HW220793   4.482   0.621   1.806
 6632SOL     OW20794   6.702   2.623   2.420
 6632SOL    HW120795   6.797   2.652   2.428
 6632SOL    HW220796   6.668   2.593   2.509
 6633SOL     OW20797   0.197   0.362   1.383
 6633SOL    HW120798   0.122   0.319   1.434
 6633SOL    HW220799   0.232   0.440   1.434
 6634SOL     OW20800   6.773   2.753   5.901
 6634SOL    HW120801   6.788   2.850   5.921
 6634SOL    HW220802   6.790   2.699   5.983
 6635SOL     OW20803   4.613   4.690   3.110
 6635SOL    HW120804   4.602   4.591   3.110
 6635SOL    HW220805   4.579   4.728   3.024
 6636SOL     OW20806   1.935   2.904   3.650
 6636SOL    HW120807   1.883   2.863   3.725
 6636SOL    HW220808   2.021   2.855   3.639
 6637SOL     OW20809   6.554   1.520   1.506
 6637SOL    HW120810   6.555   1.445   1.439
 6637SOL    HW220811   6.629   1.508   1.571
 6638SOL     OW20812   2.563   6.335   6.030
 6638SOL    HW120813   2.516   6.284   6.103
 6638SOL    HW220814   2.495   6.375   5.969
 6639SOL     OW20815   5.206   5.770   6.493
 6639SOL    HW120816   5.180   5.847   6.435
 6639SOL    HW220817   5.189   5.684   6.444
 6640SOL     OW20818   5.903   3.004   4.118
 6640SOL    HW120819   5.843   3.077   4.086
 6640SOL    HW220820   5.860   2.915   4.103
 6641SOL     OW20821   2.073   4.849   0.028
 6641SOL    HW120822   1.984   4.835   0.072
 6641SOL    HW220823   2.062   4.841   6.955
 6642SOL     OW20824   6.541   6.752   0.238
 6642SOL    HW120825   6.467   6.721   0.297
 6642SOL    HW220826   6.629   6.724   0.277
 6643SOL     OW20827   4.022   5.824   0.092
 6643SOL    HW120828   4.011   5.785   0.001
 6643SOL    HW220829   4.077   5.908   0.086
 6644SOL     OW20830   2.346   4.592   1.957
 6644SOL    HW120831   2.328   4.691   1.956
 6644SOL    HW220832   2.428   4.574   2.012
 6645SOL     OW20833   6.750   4.645   5.103
 6645SOL    HW120834   6.817   4.643   5.029
 6645SOL    HW220835   6.790   4.691   5.183
 6646SOL     OW20836   1.662   6.266   3.690
 6646SOL    HW120837   1.721   6.238   3.614
 6646SOL    HW220838   1.567   6.262   3.661
 6647SOL     OW20839   4.114   1.898   2.455
 6647SOL    HW120840   4.090   1.989   2.421
 6647SOL    HW220841   4.110   1.833   2.380
 6648SOL     OW20842   4.637   5.718   1.654
 6648SOL    HW120843   4.702   5.646   1.675
 6648SOL    HW220844   4.677   5.807   1.676
 6649SOL     OW20845   3.927   2.129   6.649
 6649SOL    HW120846   3.851   2.077   6.610
 6649SOL    HW220847   3.891   2.200   6.710
 6650SOL     OW20848   2.862   1.953   3.110
 6650SOL    HW120849   2.845   1.854   3.109
 6650SOL    HW220850   2.776   2.002   3.098
 6651SOL     OW20851   1.436   2.493   0.065
 6651SOL    HW120852   1.469   2.406   0.030
 6651SOL    HW220853   1.488   2.568   0.025
 6652SOL     OW20854   0.528   5.741   3.285
 6652SOL    HW120855   0.540   5.802   3.363
 6652SOL    HW220856   0.526   5.646   3.316
 6653SOL     OW20857   3.366   3.502   3.663
 6653SOL    HW120858   3.298   3.484   3.734
 6653SOL    HW220859   3.322   3.540   3.582
 6654SOL     OW20860   2.054   3.562   1.847
 6654SOL    HW120861   1.996   3.481   1.843
 6654SOL    HW220862   2.121   3.552   1.921
 6655SOL     OW20863   2.127   0.148   0.690
 6655SOL    HW120864   2.108   0.195   0.776
 6655SOL    HW220865   2.074   0.063   0.685
 6656SOL     OW20866   6.980   2.247   1.319
 6656SOL    HW120867   6.975   2.278   1.223
 6656SOL    HW220868   6.888   2.246   1.358
 6657SOL     OW20869   3.035   4.896   5.923
 6657SOL    HW120870   3.000   4.826   5.862
 6657SOL    HW220871   3.085   4.853   5.999
 6658SOL     OW20872   5.294   0.159   5.655
 6658SOL    HW120873   5.202   0.195   5.635
 6658SOL    HW220874   5.325   0.105   5.577
 6659SOL     OW20875   1.462   3.077   6.612
 6659SOL    HW120876   1.509   2.990   6.597
 6659SOL    HW220877   1.413   3.104   6.529
 6660SOL     OW20878   0.601   0.134   2.713
 6660SOL    HW120879   0.623   0.226   2.680
 6660SOL    HW220880   0.684   0.079   2.716
 6661SOL     OW20881   0.157   5.742   3.438
 6661SOL    HW120882   0.184   5.761   3.343
 6661SOL    HW220883   0.206   5.661   3.471
 6662SOL     OW20884   0.975   3.776   5.852
 6662SOL    HW120885   0.975   3.867   5.811
 6662SOL    HW220886   1.069   3.742   5.858
 6663SOL     OW20887   0.289   5.199   2.184
 6663SOL    HW120888   0.380   5.163   2.169
 6663SOL    HW220889   0.236   5.135   2.239
 6664SOL     OW20890   0.404   1.924   3.666
 6664SOL    HW120891   0.316   1.910   3.621
 6664SOL    HW220892   0.477   1.921   3.598
 6665SOL     OW20893   2.758   6.655   2.543
 6665SOL    HW120894   2.839   6.617   2.588
 6665SOL    HW220895   2.683   6.589   2.546
 6666SOL     OW20896   5.982   0.522   0.534
 6666SOL    HW120897   6.057   0.503   0.471
 6666SOL    HW220898   6.004   0.602   0.590
 6667SOL     OW20899   6.801   4.970   4.390
 6667SOL    HW120900   6.839   5.045   4.337
 6667SOL    HW220901   6.859   4.953   4.470
 6668SOL     OW20902   0.232   6.512   1.396
 6668SOL    HW120903   0.272   6.540   1.484
 6668SOL    HW220904   0.175   6.431   1.409
 6669SOL     OW20905   1.473   5.503   2.875
 6669SOL    HW120906   1.545   5.516   2.943
 6669SOL    HW220907   1.513   5.474   2.789
 6670SOL     OW20908   3.200   4.679   0.531
 6670SOL    HW120909   3.121   4.655   0.588
 6670SOL    HW220910   3.178   4.663   0.435
 6671SOL     OW20911   0.548   2.703   5.531
 6671SOL    HW120912   0.541   2.651   5.616
 6671SOL    HW220913   0.608   2.654   5.467
 6672SOL     OW20914   0.825   0.637   5.565
 6672SOL    HW120915   0.827   0.735   5.546
 6672SOL    HW220916   0.895   0.591   5.510
 6673SOL     OW20917   5.334   5.219   1.610
 6673SOL    HW120918   5.343   5.278   1.691
 6673SOL    HW220919   5.341   5.124   1.639
 6674SOL     OW20920   0.779   0.196   4.766
 6674SOL    HW120921   0.744   0.277   4.814
 6674SOL    HW220922   0.820   0.224   4.679
 6675SOL     OW20923   0.198   5.895   0.504
 6675SOL    HW120924   0.107   5.854   0.501
 6675SOL    HW220925   0.245   5.879   0.418
 6676SOL     OW20926   1.130   2.125   0.106
 6676SOL    HW120927   1.148   2.221   0.083
 6676SOL    HW220928   1.096   2.078   0.025
 6677SOL     OW20929   6.499   3.908   0.064
 6677SOL    HW120930   6.527   3.825   0.016
 6677SOL    HW220931   6.550   3.986   0.028
 6678SOL     OW20932   0.845   2.947   4.435
 6678SOL    HW120933   0.836   2.954   4.534
 6678SOL    HW220934   0.824   3.035   4.393
 6679SOL     OW20935   1.735   1.170   4.080
 6679SOL    HW120936   1.698   1.220   4.158
 6679SOL    HW220937   1.721   1.072   4.093
 6680SOL     OW20938   2.124   6.751   6.109
 6680SOL    HW120939   2.096   6.661   6.074
 6680SOL    HW220940   2.223   6.757   6.110
 6681SOL     OW20941   5.922   5.562   0.339
 6681SOL    HW120942   5.975   5.480   0.359
 6681SOL    HW220943   5.909   5.571   0.241
 6682SOL     OW20944   0.229   5.606   2.484
 6682SOL    HW120945   0.305   5.647   2.534
 6682SOL    HW220946   0.262   5.530   2.429
 6683SOL     OW20947   5.347   1.620   4.095
 6683SOL    HW120948   5.335   1.649   4.000
 6683SOL    HW220949   5.444   1.622   4.118
 6684SOL     OW20950   2.199   0.599   2.126
 6684SOL    HW120951   2.152   0.517   2.158
 6684SOL    HW220952   2.159   0.679   2.172
 6685SOL     OW20953   5.506   3.761   6.392
 6685SOL    HW120954   5.443   3.810   6.452
 6685SOL    HW220955   5.468   3.670   6.373
 6686SOL     OW20956   5.311   3.947   4.070
 6686SOL    HW120957   5.275   3.857   4.092
 6686SOL    HW220958   5.398   3.938   4.021
 6687SOL     OW20959   0.984   1.180   0.190
 6687SOL    HW120960   1.026   1.220   0.109
 6687SOL    HW220961   0.886   1.199   0.189
 6688SOL     OW20962   0.714   5.184   3.374
 6688SOL    HW120963   0.712   5.120   3.297
 6688SOL    HW220964   0.807   5.191   3.408
 6689SOL     OW20965   4.366   4.934   0.303
 6689SOL    HW120966   4.329   4.844   0.278
 6689SOL    HW220967   4.305   5.006   0.269
 6690SOL     OW20968   1.041   1.920   0.525
 6690SOL    HW120969   1.084   1.850   0.583
 6690SOL    HW220970   1.082   2.009   0.544
 6691SOL     OW20971   1.754   5.524   0.923
 6691SOL    HW120972   1.781   5.429   0.907
 6691SOL    HW220973   1.832   5.584   0.906
 6692SOL     OW20974   3.436   4.198   6.015
 6692SOL    HW120975   3.423   4.099   6.006
 6692SOL    HW220976   3.499   4.216   6.090
 6693SOL     OW20977   4.129   3.753   4.959
 6693SOL    HW120978   4.132   3.717   5.052
 6693SOL    HW220979   4.117   3.853   4.963
 6694SOL     OW20980   3.025   5.924   0.076
 6694SOL    HW120981   3.001   6.019   0.055
 6694SOL    HW220982   3.018   5.909   0.174
 6695SOL     OW20983   1.599   1.471   6.736
 6695SOL    HW120984   1.509   1.441   6.703
 6695SOL    HW220985   1.639   1.535   6.670
 6696SOL     OW20986   2.080   3.284   1.929
 6696SOL    HW120987   2.145   3.357   1.946
 6696SOL    HW220988   2.082   3.219   2.006
 6697SOL     OW20989   5.548   2.156   3.383
 6697SOL    HW120990   5.603   2.116   3.310
 6697SOL    HW220991   5.461   2.189   3.344
 6698SOL     OW20992   3.246   4.224   0.525
 6698SOL    HW120993   3.273   4.262   0.613
 6698SOL    HW220994   3.147   4.236   0.513
 6699SOL     OW20995   1.522   3.549   6.548
 6699SOL    HW120996   1.448   3.485   6.568
 6699SOL    HW220997   1.493   3.614   6.478
 6700SOL     OW20998   6.542   6.708   6.470
 6700SOL    HW120999   6.615   6.651   6.432
 6700SOL    HW221000   6.577   6.761   6.546
 6701SOL     OW21001   0.686   2.308   0.982
 6701SOL    HW121002   0.630   2.302   1.065
 6701SOL    HW221003   0.681   2.400   0.945
 6702SOL     OW21004   1.548   2.770   0.942
 6702SOL    HW121005   1.522   2.865   0.958
 6702SOL    HW221006   1.620   2.744   1.007
 6703SOL     OW21007   0.350   2.232   6.747
 6703SOL    HW121008   0.424   2.298   6.734
 6703SOL    HW221009   0.388   2.139   6.750
 6704SOL     OW21010   5.183   1.971   3.310
 6704SOL    HW121011   5.159   1.961   3.407
 6704SOL    HW221012   5.118   2.032   3.266
 6705SOL     OW21013   6.315   0.949   0.369
 6705SOL    HW121014   6.293   1.042   0.337
 6705SOL    HW221015   6.241   0.887   0.344
 6706SOL     OW21016   0.953   5.336   6.914
 6706SOL    HW121017   0.896   5.305   6.838
 6706SOL    HW221018   0.967   5.435   6.907
 6707SOL     OW21019   0.996   5.656   2.521
 6707SOL    HW121020   0.982   5.729   2.454
 6707SOL    HW221021   0.943   5.575   2.495
 6708SOL     OW21022   2.554   5.847   1.414
 6708SOL    HW121023   2.531   5.761   1.461
 6708SOL    HW221024   2.579   5.828   1.320
 6709SOL     OW21025   5.838   1.725   3.033
 6709SOL    HW121026   5.819   1.758   2.940
 6709SOL    HW221027   5.863   1.628   3.029
 6710SOL     OW21028   1.963   1.926   0.979
 6710SOL    HW121029   2.001   1.838   0.951
 6710SOL    HW221030   1.877   1.942   0.929
 6711SOL     OW21031   4.479   3.516   0.313
 6711SOL    HW121032   4.510   3.425   0.342
 6711SOL    HW221033   4.397   3.506   0.257
 6712SOL     OW21034   3.224   6.228   1.192
 6712SOL    HW121035   3.185   6.320   1.183
 6712SOL    HW221036   3.236   6.189   1.101
 6713SOL     OW21037   1.682   1.513   2.477
 6713SOL    HW121038   1.722   1.604   2.487
 6713SOL    HW221039   1.755   1.446   2.469
 6714SOL     OW21040   6.687   0.516   3.490
 6714SOL    HW121041   6.608   0.456   3.476
 6714SOL    HW221042   6.667   0.581   3.563
 6715SOL     OW21043   0.325   1.846   0.762
 6715SOL    HW121044   0.293   1.754   0.740
 6715SOL    HW221045   0.296   1.910   0.691
 6716SOL     OW21046   2.756   5.505   0.257
 6716SOL    HW121047   2.810   5.497   0.173
 6716SOL    HW221048   2.667   5.546   0.235
 6717SOL     OW21049   3.854   1.772   6.525
 6717SOL    HW121050   3.951   1.791   6.537
 6717SOL    HW221051   3.801   1.826   6.591
 6718SOL     OW21052   3.323   6.496   0.146
 6718SOL    HW121053   3.263   6.575   0.153
 6718SOL    HW221054   3.343   6.462   0.238
 6719SOL     OW21055   0.317   0.328   5.636
 6719SOL    HW121056   0.372   0.318   5.719
 6719SOL    HW221057   0.374   0.312   5.556
 6720SOL     OW21058   1.744   4.672   1.457
 6720SOL    HW121059   1.765   4.657   1.360
 6720SOL    HW221060   1.785   4.758   1.487
 6721SOL     OW21061   6.396   6.312   3.145
 6721SOL    HW121062   6.309   6.359   3.139
 6721SOL    HW221063   6.470   6.375   3.123
 6722SOL     OW21064   5.130   4.524   6.944
 6722SOL    HW121065   5.110   4.469   6.863
 6722SOL    HW221066   5.093   4.478   7.025
 6723SOL     OW21067   4.574   0.370   3.055
 6723SOL    HW121068   4.617   0.295   3.106
 6723SOL    HW221069   4.619   0.380   2.966
 6724SOL     OW21070   3.499   4.700   5.578
 6724SOL    HW121071   3.450   4.780   5.612
 6724SOL    HW221072   3.484   4.690   5.480
 6725SOL     OW21073   0.031   4.936   1.957
 6725SOL    HW121074   0.114   4.900   2.000
 6725SOL    HW221075   0.017   4.891   1.870
 6726SOL     OW21076   2.442   2.664   2.034
 6726SOL    HW121077   2.401   2.584   1.989
 6726SOL    HW221078   2.369   2.726   2.063
 6727SOL     OW21079   3.653   3.867   0.416
 6727SOL    HW121080   3.603   3.952   0.405
 6727SOL    HW221081   3.746   3.877   0.379
 6728SOL     OW21082   4.789   1.608   4.310
 6728SOL    HW121083   4.806   1.548   4.232
 6728SOL    HW221084   4.744   1.691   4.278
 6729SOL     OW21085   5.608   6.021   2.851
 6729SOL    HW121086   5.668   6.002   2.773
 6729SOL    HW221087   5.663   6.037   2.933
 6730SOL     OW21088   1.264   0.322   2.045
 6730SOL    HW121089   1.314   0.333   2.131
 6730SOL    HW221090   1.181   0.378   2.048
 6731SOL     OW21091   2.338   4.332   1.884
 6731SOL    HW121092   2.343   4.430   1.902
 6731SOL    HW221093   2.297   4.286   1.962
 6732SOL     OW21094   1.904   4.845   0.945
 6732SOL    HW121095   1.906   4.905   1.025
 6732SOL    HW221096   1.979   4.780   0.950
 6733SOL     OW21097   6.143   5.875   4.531
 6733SOL    HW121098   6.237   5.842   4.522
 6733SOL    HW221099   6.107   5.848   4.621
 6734SOL     OW21100   2.852   3.453   5.199
 6734SOL    HW121101   2.873   3.367   5.152
 6734SOL    HW221102   2.770   3.440   5.255
 6735SOL     OW21103   0.042   5.690   6.195
 6735SOL    HW121104   0.007   5.720   6.106
 6735SOL    HW221105   0.080   5.598   6.186
 6736SOL     OW21106   2.067   3.789   2.747
 6736SOL    HW121107   2.146   3.850   2.749
 6736SOL    HW221108   2.026   3.791   2.656
 6737SOL     OW21109   2.018   0.168   1.209
 6737SOL    HW121110   2.004   0.074   1.242
 6737SOL    HW221111   2.058   0.223   1.281
 6738SOL     OW21112   4.332   1.268   1.698
 6738SOL    HW121113   4.353   1.350   1.645
 6738SOL    HW221114   4.234   1.266   1.719
 6739SOL     OW21115   4.589   0.446   4.699
 6739SOL    HW121116   4.571   0.360   4.653
 6739SOL    HW221117   4.571   0.436   4.797
 6740SOL     OW21118   5.787   3.394   5.410
 6740SOL    HW121119   5.744   3.438   5.489
 6740SOL    HW221120   5.754   3.300   5.403
 6741SOL     OW21121   6.907   6.840   5.881
 6741SOL    HW121122   6.860   6.897   5.814
 6741SOL    HW221123   6.916   6.747   5.844
 6742SOL     OW21124   6.205   5.936   4.871
 6742SOL    HW121125   6.136   5.950   4.941
 6742SOL    HW221126   6.275   6.006   4.878
 6743SOL     OW21127   5.246   2.477   0.952
 6743SOL    HW121128   5.277   2.486   1.046
 6743SOL    HW221129   5.190   2.557   0.927
 6744SOL     OW21130   5.239   5.509   5.213
 6744SOL    HW121131   5.305   5.435   5.224
 6744SOL    HW221132   5.175   5.509   5.289
 6745SOL     OW21133   0.840   3.615   2.942
 6745SOL    HW121134   0.911   3.545   2.946
 6745SOL    HW221135   0.768   3.585   2.878
 6746SOL     OW21136   6.941   1.030   1.085
 6746SOL    HW121137   6.857   1.068   1.046
 6746SOL    HW221138   6.923   0.941   1.125
 6747SOL     OW21139   4.841   6.565   6.908
 6747SOL    HW121140   4.899   6.564   6.826
 6747SOL    HW221141   4.878   6.500   6.975
 6748SOL     OW21142   0.238   6.781   2.032
 6748SOL    HW121143   0.256   6.766   2.129
 6748SOL    HW221144   0.217   6.877   2.016
 6749SOL     OW21145   3.614   5.973   0.983
 6749SOL    HW121146   3.524   5.989   0.944
 6749SOL    HW221147   3.684   5.990   0.914
 6750SOL     OW21148   2.429   3.087   5.466
 6750SOL    HW121149   2.396   3.178   5.493
 6750SOL    HW221150   2.429   3.080   5.367
 6751SOL     OW21151   2.965   2.017   5.940
 6751SOL    HW121152   2.988   1.944   6.005
 6751SOL    HW221153   3.018   2.099   5.962
 6752SOL     OW21154   5.946   2.168   0.782
 6752SOL    HW121155   5.886   2.127   0.713
 6752SOL    HW221156   6.005   2.098   0.821
 6753SOL     OW21157   5.830   1.689   6.468
 6753SOL    HW121158   5.821   1.648   6.377
 6753SOL    HW221159   5.849   1.617   6.535
 6754SOL     OW21160   4.893   1.485   6.966
 6754SOL    HW121161   4.989   1.460   6.957
 6754SOL    HW221162   4.880   1.579   6.935
 6755SOL     OW21163   5.164   1.930   3.579
 6755SOL    HW121164   5.125   2.014   3.618
 6755SOL    HW221165   5.124   1.850   3.624
 6756SOL     OW21166   5.021   4.223   3.609
 6756SOL    HW121167   4.978   4.284   3.675
 6756SOL    HW221168   5.014   4.129   3.641
 6757SOL     OW21169   5.896   5.071   1.723
 6757SOL    HW121170   5.827   5.081   1.651
 6757SOL    HW221171   5.982   5.040   1.683
 6758SOL     OW21172   5.885   1.425   3.042
 6758SOL    HW121173   5.968   1.403   2.990
 6758SOL    HW221174   5.845   1.341   3.079
 6759SOL     OW21175   1.077   4.580   3.820
 6759SOL    HW121176   1.043   4.636   3.895
 6759SOL    HW221177   1.167   4.543   3.844
 6760SOL     OW21178   0.484   4.233   5.567
 6760SOL    HW121179   0.580   4.255   5.557
 6760SOL    HW221180   0.460   4.235   5.665
 6761SOL     OW21181   6.064   3.399   6.352
 6761SOL    HW121182   6.082   3.452   6.434
 6761SOL    HW221183   6.148   3.354   6.322
 6762SOL     OW21184   6.552   4.400   3.119
 6762SOL    HW121185   6.515   4.307   3.114
 6762SOL    HW221186   6.481   4.465   3.093
 6763SOL     OW21187   6.663   6.517   5.229
 6763SOL    HW121188   6.608   6.467   5.163
 6763SOL    HW221189   6.700   6.600   5.186
 6764SOL     OW21190   1.590   3.137   6.903
 6764SOL    HW121191   1.539   3.074   6.960
 6764SOL    HW221192   1.536   3.161   6.822
 6765SOL     OW21193   4.996   5.133   2.799
 6765SOL    HW121194   4.950   5.209   2.753
 6765SOL    HW221195   5.044   5.077   2.730
 6766SOL     OW21196   1.852   1.841   5.670
 6766SOL    HW121197   1.923   1.824   5.738
 6766SOL    HW221198   1.883   1.808   5.581
 6767SOL     OW21199   0.813   2.709   5.842
 6767SOL    HW121200   0.749   2.772   5.798
 6767SOL    HW221201   0.817   2.729   5.940
 6768SOL     OW21202   6.615   1.616   5.824
 6768SOL    HW121203   6.565   1.538   5.788
 6768SOL    HW221204   6.710   1.591   5.841
 6769SOL     OW21205   0.950   2.526   6.894
 6769SOL    HW121206   0.984   2.619   6.881
 6769SOL    HW221207   0.990   2.466   6.824
 6770SOL     OW21208   6.626   1.317   4.840
 6770SOL    HW121209   6.655   1.370   4.760
 6770SOL    HW221210   6.585   1.379   4.907
 6771SOL     OW21211   5.174   1.581   2.400
 6771SOL    HW121212   5.154   1.484   2.385
 6771SOL    HW221213   5.226   1.616   2.322
 6772SOL     OW21214   1.185   0.660   1.617
 6772SOL    HW121215   1.143   0.747   1.645
 6772SOL    HW221216   1.284   0.666   1.631
 6773SOL     OW21217   1.536   0.467   2.034
 6773SOL    HW121218   1.533   0.560   2.071
 6773SOL    HW221219   1.465   0.456   1.965
 6774SOL     OW21220   3.475   1.434   5.874
 6774SOL    HW121221   3.378   1.438   5.848
 6774SOL    HW221222   3.515   1.349   5.842
 6775SOL     OW21223   1.266   2.848   4.700
 6775SOL    HW121224   1.192   2.800   4.746
 6775SOL    HW221225   1.354   2.819   4.739
 6776SOL     OW21226   2.995   3.549   4.075
 6776SOL    HW121227   2.900   3.521   4.060
 6776SOL    HW221228   3.007   3.572   4.171
 6777SOL     OW21229   0.523   0.031   5.973
 6777SOL    HW121230   0.587   6.985   5.950
 6777SOL    HW221231   0.429   0.002   5.954
 6778SOL     OW21232   6.749   6.120   2.625
 6778SOL    HW121233   6.687   6.066   2.568
 6778SOL    HW221234   6.834   6.068   2.640
 6779SOL     OW21235   4.428   4.875   6.857
 6779SOL    HW121236   4.398   4.806   6.924
 6779SOL    HW221237   4.460   4.956   6.905
 6780SOL     OW21238   4.359   0.114   3.063
 6780SOL    HW121239   4.360   0.064   3.149
 6780SOL    HW221240   4.433   0.182   3.063
 6781SOL     OW21241   6.588   3.301   3.184
 6781SOL    HW121242   6.675   3.336   3.149
 6781SOL    HW221243   6.592   3.297   3.284
 6782SOL     OW21244   0.565   1.433   3.759
 6782SOL    HW121245   0.545   1.527   3.786
 6782SOL    HW221246   0.629   1.433   3.683
 6783SOL     OW21247   0.626   6.340   6.127
 6783SOL    HW121248   0.656   6.386   6.211
 6783SOL    HW221249   0.698   6.278   6.096
 6784SOL     OW21250   1.509   4.429   0.821
 6784SOL    HW121251   1.548   4.406   0.732
 6784SOL    HW221252   1.451   4.510   0.811
 6785SOL     OW21253   5.438   4.733   2.007
 6785SOL    HW121254   5.374   4.793   1.957
 6785SOL    HW221255   5.402   4.716   2.099
 6786SOL     OW21256   6.402   1.927   5.366
 6786SOL    HW121257   6.305   1.952   5.354
 6786SOL    HW221258   6.459   1.993   5.318
 6787SOL     OW21259   3.243   1.227   0.747
 6787SOL    HW121260   3.178   1.291   0.706
 6787SOL    HW221261   3.249   1.244   0.845
 6788SOL     OW21262   0.759   4.184   1.619
 6788SOL    HW121263   0.706   4.246   1.561
 6788SOL    HW221264   0.825   4.135   1.563
 6789SOL     OW21265   5.642   4.077   2.453
 6789SOL    HW121266   5.579   4.121   2.517
 6789SOL    HW221267   5.589   4.021   2.389
 6790SOL     OW21268   0.978   5.891   0.806
 6790SOL    HW121269   0.889   5.929   0.782
 6790SOL    HW221270   1.043   5.908   0.732
 6791SOL     OW21271   2.797   6.409   4.040
 6791SOL    HW121272   2.724   6.379   3.979
 6791SOL    HW221273   2.886   6.395   3.997
 6792SOL     OW21274   3.381   6.250   6.538
 6792SOL    HW121275   3.416   6.303   6.614
 6792SOL    HW221276   3.417   6.286   6.452
 6793SOL     OW21277   3.018   3.785   6.721
 6793SOL    HW121278   3.075   3.867   6.719
 6793SOL    HW221279   2.943   3.797   6.786
 6794SOL     OW21280   5.261   2.658   4.409
 6794SOL    HW121281   5.167   2.649   4.376
 6794SOL    HW221282   5.316   2.704   4.339
 6795SOL     OW21283   0.659   0.925   1.693
 6795SOL    HW121284   0.744   0.891   1.734
 6795SOL    HW221285   0.583   0.905   1.755
 6796SOL     OW21286   6.633   2.670   2.180
 6796SOL    HW121287   6.654   2.596   2.116
 6796SOL    HW221288   6.665   2.645   2.272
 6797SOL     OW21289   2.104   3.398   1.296
 6797SOL    HW121290   2.118   3.494   1.318
 6797SOL    HW221291   2.013   3.385   1.256
 6798SOL     OW21292   4.799   0.863   2.165
 6798SOL    HW121293   4.861   0.816   2.102
 6798SOL    HW221294   4.834   0.854   2.258
 6799SOL     OW21295   5.950   6.742   2.782
 6799SOL    HW121296   5.911   6.721   2.692
 6799SOL    HW221297   6.049   6.732   2.778
 6800SOL     OW21298   6.973   3.201   2.408
 6800SOL    HW121299   6.951   3.188   2.505
 6800SOL    HW221300   6.894   3.242   2.362
 6801SOL     OW21301   1.868   4.855   5.209
 6801SOL    HW121302   1.917   4.897   5.285
 6801SOL    HW221303   1.845   4.760   5.233
 6802SOL     OW21304   2.665   4.775   1.855
 6802SOL    HW121305   2.595   4.732   1.797
 6802SOL    HW221306   2.705   4.707   1.915
 6803SOL     OW21307   5.346   5.426   6.787
 6803SOL    HW121308   5.267   5.374   6.820
 6803SOL    HW221309   5.406   5.446   6.864
 6804SOL     OW21310   3.148   5.360   1.839
 6804SOL    HW121311   3.225   5.350   1.775
 6804SOL    HW221312   3.112   5.453   1.833
 6805SOL     OW21313   0.617   4.644   3.674
 6805SOL    HW121314   0.597   4.655   3.577
 6805SOL    HW221315   0.583   4.555   3.705
 6806SOL     OW21316   5.825   3.635   2.571
 6806SOL    HW121317   5.877   3.555   2.542
 6806SOL    HW221318   5.767   3.610   2.648
 6807SOL     OW21319   3.052   3.945   2.269
 6807SOL    HW121320   2.976   3.923   2.207
 6807SOL    HW221321   3.043   3.891   2.352
 6808SOL     OW21322   3.422   0.065   3.082
 6808SOL    HW121323   3.382   7.016   3.031
 6808SOL    HW221324   3.384   0.068   3.174
 6809SOL     OW21325   5.812   2.353   0.940
 6809SOL    HW121326   5.849   2.286   0.876
 6809SOL    HW221327   5.840   2.330   1.033
 6810SOL     OW21328   2.666   0.404   4.312
 6810SOL    HW121329   2.684   0.394   4.214
 6810SOL    HW221330   2.640   0.315   4.350
 6811SOL     OW21331   6.487   1.315   0.968
 6811SOL    HW121332   6.457   1.357   0.882
 6811SOL    HW221333   6.414   1.324   1.036
 6812SOL     OW21334   3.324   4.527   5.311
 6812SOL    HW121335   3.252   4.595   5.328
 6812SOL    HW221336   3.292   4.437   5.340
 6813SOL     OW21337   0.327   4.066   1.949
 6813SOL    HW121338   0.382   4.093   2.028
 6813SOL    HW221339   0.379   4.004   1.891
 6814SOL     OW21340   4.724   1.466   1.731
 6814SOL    HW121341   4.801   1.495   1.786
 6814SOL    HW221342   4.690   1.378   1.764
 6815SOL     OW21343   0.602   6.164   6.883
 6815SOL    HW121344   0.567   6.076   6.917
 6815SOL    HW221345   0.663   6.204   6.952
 6816SOL     OW21346   6.438   0.401   3.679
 6816SOL    HW121347   6.471   0.378   3.771
 6816SOL    HW221348   6.348   0.444   3.685
 6817SOL     OW21349   5.285   0.920   1.960
 6817SOL    HW121350   5.381   0.944   1.946
 6817SOL    HW221351   5.278   0.827   1.996
 6818SOL     OW21352   0.558   0.589   5.295
 6818SOL    HW121353   0.530   0.619   5.386
 6818SOL    HW221354   0.602   0.499   5.301
 6819SOL     OW21355   5.197   3.956   1.300
 6819SOL    HW121356   5.237   3.939   1.389
 6819SOL    HW221357   5.212   4.052   1.274
 6820SOL     OW21358   2.662   4.137   1.534
 6820SOL    HW121359   2.625   4.158   1.624
 6820SOL    HW221360   2.654   4.217   1.475
 6821SOL     OW21361   3.182   3.076   6.063
 6821SOL    HW121362   3.092   3.085   6.020
 6821SOL    HW221363   3.217   2.984   6.046
 6822SOL     OW21364   6.090   3.804   5.390
 6822SOL    HW121365   6.092   3.852   5.477
 6822SOL    HW221366   5.996   3.779   5.368
 6823SOL     OW21367   0.072   3.132   5.621
 6823SOL    HW121368   0.085   3.094   5.712
 6823SOL    HW221369   0.003   3.079   5.572
 6824SOL     OW21370   0.885   0.967   4.432
 6824SOL    HW121371   0.953   0.895   4.432
 6824SOL    HW221372   0.835   0.965   4.345
 6825SOL     OW21373   4.140   4.421   1.210
 6825SOL    HW121374   4.202   4.494   1.240
 6825SOL    HW221375   4.110   4.438   1.117
 6826SOL     OW21376   5.435   0.733   3.553
 6826SOL    HW121377   5.516   0.709   3.607
 6826SOL    HW221378   5.461   0.799   3.483
 6827SOL     OW21379   4.945   6.023   5.589
 6827SOL    HW121380   4.957   5.924   5.599
 6827SOL    HW221381   4.890   6.041   5.508
 6828SOL     OW21382   2.860   2.255   2.545
 6828SOL    HW121383   2.949   2.212   2.529
 6828SOL    HW221384   2.798   2.233   2.471
 6829SOL     OW21385   5.445   6.167   4.291
 6829SOL    HW121386   5.357   6.120   4.279
 6829SOL    HW221387   5.452   6.241   4.224
 6830SOL     OW21388   3.863   6.152   2.198
 6830SOL    HW121389   3.962   6.140   2.192
 6830SOL    HW221390   3.821   6.122   2.113
 6831SOL     OW21391   1.495   0.930   6.977
 6831SOL    HW121392   1.403   0.902   6.950
 6831SOL    HW221393   1.557   0.923   6.899
 6832SOL     OW21394   2.654   2.906   0.079
 6832SOL    HW121395   2.677   2.817   0.040
 6832SOL    HW221396   2.709   2.977   0.034
 6833SOL     OW21397   4.795   4.793   6.897
 6833SOL    HW121398   4.878   4.848   6.907
 6833SOL    HW221399   4.781   4.772   6.800
 6834SOL     OW21400   5.902   5.618   5.202
 6834SOL    HW121401   5.840   5.540   5.189
 6834SOL    HW221402   5.997   5.587   5.191
 6835SOL     OW21403   3.645   0.485   3.228
 6835SOL    HW121404   3.743   0.482   3.205
 6835SOL    HW221405   3.605   0.568   3.190
 6836SOL     OW21406   0.504   4.547   6.992
 6836SOL    HW121407   0.451   4.492   0.030
 6836SOL    HW221408   0.543   4.486   6.922
 6837SOL     OW21409   6.484   1.088   1.651
 6837SOL    HW121410   6.444   1.176   1.624
 6837SOL    HW221411   6.537   1.100   1.735
 6838SOL     OW21412   3.048   3.943   5.790
 6838SOL    HW121413   3.033   3.869   5.855
 6838SOL    HW221414   3.011   4.028   5.827
 6839SOL     OW21415   5.880   2.585   5.802
 6839SOL    HW121416   5.960   2.644   5.786
 6839SOL    HW221417   5.802   2.621   5.751
 6840SOL     OW21418   3.247   6.282   4.460
 6840SOL    HW121419   3.229   6.377   4.436
 6840SOL    HW221420   3.288   6.235   4.382
 6841SOL     OW21421   4.566   6.767   0.687
 6841SOL    HW121422   4.515   6.839   0.734
 6841SOL    HW221423   4.543   6.769   0.589
 6842SOL     OW21424   0.647   3.588   3.202
 6842SOL    HW121425   0.588   3.669   3.201
 6842SOL    HW221426   0.709   3.592   3.124
 6843SOL     OW21427   4.701   2.734   2.199
 6843SOL    HW121428   4.697   2.795   2.120
 6843SOL    HW221429   4.711   2.788   2.282
 6844SOL     OW21430   3.738   0.077   4.618
 6844SOL    HW121431   3.831   0.065   4.584
 6844SOL    HW221432   3.713   7.026   4.676
 6845SOL     OW21433   4.007   4.168   0.359
 6845SOL    HW121434   3.952   4.089   0.389
 6845SOL    HW221435   4.076   4.189   0.427
 6846SOL     OW21436   4.010   3.649   3.506
 6846SOL    HW121437   4.017   3.717   3.579
 6846SOL    HW221438   3.948   3.576   3.535
 6847SOL     OW21439   6.245   3.146   2.388
 6847SOL    HW121440   6.158   3.120   2.344
 6847SOL    HW221441   6.309   3.070   2.381
 6848SOL     OW21442   0.502   5.911   4.474
 6848SOL    HW121443   0.441   5.943   4.402
 6848SOL    HW221444   0.597   5.914   4.441
 6849SOL     OW21445   3.421   0.236   5.165
 6849SOL    HW121446   3.460   0.225   5.256
 6849SOL    HW221447   3.321   0.247   5.173
 6850SOL     OW21448   5.853   3.987   1.763
 6850SOL    HW121449   5.864   4.009   1.860
 6850SOL    HW221450   5.902   4.054   1.707
 6851SOL     OW21451   1.613   5.570   5.577
 6851SOL    HW121452   1.576   5.663   5.582
 6851SOL    HW221453   1.603   5.525   5.666
 6852SOL     OW21454   6.617   5.429   2.232
 6852SOL    HW121455   6.631   5.410   2.135
 6852SOL    HW221456   6.523   5.457   2.247
 6853SOL     OW21457   6.536   4.458   4.698
 6853SOL    HW121458   6.556   4.360   4.700
 6853SOL    HW221459   6.454   4.477   4.753
 6854SOL     OW21460   6.386   1.863   6.591
 6854SOL    HW121461   6.418   1.858   6.686
 6854SOL    HW221462   6.433   1.937   6.543
 6855SOL     OW21463   3.114   6.574   2.415
 6855SOL    HW121464   3.109   6.478   2.386
 6855SOL    HW221465   3.116   6.633   2.334
 6856SOL     OW21466   0.505   5.297   5.672
 6856SOL    HW121467   0.540   5.391   5.676
 6856SOL    HW221468   0.554   5.240   5.738
 6857SOL     OW21469   4.483   1.395   6.628
 6857SOL    HW121470   4.508   1.475   6.682
 6857SOL    HW221471   4.385   1.381   6.634
 6858SOL     OW21472   3.753   3.054   6.820
 6858SOL    HW121473   3.667   3.086   6.780
 6858SOL    HW221474   3.735   2.987   6.891
 6859SOL     OW21475   3.409   0.568   0.392
 6859SOL    HW121476   3.337   0.526   0.448
 6859SOL    HW221477   3.400   0.668   0.397
 6860SOL     OW21478   4.448   3.851   6.905
 6860SOL    HW121479   4.538   3.878   6.940
 6860SOL    HW221480   4.388   3.931   6.904
 6861SOL     OW21481   5.336   3.893   1.015
 6861SOL    HW121482   5.351   3.984   0.977
 6861SOL    HW221483   5.315   3.901   1.113
 6862SOL     OW21484   2.715   5.547   4.057
 6862SOL    HW121485   2.678   5.460   4.091
 6862SOL    HW221486   2.640   5.612   4.045
 6863SOL     OW21487   1.257   3.027   3.500
 6863SOL    HW121488   1.227   3.104   3.444
 6863SOL    HW221489   1.346   3.047   3.540
 6864SOL     OW21490   4.311   5.675   6.533
 6864SOL    HW121491   4.278   5.709   6.621
 6864SOL    HW221492   4.311   5.750   6.466
 6865SOL     OW21493   6.881   3.577   4.766
 6865SOL    HW121494   6.946   3.513   4.725
 6865SOL    HW221495   6.791   3.532   4.773
 6866SOL     OW21496   0.935   3.393   2.508
 6866SOL    HW121497   0.996   3.469   2.529
 6866SOL    HW221498   0.936   3.376   2.409
 6867SOL     OW21499   2.127   5.211   3.041
 6867SOL    HW121500   2.123   5.205   2.942
 6867SOL    HW221501   2.184   5.289   3.068
 6868SOL     OW21502   2.085   5.668   4.927
 6868SOL    HW121503   1.992   5.699   4.947
 6868SOL    HW221504   2.142   5.747   4.904
 6869SOL     OW21505   6.914   3.267   4.834
 6869SOL    HW121506   6.860   3.282   4.917
 6869SOL    HW221507   7.009   3.245   4.860
 6870SOL     OW21508   5.998   3.367   2.486
 6870SOL    HW121509   6.023   3.293   2.424
 6870SOL    HW221510   6.054   3.361   2.569
 6871SOL     OW21511   5.050   5.899   2.153
 6871SOL    HW121512   4.973   5.858   2.105
 6871SOL    HW221513   5.025   5.914   2.249
 6872SOL     OW21514   3.413   3.462   0.707
 6872SOL    HW121515   3.325   3.442   0.664
 6872SOL    HW221516   3.484   3.470   0.637
 6873SOL     OW21517   5.588   4.461   5.222
 6873SOL    HW121518   5.585   4.427   5.128
 6873SOL    HW221519   5.598   4.383   5.285
 6874SOL     OW21520   1.468   1.973   5.573
 6874SOL    HW121521   1.541   2.033   5.541
 6874SOL    HW221522   1.470   1.968   5.673
 6875SOL     OW21523   3.857   1.514   4.113
 6875SOL    HW121524   3.795   1.483   4.186
 6875SOL    HW221525   3.803   1.545   4.035
 6876SOL     OW21526   3.962   6.026   4.273
 6876SOL    HW121527   4.036   6.084   4.238
 6876SOL    HW221528   4.002   5.952   4.328
 6877SOL     OW21529   1.851   3.749   6.007
 6877SOL    HW121530   1.798   3.737   6.091
 6877SOL    HW221531   1.805   3.816   5.949
 6878SOL     OW21532   1.474   2.346   4.378
 6878SOL    HW121533   1.548   2.308   4.434
 6878SOL    HW221534   1.411   2.274   4.352
 6879SOL     OW21535   0.481   1.085   5.642
 6879SOL    HW121536   0.566   1.038   5.619
 6879SOL    HW221537   0.422   1.024   5.695
 6880SOL     OW21538   2.126   3.538   4.547
 6880SOL    HW121539   2.103   3.603   4.474
 6880SOL    HW221540   2.224   3.544   4.566
 6881SOL     OW21541   5.642   6.075   1.512
 6881SOL    HW121542   5.659   6.022   1.428
 6881SOL    HW221543   5.597   6.016   1.579
 6882SOL     OW21544   2.518   6.422   5.399
 6882SOL    HW121545   2.546   6.505   5.448
 6882SOL    HW221546   2.586   6.400   5.329
 6883SOL     OW21547   3.163   6.020   1.563
 6883SOL    HW121548   3.161   6.058   1.655
 6883SOL    HW221549   3.170   5.920   1.568
 6884SOL     OW21550   2.178   5.213   2.773
 6884SOL    HW121551   2.138   5.161   2.698
 6884SOL    HW221552   2.264   5.254   2.743
 6885SOL     OW21553   4.203   5.500   4.749
 6885SOL    HW121554   4.293   5.515   4.791
 6885SOL    HW221555   4.163   5.415   4.785
 6886SOL     OW21556   4.851   1.432   2.532
 6886SOL    HW121557   4.761   1.476   2.529
 6886SOL    HW221558   4.892   1.435   2.441
 6887SOL     OW21559   5.187   0.682   5.458
 6887SOL    HW121560   5.199   0.721   5.549
 6887SOL    HW221561   5.209   0.584   5.460
 6888SOL     OW21562   6.489   6.981   4.622
 6888SOL    HW121563   6.435   0.006   4.555
 6888SOL    HW221564   6.584   6.976   4.591
 6889SOL     OW21565   1.550   4.830   6.048
 6889SOL    HW121566   1.457   4.864   6.046
 6889SOL    HW221567   1.610   4.891   5.996
 6890SOL     OW21568   2.047   0.294   0.949
 6890SOL    HW121569   1.953   0.273   0.924
 6890SOL    HW221570   2.072   0.245   1.032
 6891SOL     OW21571   3.300   5.131   5.305
 6891SOL    HW121572   3.377   5.141   5.243
 6891SOL    HW221573   3.271   5.221   5.337
 6892SOL     OW21574   3.157   1.699   4.650
 6892SOL    HW121575   3.072   1.651   4.671
 6892SOL    HW221576   3.209   1.712   4.734
 6893SOL     OW21577   5.857   0.868   1.608
 6893SOL    HW121578   5.795   0.798   1.645
 6893SOL    HW221579   5.824   0.898   1.519
 6894SOL     OW21580   6.183   4.868   6.774
 6894SOL    HW121581   6.247   4.944   6.766
 6894SOL    HW221582   6.199   4.802   6.701
 6895SOL     OW21583   4.581   5.593   6.624
 6895SOL    HW121584   4.648   5.649   6.673
 6895SOL    HW221585   4.514   5.652   6.580
 6896SOL     OW21586   4.467   0.882   3.005
 6896SOL    HW121587   4.421   0.793   3.015
 6896SOL    HW221588   4.470   0.907   2.908
 6897SOL     OW21589   3.668   1.027   0.806
 6897SOL    HW121590   3.678   0.959   0.733
 6897SOL    HW221591   3.602   1.097   0.779
 6898SOL     OW21592   3.700   1.440   2.596
 6898SOL    HW121593   3.747   1.421   2.509
 6898SOL    HW221594   3.736   1.380   2.667
 6899SOL     OW21595   5.704   6.416   6.479
 6899SOL    HW121596   5.625   6.462   6.520
 6899SOL    HW221597   5.762   6.484   6.433
 6900SOL     OW21598   4.119   1.689   6.477
 6900SOL    HW121599   4.193   1.652   6.420
 6900SOL    HW221600   4.137   1.669   6.573
 6901SOL     OW21601   1.341   1.252   0.673
 6901SOL    HW121602   1.377   1.159   0.677
 6901SOL    HW221603   1.241   1.248   0.669
 6902SOL     OW21604   6.403   5.688   1.862
 6902SOL    HW121605   6.396   5.786   1.882
 6902SOL    HW221606   6.492   5.654   1.892
 6903SOL     OW21607   4.523   4.309   0.463
 6903SOL    HW121608   4.517   4.362   0.378
 6903SOL    HW221609   4.434   4.268   0.483
 6904SOL     OW21610   0.804   1.666   2.972
 6904SOL    HW121611   0.791   1.569   2.950
 6904SOL    HW221612   0.832   1.715   2.890
 6905SOL     OW21613   4.031   5.561   1.569
 6905SOL    HW121614   4.011   5.604   1.481
 6905SOL    HW221615   4.127   5.575   1.592
 6906SOL     OW21616   6.102   6.317   3.173
 6906SOL    HW121617   6.103   6.397   3.113
 6906SOL    HW221618   6.104   6.347   3.268
 6907SOL     OW21619   3.683   0.818   1.130
 6907SOL    HW121620   3.718   0.801   1.038
 6907SOL    HW221621   3.585   0.798   1.133
 6908SOL     OW21622   5.895   6.987   6.975
 6908SOL    HW121623   5.858   0.044   6.935
 6908SOL    HW221624   5.955   6.942   6.909
 6909SOL     OW21625   2.920   2.601   6.743
 6909SOL    HW121626   2.830   2.631   6.777
 6909SOL    HW221627   2.989   2.616   6.814
 6910SOL     OW21628   5.683   0.438   1.534
 6910SOL    HW121629   5.684   0.349   1.580
 6910SOL    HW221630   5.682   0.511   1.602
 6911SOL     OW21631   4.260   0.865   4.786
 6911SOL    HW121632   4.212   0.782   4.756
 6911SOL    HW221633   4.220   0.899   4.871
 6912SOL     OW21634   4.250   4.526   1.813
 6912SOL    HW121635   4.290   4.473   1.738
 6912SOL    HW221636   4.218   4.463   1.884
 6913SOL     OW21637   4.490   5.872   5.816
 6913SOL    HW121638   4.507   5.836   5.908
 6913SOL    HW221639   4.417   5.819   5.772
 6914SOL     OW21640   6.321   5.110   6.800
 6914SOL    HW121641   6.417   5.107   6.773
 6914SOL    HW221642   6.303   5.194   6.851
 6915SOL     OW21643   1.033   5.604   0.893
 6915SOL    HW121644   1.029   5.702   0.874
 6915SOL    HW221645   1.125   5.570   0.875
 6916SOL     OW21646   6.161   0.535   5.496
 6916SOL    HW121647   6.256   0.508   5.508
 6916SOL    HW221648   6.151   0.632   5.516
 6917SOL     OW21649   4.160   0.287   6.915
 6917SOL    HW121650   4.155   0.189   6.895
 6917SOL    HW221651   4.255   0.318   6.911
 6918SOL     OW21652   2.421   2.707   3.908
 6918SOL    HW121653   2.418   2.611   3.938
 6918SOL    HW221654   2.492   2.756   3.959
 6919SOL     OW21655   0.663   6.672   3.665
 6919SOL    HW121656   0.733   6.737   3.693
 6919SOL    HW221657   0.624   6.628   3.745
 6920SOL     OW21658   4.989   5.857   4.756
 6920SOL    HW121659   5.025   5.941   4.715
 6920SOL    HW221660   5.016   5.778   4.700
 6921SOL     OW21661   1.310   6.155   3.900
 6921SOL    HW121662   1.354   6.142   3.811
 6921SOL    HW221663   1.371   6.206   3.960
 6922SOL     OW21664   1.899   6.582   0.704
 6922SOL    HW121665   1.885   6.607   0.800
 6922SOL    HW221666   1.995   6.560   0.689
 6923SOL     OW21667   4.698   6.145   4.106
 6923SOL    HW121668   4.696   6.183   4.014
 6923SOL    HW221669   4.793   6.133   4.135
 6924SOL     OW21670   6.790   6.061   1.548
 6924SOL    HW121671   6.713   6.085   1.489
 6924SOL    HW221672   6.760   6.000   1.621
 6925SOL     OW21673   5.898   5.422   2.870
 6925SOL    HW121674   5.880   5.464   2.781
 6925SOL    HW221675   5.845   5.470   2.940
 6926SOL     OW21676   3.156   4.162   5.475
 6926SOL    HW121677   3.146   4.063   5.485
 6926SOL    HW221678   3.090   4.195   5.408
 6927SOL     OW21679   3.797   3.171   0.803
 6927SOL    HW121680   3.836   3.211   0.886
 6927SOL    HW221681   3.808   3.234   0.726
 6928SOL     OW21682   6.725   0.400   6.292
 6928SOL    HW121683   6.648   0.459   6.266
 6928SOL    HW221684   6.697   0.341   6.369
 6929SOL     OW21685   3.131   4.586   1.408
 6929SOL    HW121686   3.115   4.561   1.504
 6929SOL    HW221687   3.192   4.665   1.404
 6930SOL     OW21688   1.018   0.905   3.060
 6930SOL    HW121689   0.961   0.857   3.126
 6930SOL    HW221690   0.961   0.948   2.991
 6931SOL     OW21691   1.988   6.991   0.315
 6931SOL    HW121692   1.901   6.955   0.280
 6931SOL    HW221693   1.974   0.058   0.347
 6932SOL     OW21694   2.937   2.409   0.219
 6932SOL    HW121695   2.926   2.323   0.169
 6932SOL    HW221696   2.865   2.417   0.288
 6933SOL     OW21697   2.804   6.015   5.818
 6933SOL    HW121698   2.721   6.017   5.761
 6933SOL    HW221699   2.791   5.950   5.892
 6934SOL     OW21700   5.551   5.070   6.024
 6934SOL    HW121701   5.608   5.092   5.944
 6934SOL    HW221702   5.610   5.034   6.097
 6935SOL     OW21703   4.497   5.977   3.400
 6935SOL    HW121704   4.551   5.901   3.436
 6935SOL    HW221705   4.438   5.944   3.326
 6936SOL     OW21706   0.695   4.815   0.578
 6936SOL    HW121707   0.793   4.832   0.591
 6936SOL    HW221708   0.644   4.899   0.595
 6937SOL     OW21709   4.412   6.493   5.606
 6937SOL    HW121710   4.350   6.448   5.670
 6937SOL    HW221711   4.500   6.446   5.606
 6938SOL     OW21712   5.567   2.295   5.175
 6938SOL    HW121713   5.572   2.342   5.263
 6938SOL    HW221714   5.524   2.356   5.108
 6939SOL     OW21715   6.762   4.665   2.188
 6939SOL    HW121716   6.726   4.650   2.096
 6939SOL    HW221717   6.749   4.761   2.214
 6940SOL     OW21718   4.348   0.778   4.436
 6940SOL    HW121719   4.319   0.871   4.413
 6940SOL    HW221720   4.352   0.767   4.536
 6941SOL     OW21721   4.104   3.277   4.301
 6941SOL    HW121722   4.200   3.258   4.320
 6941SOL    HW221723   4.087   3.267   4.203
 6942SOL     OW21724   6.728   1.782   0.024
 6942SOL    HW121725   6.810   1.782   0.081
 6942SOL    HW221726   6.673   1.702   0.045
 6943SOL     OW21727   6.560   5.941   0.116
 6943SOL    HW121728   6.653   5.974   0.099
 6943SOL    HW221729   6.506   6.012   0.159
 6944SOL     OW21730   1.398   6.283   6.298
 6944SOL    HW121731   1.378   6.365   6.244
 6944SOL    HW221732   1.315   6.253   6.345
 6945SOL     OW21733   4.430   1.892   5.788
 6945SOL    HW121734   4.426   1.795   5.814
 6945SOL    HW221735   4.461   1.899   5.693
 6946SOL     OW21736   5.832   3.555   3.475
 6946SOL    HW121737   5.932   3.561   3.483
 6946SOL    HW221738   5.803   3.462   3.500
 6947SOL     OW21739   3.488   0.015   1.951
 6947SOL    HW121740   3.460   0.099   1.997
 6947SOL    HW221741   3.494   6.967   2.017
 6948SOL     OW21742   3.692   2.114   5.147
 6948SOL    HW121743   3.700   2.034   5.088
 6948SOL    HW221744   3.779   2.163   5.149
 6949SOL     OW21745   5.074   1.191   2.638
 6949SOL    HW121746   5.122   1.130   2.700
 6949SOL    HW221747   5.008   1.247   2.690
 6950SOL     OW21748   2.717   1.729   3.589
 6950SOL    HW121749   2.658   1.681   3.523
 6950SOL    HW221750   2.677   1.722   3.681
 6951SOL     OW21751   4.676   5.142   4.989
 6951SOL    HW121752   4.614   5.068   4.963
 6951SOL    HW221753   4.768   5.121   4.957
 6952SOL     OW21754   6.984   4.797   5.281
 6952SOL    HW121755   6.998   4.896   5.290
 6952SOL    HW221756   0.024   4.749   5.338
 6953SOL     OW21757   5.355   2.594   5.248
 6953SOL    HW121758   5.401   2.531   5.311
 6953SOL    HW221759   5.286   2.544   5.196
 6954SOL     OW21760   0.767   4.602   2.400
 6954SOL    HW121761   0.694   4.660   2.364
 6954SOL    HW221762   0.856   4.637   2.371
 6955SOL     OW21763   6.828   6.770   2.652
 6955SOL    HW121764   6.817   6.754   2.750
 6955SOL    HW221765   6.877   6.693   2.611
 6956SOL     OW21766   2.962   4.336   0.912
 6956SOL    HW121767   2.887   4.385   0.957
 6956SOL    HW221768   2.947   4.336   0.813
 6957SOL     OW21769   0.989   3.620   0.115
 6957SOL    HW121770   1.046   3.560   0.172
 6957SOL    HW221771   0.979   3.580   0.024
 6958SOL     OW21772   2.052   3.740   6.686
 6958SOL    HW121773   2.013   3.659   6.643
 6958SOL    HW221774   2.136   3.716   6.734
 6959SOL     OW21775   3.816   1.407   3.639
 6959SOL    HW121776   3.744   1.441   3.580
 6959SOL    HW221777   3.811   1.307   3.644
 6960SOL     OW21778   0.833   4.645   0.268
 6960SOL    HW121779   0.801   4.739   0.257
 6960SOL    HW221780   0.768   4.595   0.324
 6961SOL     OW21781   6.900   1.654   2.914
 6961SOL    HW121782   6.839   1.577   2.936
 6961SOL    HW221783   6.991   1.618   2.892
 6962SOL     OW21784   3.386   3.248   0.907
 6962SOL    HW121785   3.384   3.322   0.840
 6962SOL    HW221786   3.469   3.195   0.896
 6963SOL     OW21787   6.244   6.145   2.290
 6963SOL    HW121788   6.290   6.201   2.221
 6963SOL    HW221789   6.246   6.049   2.263
 6964SOL     OW21790   3.833   5.884   5.285
 6964SOL    HW121791   3.802   5.954   5.220
 6964SOL    HW221792   3.913   5.838   5.249
 6965SOL     OW21793   6.228   1.861   5.700
 6965SOL    HW121794   6.260   1.809   5.621
 6965SOL    HW221795   6.128   1.868   5.697
 6966SOL     OW21796   5.110   2.759   4.041
 6966SOL    HW121797   5.112   2.683   4.106
 6966SOL    HW221798   5.104   2.724   3.948
 6967SOL     OW21799   2.250   2.092   6.075
 6967SOL    HW121800   2.349   2.080   6.085
 6967SOL    HW221801   2.231   2.151   5.997
 6968SOL     OW21802   4.156   0.122   3.300
 6968SOL    HW121803   4.106   0.144   3.216
 6968SOL    HW221804   4.190   0.206   3.342
 6969SOL     OW21805   2.867   2.507   1.256
 6969SOL    HW121806   2.936   2.464   1.198
 6969SOL    HW221807   2.911   2.553   1.332
 6970SOL     OW21808   4.215   4.116   0.565
 6970SOL    HW121809   4.280   4.065   0.621
 6970SOL    HW221810   4.146   4.158   0.624
 6971SOL     OW21811   6.252   1.092   1.985
 6971SOL    HW121812   6.234   1.092   2.083
 6971SOL    HW221813   6.252   1.185   1.950
 6972SOL     OW21814   5.537   5.118   4.907
 6972SOL    HW121815   5.473   5.184   4.944
 6972SOL    HW221816   5.509   5.026   4.934
 6973SOL     OW21817   1.622   3.985   3.331
 6973SOL    HW121818   1.632   4.071   3.282
 6973SOL    HW221819   1.696   3.923   3.305
 6974SOL     OW21820   3.406   4.089   4.894
 6974SOL    HW121821   3.374   4.000   4.860
 6974SOL    HW221822   3.346   4.119   4.969
 6975SOL     OW21823   2.911   0.796   5.777
 6975SOL    HW121824   2.956   0.732   5.715
 6975SOL    HW221825   2.959   0.884   5.775
 6976SOL     OW21826   1.361   6.525   0.496
 6976SOL    HW121827   1.382   6.489   0.587
 6976SOL    HW221828   1.265   6.553   0.492
 6977SOL     OW21829   4.638   2.672   2.657
 6977SOL    HW121830   4.576   2.594   2.662
 6977SOL    HW221831   4.624   2.730   2.737
 6978SOL     OW21832   5.226   1.540   3.101
 6978SOL    HW121833   5.190   1.618   3.050
 6978SOL    HW221834   5.217   1.557   3.199
 6979SOL     OW21835   0.482   4.893   3.703
 6979SOL    HW121836   0.553   4.827   3.679
 6979SOL    HW221837   0.392   4.848   3.700
 6980SOL     OW21838   4.130   1.577   4.120
 6980SOL    HW121839   4.041   1.532   4.125
 6980SOL    HW221840   4.168   1.565   4.028
 6981SOL     OW21841   3.113   4.008   6.926
 6981SOL    HW121842   3.059   4.067   6.986
 6981SOL    HW221843   3.155   3.935   6.980
 6982SOL     OW21844   0.568   6.902   4.450
 6982SOL    HW121845   0.473   6.900   4.482
 6982SOL    HW221846   0.593   6.997   4.428
 6983SOL     OW21847   6.694   0.508   3.192
 6983SOL    HW121848   6.669   0.522   3.288
 6983SOL    HW221849   6.774   0.448   3.187
 6984SOL     OW21850   2.238   0.905   5.528
 6984SOL    HW121851   2.141   0.885   5.517
 6984SOL    HW221852   2.291   0.820   5.522
 6985SOL     OW21853   5.301   6.690   3.204
 6985SOL    HW121854   5.227   6.696   3.272
 6985SOL    HW221855   5.375   6.633   3.240
 6986SOL     OW21856   1.866   6.810   5.075
 6986SOL    HW121857   1.893   6.751   5.152
 6986SOL    HW221858   1.853   6.904   5.108
 6987SOL     OW21859   6.654   3.679   6.432
 6987SOL    HW121860   6.730   3.737   6.406
 6987SOL    HW221861   6.582   3.686   6.363
 6988SOL     OW21862   5.512   1.250   5.635
 6988SOL    HW121863   5.504   1.154   5.663
 6988SOL    HW221864   5.510   1.255   5.535
 6989SOL     OW21865   1.623   3.476   3.600
 6989SOL    HW121866   1.692   3.453   3.670
 6989SOL    HW221867   1.534   3.439   3.627
 6990SOL     OW21868   4.429   3.414   0.743
 6990SOL    HW121869   4.352   3.364   0.703
 6990SOL    HW221870   4.430   3.508   0.709
 6991SOL     OW21871   4.396   4.588   5.416
 6991SOL    HW121872   4.427   4.576   5.510
 6991SOL    HW221873   4.311   4.537   5.402
 6992SOL     OW21874   6.316   6.836   4.795
 6992SOL    HW121875   6.364   6.868   4.713
 6992SOL    HW221876   6.378   6.839   4.873
 6993SOL     OW21877   0.274   6.067   3.527
 6993SOL    HW121878   0.250   6.082   3.431
 6993SOL    HW221879   0.194   6.035   3.577
 6994SOL     OW21880   1.574   3.376   0.191
 6994SOL    HW121881   1.612   3.422   0.111
 6994SOL    HW221882   1.490   3.328   0.165
 6995SOL     OW21883   0.998   4.684   4.077
 6995SOL    HW121884   0.905   4.677   4.043
 6995SOL    HW221885   1.001   4.743   4.158
 6996SOL     OW21886   2.231   6.726   6.404
 6996SOL    HW121887   2.133   6.713   6.391
 6996SOL    HW221888   2.281   6.662   6.346
 6997SOL     OW21889   5.103   6.610   4.436
 6997SOL    HW121890   5.076   6.589   4.530
 6997SOL    HW221891   5.056   6.692   4.405
 6998SOL     OW21892   2.215   2.299   2.687
 6998SOL    HW121893   2.238   2.204   2.708
 6998SOL    HW221894   2.161   2.338   2.762
 6999SOL     OW21895   5.046   2.108   0.095
 6999SOL    HW121896   4.953   2.072   0.098
 6999SOL    HW221897   5.092   2.075   0.012
 7000SOL     OW21898   6.469   6.970   1.086
 7000SOL    HW121899   6.514   6.987   0.999
 7000SOL    HW221900   6.504   0.007   1.155
 7001SOL     OW21901   2.462   1.620   6.021
 7001SOL    HW121902   2.545   1.675   6.011
 7001SOL    HW221903   2.484   1.524   6.007
 7002SOL     OW21904   2.107   4.779   2.278
 7002SOL    HW121905   2.027   4.840   2.281
 7002SOL    HW221906   2.094   4.710   2.207
 7003SOL     OW21907   1.588   6.416   5.963
 7003SOL    HW121908   1.624   6.509   5.963
 7003SOL    HW221909   1.582   6.383   5.869
 7004SOL     OW21910   1.292   4.085   6.981
 7004SOL    HW121911   1.246   4.011   6.932
 7004SOL    HW221912   1.227   4.159   6.997
 7005SOL     OW21913   6.071   6.729   6.031
 7005SOL    HW121914   6.100   6.684   6.116
 7005SOL    HW221915   6.142   6.717   5.962
 7006SOL     OW21916   4.702   5.089   4.388
 7006SOL    HW121917   4.775   5.118   4.450
 7006SOL    HW221918   4.705   4.989   4.379
 7007SOL     OW21919   4.641   5.113   2.499
 7007SOL    HW121920   4.739   5.091   2.493
 7007SOL    HW221921   4.607   5.091   2.590
 7008SOL     OW21922   1.249   4.752   4.577
 7008SOL    HW121923   1.280   4.756   4.672
 7008SOL    HW221924   1.263   4.659   4.541
 7009SOL     OW21925   0.552   4.340   2.630
 7009SOL    HW121926   0.515   4.433   2.628
 7009SOL    HW221927   0.631   4.337   2.691
 7010SOL     OW21928   4.379   4.905   6.599
 7010SOL    HW121929   4.405   4.887   6.694
 7010SOL    HW221930   4.334   4.994   6.593
 7011SOL     OW21931   1.101   1.411   5.636
 7011SOL    HW121932   1.170   1.438   5.570
 7011SOL    HW221933   1.029   1.359   5.590
 7012SOL     OW21934   1.580   1.649   1.509
 7012SOL    HW121935   1.491   1.694   1.517
 7012SOL    HW221936   1.569   1.550   1.525
 7013SOL     OW21937   6.954   1.493   1.514
 7013SOL    HW121938   6.888   1.468   1.585
 7013SOL    HW221939   6.936   1.586   1.482
 7014SOL     OW21940   2.209   5.037   0.361
 7014SOL    HW121941   2.306   5.042   0.339
 7014SOL    HW221942   2.187   4.946   0.396
 7015SOL     OW21943   5.667   1.984   2.626
 7015SOL    HW121944   5.602   1.947   2.559
 7015SOL    HW221945   5.642   2.079   2.648
 7016SOL     OW21946   3.883   4.442   1.463
 7016SOL    HW121947   3.844   4.352   1.486
 7016SOL    HW221948   3.974   4.429   1.424
 7017SOL     OW21949   4.825   2.029   4.768
 7017SOL    HW121950   4.858   2.028   4.673
 7017SOL    HW221951   4.904   2.037   4.829
 7018SOL     OW21952   0.259   3.847   3.341
 7018SOL    HW121953   0.269   3.828   3.243
 7018SOL    HW221954   0.163   3.858   3.363
 7019SOL     OW21955   1.851   5.890   1.111
 7019SOL    HW121956   1.924   5.897   1.180
 7019SOL    HW221957   1.763   5.878   1.157
 7020SOL     OW21958   0.335   6.260   6.048
 7020SOL    HW121959   0.409   6.322   6.074
 7020SOL    HW221960   0.371   6.168   6.036
 7021SOL     OW21961   3.981   6.659   5.566
 7021SOL    HW121962   3.950   6.575   5.523
 7021SOL    HW221963   3.912   6.730   5.554
 7022SOL     OW21964   4.666   5.425   6.301
 7022SOL    HW121965   4.597   5.469   6.244
 7022SOL    HW221966   4.710   5.493   6.359
 7023SOL     OW21967   5.847   3.909   2.533
 7023SOL    HW121968   5.770   3.962   2.498
 7023SOL    HW221969   5.814   3.819   2.562
 7024SOL     OW21970   0.164   6.225   1.384
 7024SOL    HW121971   0.235   6.222   1.314
 7024SOL    HW221972   0.080   6.185   1.348
 7025SOL     OW21973   2.292   0.239   6.849
 7025SOL    HW121974   2.252   0.153   6.818
 7025SOL    HW221975   2.371   0.220   6.908
 7026SOL     OW21976   3.533   1.431   1.001
 7026SOL    HW121977   3.611   1.368   0.999
 7026SOL    HW221978   3.545   1.497   1.075
 7027SOL     OW21979   4.716   6.559   4.124
 7027SOL    HW121980   4.638   6.528   4.069
 7027SOL    HW221981   4.724   6.500   4.205
 7028SOL     OW21982   3.058   0.178   4.313
 7028SOL    HW121983   3.077   0.151   4.408
 7028SOL    HW221984   2.962   0.205   4.305
 7029SOL     OW21985   4.087   1.418   4.725
 7029SOL    HW121986   4.032   1.347   4.769
 7029SOL    HW221987   4.110   1.391   4.632
 7030SOL     OW21988   2.153   3.255   3.715
 7030SOL    HW121989   2.173   3.206   3.631
 7030SOL    HW221990   2.165   3.354   3.700
 7031SOL     OW21991   1.268   0.687   4.597
 7031SOL    HW121992   1.279   0.633   4.681
 7031SOL    HW221993   1.342   0.666   4.534
 7032SOL     OW21994   5.959   2.016   3.581
 7032SOL    HW121995   5.920   2.107   3.574
 7032SOL    HW221996   5.999   1.989   3.493
 7033SOL     OW21997   0.002   0.089   4.450
 7033SOL    HW121998   7.018   0.122   4.544
 7033SOL    HW221999   0.042   7.024   4.452
 7034SOL     OW22000   0.273   5.342   2.835
 7034SOL    HW122001   0.272   5.412   2.907
 7034SOL    HW222002   0.358   5.348   2.783
 7035SOL     OW22003   6.741   5.170   2.226
 7035SOL    HW122004   6.825   5.206   2.184
 7035SOL    HW222005   6.701   5.240   2.286
 7036SOL     OW22006   6.660   4.955   0.743
 7036SOL    HW122007   6.582   4.942   0.683
 7036SOL    HW222008   6.734   4.893   0.715
 7037SOL     OW22009   1.056   0.056   6.655
 7037SOL    HW122010   1.043   0.091   6.747
 7037SOL    HW222011   1.115   7.002   6.658
 7038SOL     OW22012   2.217   3.118   4.170
 7038SOL    HW122013   2.273   3.179   4.225
 7038SOL    HW222014   2.240   3.023   4.191
 7039SOL     OW22015   3.582   2.428   5.963
 7039SOL    HW122016   3.581   2.335   6.000
 7039SOL    HW222017   3.637   2.431   5.879
 7040SOL     OW22018   5.531   2.782   6.820
 7040SOL    HW122019   5.571   2.853   6.878
 7040SOL    HW222020   5.598   2.709   6.806
 7041SOL     OW22021   2.760   1.417   3.164
 7041SOL    HW122022   2.684   1.412   3.228
 7041SOL    HW222023   2.771   1.511   3.132
 7042SOL     OW22024   1.737   0.355   6.036
 7042SOL    HW122025   1.772   0.380   6.127
 7042SOL    HW222026   1.642   0.386   6.027
 7043SOL     OW22027   1.294   2.603   2.584
 7043SOL    HW122028   1.382   2.617   2.630
 7043SOL    HW222029   1.221   2.599   2.651
 7044SOL     OW22030   5.319   6.033   1.725
 7044SOL    HW122031   5.252   5.982   1.779
 7044SOL    HW222032   5.402   5.978   1.713
 7045SOL     OW22033   6.849   4.767   0.679
 7045SOL    HW122034   6.844   4.687   0.738
 7045SOL    HW222035   6.860   4.738   0.584
 7046SOL     OW22036   2.633   1.408   4.019
 7046SOL    HW122037   2.659   1.413   4.115
 7046SOL    HW222038   2.634   1.499   3.978
 7047SOL     OW22039   1.229   1.157   2.700
 7047SOL    HW122040   1.183   1.244   2.714
 7047SOL    HW222041   1.260   1.121   2.788
 7048SOL     OW22042   6.982   5.568   0.673
 7048SOL    HW122043   6.913   5.593   0.741
 7048SOL    HW222044   7.025   5.482   0.699
 7049SOL     OW22045   1.902   0.612   6.902
 7049SOL    HW122046   1.893   0.528   6.956
 7049SOL    HW222047   1.924   0.588   6.808
 7050SOL     OW22048   3.820   3.776   4.586
 7050SOL    HW122049   3.876   3.762   4.504
 7050SOL    HW222050   3.804   3.689   4.631
 7051SOL     OW22051   6.962   6.608   3.143
 7051SOL    HW122052   0.020   6.606   3.090
 7051SOL    HW222053   6.984   6.628   3.239
 7052SOL     OW22054   6.890   0.881   3.953
 7052SOL    HW122055   6.981   0.841   3.943
 7052SOL    HW222056   6.842   0.878   3.866
 7053SOL     OW22057   6.526   4.274   5.846
 7053SOL    HW122058   6.566   4.202   5.789
 7053SOL    HW222059   6.550   4.364   5.809
 7054SOL     OW22060   6.672   1.129   1.461
 7054SOL    HW122061   6.756   1.078   1.480
 7054SOL    HW222062   6.595   1.084   1.507
 7055SOL     OW22063   4.226   1.331   4.230
 7055SOL    HW122064   4.177   1.409   4.193
 7055SOL    HW222065   4.218   1.253   4.168
 7056SOL     OW22066   4.115   5.287   3.702
 7056SOL    HW122067   4.116   5.345   3.620
 7056SOL    HW222068   4.061   5.205   3.684
 7057SOL     OW22069   0.253   6.404   3.523
 7057SOL    HW122070   0.337   6.418   3.471
 7057SOL    HW222071   0.236   6.307   3.535
 7058SOL     OW22072   0.627   4.121   5.029
 7058SOL    HW122073   0.673   4.129   4.941
 7058SOL    HW222074   0.529   4.132   5.017
 7059SOL     OW22075   2.111   0.179   2.549
 7059SOL    HW122076   2.031   0.134   2.511
 7059SOL    HW222077   2.191   0.159   2.492
 7060SOL     OW22078   2.804   6.900   0.929
 7060SOL    HW122079   2.711   6.917   0.898
 7060SOL    HW222080   2.843   6.985   0.964
 7061SOL     OW22081   0.069   0.994   3.353
 7061SOL    HW122082   0.122   0.920   3.393
 7061SOL    HW222083   7.011   0.957   3.313
 7062SOL     OW22084   6.995   1.186   5.526
 7062SOL    HW122085   6.948   1.192   5.614
 7062SOL    HW222086   0.028   1.265   5.514
 7063SOL     OW22087   2.221   6.995   1.901
 7063SOL    HW122088   2.266   6.986   1.990
 7063SOL    HW222089   2.160   0.049   1.903
 7064SOL     OW22090   4.323   2.304   0.961
 7064SOL    HW122091   4.288   2.219   0.921
 7064SOL    HW222092   4.365   2.359   0.889
 7065SOL     OW22093   4.032   3.636   2.511
 7065SOL    HW122094   4.092   3.707   2.475
 7065SOL    HW222095   3.955   3.622   2.448
 7066SOL     OW22096   2.903   5.697   1.354
 7066SOL    HW122097   2.863   5.706   1.445
 7066SOL    HW222098   2.831   5.688   1.286
 7067SOL     OW22099   0.367   3.913   4.326
 7067SOL    HW122100   0.334   3.861   4.405
 7067SOL    HW222101   0.370   3.854   4.246
 7068SOL     OW22102   1.182   0.637   2.767
 7068SOL    HW122103   1.164   0.694   2.686
 7068SOL    HW222104   1.229   0.692   2.836
 7069SOL     OW22105   1.549   4.326   5.242
 7069SOL    HW122106   1.641   4.344   5.277
 7069SOL    HW222107   1.482   4.340   5.315
 7070SOL     OW22108   5.220   5.377   4.209
 7070SOL    HW122109   5.125   5.394   4.180
 7070SOL    HW222110   5.282   5.399   4.133
 7071SOL     OW22111   1.318   0.058   5.040
 7071SOL    HW122112   1.320   6.997   4.992
 7071SOL    HW222113   1.232   0.105   5.021
 7072SOL     OW22114   0.122   6.523   6.794
 7072SOL    HW122115   0.095   6.609   6.752
 7072SOL    HW222116   0.218   6.503   6.771
 7073SOL     OW22117   1.712   1.629   6.544
 7073SOL    HW122118   1.651   1.592   6.475
 7073SOL    HW222119   1.738   1.723   6.519
 7074SOL     OW22120   2.875   1.062   0.815
 7074SOL    HW122121   2.936   1.103   0.883
 7074SOL    HW222122   2.780   1.068   0.848
 7075SOL     OW22123   1.129   5.792   2.722
 7075SOL    HW122124   1.224   5.774   2.747
 7075SOL    HW222125   1.106   5.740   2.639
 7076SOL     OW22126   3.364   2.072   6.410
 7076SOL    HW122127   3.361   2.172   6.412
 7076SOL    HW222128   3.283   2.036   6.456
 7077SOL     OW22129   1.951   5.165   6.072
 7077SOL    HW122130   1.900   5.239   6.116
 7077SOL    HW222131   2.028   5.139   6.130
 7078SOL     OW22132   6.648   1.156   2.567
 7078SOL    HW122133   6.681   1.086   2.630
 7078SOL    HW222134   6.641   1.117   2.475
 7079SOL     OW22135   5.100   5.958   5.847
 7079SOL    HW122136   5.151   5.978   5.764
 7079SOL    HW222137   5.002   5.969   5.830
 7080SOL     OW22138   5.795   6.920   4.198
 7080SOL    HW122139   5.729   6.987   4.165
 7080SOL    HW222140   5.854   6.890   4.123
 7081SOL     OW22141   4.349   1.163   5.404
 7081SOL    HW122142   4.395   1.248   5.376
 7081SOL    HW222143   4.360   1.094   5.332
 7082SOL     OW22144   4.825   1.446   6.449
 7082SOL    HW122145   4.757   1.502   6.403
 7082SOL    HW222146   4.779   1.378   6.506
 7083SOL     OW22147   3.157   0.052   5.947
 7083SOL    HW122148   3.163   7.020   5.866
 7083SOL    HW222149   3.239   0.110   5.952
 7084SOL     OW22150   6.576   6.322   0.268
 7084SOL    HW122151   6.557   6.415   0.298
 7084SOL    HW222152   6.659   6.289   0.312
 7085SOL     OW22153   3.278   1.736   0.859
 7085SOL    HW122154   3.373   1.708   0.847
 7085SOL    HW222155   3.221   1.692   0.789
 7086SOL     OW22156   0.307   0.994   6.210
 7086SOL    HW122157   0.349   1.008   6.300
 7086SOL    HW222158   0.252   0.910   6.212
 7087SOL     OW22159   2.304   2.625   5.094
 7087SOL    HW122160   2.370   2.593   5.026
 7087SOL    HW222161   2.214   2.630   5.052
 7088SOL     OW22162   0.604   1.673   5.882
 7088SOL    HW122163   0.699   1.685   5.911
 7088SOL    HW222164   0.592   1.711   5.791
 7089SOL     OW22165   2.473   1.270   1.500
 7089SOL    HW122166   2.528   1.225   1.570
 7089SOL    HW222167   2.487   1.224   1.412
 7090SOL     OW22168   2.438   2.501   4.882
 7090SOL    HW122169   2.432   2.429   4.951
 7090SOL    HW222170   2.515   2.482   4.821
 7091SOL     OW22171   6.958   6.557   0.968
 7091SOL    HW122172   6.897   6.510   1.031
 7091SOL    HW222173   6.949   6.517   0.877
 7092SOL     OW22174   3.104   2.940   0.095
 7092SOL    HW122175   3.181   2.981   0.143
 7092SOL    HW222176   3.102   2.841   0.114
 7093SOL     OW22177   4.258   3.109   6.061
 7093SOL    HW122178   4.248   3.202   6.094
 7093SOL    HW222179   4.225   3.103   5.967
 7094SOL     OW22180   6.593   0.684   6.299
 7094SOL    HW122181   6.592   0.784   6.310
 7094SOL    HW222182   6.537   0.659   6.221
 7095SOL     OW22183   0.560   4.354   6.785
 7095SOL    HW122184   0.606   4.376   6.698
 7095SOL    HW222185   0.475   4.305   6.766
 7096SOL     OW22186   5.120   0.503   2.979
 7096SOL    HW122187   5.159   0.418   3.014
 7096SOL    HW222188   5.131   0.575   3.048
 7097SOL     OW22189   1.579   0.887   1.836
 7097SOL    HW122190   1.620   0.897   1.927
 7097SOL    HW222191   1.652   0.872   1.769
 7098SOL     OW22192   1.582   0.037   5.760
 7098SOL    HW122193   1.640   6.984   5.741
 7098SOL    HW222194   1.490   0.021   5.723
 7099SOL     OW22195   0.383   1.242   6.089
 7099SOL    HW122196   0.477   1.251   6.056
 7099SOL    HW222197   0.376   1.161   6.146
 7100SOL     OW22198   5.514   2.222   1.054
 7100SOL    HW122199   5.512   2.295   0.985
 7100SOL    HW222200   5.587   2.158   1.033
 7101SOL     OW22201   1.556   0.921   4.188
 7101SOL    HW122202   1.595   0.833   4.162
 7101SOL    HW222203   1.485   0.947   4.122
 7102SOL     OW22204   4.962   3.355   0.934
 7102SOL    HW122205   5.014   3.396   1.009
 7102SOL    HW222206   4.923   3.427   0.877
 7103SOL     OW22207   2.570   6.473   6.428
 7103SOL    HW122208   2.515   6.472   6.512
 7103SOL    HW222209   2.652   6.528   6.443
 7104SOL     OW22210   0.249   2.105   1.716
 7104SOL    HW122211   0.330   2.119   1.660
 7104SOL    HW222212   0.201   2.023   1.685
 7105SOL     OW22213   2.446   4.131   5.392
 7105SOL    HW122214   2.495   4.209   5.353
 7105SOL    HW222215   2.460   4.051   5.334
 7106SOL     OW22216   3.361   2.365   5.343
 7106SOL    HW122217   3.373   2.462   5.367
 7106SOL    HW222218   3.273   2.354   5.296
 7107SOL     OW22219   2.177   0.662   6.778
 7107SOL    HW122220   2.250   0.708   6.725
 7107SOL    HW222221   2.149   0.721   6.853
 7108SOL     OW22222   4.704   6.266   2.088
 7108SOL    HW122223   4.715   6.196   2.159
 7108SOL    HW222224   4.636   6.333   2.119
 7109SOL     OW22225   3.695   6.455   6.527
 7109SOL    HW122226   3.708   6.357   6.540
 7109SOL    HW222227   3.605   6.472   6.487
 7110SOL     OW22228   3.396   5.131   2.994
 7110SOL    HW122229   3.411   5.130   3.093
 7110SOL    HW222230   3.310   5.085   2.973
 7111SOL     OW22231   1.150   2.080   3.922
 7111SOL    HW122232   1.143   2.005   3.857
 7111SOL    HW222233   1.062   2.126   3.930
 7112SOL     OW22234   1.504   6.495   2.195
 7112SOL    HW122235   1.601   6.490   2.174
 7112SOL    HW222236   1.452   6.447   2.125
 7113SOL     OW22237   3.649   3.925   4.906
 7113SOL    HW122238   3.572   3.988   4.894
 7113SOL    HW222239   3.723   3.949   4.843
 7114SOL     OW22240   4.214   6.888   0.569
 7114SOL    HW122241   4.193   6.967   0.626
 7114SOL    HW222242   4.133   6.830   0.561
 7115SOL     OW22243   4.369   1.557   1.581
 7115SOL    HW122244   4.434   1.606   1.639
 7115SOL    HW222245   4.289   1.615   1.564
 7116SOL     OW22246   6.401   3.875   2.825
 7116SOL    HW122247   6.309   3.914   2.832
 7116SOL    HW222248   6.406   3.814   2.745
 7117SOL     OW22249   6.535   6.982   1.898
 7117SOL    HW122250   6.459   6.916   1.900
 7117SOL    HW222251   6.613   6.945   1.948
 7118SOL     OW22252   6.391   2.926   2.357
 7118SOL    HW122253   6.424   2.926   2.263
 7118SOL    HW222254   6.463   2.893   2.418
 7119SOL     OW22255   0.511   2.200   2.560
 7119SOL    HW122256   0.422   2.158   2.544
 7119SOL    HW222257   0.553   2.161   2.642
 7120SOL     OW22258   4.902   6.450   3.144
 7120SOL    HW122259   4.958   6.418   3.067
 7120SOL    HW222260   4.845   6.527   3.114
 7121SOL     OW22261   3.527   6.836   2.168
 7121SOL    HW122262   3.564   6.797   2.083
 7121SOL    HW222263   3.486   6.763   2.222
 7122SOL     OW22264   6.645   6.879   6.930
 7122SOL    HW122265   6.701   6.814   6.980
 7122SOL    HW222266   6.608   6.947   6.993
 7123SOL     OW22267   2.303   5.345   0.369
 7123SOL    HW122268   2.287   5.328   0.466
 7123SOL    HW222269   2.216   5.368   0.325
 7124SOL     OW22270   0.785   5.550   1.575
 7124SOL    HW122271   0.857   5.599   1.525
 7124SOL    HW222272   0.711   5.614   1.597
 7125SOL     OW22273   0.067   6.256   2.733
 7125SOL    HW122274   0.004   6.287   2.804
 7125SOL    HW222275   0.029   6.173   2.690
 7126SOL     OW22276   1.538   4.772   0.573
 7126SOL    HW122277   1.572   4.761   0.667
 7126SOL    HW222278   1.465   4.706   0.556
 7127SOL     OW22279   3.033   0.208   4.607
 7127SOL    HW122280   2.958   0.209   4.673
 7127SOL    HW222281   3.068   0.301   4.595
 7128SOL     OW22282   3.339   4.402   1.557
 7128SOL    HW122283   3.249   4.434   1.586
 7128SOL    HW222284   3.395   4.480   1.530
 7129SOL     OW22285   2.589   1.570   1.743
 7129SOL    HW122286   2.569   1.476   1.771
 7129SOL    HW222287   2.586   1.576   1.643
 7130SOL     OW22288   2.785   6.520   2.134
 7130SOL    HW122289   2.695   6.527   2.092
 7130SOL    HW222290   2.779   6.467   2.218
 7131SOL     OW22291   2.951   1.236   3.736
 7131SOL    HW122292   2.966   1.148   3.780
 7131SOL    HW222293   2.958   1.310   3.803
 7132SOL     OW22294   3.454   3.788   3.345
 7132SOL    HW122295   3.430   3.693   3.366
 7132SOL    HW222296   3.505   3.791   3.259
 7133SOL     OW22297   5.715   4.816   2.112
 7133SOL    HW122298   5.640   4.763   2.071
 7133SOL    HW222299   5.682   4.862   2.194
 7134SOL     OW22300   5.227   4.460   3.313
 7134SOL    HW122301   5.302   4.526   3.305
 7134SOL    HW222302   5.198   4.454   3.409
 7135SOL     OW22303   1.158   2.187   5.312
 7135SOL    HW122304   1.215   2.236   5.378
 7135SOL    HW222305   1.100   2.122   5.360
 7136SOL     OW22306   2.346   1.916   6.713
 7136SOL    HW122307   2.363   1.891   6.617
 7136SOL    HW222308   2.409   1.864   6.771
 7137SOL     OW22309   3.797   1.639   5.042
 7137SOL    HW122310   3.757   1.550   5.022
 7137SOL    HW222311   3.870   1.658   4.976
 7138SOL     OW22312   2.322   3.969   6.497
 7138SOL    HW122313   2.223   3.957   6.486
 7138SOL    HW222314   2.370   3.924   6.422
 7139SOL     OW22315   3.355   1.967   0.041
 7139SOL    HW122316   3.362   2.066   0.033
 7139SOL    HW222317   3.262   1.943   0.070
 7140SOL     OW22318   6.214   3.572   5.473
 7140SOL    HW122319   6.168   3.652   5.434
 7140SOL    HW222320   6.156   3.491   5.461
 7141SOL     OW22321   1.635   6.704   1.215
 7141SOL    HW122322   1.608   6.756   1.134
 7141SOL    HW222323   1.581   6.735   1.293
 7142SOL     OW22324   3.903   6.631   3.986
 7142SOL    HW122325   3.823   6.682   4.017
 7142SOL    HW222326   3.930   6.661   3.895
 7143SOL     OW22327   1.989   2.362   4.197
 7143SOL    HW122328   1.994   2.263   4.203
 7143SOL    HW222329   2.021   2.392   4.108
 7144SOL     OW22330   1.078   3.205   3.663
 7144SOL    HW122331   1.104   3.115   3.697
 7144SOL    HW222332   1.117   3.218   3.572
 7145SOL     OW22333   4.437   6.599   6.280
 7145SOL    HW122334   4.430   6.640   6.189
 7145SOL    HW222335   4.499   6.655   6.336
 7146SOL     OW22336   2.929   4.901   1.608
 7146SOL    HW122337   2.898   4.969   1.675
 7146SOL    HW222338   2.977   4.947   1.534
 7147SOL     OW22339   0.812   1.098   3.899
 7147SOL    HW122340   0.726   1.149   3.907
 7147SOL    HW222341   0.800   1.021   3.835
 7148SOL     OW22342   0.271   1.528   0.470
 7148SOL    HW122343   0.233   1.562   0.556
 7148SOL    HW222344   0.335   1.454   0.489
 7149SOL     OW22345   6.673   0.650   3.741
 7149SOL    HW122346   6.672   0.748   3.722
 7149SOL    HW222347   6.672   0.635   3.840
 7150SOL     OW22348   5.839   3.997   7.021
 7150SOL    HW122349   5.936   4.002   0.016
 7150SOL    HW222350   5.826   3.937   6.941
 7151SOL     OW22351   1.766   6.123   1.379
 7151SOL    HW122352   1.840   6.171   1.332
 7151SOL    HW222353   1.800   6.034   1.410
 7152SOL     OW22354   1.484   2.436   3.941
 7152SOL    HW122355   1.395   2.460   3.903
 7152SOL    HW222356   1.472   2.399   4.033
 7153SOL     OW22357   3.295   1.734   3.074
 7153SOL    HW122358   3.226   1.770   3.137
 7153SOL    HW222359   3.386   1.761   3.105
 7154SOL     OW22360   4.561   6.100   4.347
 7154SOL    HW122361   4.599   6.094   4.255
 7154SOL    HW222362   4.619   6.049   4.410
 7155SOL     OW22363   1.612   0.480   2.906
 7155SOL    HW122364   1.535   0.482   2.843
 7155SOL    HW222365   1.696   0.502   2.857
 7156SOL     OW22366   1.207   5.848   4.732
 7156SOL    HW122367   1.234   5.887   4.819
 7156SOL    HW222368   1.124   5.793   4.744
 7157SOL     OW22369   5.262   4.223   1.218
 7157SOL    HW122370   5.177   4.270   1.242
 7157SOL    HW222371   5.295   4.256   1.129
 7158SOL     OW22372   4.898   0.010   4.352
 7158SOL    HW122373   4.901   0.041   4.447
 7158SOL    HW222374   4.989   0.019   4.312
 7159SOL     OW22375   1.218   5.270   0.209
 7159SOL    HW122376   1.121   5.277   0.185
 7159SOL    HW222377   1.240   5.339   0.279
 7160SOL     OW22378   6.545   1.334   2.174
 7160SOL    HW122379   6.487   1.342   2.256
 7160SOL    HW222380   6.488   1.340   2.092
 7161SOL     OW22381   3.547   4.100   3.940
 7161SOL    HW122382   3.647   4.101   3.948
 7161SOL    HW222383   3.513   4.010   3.967
 7162SOL     OW22384   2.937   4.826   3.444
 7162SOL    HW122385   2.906   4.791   3.533
 7162SOL    HW222386   2.859   4.864   3.395
 7163SOL     OW22387   2.554   6.600   3.041
 7163SOL    HW122388   2.529   6.511   3.078
 7163SOL    HW222389   2.653   6.604   3.026
 7164SOL     OW22390   2.731   1.725   3.898
 7164SOL    HW122391   2.685   1.809   3.872
 7164SOL    HW222392   2.779   1.739   3.985
 7165SOL     OW22393   5.067   6.656   2.418
 7165SOL    HW122394   5.070   6.559   2.439
 7165SOL    HW222395   4.975   6.691   2.437
 7166SOL     OW22396   5.305   5.362   1.874
 7166SOL    HW122397   5.368   5.385   1.948
 7166SOL    HW222398   5.212   5.390   1.898
 7167SOL     OW22399   4.738   3.078   5.586
 7167SOL    HW122400   4.823   3.130   5.598
 7167SOL    HW222401   4.661   3.142   5.579
 7168SOL     OW22402   0.966   1.931   4.732
 7168SOL    HW122403   0.942   1.858   4.668
 7168SOL    HW222404   1.065   1.947   4.728
 7169SOL     OW22405   1.662   2.525   6.588
 7169SOL    HW122406   1.677   2.457   6.660
 7169SOL    HW222407   1.748   2.571   6.565
 7170SOL     OW22408   5.799   5.093   3.960
 7170SOL    HW122409   5.867   5.031   3.920
 7170SOL    HW222410   5.743   5.132   3.887
 7171SOL     OW22411   4.507   2.458   6.197
 7171SOL    HW122412   4.473   2.549   6.174
 7171SOL    HW222413   4.455   2.390   6.144
 7172SOL     OW22414   0.773   6.981   1.244
 7172SOL    HW122415   0.726   7.016   1.163
 7172SOL    HW222416   0.754   0.013   1.323
 7173SOL     OW22417   6.206   6.235   5.409
 7173SOL    HW122418   6.188   6.311   5.471
 7173SOL    HW222419   6.193   6.149   5.458
 7174SOL     OW22420   0.655   5.439   6.962
 7174SOL    HW122421   0.700   5.509   6.906
 7174SOL    HW222422   0.658   5.351   6.914
 7175SOL     OW22423   6.162   2.768   5.424
 7175SOL    HW122424   6.228   2.706   5.382
 7175SOL    HW222425   6.211   2.831   5.485
 7176SOL     OW22426   6.859   3.533   1.332
 7176SOL    HW122427   6.880   3.515   1.428
 7176SOL    HW222428   6.891   3.457   1.275
 7177SOL     OW22429   0.842   5.285   2.622
 7177SOL    HW122430   0.798   5.357   2.676
 7177SOL    HW222431   0.931   5.316   2.590
 7178SOL     OW22432   0.120   1.809   6.327
 7178SOL    HW122433   0.041   1.748   6.337
 7178SOL    HW222434   0.204   1.758   6.347
 7179SOL     OW22435   2.133   4.686   6.271
 7179SOL    HW122436   2.213   4.673   6.211
 7179SOL    HW222437   2.139   4.775   6.316
 7180SOL     OW22438   0.703   6.838   3.287
 7180SOL    HW122439   0.671   6.920   3.335
 7180SOL    HW222440   0.803   6.842   3.278
 7181SOL     OW22441   5.882   6.658   2.510
 7181SOL    HW122442   5.905   6.608   2.426
 7181SOL    HW222443   5.816   6.730   2.488
 7182SOL     OW22444   3.545   3.512   5.856
 7182SOL    HW122445   3.587   3.424   5.833
 7182SOL    HW222446   3.475   3.498   5.927
 7183SOL     OW22447   1.506   4.547   3.329
 7183SOL    HW122448   1.460   4.539   3.417
 7183SOL    HW222449   1.604   4.538   3.341
 7184SOL     OW22450   2.441   5.945   2.759
 7184SOL    HW122451   2.382   5.920   2.836
 7184SOL    HW222452   2.536   5.954   2.790
 7185SOL     OW22453   4.467   2.692   6.642
 7185SOL    HW122454   4.479   2.611   6.699
 7185SOL    HW222455   4.530   2.764   6.673
 7186SOL     OW22456   0.607   0.149   3.794
 7186SOL    HW122457   0.623   0.245   3.774
 7186SOL    HW222458   0.637   0.128   3.887
 7187SOL     OW22459   2.018   5.190   1.407
 7187SOL    HW122460   1.927   5.149   1.395
 7187SOL    HW222461   2.083   5.119   1.433
 7188SOL     OW22462   5.116   0.485   1.465
 7188SOL    HW122463   5.044   0.419   1.486
 7188SOL    HW222464   5.076   0.577   1.458
 7189SOL     OW22465   6.985   0.276   4.987
 7189SOL    HW122466   7.008   0.183   5.016
 7189SOL    HW222467   7.001   0.339   5.063
 7190SOL     OW22468   4.769   4.893   3.491
 7190SOL    HW122469   4.778   4.866   3.395
 7190SOL    HW222470   4.682   4.941   3.504
 7191SOL     OW22471   0.687   3.233   1.768
 7191SOL    HW122472   0.625   3.291   1.821
 7191SOL    HW222473   0.746   3.182   1.830
 7192SOL     OW22474   4.077   5.546   6.348
 7192SOL    HW122475   4.004   5.533   6.281
 7192SOL    HW222476   4.038   5.548   6.440
 7193SOL     OW22477   5.321   1.665   3.815
 7193SOL    HW122478   5.348   1.575   3.781
 7193SOL    HW222479   5.360   1.736   3.757
 7194SOL     OW22480   3.316   1.242   1.282
 7194SOL    HW122481   3.397   1.294   1.310
 7194SOL    HW222482   3.243   1.255   1.349
 7195SOL     OW22483   0.173   5.926   2.015
 7195SOL    HW122484   0.173   5.879   1.927
 7195SOL    HW222485   0.087   5.973   2.028
 7196SOL     OW22486   3.707   2.531   1.723
 7196SOL    HW122487   3.673   2.446   1.764
 7196SOL    HW222488   3.711   2.521   1.624
 7197SOL     OW22489   1.092   1.937   4.256
 7197SOL    HW122490   1.175   1.991   4.245
 7197SOL    HW222491   1.026   1.988   4.310
 7198SOL     OW22492   0.479   6.130   6.381
 7198SOL    HW122493   0.385   6.163   6.368
 7198SOL    HW222494   0.535   6.157   6.303
 7199SOL     OW22495   5.572   6.980   2.900
 7199SOL    HW122496   5.529   0.010   2.970
 7199SOL    HW222497   5.649   6.930   2.941
 7200SOL     OW22498   1.926   2.033   2.029
 7200SOL    HW122499   1.908   2.131   2.020
 7200SOL    HW222500   1.840   1.984   2.044
 7201SOL     OW22501   2.023   5.062   3.252
 7201SOL    HW122502   2.056   4.970   3.233
 7201SOL    HW222503   2.067   5.127   3.189
 7202SOL     OW22504   3.507   0.213   5.416
 7202SOL    HW122505   3.498   0.216   5.516
 7202SOL    HW222506   3.604   0.212   5.391
 7203SOL     OW22507   5.987   0.279   6.532
 7203SOL    HW122508   5.939   0.347   6.477
 7203SOL    HW222509   6.084   0.282   6.511
 7204SOL     OW22510   6.094   1.888   2.779
 7204SOL    HW122511   6.102   1.791   2.758
 7204SOL    HW222512   6.150   1.941   2.715
 7205SOL     OW22513   1.482   4.894   1.228
 7205SOL    HW122514   1.460   4.960   1.301
 7205SOL    HW222515   1.444   4.805   1.252
 7206SOL     OW22516   5.447   1.702   1.437
 7206SOL    HW122517   5.417   1.613   1.474
 7206SOL    HW222518   5.377   1.771   1.457
 7207SOL     OW22519   3.914   6.428   2.377
 7207SOL    HW122520   3.956   6.346   2.338
 7207SOL    HW222521   3.985   6.488   2.413
 7208SOL     OW22522   3.284   6.778   5.227
 7208SOL    HW122523   3.230   6.752   5.147
 7208SOL    HW222524   3.347   6.704   5.249
 7209SOL     OW22525   3.966   3.105   4.727
 7209SOL    HW122526   3.904   3.046   4.676
 7209SOL    HW222527   3.958   3.086   4.824
 7210SOL     OW22528   4.729   0.397   4.011
 7210SOL    HW122529   4.735   0.400   3.911
 7210SOL    HW222530   4.809   0.348   4.047
 7211SOL     OW22531   1.404   5.064   2.645
 7211SOL    HW122532   1.491   5.075   2.597
 7211SOL    HW222533   1.396   5.135   2.716
 7212SOL     OW22534   4.775   0.161   3.414
 7212SOL    HW122535   4.824   0.179   3.499
 7212SOL    HW222536   4.840   0.133   3.344
 7213SOL     OW22537   5.475   6.790   5.381
 7213SOL    HW122538   5.375   6.782   5.373
 7213SOL    HW222539   5.513   6.815   5.293
 7214SOL     OW22540   0.316   4.903   5.658
 7214SOL    HW122541   0.387   4.879   5.592
 7214SOL    HW222542   0.358   4.918   5.748
 7215SOL     OW22543   0.789   3.306   2.738
 7215SOL    HW122544   0.774   3.208   2.720
 7215SOL    HW222545   0.800   3.354   2.652
 7216SOL     OW22546   2.448   1.315   1.862
 7216SOL    HW122547   2.371   1.379   1.863
 7216SOL    HW222548   2.429   1.239   1.924
 7217SOL     OW22549   1.385   2.972   1.923
 7217SOL    HW122550   1.364   2.877   1.897
 7217SOL    HW222551   1.462   3.005   1.868
 7218SOL     OW22552   6.807   2.284   5.877
 7218SOL    HW122553   6.882   2.251   5.935
 7218SOL    HW222554   6.837   2.286   5.782
 7219SOL     OW22555   3.432   0.689   1.124
 7219SOL    HW122556   3.427   0.663   1.027
 7219SOL    HW222557   3.346   0.733   1.150
 7220SOL     OW22558   0.310   0.797   3.413
 7220SOL    HW122559   0.332   0.726   3.347
 7220SOL    HW222560   0.371   0.876   3.398
 7221SOL     OW22561   6.062   5.038   5.624
 7221SOL    HW122562   6.015   4.978   5.689
 7221SOL    HW222563   6.150   4.998   5.600
 7222SOL     OW22564   5.799   6.567   3.188
 7222SOL    HW122565   5.896   6.590   3.176
 7222SOL    HW222566   5.772   6.500   3.119
 7223SOL     OW22567   4.350   0.993   5.193
 7223SOL    HW122568   4.330   0.958   5.102
 7223SOL    HW222569   4.391   0.920   5.249
 7224SOL     OW22570   5.589   1.256   4.681
 7224SOL    HW122571   5.490   1.270   4.682
 7224SOL    HW222572   5.614   1.194   4.756
 7225SOL     OW22573   2.360   0.595   1.137
 7225SOL    HW122574   2.315   0.586   1.049
 7225SOL    HW222575   2.459   0.586   1.125
 7226SOL     OW22576   5.804   6.680   6.343
 7226SOL    HW122577   5.892   6.685   6.295
 7226SOL    HW222578   5.729   6.692   6.278
 7227SOL     OW22579   0.024   2.083   6.285
 7227SOL    HW122580   0.028   2.158   6.352
 7227SOL    HW222581   0.035   1.996   6.332
 7228SOL     OW22582   2.308   0.628   2.916
 7228SOL    HW122583   2.371   0.657   2.843
 7228SOL    HW222584   2.232   0.692   2.922
 7229SOL     OW22585   6.899   0.274   3.509
 7229SOL    HW122586   6.939   0.269   3.600
 7229SOL    HW222587   6.861   0.365   3.494
 7230SOL     OW22588   6.236   5.354   1.504
 7230SOL    HW122589   6.267   5.445   1.530
 7230SOL    HW222590   6.284   5.324   1.422
 7231SOL     OW22591   5.951   0.951   6.638
 7231SOL    HW122592   6.010   0.920   6.563
 7231SOL    HW222593   6.006   0.959   6.722
 7232SOL     OW22594   3.652   3.909   0.856
 7232SOL    HW122595   3.669   3.826   0.802
 7232SOL    HW222596   3.739   3.952   0.879
 7233SOL     OW22597   0.428   2.335   5.816
 7233SOL    HW122598   0.419   2.326   5.716
 7233SOL    HW222599   0.484   2.260   5.850
 7234SOL     OW22600   5.135   1.725   2.941
 7234SOL    HW122601   5.200   1.794   2.974
 7234SOL    HW222602   5.123   1.736   2.842
 7235SOL     OW22603   6.081   2.992   4.621
 7235SOL    HW122604   6.008   2.925   4.609
 7235SOL    HW222605   6.122   3.014   4.533
 7236SOL     OW22606   2.062   1.534   3.459
 7236SOL    HW122607   2.035   1.630   3.469
 7236SOL    HW222608   2.092   1.517   3.365
 7237SOL     OW22609   6.043   5.194   5.055
 7237SOL    HW122610   6.041   5.157   5.148
 7237SOL    HW222611   6.054   5.293   5.059
 7238SOL     OW22612   1.326   1.022   1.587
 7238SOL    HW122613   1.275   1.100   1.549
 7238SOL    HW222614   1.392   0.990   1.519
 7239SOL     OW22615   4.478   1.138   2.146
 7239SOL    HW122616   4.467   1.114   2.050
 7239SOL    HW222617   4.397   1.187   2.177
 7240SOL     OW22618   3.258   3.223   1.637
 7240SOL    HW122619   3.215   3.135   1.659
 7240SOL    HW222620   3.314   3.213   1.555
 7241SOL     OW22621   5.228   7.014   4.603
 7241SOL    HW122622   5.251   6.983   4.696
 7241SOL    HW222623   5.283   6.964   4.536
 7242SOL     OW22624   5.688   5.003   0.720
 7242SOL    HW122625   5.660   4.920   0.768
 7242SOL    HW222626   5.636   5.011   0.635
 7243SOL     OW22627   0.718   5.724   0.404
 7243SOL    HW122628   0.628   5.702   0.443
 7243SOL    HW222629   0.765   5.639   0.381
 7244SOL     OW22630   5.660   2.001   0.742
 7244SOL    HW122631   5.562   2.016   0.752
 7244SOL    HW222632   5.689   1.923   0.798
 7245SOL     OW22633   6.484   1.805   4.688
 7245SOL    HW122634   6.453   1.713   4.713
 7245SOL    HW222635   6.575   1.821   4.726
 7246SOL     OW22636   1.305   5.430   5.172
 7246SOL    HW122637   1.344   5.339   5.155
 7246SOL    HW222638   1.379   5.497   5.178
 7247SOL     OW22639   3.827   5.541   3.595
 7247SOL    HW122640   3.819   5.444   3.571
 7247SOL    HW222641   3.751   5.567   3.654
 7248SOL     OW22642   3.133   0.815   4.573
 7248SOL    HW122643   3.132   0.873   4.655
 7248SOL    HW222644   3.044   0.822   4.527
 7249SOL     OW22645   5.064   3.707   5.944
 7249SOL    HW122646   4.984   3.648   5.944
 7249SOL    HW222647   5.043   3.792   5.896
 7250SOL     OW22648   3.073   3.279   0.358
 7250SOL    HW122649   3.095   3.215   0.432
 7250SOL    HW222650   3.113   3.368   0.378
 7251SOL     OW22651   5.846   1.360   4.820
 7251SOL    HW122652   5.751   1.342   4.794
 7251SOL    HW222653   5.907   1.299   4.769
 7252SOL     OW22654   4.141   3.650   5.224
 7252SOL    HW122655   4.202   3.666   5.301
 7252SOL    HW222656   4.156   3.559   5.187
 7253SOL     OW22657   5.331   4.803   0.921
 7253SOL    HW122658   5.344   4.901   0.938
 7253SOL    HW222659   5.278   4.764   0.996
 7254SOL     OW22660   5.611   6.465   5.166
 7254SOL    HW122661   5.697   6.453   5.116
 7254SOL    HW222662   5.628   6.459   5.264
 7255SOL     OW22663   3.969   3.581   2.779
 7255SOL    HW122664   4.046   3.541   2.828
 7255SOL    HW222665   3.995   3.600   2.685
 7256SOL     OW22666   3.569   4.902   3.849
 7256SOL    HW122667   3.663   4.871   3.863
 7256SOL    HW222668   3.537   4.950   3.930
 7257SOL     OW22669   6.144   4.305   3.085
 7257SOL    HW122670   6.115   4.227   3.141
 7257SOL    HW222671   6.159   4.274   2.991
 7258SOL     OW22672   2.480   0.343   5.664
 7258SOL    HW122673   2.516   0.437   5.666
 7258SOL    HW222674   2.539   0.286   5.608
 7259SOL     OW22675   2.837   4.992   6.385
 7259SOL    HW122676   2.837   4.992   6.285
 7259SOL    HW222677   2.894   5.067   6.418
 7260SOL     OW22678   4.505   1.410   2.736
 7260SOL    HW122679   4.580   1.431   2.673
 7260SOL    HW222680   4.471   1.495   2.776
 7261SOL     OW22681   1.409   4.893   0.957
 7261SOL    HW122682   1.437   4.903   1.053
 7261SOL    HW222683   1.328   4.950   0.940
 7262SOL     OW22684   6.033   0.862   5.279
 7262SOL    HW122685   6.055   0.837   5.373
 7262SOL    HW222686   6.116   0.854   5.222
 7263SOL     OW22687   5.235   6.272   1.569
 7263SOL    HW122688   5.310   6.328   1.603
 7263SOL    HW222689   5.250   6.176   1.595
 7264SOL     OW22690   1.823   6.967   4.736
 7264SOL    HW122691   1.792   6.974   4.641
 7264SOL    HW222692   1.744   6.955   4.796
 7265SOL     OW22693   4.336   3.388   6.185
 7265SOL    HW122694   4.418   3.343   6.220
 7265SOL    HW222695   4.343   3.401   6.087
 7266SOL     OW22696   3.637   1.639   1.982
 7266SOL    HW122697   3.644   1.697   1.901
 7266SOL    HW222698   3.685   1.682   2.058
 7267SOL     OW22699   6.252   3.175   4.815
 7267SOL    HW122700   6.257   3.274   4.799
 7267SOL    HW222701   6.226   3.129   4.730
 7268SOL     OW22702   3.684   0.557   0.308
 7268SOL    HW122703   3.584   0.556   0.313
 7268SOL    HW222704   3.712   0.552   0.212
 7269SOL     OW22705   1.394   0.289   1.814
 7269SOL    HW122706   1.343   0.294   1.900
 7269SOL    HW222707   1.466   0.220   1.822
 7270SOL     OW22708   3.411   1.454   2.367
 7270SOL    HW122709   3.314   1.462   2.389
 7270SOL    HW222710   3.425   1.473   2.270
 7271SOL     OW22711   5.940   5.312   3.594
 7271SOL    HW122712   5.972   5.226   3.556
 7271SOL    HW222713   5.994   5.388   3.557
 7272SOL     OW22714   6.592   2.141   0.894
 7272SOL    HW122715   6.544   2.056   0.917
 7272SOL    HW222716   6.530   2.218   0.907
 7273SOL     OW22717   5.569   5.867   5.575
 7273SOL    HW122718   5.515   5.814   5.510
 7273SOL    HW222719   5.536   5.850   5.668
 7274SOL     OW22720   5.882   4.720   4.390
 7274SOL    HW122721   5.960   4.770   4.428
 7274SOL    HW222722   5.899   4.701   4.293
 7275SOL     OW22723   5.337   6.556   1.250
 7275SOL    HW122724   5.336   6.602   1.338
 7275SOL    HW222725   5.421   6.579   1.201
 7276SOL     OW22726   2.769   2.226   3.922
 7276SOL    HW122727   2.829   2.249   3.999
 7276SOL    HW222728   2.703   2.300   3.908
 7277SOL     OW22729   5.938   1.451   3.940
 7277SOL    HW122730   5.976   1.402   4.018
 7277SOL    HW222731   5.841   1.471   3.957
 7278SOL     OW22732   2.637   1.987   3.863
 7278SOL    HW122733   2.701   2.062   3.881
 7278SOL    HW222734   2.553   2.023   3.823
 7279SOL     OW22735   4.005   3.709   1.205
 7279SOL    HW122736   4.035   3.659   1.286
 7279SOL    HW222737   3.931   3.660   1.161
 7280SOL     OW22738   6.749   2.178   5.367
 7280SOL    HW122739   6.676   2.169   5.435
 7280SOL    HW222740   6.766   2.089   5.325
 7281SOL     OW22741   3.982   6.429   1.974
 7281SOL    HW122742   3.946   6.484   2.050
 7281SOL    HW222743   4.030   6.350   2.011
 7282SOL     OW22744   0.504   3.576   1.576
 7282SOL    HW122745   0.499   3.590   1.477
 7282SOL    HW222746   0.599   3.589   1.605
 7283SOL     OW22747   3.798   6.145   2.938
 7283SOL    HW122748   3.706   6.176   2.960
 7283SOL    HW222749   3.809   6.050   2.969
 7284SOL     OW22750   0.586   1.241   2.937
 7284SOL    HW122751   0.535   1.166   2.979
 7284SOL    HW222752   0.524   1.318   2.921
 7285SOL     OW22753   5.319   3.016   2.304
 7285SOL    HW122754   5.255   2.983   2.235
 7285SOL    HW222755   5.345   2.940   2.363
 7286SOL     OW22756   6.286   1.273   3.718
 7286SOL    HW122757   6.190   1.273   3.744
 7286SOL    HW222758   6.297   1.319   3.630
 7287SOL     OW22759   3.215   0.974   4.034
 7287SOL    HW122760   3.312   0.994   4.027
 7287SOL    HW222761   3.194   0.935   4.123
 7288SOL     OW22762   3.448   1.526   2.120
 7288SOL    HW122763   3.374   1.584   2.086
 7288SOL    HW222764   3.526   1.533   2.058
 7289SOL     OW22765   6.125   2.793   2.068
 7289SOL    HW122766   6.091   2.774   1.976
 7289SOL    HW222767   6.195   2.725   2.093
 7290SOL     OW22768   3.918   1.792   4.686
 7290SOL    HW122769   3.907   1.880   4.733
 7290SOL    HW222770   3.902   1.805   4.588
 7291SOL     OW22771   1.504   1.022   0.728
 7291SOL    HW122772   1.462   0.978   0.807
 7291SOL    HW222773   1.570   1.090   0.758
 7292SOL     OW22774   3.225   0.954   2.744
 7292SOL    HW122775   3.296   0.927   2.808
 7292SOL    HW222776   3.255   0.936   2.650
 7293SOL     OW22777   6.514   1.107   3.696
 7293SOL    HW122778   6.443   1.175   3.718
 7293SOL    HW222779   6.470   1.021   3.669
 7294SOL     OW22780   4.061   0.346   2.863
 7294SOL    HW122781   4.111   0.433   2.855
 7294SOL    HW222782   4.026   0.320   2.774
 7295SOL     OW22783   5.337   3.675   1.341
 7295SOL    HW122784   5.372   3.765   1.313
 7295SOL    HW222785   5.247   3.687   1.383
 7296SOL     OW22786   3.709   6.342   1.940
 7296SOL    HW122787   3.713   6.273   1.867
 7296SOL    HW222788   3.794   6.394   1.941
 7297SOL     OW22789   3.567   6.998   0.408
 7297SOL    HW122790   3.622   0.021   0.340
 7297SOL    HW222791   3.620   6.922   0.445
 7298SOL     OW22792   4.129   5.135   1.203
 7298SOL    HW122793   4.201   5.071   1.230
 7298SOL    HW222794   4.112   5.200   1.277
 7299SOL     OW22795   0.114   3.797   6.243
 7299SOL    HW122796   0.205   3.833   6.263
 7299SOL    HW222797   0.105   3.785   6.144
 7300SOL     OW22798   0.849   4.359   2.319
 7300SOL    HW122799   0.909   4.366   2.238
 7300SOL    HW222800   0.813   4.450   2.341
 7301SOL     OW22801   4.334   2.030   6.963
 7301SOL    HW122802   4.431   2.027   6.988
 7301SOL    HW222803   4.324   2.071   6.873
 7302SOL     OW22804   5.274   2.397   6.396
 7302SOL    HW122805   5.186   2.349   6.400
 7302SOL    HW222806   5.296   2.433   6.486
 7303SOL     OW22807   2.977   1.841   1.621
 7303SOL    HW122808   2.933   1.901   1.687
 7303SOL    HW222809   2.996   1.892   1.537
 7304SOL     OW22810   2.143   6.486   0.652
 7304SOL    HW122811   2.185   6.470   0.563
 7304SOL    HW222812   2.163   6.408   0.712
 7305SOL     OW22813   6.147   0.397   6.166
 7305SOL    HW122814   6.243   0.385   6.143
 7305SOL    HW222815   6.092   0.399   6.082
 7306SOL     OW22816   1.089   3.205   1.380
 7306SOL    HW122817   1.097   3.105   1.388
 7306SOL    HW222818   1.067   3.244   1.469
 7307SOL     OW22819   3.055   0.393   2.103
 7307SOL    HW122820   3.134   0.420   2.158
 7307SOL    HW222821   3.086   0.363   2.013
 7308SOL     OW22822   3.609   1.490   3.432
 7308SOL    HW122823   3.675   1.565   3.426
 7308SOL    HW222824   3.618   1.431   3.351
 7309SOL     OW22825   2.341   5.648   3.834
 7309SOL    HW122826   2.367   5.628   3.740
 7309SOL    HW222827   2.248   5.684   3.836
 7310SOL     OW22828   2.495   2.641   6.932
 7310SOL    HW122829   2.478   2.606   6.840
 7310SOL    HW222830   2.465   2.736   6.937
 7311SOL     OW22831   0.281   6.565   5.904
 7311SOL    HW122832   0.235   6.652   5.925
 7311SOL    HW222833   0.377   6.571   5.928
 7312SOL     OW22834   6.249   2.263   4.854
 7312SOL    HW122835   6.150   2.267   4.873
 7312SOL    HW222836   6.267   2.192   4.787
 7313SOL     OW22837   3.400   0.847   2.523
 7313SOL    HW122838   3.479   0.894   2.563
 7313SOL    HW222839   3.408   0.749   2.540
 7314SOL     OW22840   2.006   4.998   5.425
 7314SOL    HW122841   1.969   4.933   5.491
 7314SOL    HW222842   2.104   5.011   5.443
 7315SOL     OW22843   3.411   4.866   2.605
 7315SOL    HW122844   3.475   4.823   2.668
 7315SOL    HW222845   3.390   4.958   2.636
 7316SOL     OW22846   3.737   1.228   1.618
 7316SOL    HW122847   3.688   1.172   1.552
 7316SOL    HW222848   3.672   1.267   1.684
 7317SOL     OW22849   5.015   1.852   0.800
 7317SOL    HW122850   4.997   1.846   0.702
 7317SOL    HW222851   4.955   1.789   0.849
 7318SOL     OW22852   4.983   6.949   1.229
 7318SOL    HW122853   4.923   6.894   1.287
 7318SOL    HW222854   5.078   6.937   1.258
 7319SOL     OW22855   5.202   6.093   6.674
 7319SOL    HW122856   5.106   6.107   6.695
 7319SOL    HW222857   5.257   6.164   6.719
 7320SOL     OW22858   0.328   2.954   6.977
 7320SOL    HW122859   0.391   2.877   6.966
 7320SOL    HW222860   0.378   3.033   7.012
 7321SOL     OW22861   2.201   2.243   5.859
 7321SOL    HW122862   2.172   2.327   5.903
 7321SOL    HW222863   2.126   2.206   5.804
 7322SOL     OW22864   1.062   2.000   3.611
 7322SOL    HW122865   1.104   2.076   3.562
 7322SOL    HW222866   0.965   2.019   3.625
 7323SOL     OW22867   1.400   2.061   0.614
 7323SOL    HW122868   1.321   2.114   0.584
 7323SOL    HW222869   1.484   2.105   0.583
 7324SOL     OW22870   5.086   3.947   4.435
 7324SOL    HW122871   5.091   4.008   4.514
 7324SOL    HW222872   4.996   3.956   4.392
 7325SOL     OW22873   3.801   1.678   6.269
 7325SOL    HW122874   3.765   1.724   6.188
 7325SOL    HW222875   3.824   1.747   6.339
 7326SOL     OW22876   4.053   6.673   0.326
 7326SOL    HW122877   4.149   6.698   0.313
 7326SOL    HW222878   3.995   6.734   0.273
 7327SOL     OW22879   1.666   4.465   3.673
 7327SOL    HW122880   1.644   4.562   3.687
 7327SOL    HW222881   1.755   4.457   3.629
 7328SOL     OW22882   4.649   5.290   6.070
 7328SOL    HW122883   4.700   5.352   6.130
 7328SOL    HW222884   4.706   5.211   6.048
 7329SOL     OW22885   2.634   3.472   1.037
 7329SOL    HW122886   2.696   3.415   1.091
 7329SOL    HW222887   2.661   3.468   0.941
 7330SOL     OW22888   2.704   3.118   0.876
 7330SOL    HW122889   2.709   3.153   0.969
 7330SOL    HW222890   2.782   3.056   0.860
 7331SOL     OW22891   5.210   2.339   2.611
 7331SOL    HW122892   5.210   2.350   2.512
 7331SOL    HW222893   5.207   2.242   2.634
 7332SOL     OW22894   2.860   6.671   5.448
 7332SOL    HW122895   2.919   6.728   5.392
 7332SOL    HW222896   2.766   6.707   5.445
 7333SOL     OW22897   6.302   0.940   1.227
 7333SOL    HW122898   6.290   0.942   1.128
 7333SOL    HW222899   6.258   0.858   1.265
 7334SOL     OW22900   1.703   4.345   5.002
 7334SOL    HW122901   1.656   4.332   5.089
 7334SOL    HW222902   1.689   4.264   4.944
 7335SOL     OW22903   1.074   3.627   2.509
 7335SOL    HW122904   0.979   3.647   2.530
 7335SOL    HW222905   1.095   3.656   2.415
 7336SOL     OW22906   2.148   6.826   0.979
 7336SOL    HW122907   2.167   6.810   0.882
 7336SOL    HW222908   2.230   6.804   1.032
 7337SOL     OW22909   3.193   1.596   3.820
 7337SOL    HW122910   3.248   1.667   3.775
 7337SOL    HW222911   3.098   1.605   3.791
 7338SOL     OW22912   4.999   3.823   1.134
 7338SOL    HW122913   4.960   3.901   1.085
 7338SOL    HW222914   5.069   3.855   1.198
 7339SOL     OW22915   0.360   6.410   4.994
 7339SOL    HW122916   0.453   6.425   4.961
 7339SOL    HW222917   0.329   6.319   4.967
 7340SOL     OW22918   2.624   5.891   6.886
 7340SOL    HW122919   2.600   5.872   6.792
 7340SOL    HW222920   2.658   5.985   6.893
 7341SOL     OW22921   6.311   5.492   3.893
 7341SOL    HW122922   6.373   5.521   3.820
 7341SOL    HW222923   6.353   5.511   3.982
 7342SOL     OW22924   1.122   5.307   0.728
 7342SOL    HW122925   1.170   5.394   0.738
 7342SOL    HW222926   1.184   5.240   0.685
 7343SOL     OW22927   6.727   2.460   3.177
 7343SOL    HW122928   6.758   2.551   3.205
 7343SOL    HW222929   6.630   2.465   3.152
 7344SOL     OW22930   2.333   1.032   6.655
 7344SOL    HW122931   2.404   0.969   6.686
 7344SOL    HW222932   2.373   1.098   6.590
 7345SOL     OW22933   2.478   6.419   6.666
 7345SOL    HW122934   2.567   6.440   6.705
 7345SOL    HW222935   2.408   6.425   6.738
 7346SOL     OW22936   3.980   4.812   2.534
 7346SOL    HW122937   3.985   4.758   2.618
 7346SOL    HW222938   3.893   4.859   2.529
 7347SOL     OW22939   6.517   3.076   3.031
 7347SOL    HW122940   6.531   3.171   3.059
 7347SOL    HW222941   6.585   3.052   2.962
 7348SOL     OW22942   6.597   1.220   5.925
 7348SOL    HW122943   6.536   1.141   5.925
 7348SOL    HW222944   6.597   1.262   6.015
 7349SOL     OW22945   3.774   1.617   1.188
 7349SOL    HW122946   3.817   1.539   1.141
 7349SOL    HW222947   3.843   1.683   1.214
 7350SOL     OW22948   2.461   0.880   3.105
 7350SOL    HW122949   2.514   0.959   3.074
 7350SOL    HW222950   2.457   0.880   3.205
 7351SOL     OW22951   4.373   4.501   0.792
 7351SOL    HW122952   4.381   4.557   0.710
 7351SOL    HW222953   4.277   4.496   0.819
 7352SOL     OW22954   6.743   0.672   2.970
 7352SOL    HW122955   6.653   0.675   2.926
 7352SOL    HW222956   6.747   0.593   3.031
 7353SOL     OW22957   5.683   1.484   5.337
 7353SOL    HW122958   5.679   1.478   5.238
 7353SOL    HW222959   5.598   1.451   5.377
 7354SOL     OW22960   6.137   4.745   4.779
 7354SOL    HW122961   6.105   4.774   4.689
 7354SOL    HW222962   6.133   4.823   4.842
 7355SOL     OW22963   0.313   5.763   1.355
 7355SOL    HW122964   0.316   5.792   1.259
 7355SOL    HW222965   0.328   5.842   1.414
 7356SOL     OW22966   0.436   2.432   6.089
 7356SOL    HW122967   0.423   2.374   6.170
 7356SOL    HW222968   0.401   2.385   6.008
 7357SOL     OW22969   0.944   1.483   6.842
 7357SOL    HW122970   0.964   1.387   6.819
 7357SOL    HW222971   0.928   1.491   6.940
 7358SOL     OW22972   3.245   1.005   3.686
 7358SOL    HW122973   3.190   1.002   3.602
 7358SOL    HW222974   3.273   1.099   3.704
 7359SOL     OW22975   3.298   3.000   3.388
 7359SOL    HW122976   3.201   2.996   3.361
 7359SOL    HW222977   3.354   3.019   3.307
 7360SOL     OW22978   0.193   4.309   6.508
 7360SOL    HW122979   0.221   4.293   6.602
 7360SOL    HW222980   0.239   4.391   6.473
 7361SOL     OW22981   4.521   6.536   1.479
 7361SOL    HW122982   4.533   6.605   1.408
 7361SOL    HW222983   4.603   6.479   1.484
 7362SOL     OW22984   2.115   6.388   6.616
 7362SOL    HW122985   2.191   6.353   6.670
 7362SOL    HW222986   2.112   6.342   6.528
 7363SOL     OW22987   4.722   2.818   6.803
 7363SOL    HW122988   4.781   2.895   6.826
 7363SOL    HW222989   4.698   2.768   6.886
 7364SOL     OW22990   4.589   0.330   1.280
 7364SOL    HW122991   4.542   0.321   1.368
 7364SOL    HW222992   4.684   0.301   1.289
 7365SOL     OW22993   4.524   0.305   1.584
 7365SOL    HW122994   4.504   0.400   1.607
 7365SOL    HW222995   4.573   0.262   1.661
 7366SOL     OW22996   1.168   6.816   0.127
 7366SOL    HW122997   1.260   6.804   0.166
 7366SOL    HW222998   1.120   6.887   0.177
 7367SOL     OW22999   4.783   2.648   0.018
 7367SOL    HW123000   4.755   2.730   0.068
 7367SOL    HW223001   4.883   2.641   0.019
 7368SOL     OW23002   3.202   3.068   3.934
 7368SOL    HW123003   3.250   2.989   3.896
 7368SOL    HW223004   3.210   3.067   4.034
 7369SOL     OW23005   5.274   1.308   5.794
 7369SOL    HW123006   5.357   1.323   5.740
 7369SOL    HW223007   5.200   1.366   5.757
 7370SOL     OW23008   1.348   6.029   1.039
 7370SOL    HW123009   1.392   5.942   1.018
 7370SOL    HW223010   1.298   6.022   1.126
 7371SOL     OW23011   1.835   4.743   4.373
 7371SOL    HW123012   1.848   4.821   4.434
 7371SOL    HW223013   1.826   4.775   4.279
 7372SOL     OW23014   3.043   0.052   5.296
 7372SOL    HW123015   3.090   0.135   5.265
 7372SOL    HW223016   2.948   0.055   5.266
 7373SOL     OW23017   3.748   7.017   0.775
 7373SOL    HW123018   3.652   0.014   0.794
 7373SOL    HW223019   3.798   7.009   0.861
 7374SOL     OW23020   2.175   3.268   6.908
 7374SOL    HW123021   2.095   3.221   6.870
 7374SOL    HW223022   2.240   3.287   6.835
 7375SOL     OW23023   2.944   6.318   2.951
 7375SOL    HW123024   3.008   6.320   2.874
 7375SOL    HW223025   2.970   6.387   3.019
 7376SOL     OW23026   3.354   4.245   6.532
 7376SOL    HW123027   3.278   4.303   6.503
 7376SOL    HW223028   3.356   4.162   6.477
 7377SOL     OW23029   5.952   5.857   1.779
 7377SOL    HW123030   5.896   5.933   1.745
 7377SOL    HW223031   6.034   5.893   1.823
 7378SOL     OW23032   0.333   2.675   6.005
 7378SOL    HW123033   0.375   2.607   6.065
 7378SOL    HW223034   0.318   2.760   6.057
 7379SOL     OW23035   4.298   0.853   0.971
 7379SOL    HW123036   4.353   0.796   1.033
 7379SOL    HW223037   4.220   0.891   1.022
 7380SOL     OW23038   6.539   2.753   5.740
 7380SOL    HW123039   6.627   2.733   5.783
 7380SOL    HW223040   6.542   2.727   5.643
 7381SOL     OW23041   4.716   2.174   0.540
 7381SOL    HW123042   4.677   2.117   0.613
 7381SOL    HW223043   4.648   2.241   0.509
 7382SOL     OW23044   1.033   5.856   3.807
 7382SOL    HW123045   0.964   5.822   3.870
 7382SOL    HW223046   1.023   5.810   3.719
 7383SOL     OW23047   1.394   4.579   2.718
 7383SOL    HW123048   1.402   4.518   2.797
 7383SOL    HW223049   1.308   4.560   2.670
 7384SOL     OW23050   6.447   1.793   1.432
 7384SOL    HW123051   6.486   1.713   1.388
 7384SOL    HW223052   6.519   1.844   1.480
 7385SOL     OW23053   5.006   0.739   1.510
 7385SOL    HW123054   5.040   0.768   1.600
 7385SOL    HW223055   5.064   0.778   1.438
 7386SOL     OW23056   0.144   2.499   6.326
 7386SOL    HW123057   0.240   2.474   6.315
 7386SOL    HW223058   0.093   2.422   6.366
 7387SOL     OW23059   5.678   6.522   3.954
 7387SOL    HW123060   5.619   6.598   3.978
 7387SOL    HW223061   5.748   6.553   3.889
 7388SOL     OW23062   5.344   4.257   5.074
 7388SOL    HW123063   5.334   4.355   5.088
 7388SOL    HW223064   5.286   4.228   4.998
 7389SOL     OW23065   0.697   3.591   4.521
 7389SOL    HW123066   0.630   3.555   4.458
 7389SOL    HW223067   0.678   3.558   4.614
 7390SOL     OW23068   3.456   0.442   6.275
 7390SOL    HW123069   3.492   0.528   6.239
 7390SOL    HW223070   3.476   0.437   6.373
 7391SOL     OW23071   0.265   5.017   0.180
 7391SOL    HW123072   0.316   4.978   0.257
 7391SOL    HW223073   0.305   5.105   0.155
 7392SOL     OW23074   2.118   4.677   2.521
 7392SOL    HW123075   2.119   4.712   2.428
 7392SOL    HW223076   2.162   4.742   2.582
 7393SOL     OW23077   0.683   3.997   0.138
 7393SOL    HW123078   0.747   4.070   0.164
 7393SOL    HW223079   0.672   3.996   0.039
 7394SOL     OW23080   2.481   2.654   5.998
 7394SOL    HW123081   2.571   2.693   6.014
 7394SOL    HW223082   2.486   2.554   6.002
 7395SOL     OW23083   2.146   6.965   6.754
 7395SOL    HW123084   2.139   6.872   6.789
 7395SOL    HW223085   2.213   6.967   6.679
 7396SOL     OW23086   6.743   0.132   1.801
 7396SOL    HW123087   6.653   0.162   1.832
 7396SOL    HW223088   6.757   0.037   1.829
 7397SOL     OW23089   6.379   4.323   4.261
 7397SOL    HW123090   6.325   4.244   4.292
 7397SOL    HW223091   6.333   4.407   4.289
 7398SOL     OW23092   4.843   6.676   2.738
 7398SOL    HW123093   4.748   6.662   2.765
 7398SOL    HW223094   4.846   6.721   2.649
 7399SOL     OW23095   5.450   4.512   4.931
 7399SOL    HW123096   5.356   4.538   4.954
 7399SOL    HW223097   5.448   4.423   4.884
 7400SOL     OW23098   2.712   3.672   0.489
 7400SOL    HW123099   2.681   3.739   0.422
 7400SOL    HW223100   2.645   3.598   0.496
 7401SOL     OW23101   5.882   2.290   4.854
 7401SOL    HW123102   5.886   2.386   4.883
 7401SOL    HW223103   5.836   2.236   4.924
 7402SOL     OW23104   2.752   6.176   4.434
 7402SOL    HW123105   2.661   6.183   4.474
 7402SOL    HW223106   2.816   6.140   4.502
 7403SOL     OW23107   2.659   2.650   1.122
 7403SOL    HW123108   2.606   2.682   1.200
 7403SOL    HW223109   2.721   2.577   1.151
 7404SOL     OW23110   0.981   2.037   2.657
 7404SOL    HW123111   0.932   2.122   2.639
 7404SOL    HW223112   1.078   2.049   2.634
 7405SOL     OW23113   4.238   4.974   6.248
 7405SOL    HW123114   4.236   4.884   6.290
 7405SOL    HW223115   4.252   5.044   6.318
 7406SOL     OW23116   0.499   6.759   2.137
 7406SOL    HW123117   0.516   6.821   2.060
 7406SOL    HW223118   0.579   6.702   2.152
 7407SOL     OW23119   2.783   0.451   6.037
 7407SOL    HW123120   2.814   0.357   6.030
 7407SOL    HW223121   2.836   0.499   6.107
 7408SOL     OW23122   0.799   3.573   5.167
 7408SOL    HW123123   0.732   3.643   5.143
 7408SOL    HW223124   0.847   3.544   5.084
 7409SOL     OW23125   2.481   6.878   5.362
 7409SOL    HW123126   2.492   6.824   5.279
 7409SOL    HW223127   2.464   6.974   5.338
 7410SOL     OW23128   4.996   5.406   6.606
 7410SOL    HW123129   4.938   5.483   6.578
 7410SOL    HW223130   5.029   5.358   6.525
 7411SOL     OW23131   5.091   4.950   5.897
 7411SOL    HW123132   5.052   5.042   5.887
 7411SOL    HW223133   5.166   4.953   5.963
 7412SOL     OW23134   1.400   0.949   6.554
 7412SOL    HW123135   1.348   0.991   6.628
 7412SOL    HW223136   1.339   0.891   6.500
 7413SOL     OW23137   6.751   3.900   4.143
 7413SOL    HW123138   6.716   3.969   4.079
 7413SOL    HW223139   6.782   3.945   4.227
 7414SOL     OW23140   0.359   4.945   2.041
 7414SOL    HW123141   0.369   4.954   1.942
 7414SOL    HW223142   0.417   5.013   2.087
 7415SOL     OW23143   3.222   1.890   3.726
 7415SOL    HW123144   3.126   1.880   3.701
 7415SOL    HW223145   3.238   1.982   3.762
 7416SOL     OW23146   6.317   0.009   3.251
 7416SOL    HW123147   6.412   0.033   3.231
 7416SOL    HW223148   6.297   0.028   3.347
 7417SOL     OW23149   0.871   5.458   0.698
 7417SOL    HW123150   0.956   5.423   0.738
 7417SOL    HW223151   0.842   5.539   0.747
 7418SOL     OW23152   0.812   3.689   0.615
 7418SOL    HW123153   0.737   3.713   0.553
 7418SOL    HW223154   0.878   3.764   0.617
 7419SOL     OW23155   5.741   1.960   5.487
 7419SOL    HW123156   5.741   2.060   5.497
 7419SOL    HW223157   5.775   1.936   5.397
 7420SOL     OW23158   6.827   5.802   2.337
 7420SOL    HW123159   6.753   5.843   2.389
 7420SOL    HW223160   6.914   5.820   2.384
 7421SOL     OW23161   4.128   1.979   1.269
 7421SOL    HW123162   4.070   2.060   1.281
 7421SOL    HW223163   4.078   1.898   1.297
 7422SOL     OW23164   0.585   1.803   0.599
 7422SOL    HW123165   0.613   1.791   0.695
 7422SOL    HW223166   0.664   1.834   0.546
 7423SOL     OW23167   2.256   4.538   0.008
 7423SOL    HW123168   2.287   4.634   0.009
 7423SOL    HW223169   2.163   4.534   6.999
 7424SOL     OW23170   5.343   0.282   4.753
 7424SOL    HW123171   5.436   0.277   4.789
 7424SOL    HW223172   5.345   0.314   4.658
 7425SOL     OW23173   4.148   0.613   4.681
 7425SOL    HW123174   4.188   0.526   4.650
 7425SOL    HW223175   4.052   0.617   4.654
 7426SOL     OW23176   0.312   1.658   0.132
 7426SOL    HW123177   0.332   1.702   0.045
 7426SOL    HW223178   0.346   1.715   0.207
 7427SOL     OW23179   5.193   5.965   5.092
 7427SOL    HW123180   5.178   5.868   5.074
 7427SOL    HW223181   5.129   6.020   5.038
 7428SOL     OW23182   3.702   1.306   5.519
 7428SOL    HW123183   3.782   1.322   5.577
 7428SOL    HW223184   3.666   1.393   5.487
 7429SOL     OW23185   6.336   6.590   3.918
 7429SOL    HW123186   6.422   6.569   3.870
 7429SOL    HW223187   6.337   6.548   4.009
 7430SOL     OW23188   0.522   4.322   4.597
 7430SOL    HW123189   0.537   4.255   4.525
 7430SOL    HW223190   0.542   4.413   4.563
 7431SOL     OW23191   0.574   4.254   2.333
 7431SOL    HW123192   0.668   4.288   2.323
 7431SOL    HW223193   0.531   4.299   2.411
 7432SOL     OW23194   1.706   6.676   4.902
 7432SOL    HW123195   1.761   6.731   4.965
 7432SOL    HW223196   1.722   6.579   4.920
 7433SOL     OW23197   0.170   6.300   1.091
 7433SOL    HW123198   0.264   6.266   1.084
 7433SOL    HW223199   0.167   6.395   1.060
 7434SOL     OW23200   4.105   0.023   6.901
 7434SOL    HW123201   4.053   7.020   6.981
 7434SOL    HW223202   4.071   7.002   6.820
 7435SOL     OW23203   1.453   6.164   6.938
 7435SOL    HW123204   1.487   6.073   6.960
 7435SOL    HW223205   1.361   6.157   6.900
 7436SOL     OW23206   4.382   3.447   0.073
 7436SOL    HW123207   4.459   3.391   0.044
 7436SOL    HW223208   4.299   3.416   0.028
 7437SOL     OW23209   6.948   6.368   5.578
 7437SOL    HW123210   6.935   6.269   5.583
 7437SOL    HW223211   6.993   6.400   5.661
 7438SOL     OW23212   5.625   3.904   1.583
 7438SOL    HW123213   5.558   3.895   1.656
 7438SOL    HW223214   5.713   3.934   1.621
 7439SOL     OW23215   1.130   6.495   3.571
 7439SOL    HW123216   1.103   6.549   3.651
 7439SOL    HW223217   1.115   6.398   3.590
 7440SOL     OW23218   0.487   1.678   3.822
 7440SOL    HW123219   0.423   1.641   3.889
 7440SOL    HW223220   0.453   1.766   3.788
 7441SOL     OW23221   6.307   0.013   3.505
 7441SOL    HW123222   6.378   0.083   3.520
 7441SOL    HW223223   6.341   6.951   3.537
 7442SOL     OW23224   1.813   0.407   5.789
 7442SOL    HW123225   1.817   0.506   5.778
 7442SOL    HW223226   1.781   0.385   5.881
 7443SOL     OW23227   6.925   1.833   1.868
 7443SOL    HW123228   6.844   1.880   1.903
 7443SOL    HW223229   7.005   1.892   1.880
 7444SOL     OW23230   0.434   2.505   5.268
 7444SOL    HW123231   0.424   2.595   5.311
 7444SOL    HW223232   0.404   2.434   5.331
 7445SOL     OW23233   5.892   3.249   1.758
 7445SOL    HW123234   5.971   3.233   1.817
 7445SOL    HW223235   5.915   3.318   1.690
 7446SOL     OW23236   6.364   3.362   2.936
 7446SOL    HW123237   6.426   3.374   2.859
 7446SOL    HW223238   6.404   3.404   3.018
 7447SOL     OW23239   6.888   4.017   6.313
 7447SOL    HW123240   6.904   4.104   6.265
 7447SOL    HW223241   6.825   3.961   6.260
 7448SOL     OW23242   0.517   6.668   6.256
 7448SOL    HW123243   0.460   6.588   6.273
 7448SOL    HW223244   0.550   6.667   6.162
 7449SOL     OW23245   4.454   0.203   1.058
 7449SOL    HW123246   4.495   0.221   1.148
 7449SOL    HW223247   4.413   0.287   1.023
 7450SOL     OW23248   3.868   0.557   1.821
 7450SOL    HW123249   3.914   0.526   1.904
 7450SOL    HW223250   3.850   0.655   1.828
 7451SOL     OW23251   1.439   0.609   2.404
 7451SOL    HW123252   1.354   0.573   2.364
 7451SOL    HW223253   1.460   0.698   2.363
 7452SOL     OW23254   1.749   6.686   3.413
 7452SOL    HW123255   1.751   6.632   3.497
 7452SOL    HW223256   1.661   6.733   3.406
 7453SOL     OW23257   6.113   5.305   5.614
 7453SOL    HW123258   6.027   5.356   5.626
 7453SOL    HW223259   6.096   5.208   5.626
 7454SOL     OW23260   0.692   3.396   6.675
 7454SOL    HW123261   0.613   3.416   6.616
 7454SOL    HW223262   0.660   3.367   6.765
 7455SOL     OW23263   5.059   1.102   1.028
 7455SOL    HW123264   5.070   1.190   0.982
 7455SOL    HW223265   4.975   1.058   0.996
 7456SOL     OW23266   0.732   3.744   5.562
 7456SOL    HW123267   0.799   3.683   5.518
 7456SOL    HW223268   0.649   3.747   5.506
 7457SOL     OW23269   6.440   6.805   5.854
 7457SOL    HW123270   6.443   6.902   5.877
 7457SOL    HW223271   6.469   6.792   5.760
 7458SOL     OW23272   2.333   0.326   1.235
 7458SOL    HW123273   2.347   0.418   1.197
 7458SOL    HW223274   2.261   0.330   1.305
 7459SOL     OW23275   4.555   6.968   4.535
 7459SOL    HW123276   4.498   6.925   4.605
 7459SOL    HW223277   4.549   6.915   4.450
 7460SOL     OW23278   1.026   5.615   6.971
 7460SOL    HW123279   0.994   5.706   6.998
 7460SOL    HW223280   1.126   5.614   6.969
 7461SOL     OW23281   4.166   1.060   4.084
 7461SOL    HW123282   4.078   1.100   4.110
 7461SOL    HW223283   4.217   1.125   4.027
 7462SOL     OW23284   2.072   0.798   2.964
 7462SOL    HW123285   1.997   0.738   2.937
 7462SOL    HW223286   2.066   0.817   3.062
 7463SOL     OW23287   3.532   3.822   2.161
 7463SOL    HW123288   3.581   3.905   2.132
 7463SOL    HW223289   3.598   3.747   2.170
 7464SOL     OW23290   4.918   0.030   0.513
 7464SOL    HW123291   4.832   7.005   0.511
 7464SOL    HW223292   4.901   0.121   0.548
 7465SOL     OW23293   3.687   0.671   2.557
 7465SOL    HW123294   3.732   0.751   2.518
 7465SOL    HW223295   3.726   0.588   2.517
 7466SOL     OW23296   6.483   0.319   6.997
 7466SOL    HW123297   6.560   0.310   0.033
 7466SOL    HW223298   6.409   0.258   7.026
 7467SOL     OW23299   4.878   1.673   1.006
 7467SOL    HW123300   4.802   1.654   0.944
 7467SOL    HW223301   4.936   1.592   1.013
 7468SOL     OW23302   6.110   3.882   4.501
 7468SOL    HW123303   6.062   3.795   4.504
 7468SOL    HW223304   6.194   3.876   4.556
 7469SOL     OW23305   5.803   1.056   2.230
 7469SOL    HW123306   5.807   1.154   2.210
 7469SOL    HW223307   5.769   1.007   2.149
 7470SOL     OW23308   0.097   3.630   2.595
 7470SOL    HW123309   0.141   3.696   2.534
 7470SOL    HW223310   0.152   3.546   2.598
 7471SOL     OW23311   6.026   4.829   5.863
 7471SOL    HW123312   6.049   4.819   5.960
 7471SOL    HW223313   6.072   4.758   5.810
 7472SOL     OW23314   4.170   4.976   2.936
 7472SOL    HW123315   4.254   5.008   2.980
 7472SOL    HW223316   4.171   5.003   2.840
 7473SOL     OW23317   0.430   3.223   5.123
 7473SOL    HW123318   0.401   3.177   5.208
 7473SOL    HW223319   0.476   3.157   5.064
 7474SOL     OW23320   3.125   1.814   2.880
 7474SOL    HW123321   3.204   1.807   2.942
 7474SOL    HW223322   3.152   1.864   2.798
 7475SOL     OW23323   4.275   1.238   6.487
 7475SOL    HW123324   4.328   1.156   6.508
 7475SOL    HW223325   4.226   1.225   6.401
 7476SOL     OW23326   2.653   0.303   4.887
 7476SOL    HW123327   2.663   0.312   4.986
 7476SOL    HW223328   2.616   0.388   4.849
 7477SOL     OW23329   4.844   3.934   3.889
 7477SOL    HW123330   4.901   3.962   3.967
 7477SOL    HW223331   4.780   4.007   3.867
 7478SOL     OW23332   1.569   4.490   1.590
 7478SOL    HW123333   1.630   4.530   1.522
 7478SOL    HW223334   1.494   4.441   1.544
 7479SOL     OW23335   4.323   0.683   5.450
 7479SOL    HW123336   4.284   0.729   5.370
 7479SOL    HW223337   4.357   0.593   5.424
 7480SOL     OW23338   6.541   5.448   0.965
 7480SOL    HW123339   6.567   5.456   1.061
 7480SOL    HW223340   6.452   5.403   0.958
 7481SOL     OW23341   6.320   6.374   0.569
 7481SOL    HW123342   6.307   6.286   0.524
 7481SOL    HW223343   6.415   6.404   0.556
 7482SOL     OW23344   5.323   6.861   3.798
 7482SOL    HW123345   5.353   6.808   3.718
 7482SOL    HW223346   5.325   6.958   3.775
 7483SOL     OW23347   3.233   0.493   5.884
 7483SOL    HW123348   3.316   0.536   5.849
 7483SOL    HW223349   3.158   0.510   5.821
 7484SOL     OW23350   3.751   0.297   2.401
 7484SOL    HW123351   3.664   0.314   2.448
 7484SOL    HW223352   3.800   0.383   2.391
 7485SOL     OW23353   1.096   0.021   5.221
 7485SOL    HW123354   1.179   7.005   5.185
 7485SOL    HW223355   1.017   7.018   5.167
 7486SOL     OW23356   0.989   1.750   5.308
 7486SOL    HW123357   0.982   1.650   5.302
 7486SOL    HW223358   0.980   1.789   5.217
 7487SOL     OW23359   3.681   5.598   3.034
 7487SOL    HW123360   3.623   5.520   3.059
 7487SOL    HW223361   3.711   5.644   3.117
 7488SOL     OW23362   3.859   1.015   5.477
 7488SOL    HW123363   3.952   1.040   5.449
 7488SOL    HW223364   3.807   1.097   5.500
 7489SOL     OW23365   0.012   3.895   3.492
 7489SOL    HW123366   0.032   3.988   3.524
 7489SOL    HW223367   6.943   3.890   3.464
 7490SOL     OW23368   5.832   1.006   3.324
 7490SOL    HW123369   5.813   1.074   3.254
 7490SOL    HW223370   5.872   0.925   3.281
 7491SOL     OW23371   0.034   6.800   6.956
 7491SOL    HW123372   0.053   6.825   6.861
 7491SOL    HW223373   0.106   6.740   6.990
 7492SOL     OW23374   2.177   2.320   4.002
 7492SOL    HW123375   2.218   2.382   3.936
 7492SOL    HW223376   2.233   2.238   4.011
 7493SOL     OW23377   5.293   4.984   6.890
 7493SOL    HW123378   5.246   4.899   6.866
 7493SOL    HW223379   5.351   4.968   6.970
 7494SOL     OW23380   5.200   2.114   1.130
 7494SOL    HW123381   5.188   2.015   1.129
 7494SOL    HW223382   5.223   2.146   1.038
 7495SOL     OW23383   0.693   1.630   2.383
 7495SOL    HW123384   0.728   1.717   2.419
 7495SOL    HW223385   0.607   1.647   2.334
 7496SOL     OW23386   0.170   5.728   5.839
 7496SOL    HW123387   0.160   5.815   5.790
 7496SOL    HW223388   0.245   5.736   5.904
 7497SOL     OW23389   1.962   5.115   2.422
 7497SOL    HW123390   1.944   5.065   2.507
 7497SOL    HW223391   1.905   5.077   2.348
 7498SOL     OW23392   5.622   2.027   4.507
 7498SOL    HW123393   5.583   1.936   4.521
 7498SOL    HW223394   5.631   2.073   4.596
 7499SOL     OW23395   3.839   4.827   3.818
 7499SOL    HW123396   3.902   4.782   3.755
 7499SOL    HW223397   3.859   4.925   3.820
 7500SOL     OW23398   4.731   4.058   1.833
 7500SOL    HW123399   4.784   4.035   1.915
 7500SOL    HW223400   4.663   4.128   1.857
 7501SOL     OW23401   0.412   4.732   4.109
 7501SOL    HW123402   0.450   4.640   4.115
 7501SOL    HW223403   0.486   4.798   4.102
 7502SOL     OW23404   1.651   2.198   4.590
 7502SOL    HW123405   1.642   2.285   4.639
 7502SOL    HW223406   1.578   2.136   4.617
 7503SOL     OW23407   2.264   2.894   6.583
 7503SOL    HW123408   2.337   2.931   6.640
 7503SOL    HW223409   2.265   2.794   6.589
 7504SOL     OW23410   3.670   5.325   3.866
 7504SOL    HW123411   3.623   5.382   3.799
 7504SOL    HW223412   3.608   5.301   3.940
 7505SOL     OW23413   1.591   1.294   4.291
 7505SOL    HW123414   1.563   1.211   4.338
 7505SOL    HW223415   1.533   1.370   4.321
 7506SOL     OW23416   3.348   1.521   3.537
 7506SOL    HW123417   3.292   1.534   3.456
 7506SOL    HW223418   3.444   1.517   3.510
 7507SOL     OW23419   1.854   6.283   5.624
 7507SOL    HW123420   1.794   6.340   5.680
 7507SOL    HW223421   1.812   6.269   5.534
 7508SOL     OW23422   4.939   5.601   4.209
 7508SOL    HW123423   4.849   5.626   4.172
 7508SOL    HW223424   4.928   5.539   4.286
 7509SOL     OW23425   4.192   3.894   6.516
 7509SOL    HW123426   4.245   3.978   6.531
 7509SOL    HW223427   4.235   3.840   6.444
 7510SOL     OW23428   3.471   4.070   4.610
 7510SOL    HW123429   3.460   4.133   4.687
 7510SOL    HW223430   3.447   3.978   4.639
 7511SOL     OW23431   1.010   0.454   2.090
 7511SOL    HW123432   1.010   0.542   2.041
 7511SOL    HW223433   0.928   0.402   2.063
 7512SOL     OW23434   2.051   2.833   1.660
 7512SOL    HW123435   2.137   2.803   1.620
 7512SOL    HW223436   2.048   2.933   1.661
 7513SOL     OW23437   1.270   3.398   6.076
 7513SOL    HW123438   1.261   3.306   6.038
 7513SOL    HW223439   1.179   3.437   6.091
 7514SOL     OW23440   3.065   5.594   3.385
 7514SOL    HW123441   3.052   5.650   3.467
 7514SOL    HW223442   3.162   5.568   3.379
 7515SOL     OW23443   0.361   5.067   2.852
 7515SOL    HW123444   0.444   5.121   2.859
 7515SOL    HW223445   0.384   4.969   2.859
 7516SOL     OW23446   1.191   1.846   2.207
 7516SOL    HW123447   1.274   1.796   2.234
 7516SOL    HW223448   1.110   1.796   2.238
 7517SOL     OW23449   0.512   5.344   0.932
 7517SOL    HW123450   0.448   5.418   0.953
 7517SOL    HW223451   0.547   5.305   1.018
 7518SOL     OW23452   5.165   4.968   3.639
 7518SOL    HW123453   5.179   4.902   3.565
 7518SOL    HW223454   5.069   4.995   3.642
 7519SOL     OW23455   1.183   0.053   3.980
 7519SOL    HW123456   1.231   6.992   3.975
 7519SOL    HW223457   1.085   0.039   3.975
 7520SOL     OW23458   2.685   0.174   3.851
 7520SOL    HW123459   2.769   0.136   3.891
 7520SOL    HW223460   2.702   0.199   3.755
 7521SOL     OW23461   4.283   3.313   5.405
 7521SOL    HW123462   4.243   3.245   5.344
 7521SOL    HW223463   4.211   3.356   5.460
 7522SOL     OW23464   1.761   0.248   2.584
 7522SOL    HW123465   1.818   0.177   2.543
 7522SOL    HW223466   1.670   0.211   2.603
 7523SOL     OW23467   6.311   6.668   6.626
 7523SOL    HW123468   6.330   6.731   6.701
 7523SOL    HW223469   6.388   6.668   6.562
 7524SOL     OW23470   6.231   0.990   4.468
 7524SOL    HW123471   6.318   0.987   4.518
 7524SOL    HW223472   6.156   1.007   4.532
 7525SOL     OW23473   1.091   6.585   0.514
 7525SOL    HW123474   1.022   6.567   0.584
 7525SOL    HW223475   1.048   6.578   0.424
 7526SOL     OW23476   3.651   3.530   4.886
 7526SOL    HW123477   3.662   3.497   4.792
 7526SOL    HW223478   3.592   3.611   4.887
 7527SOL     OW23479   4.678   5.714   2.017
 7527SOL    HW123480   4.632   5.706   2.105
 7527SOL    HW223481   4.625   5.667   1.947
 7528SOL     OW23482   5.876   3.632   6.334
 7528SOL    HW123483   5.875   3.731   6.330
 7528SOL    HW223484   5.965   3.601   6.369
 7529SOL     OW23485   2.935   0.326   4.839
 7529SOL    HW123486   2.982   0.393   4.897
 7529SOL    HW223487   2.840   0.318   4.868
 7530SOL     OW23488   6.640   2.946   3.761
 7530SOL    HW123489   6.569   2.889   3.719
 7530SOL    HW223490   6.608   3.040   3.767
 7531SOL     OW23491   2.761   1.521   4.565
 7531SOL    HW123492   2.783   1.616   4.546
 7531SOL    HW223493   2.844   1.465   4.557
 7532SOL     OW23494   4.810   4.820   2.356
 7532SOL    HW123495   4.729   4.813   2.297
 7532SOL    HW223496   4.794   4.770   2.441
 7533SOL     OW23497   3.884   0.602   4.618
 7533SOL    HW123498   3.885   0.509   4.582
 7533SOL    HW223499   3.793   0.623   4.654
 7534SOL     OW23500   5.559   6.735   4.047
 7534SOL    HW123501   5.589   6.813   3.991
 7534SOL    HW223502   5.469   6.755   4.085
 7535SOL     OW23503   3.458   4.634   0.603
 7535SOL    HW123504   3.359   4.628   0.592
 7535SOL    HW223505   3.480   4.687   0.685
 7536SOL     OW23506   3.848   6.168   4.738
 7536SOL    HW123507   3.780   6.107   4.699
 7536SOL    HW223508   3.935   6.120   4.747
 7537SOL     OW23509   2.252   4.574   5.517
 7537SOL    HW123510   2.251   4.595   5.615
 7537SOL    HW223511   2.342   4.598   5.480
 7538SOL     OW23512   2.967   3.186   3.460
 7538SOL    HW123513   2.952   3.259   3.527
 7538SOL    HW223514   2.918   3.103   3.489
 7539SOL     OW23515   1.695   2.448   4.747
 7539SOL    HW123516   1.758   2.524   4.730
 7539SOL    HW223517   1.610   2.482   4.785
 7540SOL     OW23518   2.059   0.821   6.992
 7540SOL    HW123519   1.992   0.765   6.943
 7540SOL    HW223520   2.034   0.917   6.985
 7541SOL     OW23521   6.891   2.179   5.626
 7541SOL    HW123522   6.979   2.224   5.641
 7541SOL    HW223523   6.864   2.191   5.530
 7542SOL     OW23524   1.798   0.166   5.614
 7542SOL    HW123525   1.723   0.107   5.642
 7542SOL    HW223526   1.795   0.252   5.665
 7543SOL     OW23527   3.485   2.830   0.213
 7543SOL    HW123528   3.414   2.875   0.267
 7543SOL    HW223529   3.566   2.816   0.269
 7544SOL     OW23530   1.078   2.274   2.380
 7544SOL    HW123531   1.144   2.349   2.386
 7544SOL    HW223532   0.991   2.309   2.343
 7545SOL     OW23533   4.925   0.508   3.332
 7545SOL    HW123534   4.988   0.480   3.405
 7545SOL    HW223535   4.901   0.604   3.344
 7546SOL     OW23536   5.175   6.901   6.025
 7546SOL    HW123537   5.089   6.946   6.000
 7546SOL    HW223538   5.239   6.969   6.062
 7547SOL     OW23539   2.907   7.004   0.256
 7547SOL    HW123540   2.849   0.042   0.306
 7547SOL    HW223541   2.900   6.914   0.299
 7548SOL     OW23542   1.125   3.486   1.329
 7548SOL    HW123543   1.124   3.388   1.344
 7548SOL    HW223544   1.112   3.505   1.232
 7549SOL     OW23545   5.874   2.411   2.054
 7549SOL    HW123546   5.841   2.470   2.127
 7549SOL    HW223547   5.818   2.424   1.972
 7550SOL     OW23548   1.074   4.964   1.609
 7550SOL    HW123549   0.989   4.964   1.661
 7550SOL    HW223550   1.127   4.882   1.634
 7551SOL     OW23551   5.066   4.360   6.737
 7551SOL    HW123552   4.982   4.306   6.725
 7551SOL    HW223553   5.144   4.298   6.744
 7552SOL     OW23554   3.308   5.553   3.871
 7552SOL    HW123555   3.308   5.578   3.774
 7552SOL    HW223556   3.214   5.534   3.901
 7553SOL     OW23557   4.287   3.929   5.933
 7553SOL    HW123558   4.374   3.978   5.948
 7553SOL    HW223559   4.260   3.937   5.837
 7554SOL     OW23560   6.940   1.689   0.611
 7554SOL    HW123561   7.016   1.714   0.551
 7554SOL    HW223562   6.941   1.590   0.626
 7555SOL     OW23563   1.584   5.870   5.645
 7555SOL    HW123564   1.668   5.916   5.673
 7555SOL    HW223565   1.514   5.938   5.623
 7556SOL     OW23566   6.711   3.656   3.991
 7556SOL    HW123567   6.725   3.742   4.039
 7556SOL    HW223568   6.750   3.663   3.899
 7557SOL     OW23569   4.106   3.536   0.842
 7557SOL    HW123570   4.115   3.510   0.746
 7557SOL    HW223571   4.195   3.524   0.888
 7558SOL     OW23572   1.707   2.190   3.150
 7558SOL    HW123573   1.728   2.213   3.055
 7558SOL    HW223574   1.793   2.172   3.199
 7559SOL     OW23575   1.406   4.542   0.477
 7559SOL    HW123576   1.351   4.459   0.465
 7559SOL    HW223577   1.483   4.541   0.414
 7560SOL     OW23578   4.496   0.186   5.254
 7560SOL    HW123579   4.459   0.170   5.162
 7560SOL    HW223580   4.478   0.106   5.311
 7561SOL     OW23581   6.962   3.349   6.998
 7561SOL    HW123582   6.864   3.337   6.982
 7561SOL    HW223583   6.995   3.426   6.943
 7562SOL     OW23584   4.724   6.501   5.114
 7562SOL    HW123585   4.755   6.406   5.107
 7562SOL    HW223586   4.704   6.522   5.209
 7563SOL     OW23587   2.560   1.527   2.962
 7563SOL    HW123588   2.633   1.593   2.975
 7563SOL    HW223589   2.572   1.480   2.874
 7564SOL     OW23590   4.953   6.280   3.826
 7564SOL    HW123591   4.944   6.196   3.880
 7564SOL    HW223592   4.983   6.354   3.886
 7565SOL     OW23593   4.901   5.211   6.772
 7565SOL    HW123594   4.926   5.271   6.695
 7565SOL    HW223595   4.816   5.164   6.750
 7566SOL     OW23596   1.591   6.007   4.911
 7566SOL    HW123597   1.564   6.081   4.850
 7566SOL    HW223598   1.518   5.939   4.916
 7567SOL     OW23599   2.582   2.812   0.349
 7567SOL    HW123600   2.499   2.868   0.343
 7567SOL    HW223601   2.600   2.769   0.261
 7568SOL     OW23602   4.370   4.537   2.744
 7568SOL    HW123603   4.345   4.517   2.649
 7568SOL    HW223604   4.444   4.476   2.772
 7569SOL     OW23605   3.885   0.053   0.999
 7569SOL    HW123606   3.914   0.146   0.976
 7569SOL    HW223607   3.844   0.054   1.090
 7570SOL     OW23608   5.945   5.541   4.676
 7570SOL    HW123609   5.855   5.529   4.718
 7570SOL    HW223610   6.014   5.548   4.748
 7571SOL     OW23611   5.514   4.183   1.614
 7571SOL    HW123612   5.474   4.096   1.644
 7571SOL    HW223613   5.526   4.182   1.515
 7572SOL     OW23614   0.672   1.121   3.610
 7572SOL    HW123615   0.748   1.085   3.555
 7572SOL    HW223616   0.684   1.220   3.621
 7573SOL     OW23617   2.917   5.508   5.500
 7573SOL    HW123618   2.930   5.547   5.592
 7573SOL    HW223619   2.977   5.429   5.489
 7574SOL     OW23620   5.216   5.969   2.410
 7574SOL    HW123621   5.227   5.874   2.381
 7574SOL    HW223622   5.235   6.030   2.332
 7575SOL     OW23623   4.703   2.797   4.619
 7575SOL    HW123624   4.608   2.778   4.642
 7575SOL    HW223625   4.749   2.837   4.699
 7576SOL     OW23626   6.705   3.730   1.595
 7576SOL    HW123627   6.631   3.663   1.589
 7576SOL    HW223628   6.791   3.688   1.565
 7577SOL     OW23629   4.619   0.701   4.624
 7577SOL    HW123630   4.615   0.614   4.672
 7577SOL    HW223631   4.596   0.687   4.527
 7578SOL     OW23632   3.071   5.348   4.732
 7578SOL    HW123633   3.119   5.301   4.657
 7578SOL    HW223634   3.024   5.428   4.696
 7579SOL     OW23635   4.545   2.580   3.771
 7579SOL    HW123636   4.541   2.556   3.868
 7579SOL    HW223637   4.591   2.668   3.760
 7580SOL     OW23638   2.156   3.698   2.357
 7580SOL    HW123639   2.132   3.601   2.357
 7580SOL    HW223640   2.238   3.712   2.301
 7581SOL     OW23641   5.542   1.085   1.270
 7581SOL    HW123642   5.580   1.127   1.187
 7581SOL    HW223643   5.443   1.080   1.263
 7582SOL     OW23644   2.935   1.823   0.938
 7582SOL    HW123645   2.840   1.798   0.957
 7582SOL    HW223646   2.938   1.916   0.900
 7583SOL     OW23647   6.888   3.879   2.811
 7583SOL    HW123648   6.915   3.939   2.735
 7583SOL    HW223649   6.943   3.796   2.809
 7584SOL     OW23650   1.982   1.801   1.398
 7584SOL    HW123651   1.910   1.741   1.363
 7584SOL    HW223652   2.014   1.766   1.486
 7585SOL     OW23653   1.923   5.421   6.430
 7585SOL    HW123654   1.833   5.391   6.460
 7585SOL    HW223655   1.917   5.515   6.395
 7586SOL     OW23656   2.432   0.999   2.185
 7586SOL    HW123657   2.381   0.949   2.254
 7586SOL    HW223658   2.482   1.074   2.229
 7587SOL     OW23659   1.994   0.658   6.057
 7587SOL    HW123660   1.943   0.618   5.981
 7587SOL    HW223661   1.998   0.757   6.047
 7588SOL     OW23662   1.194   4.178   1.681
 7588SOL    HW123663   1.282   4.225   1.694
 7588SOL    HW223664   1.134   4.199   1.758
 7589SOL     OW23665   5.387   6.300   6.723
 7589SOL    HW123666   5.374   6.354   6.641
 7589SOL    HW223667   5.484   6.284   6.739
 7590SOL     OW23668   1.623   0.322   6.502
 7590SOL    HW123669   1.587   0.284   6.417
 7590SOL    HW223670   1.658   0.248   6.560
 7591SOL     OW23671   6.777   5.573   0.100
 7591SOL    HW123672   6.727   5.592   0.016
 7591SOL    HW223673   6.800   5.476   0.104
 7592SOL     OW23674   4.923   5.650   6.223
 7592SOL    HW123675   4.843   5.657   6.282
 7592SOL    HW223676   5.003   5.621   6.277
 7593SOL     OW23677   6.238   3.708   0.703
 7593SOL    HW123678   6.256   3.751   0.792
 7593SOL    HW223679   6.254   3.610   0.710
 7594SOL     OW23680   0.801   6.554   3.420
 7594SOL    HW123681   0.897   6.537   3.444
 7594SOL    HW223682   0.763   6.624   3.480
 7595SOL     OW23683   6.663   2.224   0.149
 7595SOL    HW123684   6.602   2.167   0.203
 7595SOL    HW223685   6.635   2.320   0.157
 7596SOL     OW23686   4.923   4.490   1.902
 7596SOL    HW123687   4.946   4.393   1.891
 7596SOL    HW223688   4.823   4.499   1.911
 7597SOL     OW23689   2.783   5.864   1.580
 7597SOL    HW123690   2.713   5.902   1.520
 7597SOL    HW223691   2.831   5.938   1.627
 7598SOL     OW23692   6.765   0.819   2.499
 7598SOL    HW123693   6.802   0.781   2.583
 7598SOL    HW223694   6.836   0.874   2.453
 7599SOL     OW23695   6.484   2.939   2.114
 7599SOL    HW123696   6.468   2.901   2.023
 7599SOL    HW223697   6.573   2.983   2.116
 7600SOL     OW23698   2.145   1.602   2.226
 7600SOL    HW123699   2.082   1.579   2.152
 7600SOL    HW223700   2.118   1.689   2.268
 7601SOL     OW23701   1.406   0.310   4.991
 7601SOL    HW123702   1.462   0.333   4.912
 7601SOL    HW223703   1.400   0.210   5.000
 7602SOL     OW23704   2.268   3.369   5.218
 7602SOL    HW123705   2.356   3.404   5.248
 7602SOL    HW223706   2.248   3.283   5.265
 7603SOL     OW23707   0.401   1.233   1.844
 7603SOL    HW123708   0.446   1.156   1.889
 7603SOL    HW223709   0.344   1.282   1.910
 7604SOL     OW23710   4.693   5.760   6.794
 7604SOL    HW123711   4.663   5.767   6.890
 7604SOL    HW223712   4.792   5.769   6.790
 7605SOL     OW23713   5.486   3.877   5.903
 7605SOL    HW123714   5.505   3.857   6.000
 7605SOL    HW223715   5.519   3.969   5.881
 7606SOL     OW23716   5.966   2.100   2.891
 7606SOL    HW123717   6.013   2.013   2.881
 7606SOL    HW223718   5.900   2.094   2.966
 7607SOL     OW23719   5.045   0.138   6.059
 7607SOL    HW123720   5.035   0.140   6.158
 7607SOL    HW223721   5.125   0.194   6.032
 7608SOL     OW23722   3.586   2.901   3.604
 7608SOL    HW123723   3.514   2.967   3.626
 7608SOL    HW223724   3.633   2.929   3.520
 7609SOL     OW23725   1.681   2.601   4.474
 7609SOL    HW123726   1.597   2.571   4.520
 7609SOL    HW223727   1.688   2.701   4.480
 7610SOL     OW23728   5.532   0.988   1.918
 7610SOL    HW123729   5.541   1.038   1.832
 7610SOL    HW223730   5.612   0.930   1.931
 7611SOL     OW23731   1.962   1.585   1.608
 7611SOL    HW123732   1.911   1.500   1.595
 7611SOL    HW223733   2.044   1.567   1.662
 7612SOL     OW23734   4.378   1.616   2.853
 7612SOL    HW123735   4.377   1.641   2.950
 7612SOL    HW223736   4.362   1.698   2.797
 7613SOL     OW23737   5.152   0.739   3.119
 7613SOL    HW123738   5.121   0.834   3.121
 7613SOL    HW223739   5.243   0.736   3.077
 7614SOL     OW23740   4.057   1.297   0.424
 7614SOL    HW123741   3.965   1.305   0.385
 7614SOL    HW223742   4.082   1.201   0.430
 7615SOL     OW23743   3.904   4.637   5.823
 7615SOL    HW123744   3.863   4.579   5.892
 7615SOL    HW223745   3.975   4.694   5.864
 7616SOL     OW23746   6.861   4.934   3.606
 7616SOL    HW123747   6.838   4.861   3.542
 7616SOL    HW223748   6.909   4.895   3.685
 7617SOL     OW23749   3.557   6.164   2.246
 7617SOL    HW123750   3.567   6.125   2.154
 7617SOL    HW223751   3.628   6.232   2.262
 7618SOL     OW23752   1.787   2.465   0.854
 7618SOL    HW123753   1.789   2.523   0.935
 7618SOL    HW223754   1.702   2.413   0.851
 7619SOL     OW23755   5.710   3.414   5.895
 7619SOL    HW123756   5.760   3.418   5.809
 7619SOL    HW223757   5.773   3.398   5.971
 7620SOL     OW23758   2.802   6.135   1.631
 7620SOL    HW123759   2.844   6.167   1.715
 7620SOL    HW223760   2.773   6.214   1.576
 7621SOL     OW23761   2.504   1.927   1.149
 7621SOL    HW123762   2.454   2.008   1.117
 7621SOL    HW223763   2.480   1.908   1.244
 7622SOL     OW23764   5.479   1.791   1.087
 7622SOL    HW123765   5.469   1.863   1.155
 7622SOL    HW223766   5.401   1.793   1.024
 7623SOL     OW23767   5.524   0.161   5.114
 7623SOL    HW123768   5.474   0.097   5.056
 7623SOL    HW223769   5.607   0.117   5.148
 7624SOL     OW23770   6.617   0.798   4.411
 7624SOL    HW123771   6.601   0.743   4.329
 7624SOL    HW223772   6.691   0.863   4.394
 7625SOL     OW23773   3.974   6.258   0.722
 7625SOL    HW123774   4.032   6.338   0.738
 7625SOL    HW223775   3.968   6.241   0.624
 7626SOL     OW23776   2.478   4.523   4.636
 7626SOL    HW123777   2.437   4.456   4.698
 7626SOL    HW223778   2.539   4.583   4.687
 7627SOL     OW23779   6.992   1.755   0.160
 7627SOL    HW123780   0.026   1.677   0.171
 7627SOL    HW223781   0.013   1.829   0.114
 7628SOL     OW23782   4.256   2.020   0.964
 7628SOL    HW123783   4.296   1.929   0.957
 7628SOL    HW223784   4.186   2.021   1.035
 7629SOL     OW23785   6.018   5.302   3.130
 7629SOL    HW123786   6.078   5.379   3.105
 7629SOL    HW223787   5.935   5.338   3.172
 7630SOL     OW23788   6.868   1.490   2.179
 7630SOL    HW123789   6.928   1.568   2.191
 7630SOL    HW223790   6.814   1.476   2.262
 7631SOL     OW23791   1.392   1.604   3.503
 7631SOL    HW123792   1.480   1.597   3.456
 7631SOL    HW223793   1.394   1.681   3.567
 7632SOL     OW23794   4.423   0.955   6.244
 7632SOL    HW123795   4.491   0.934   6.314
 7632SOL    HW223796   4.466   1.012   6.173
 7633SOL     OW23797   5.275   5.034   6.625
 7633SOL    HW123798   5.176   5.025   6.615
 7633SOL    HW223799   5.298   5.030   6.722
 7634SOL     OW23800   0.772   2.046   1.852
 7634SOL    HW123801   0.866   2.080   1.853
 7634SOL    HW223802   0.718   2.099   1.787
 7635SOL     OW23803   2.826   5.004   6.092
 7635SOL    HW123804   2.821   5.104   6.090
 7635SOL    HW223805   2.903   4.974   6.035
 7636SOL     OW23806   2.114   0.494   3.575
 7636SOL    HW123807   2.163   0.580   3.592
 7636SOL    HW223808   2.040   0.485   3.641
 7637SOL     OW23809   2.216   6.356   4.113
 7637SOL    HW123810   2.273   6.418   4.058
 7637SOL    HW223811   2.232   6.373   4.210
 7638SOL     OW23812   4.164   4.133   1.448
 7638SOL    HW123813   4.151   4.103   1.543
 7638SOL    HW223814   4.257   4.169   1.437
 7639SOL     OW23815   6.811   2.543   4.792
 7639SOL    HW123816   6.842   2.457   4.833
 7639SOL    HW223817   6.726   2.572   4.836
 7640SOL     OW23818   2.310   3.331   5.578
 7640SOL    HW123819   2.314   3.345   5.676
 7640SOL    HW223820   2.248   3.398   5.537
 7641SOL     OW23821   6.326   2.911   3.350
 7641SOL    HW123822   6.279   2.979   3.294
 7641SOL    HW223823   6.263   2.837   3.371
 7642SOL     OW23824   2.094   0.952   2.557
 7642SOL    HW123825   2.040   0.869   2.549
 7642SOL    HW223826   2.191   0.931   2.544
 7643SOL     OW23827   5.788   3.057   3.224
 7643SOL    HW123828   5.886   3.063   3.241
 7643SOL    HW223829   5.765   3.108   3.141
 7644SOL     OW23830   6.472   4.091   3.708
 7644SOL    HW123831   6.416   4.021   3.663
 7644SOL    HW223832   6.419   4.133   3.781
 7645SOL     OW23833   3.981   3.027   0.350
 7645SOL    HW123834   3.975   2.983   0.439
 7645SOL    HW223835   4.051   2.982   0.295
 7646SOL     OW23836   0.561   1.300   1.383
 7646SOL    HW123837   0.465   1.292   1.411
 7646SOL    HW223838   0.615   1.230   1.430
 7647SOL     OW23839   2.454   4.989   0.951
 7647SOL    HW123840   2.420   5.073   0.911
 7647SOL    HW223841   2.456   4.917   0.882
 7648SOL     OW23842   3.661   0.323   3.913
 7648SOL    HW123843   3.657   0.338   3.814
 7648SOL    HW223844   3.755   0.303   3.941
 7649SOL     OW23845   2.848   1.457   2.046
 7649SOL    HW123846   2.921   1.388   2.040
 7649SOL    HW223847   2.857   1.521   1.970
 7650SOL     OW23848   6.193   4.274   0.943
 7650SOL    HW123849   6.204   4.181   0.909
 7650SOL    HW223850   6.108   4.281   0.994
 7651SOL     OW23851   4.162   2.005   6.661
 7651SOL    HW123852   4.195   2.028   6.569
 7651SOL    HW223853   4.071   2.045   6.674
 7652SOL     OW23854   1.824   3.150   2.918
 7652SOL    HW123855   1.769   3.177   2.839
 7652SOL    HW223856   1.764   3.132   2.996
 7653SOL     OW23857   3.733   1.932   1.412
 7653SOL    HW123858   3.770   1.848   1.371
 7653SOL    HW223859   3.801   1.971   1.474
 7654SOL     OW23860   4.924   3.812   4.169
 7654SOL    HW123861   4.881   3.879   4.230
 7654SOL    HW223862   4.872   3.805   4.084
 7655SOL     OW23863   4.511   6.205   5.309
 7655SOL    HW123864   4.427   6.208   5.255
 7655SOL    HW223865   4.489   6.174   5.402
 7656SOL     OW23866   1.125   6.730   4.162
 7656SOL    HW123867   1.181   6.687   4.233
 7656SOL    HW223868   1.180   6.740   4.079
 7657SOL     OW23869   4.605   1.806   4.267
 7657SOL    HW123870   4.512   1.772   4.279
 7657SOL    HW223871   4.622   1.878   4.334
 7658SOL     OW23872   4.205   0.071   6.539
 7658SOL    HW123873   4.288   0.019   6.517
 7658SOL    HW223874   4.135   0.053   6.470
 7659SOL     OW23875   5.376   6.590   0.328
 7659SOL    HW123876   5.357   6.558   0.236
 7659SOL    HW223877   5.344   6.523   0.395
 7660SOL     OW23878   6.244   4.849   4.493
 7660SOL    HW123879   6.242   4.878   4.398
 7660SOL    HW223880   6.178   4.902   4.546
 7661SOL     OW23881   5.701   3.217   4.041
 7661SOL    HW123882   5.752   3.289   4.088
 7661SOL    HW223883   5.635   3.176   4.104
 7662SOL     OW23884   6.536   5.700   2.823
 7662SOL    HW123885   6.533   5.712   2.724
 7662SOL    HW223886   6.515   5.604   2.845
 7663SOL     OW23887   6.381   5.729   0.064
 7663SOL    HW123888   6.285   5.758   0.056
 7663SOL    HW223889   6.441   5.809   0.051
 7664SOL     OW23890   2.612   5.693   5.240
 7664SOL    HW123891   2.649   5.716   5.150
 7664SOL    HW223892   2.631   5.597   5.260
 7665SOL     OW23893   2.338   5.560   4.275
 7665SOL    HW123894   2.410   5.627   4.254
 7665SOL    HW223895   2.253   5.588   4.229
 7666SOL     OW23896   2.556   1.148   0.828
 7666SOL    HW123897   2.529   1.071   0.886
 7666SOL    HW223898   2.526   1.130   0.734
 7667SOL     OW23899   4.612   5.967   6.411
 7667SOL    HW123900   4.615   5.987   6.509
 7667SOL    HW223901   4.691   6.010   6.366
 7668SOL     OW23902   2.566   3.862   1.710
 7668SOL    HW123903   2.554   3.953   1.749
 7668SOL    HW223904   2.663   3.846   1.691
 7669SOL     OW23905   4.774   6.572   4.840
 7669SOL    HW123906   4.790   6.558   4.937
 7669SOL    HW223907   4.677   6.561   4.820
 7670SOL     OW23908   1.524   5.445   0.805
 7670SOL    HW123909   1.604   5.501   0.825
 7670SOL    HW223910   1.519   5.429   0.706
 7671SOL     OW23911   5.327   2.717   4.993
 7671SOL    HW123912   5.384   2.650   4.945
 7671SOL    HW223913   5.322   2.692   5.090
 7672SOL     OW23914   6.264   0.386   2.181
 7672SOL    HW123915   6.211   0.452   2.129
 7672SOL    HW223916   6.362   0.399   2.163
 7673SOL     OW23917   0.163   4.295   0.048
 7673SOL    HW123918   0.088   4.307   0.114
 7673SOL    HW223919   0.242   4.348   0.078
 7674SOL     OW23920   6.397   1.354   5.306
 7674SOL    HW123921   6.298   1.342   5.295
 7674SOL    HW223922   6.416   1.449   5.332
 7675SOL     OW23923   4.771   6.957   3.011
 7675SOL    HW123924   4.867   6.967   3.035
 7675SOL    HW223925   4.741   6.863   3.027
 7676SOL     OW23926   1.178   0.383   1.611
 7676SOL    HW123927   1.175   0.482   1.597
 7676SOL    HW223928   1.252   0.361   1.674
 7677SOL     OW23929   1.732   2.235   2.870
 7677SOL    HW123930   1.643   2.231   2.825
 7677SOL    HW223931   1.780   2.148   2.858
 7678SOL     OW23932   5.209   6.660   6.142
 7678SOL    HW123933   5.197   6.755   6.112
 7678SOL    HW223934   5.176   6.650   6.236
 7679SOL     OW23935   1.582   4.969   5.236
 7679SOL    HW123936   1.668   4.918   5.231
 7679SOL    HW223937   1.506   4.906   5.253
 7680SOL     OW23938   4.709   1.230   6.586
 7680SOL    HW123939   4.629   1.288   6.598
 7680SOL    HW223940   4.766   1.233   6.668
 7681SOL     OW23941   2.493   1.922   6.118
 7681SOL    HW123942   2.566   1.916   6.050
 7681SOL    HW223943   2.461   1.830   6.141
 7682SOL     OW23944   2.443   0.090   1.170
 7682SOL    HW123945   2.379   0.159   1.201
 7682SOL    HW223946   2.495   0.055   1.249
 7683SOL     OW23947   6.259   2.088   2.626
 7683SOL    HW123948   6.197   2.165   2.642
 7683SOL    HW223949   6.282   2.083   2.529
 7684SOL     OW23950   4.223   2.170   6.418
 7684SOL    HW123951   4.223   2.226   6.335
 7684SOL    HW223952   4.163   2.091   6.405
 7685SOL     OW23953   4.437   3.678   0.705
 7685SOL    HW123954   4.464   3.682   0.801
 7685SOL    HW223955   4.473   3.759   0.657
 7686SOL     OW23956   3.408   0.836   3.824
 7686SOL    HW123957   3.377   0.745   3.795
 7686SOL    HW223958   3.349   0.906   3.783
 7687SOL     OW23959   4.291   4.868   5.853
 7687SOL    HW123960   4.275   4.783   5.902
 7687SOL    HW223961   4.278   4.852   5.755
 7688SOL     OW23962   6.585   0.071   3.353
 7688SOL    HW123963   6.562   0.114   3.441
 7688SOL    HW223964   6.666   0.014   3.365
 7689SOL     OW23965   3.725   6.892   4.802
 7689SOL    HW123966   3.672   6.811   4.829
 7689SOL    HW223967   3.817   6.865   4.774
 7690SOL     OW23968   0.812   5.132   2.930
 7690SOL    HW123969   0.900   5.167   2.899
 7690SOL    HW223970   0.816   5.033   2.936
 7691SOL     OW23971   5.485   4.062   5.560
 7691SOL    HW123972   5.427   4.027   5.634
 7691SOL    HW223973   5.561   3.998   5.545
 7692SOL     OW23974   1.835   6.291   1.653
 7692SOL    HW123975   1.765   6.268   1.721
 7692SOL    HW223976   1.821   6.235   1.571
 7693SOL     OW23977   5.233   0.904   0.685
 7693SOL    HW123978   5.189   0.978   0.736
 7693SOL    HW223979   5.274   0.941   0.602
 7694SOL     OW23980   6.296   4.590   4.344
 7694SOL    HW123981   6.230   4.648   4.297
 7694SOL    HW223982   6.335   4.641   4.421
 7695SOL     OW23983   3.936   0.235   6.147
 7695SOL    HW123984   3.856   0.240   6.208
 7695SOL    HW223985   3.969   0.328   6.128
 7696SOL     OW23986   1.096   4.292   5.778
 7696SOL    HW123987   1.050   4.339   5.853
 7696SOL    HW223988   1.029   4.236   5.729
 7697SOL     OW23989   4.093   1.921   1.819
 7697SOL    HW123990   4.123   1.840   1.869
 7697SOL    HW223991   4.017   1.964   1.869
 7698SOL     OW23992   0.221   3.307   5.915
 7698SOL    HW123993   0.269   3.339   5.833
 7698SOL    HW223994   0.190   3.213   5.900
 7699SOL     OW23995   2.433   4.509   0.369
 7699SOL    HW123996   2.401   4.479   0.279
 7699SOL    HW223997   2.416   4.437   0.436
 7700SOL     OW23998   5.598   6.761   5.140
 7700SOL    HW123999   5.566   6.667   5.127
 7700SOL    HW224000   5.641   6.793   5.056
 7701SOL     OW24001   6.025   2.393   5.498
 7701SOL    HW124002   6.084   2.327   5.451
 7701SOL    HW224003   6.017   2.475   5.442
 7702SOL     OW24004   2.579   6.023   5.659
 7702SOL    HW124005   2.488   6.060   5.676
 7702SOL    HW224006   2.580   5.981   5.568
 7703SOL     OW24007   0.918   1.978   5.686
 7703SOL    HW124008   0.952   1.885   5.702
 7703SOL    HW224009   0.942   2.007   5.594
 7704SOL     OW24010   2.823   4.261   0.696
 7704SOL    HW124011   2.821   4.199   0.774
 7704SOL    HW224012   2.735   4.309   0.689
 7705SOL     OW24013   3.842   4.575   5.322
 7705SOL    HW124014   3.832   4.673   5.338
 7705SOL    HW224015   3.752   4.533   5.310
 7706SOL     OW24016   6.401   0.274   5.126
 7706SOL    HW124017   6.306   0.303   5.140
 7706SOL    HW224018   6.457   0.308   5.201
 7707SOL     OW24019   0.122   5.447   6.112
 7707SOL    HW124020   0.221   5.451   6.099
 7707SOL    HW224021   0.081   5.391   6.041
 7708SOL     OW24022   4.947   0.425   4.743
 7708SOL    HW124023   4.901   0.436   4.655
 7708SOL    HW224024   4.879   0.405   4.814
 7709SOL     OW24025   3.511   2.251   1.652
 7709SOL    HW124026   3.565   2.275   1.732
 7709SOL    HW224027   3.550   2.295   1.570
 7710SOL     OW24028   2.762   2.671   5.940
 7710SOL    HW124029   2.728   2.613   5.866
 7710SOL    HW224030   2.861   2.681   5.931
 7711SOL     OW24031   5.227   6.696   5.431
 7711SOL    HW124032   5.144   6.713   5.485
 7711SOL    HW224033   5.268   6.609   5.460
 7712SOL     OW24034   5.189   5.196   0.604
 7712SOL    HW124035   5.106   5.225   0.650
 7712SOL    HW224036   5.192   5.096   0.597
 7713SOL     OW24037   1.005   5.248   6.267
 7713SOL    HW124038   1.103   5.269   6.269
 7713SOL    HW224039   0.986   5.176   6.334
 7714SOL     OW24040   5.637   4.078   4.255
 7714SOL    HW124041   5.657   4.117   4.345
 7714SOL    HW224042   5.574   4.001   4.264
 7715SOL     OW24043   4.319   2.191   1.573
 7715SOL    HW124044   4.333   2.121   1.504
 7715SOL    HW224045   4.322   2.282   1.530
 7716SOL     OW24046   4.769   2.830   3.931
 7716SOL    HW124047   4.737   2.836   4.025
 7716SOL    HW224048   4.833   2.905   3.912
 7717SOL     OW24049   3.292   0.181   6.563
 7717SOL    HW124050   3.230   0.218   6.494
 7717SOL    HW224051   3.270   0.084   6.579
 7718SOL     OW24052   3.084   6.319   4.134
 7718SOL    HW124053   3.036   6.323   4.222
 7718SOL    HW224054   3.028   6.268   4.068
 7719SOL     OW24055   5.617   2.797   5.463
 7719SOL    HW124056   5.562   2.877   5.487
 7719SOL    HW224057   5.617   2.733   5.540
 7720SOL     OW24058   5.502   6.305   1.400
 7720SOL    HW124059   5.525   6.218   1.443
 7720SOL    HW224060   5.403   6.313   1.391
 7721SOL     OW24061   1.362   4.426   2.993
 7721SOL    HW124062   1.268   4.400   2.968
 7721SOL    HW224063   1.406   4.350   3.040
 7722SOL     OW24064   0.905   6.480   4.014
 7722SOL    HW124065   0.983   6.418   4.024
 7722SOL    HW224066   0.891   6.530   4.099
 7723SOL     OW24067   6.549   2.414   0.778
 7723SOL    HW124068   6.507   2.471   0.849
 7723SOL    HW224069   6.648   2.420   0.785
 7724SOL     OW24070   1.937   5.453   0.616
 7724SOL    HW124071   1.978   5.369   0.582
 7724SOL    HW224072   1.956   5.528   0.552
 7725SOL     OW24073   5.493   3.937   4.535
 7725SOL    HW124074   5.412   3.993   4.526
 7725SOL    HW224075   5.508   3.886   4.450
 7726SOL     OW24076   5.746   4.321   3.809
 7726SOL    HW124077   5.659   4.299   3.852
 7726SOL    HW224078   5.817   4.257   3.840
 7727SOL     OW24079   6.111   3.235   1.916
 7727SOL    HW124080   6.122   3.162   1.984
 7727SOL    HW224081   6.150   3.319   1.953
 7728SOL     OW24082   2.366   2.216   2.315
 7728SOL    HW124083   2.290   2.251   2.369
 7728SOL    HW224084   2.408   2.291   2.264
 7729SOL     OW24085   5.066   2.658   0.777
 7729SOL    HW124086   4.984   2.649   0.720
 7729SOL    HW224087   5.062   2.745   0.827
 7730SOL     OW24088   4.743   0.008   2.148
 7730SOL    HW124089   4.668   0.010   2.081
 7730SOL    HW224090   4.810   0.078   2.124
 7731SOL     OW24091   0.103   1.411   4.878
 7731SOL    HW124092   0.019   1.377   4.919
 7731SOL    HW224093   0.176   1.412   4.947
 7732SOL     OW24094   4.397   4.700   0.598
 7732SOL    HW124095   4.471   4.732   0.539
 7732SOL    HW224096   4.360   4.778   0.649
 7733SOL     OW24097   3.081   6.373   0.816
 7733SOL    HW124098   3.113   6.292   0.766
 7733SOL    HW224099   3.083   6.452   0.755
 7734SOL     OW24100   1.497   1.996   3.037
 7734SOL    HW124101   1.546   2.060   3.096
 7734SOL    HW224102   1.467   1.917   3.091
 7735SOL     OW24103   5.434   4.051   0.711
 7735SOL    HW124104   5.415   4.071   0.807
 7735SOL    HW224105   5.395   3.962   0.688
 7736SOL     OW24106   5.798   4.569   6.111
 7736SOL    HW124107   5.762   4.478   6.136
 7736SOL    HW224108   5.850   4.606   6.188
 7737SOL     OW24109   4.907   2.402   0.933
 7737SOL    HW124110   4.967   2.388   0.854
 7737SOL    HW224111   4.832   2.462   0.907
 7738SOL     OW24112   2.014   4.836   0.327
 7738SOL    HW124113   2.080   4.762   0.339
 7738SOL    HW224114   1.957   4.845   0.409
 7739SOL     OW24115   5.816   3.370   2.211
 7739SOL    HW124116   5.766   3.354   2.126
 7739SOL    HW224117   5.828   3.469   2.224
 7740SOL     OW24118   0.287   6.128   3.840
 7740SOL    HW124119   0.349   6.157   3.767
 7740SOL    HW224120   0.255   6.035   3.822
 7741SOL     OW24121   3.226   5.856   4.354
 7741SOL    HW124122   3.196   5.779   4.410
 7741SOL    HW224123   3.153   5.882   4.291
 7742SOL     OW24124   6.611   1.272   4.128
 7742SOL    HW124125   6.563   1.301   4.045
 7742SOL    HW224126   6.688   1.213   4.103
 7743SOL     OW24127   4.956   2.946   2.857
 7743SOL    HW124128   4.937   3.020   2.792
 7743SOL    HW224129   4.969   2.985   2.948
 7744SOL     OW24130   0.497   6.992   4.950
 7744SOL    HW124131   0.507   7.012   4.853
 7744SOL    HW224132   0.543   6.906   4.971
 7745SOL     OW24133   4.714   3.374   5.418
 7745SOL    HW124134   4.797   3.430   5.424
 7745SOL    HW224135   4.635   3.429   5.445
 7746SOL     OW24136   1.597   0.350   6.913
 7746SOL    HW124137   1.554   0.386   6.996
 7746SOL    HW224138   1.693   0.329   6.931
 7747SOL     OW24139   5.218   5.456   1.522
 7747SOL    HW124140   5.224   5.357   1.534
 7747SOL    HW224141   5.300   5.488   1.476
 7748SOL     OW24142   2.669   3.819   6.573
 7748SOL    HW124143   2.719   3.893   6.617
 7748SOL    HW224144   2.580   3.808   6.616
 7749SOL     OW24145   5.689   4.324   6.197
 7749SOL    HW124146   5.704   4.279   6.285
 7749SOL    HW224147   5.596   4.304   6.166
 7750SOL     OW24148   5.606   5.032   2.924
 7750SOL    HW124149   5.650   5.097   2.862
 7750SOL    HW224150   5.533   4.984   2.876
 7751SOL     OW24151   0.431   2.531   0.991
 7751SOL    HW124152   0.510   2.587   1.015
 7751SOL    HW224153   0.386   2.570   0.911
 7752SOL     OW24154   4.293   1.155   3.274
 7752SOL    HW124155   4.282   1.226   3.344
 7752SOL    HW224156   4.385   1.159   3.235
 7753SOL     OW24157   3.206   1.745   5.156
 7753SOL    HW124158   3.214   1.811   5.230
 7753SOL    HW224159   3.117   1.755   5.112
 7754SOL     OW24160   5.738   5.454   1.589
 7754SOL    HW124161   5.765   5.405   1.672
 7754SOL    HW224162   5.807   5.441   1.518
 7755SOL     OW24163   0.537   5.162   4.660
 7755SOL    HW124164   0.516   5.065   4.646
 7755SOL    HW224165   0.571   5.201   4.575
 7756SOL     OW24166   2.391   4.802   2.271
 7756SOL    HW124167   2.327   4.803   2.194
 7756SOL    HW224168   2.390   4.711   2.313
 7757SOL     OW24169   6.896   4.276   1.582
 7757SOL    HW124170   6.966   4.216   1.620
 7757SOL    HW224171   6.810   4.225   1.573
 7758SOL     OW24172   1.215   2.421   4.757
 7758SOL    HW124173   1.185   2.341   4.808
 7758SOL    HW224174   1.304   2.452   4.792
 7759SOL     OW24175   3.685   1.346   2.082
 7759SOL    HW124176   3.598   1.387   2.055
 7759SOL    HW224177   3.730   1.307   2.001
 7760SOL     OW24178   5.171   3.319   0.284
 7760SOL    HW124179   5.139   3.411   0.307
 7760SOL    HW224180   5.145   3.296   0.191
 7761SOL     OW24181   4.844   4.898   2.872
 7761SOL    HW124182   4.897   4.814   2.860
 7761SOL    HW224183   4.901   4.977   2.850
 7762SOL     OW24184   5.150   1.730   1.697
 7762SOL    HW124185   5.196   1.641   1.696
 7762SOL    HW224186   5.153   1.770   1.605
 7763SOL     OW24187   2.431   0.073   3.914
 7763SOL    HW124188   2.524   0.108   3.926
 7763SOL    HW224189   2.425   0.022   3.829
 7764SOL     OW24190   3.243   4.408   5.954
 7764SOL    HW124191   3.280   4.447   5.870
 7764SOL    HW224192   3.309   4.344   5.993
 7765SOL     OW24193   5.423   4.344   4.544
 7765SOL    HW124194   5.518   4.319   4.522
 7765SOL    HW224195   5.365   4.328   4.464
 7766SOL     OW24196   6.383   3.080   6.403
 7766SOL    HW124197   6.416   2.993   6.367
 7766SOL    HW224198   6.365   3.071   6.501
 7767SOL     OW24199   4.422   0.298   3.692
 7767SOL    HW124200   4.347   0.339   3.640
 7767SOL    HW224201   4.386   0.224   3.749
 7768SOL     OW24202   3.834   5.611   4.342
 7768SOL    HW124203   3.844   5.612   4.243
 7768SOL    HW224204   3.920   5.637   4.385
 7769SOL     OW24205   3.655   2.824   6.481
 7769SOL    HW124206   3.613   2.870   6.403
 7769SOL    HW224207   3.745   2.863   6.498
 7770SOL     OW24208   1.029   3.173   3.984
 7770SOL    HW124209   1.081   3.109   4.039
 7770SOL    HW224210   0.959   3.124   3.931
 7771SOL     OW24211   1.459   3.739   6.065
 7771SOL    HW124212   1.508   3.658   6.098
 7771SOL    HW224213   1.390   3.766   6.133
 7772SOL     OW24214   5.572   6.192   1.864
 7772SOL    HW124215   5.499   6.160   1.925
 7772SOL    HW224216   5.538   6.269   1.810
 7773SOL     OW24217   2.301   6.413   6.869
 7773SOL    HW124218   2.335   6.457   6.952
 7773SOL    HW224219   2.219   6.360   6.890
 7774SOL     OW24220   4.918   1.386   2.786
 7774SOL    HW124221   4.911   1.422   2.692
 7774SOL    HW224222   4.914   1.462   2.851
 7775SOL     OW24223   3.172   1.640   1.605
 7775SOL    HW124224   3.097   1.705   1.618
 7775SOL    HW224225   3.184   1.622   1.508
 7776SOL     OW24226   2.892   0.832   4.437
 7776SOL    HW124227   2.855   0.923   4.453
 7776SOL    HW224228   2.817   0.765   4.432
 7777SOL     OW24229   6.243   5.532   3.191
 7777SOL    HW124230   6.213   5.518   3.096
 7777SOL    HW224231   6.280   5.625   3.200
 7778SOL     OW24232   0.888   4.566   2.809
 7778SOL    HW124233   0.836   4.634   2.860
 7778SOL    HW224234   0.839   4.478   2.811
 7779SOL     OW24235   3.581   6.459   1.686
 7779SOL    HW124236   3.568   6.501   1.776
 7779SOL    HW224237   3.494   6.459   1.637
 7780SOL     OW24238   6.552   5.572   4.529
 7780SOL    HW124239   6.555   5.472   4.536
 7780SOL    HW224240   6.467   5.600   4.485
 7781SOL     OW24241   1.960   2.962   0.856
 7781SOL    HW124242   1.958   2.997   0.950
 7781SOL    HW224243   2.037   2.898   0.846
 7782SOL     OW24244   5.817   3.734   4.875
 7782SOL    HW124245   5.801   3.825   4.836
 7782SOL    HW224246   5.767   3.666   4.822
 7783SOL     OW24247   1.988   6.334   3.947
 7783SOL    HW124248   1.902   6.322   3.996
 7783SOL    HW224249   2.064   6.326   4.011
 7784SOL     OW24250   1.564   1.938   1.785
 7784SOL    HW124251   1.523   1.927   1.875
 7784SOL    HW224252   1.621   1.858   1.765
 7785SOL     OW24253   6.636   5.892   2.998
 7785SOL    HW124254   6.734   5.908   3.000
 7785SOL    HW224255   6.615   5.816   2.935
 7786SOL     OW24256   4.834   1.116   6.323
 7786SOL    HW124257   4.788   1.172   6.392
 7786SOL    HW224258   4.909   1.065   6.366
 7787SOL     OW24259   2.203   2.690   1.218
 7787SOL    HW124260   2.186   2.626   1.143
 7787SOL    HW224261   2.285   2.744   1.197
 7788SOL     OW24262   0.881   4.100   2.097
 7788SOL    HW124263   0.939   4.141   2.167
 7788SOL    HW224264   0.914   4.008   2.075
 7789SOL     OW24265   3.642   1.165   6.396
 7789SOL    HW124266   3.664   1.147   6.301
 7789SOL    HW224267   3.590   1.250   6.403
 7790SOL     OW24268   3.847   5.102   3.898
 7790SOL    HW124269   3.787   5.180   3.884
 7790SOL    HW224270   3.927   5.130   3.950
 7791SOL     OW24271   2.967   5.688   2.385
 7791SOL    HW124272   3.034   5.657   2.317
 7791SOL    HW224273   2.879   5.646   2.366
 7792SOL     OW24274   1.265   1.607   2.511
 7792SOL    HW124275   1.171   1.584   2.486
 7792SOL    HW224276   1.268   1.698   2.551
 7793SOL     OW24277   5.035   1.437   0.996
 7793SOL    HW124278   4.951   1.393   1.027
 7793SOL    HW224279   5.108   1.419   1.062
 7794SOL     OW24280   1.321   0.244   3.036
 7794SOL    HW124281   1.331   0.330   3.087
 7794SOL    HW224282   1.238   0.249   2.979
 7795SOL     OW24283   3.504   4.111   1.103
 7795SOL    HW124284   3.581   4.155   1.148
 7795SOL    HW224285   3.428   4.176   1.095
 7796SOL     OW24286   3.428   1.131   0.314
 7796SOL    HW124287   3.337   1.151   0.348
 7796SOL    HW224288   3.491   1.205   0.339
 7797SOL     OW24289   1.431   5.787   2.804
 7797SOL    HW124290   1.517   5.834   2.826
 7797SOL    HW224291   1.441   5.689   2.824
 7798SOL     OW24292   1.889   3.267   0.636
 7798SOL    HW124293   1.893   3.277   0.537
 7798SOL    HW224294   1.978   3.237   0.670
 7799SOL     OW24295   3.032   6.605   3.810
 7799SOL    HW124296   3.130   6.623   3.821
 7799SOL    HW224297   2.980   6.667   3.868
 7800SOL     OW24298   1.852   0.774   2.399
 7800SOL    HW124299   1.798   0.762   2.483
 7800SOL    HW224300   1.808   0.725   2.324
 7801SOL     OW24301   1.223   2.141   1.016
 7801SOL    HW124302   1.169   2.224   1.003
 7801SOL    HW224303   1.161   2.062   1.018
 7802SOL     OW24304   6.425   4.448   4.024
 7802SOL    HW124305   6.428   4.382   4.099
 7802SOL    HW224306   6.332   4.484   4.016
 7803SOL     OW24307   3.320   2.634   5.792
 7803SOL    HW124308   3.321   2.688   5.708
 7803SOL    HW224309   3.412   2.597   5.808
 7804SOL     OW24310   3.062   1.591   5.538
 7804SOL    HW124311   3.147   1.640   5.557
 7804SOL    HW224312   3.009   1.583   5.622
 7805SOL     OW24313   5.613   3.242   6.467
 7805SOL    HW124314   5.631   3.162   6.525
 7805SOL    HW224315   5.677   3.315   6.492
 7806SOL     OW24316   6.130   1.620   5.480
 7806SOL    HW124317   6.151   1.616   5.382
 7806SOL    HW224318   6.090   1.709   5.502
 7807SOL     OW24319   1.870   5.745   5.200
 7807SOL    HW124320   1.810   5.666   5.202
 7807SOL    HW224321   1.874   5.786   5.292
 7808SOL     OW24322   6.294   3.723   4.021
 7808SOL    HW124323   6.364   3.686   4.082
 7808SOL    HW224324   6.338   3.768   3.943
 7809SOL     OW24325   4.749   6.197   2.339
 7809SOL    HW124326   4.843   6.205   2.307
 7809SOL    HW224327   4.734   6.262   2.414
 7810SOL     OW24328   2.019   6.700   5.321
 7810SOL    HW124329   1.938   6.711   5.378
 7810SOL    HW224330   2.092   6.657   5.374
 7811SOL     OW24331   1.053   6.258   2.848
 7811SOL    HW124332   1.112   6.293   2.921
 7811SOL    HW224333   0.959   6.249   2.881
 7812SOL     OW24334   3.028   0.837   5.343
 7812SOL    HW124335   2.997   0.850   5.249
 7812SOL    HW224336   3.021   0.923   5.393
 7813SOL     OW24337   5.674   0.909   1.043
 7813SOL    HW124338   5.578   0.901   1.016
 7813SOL    HW224339   5.680   0.946   1.135
 7814SOL     OW24340   6.219   2.396   1.818
 7814SOL    HW124341   6.292   2.439   1.871
 7814SOL    HW224342   6.231   2.417   1.721
 7815SOL     OW24343   4.887   5.661   3.796
 7815SOL    HW124344   4.957   5.681   3.727
 7815SOL    HW224345   4.845   5.573   3.776
 7816SOL     OW24346   0.855   1.389   5.470
 7816SOL    HW124347   0.893   1.299   5.450
 7816SOL    HW224348   0.755   1.385   5.464
 7817SOL     OW24349   4.560   1.690   0.016
 7817SOL    HW124350   4.471   1.713   0.054
 7817SOL    HW224351   4.603   1.619   0.072
 7818SOL     OW24352   6.071   1.053   3.053
 7818SOL    HW124353   6.103   1.004   2.972
 7818SOL    HW224354   6.047   1.147   3.027
 7819SOL     OW24355   1.680   3.096   5.068
 7819SOL    HW124356   1.629   3.015   5.095
 7819SOL    HW224357   1.649   3.126   4.978
 7820SOL     OW24358   1.236   1.438   5.415
 7820SOL    HW124359   1.142   1.448   5.382
 7820SOL    HW224360   1.297   1.422   5.337
 7821SOL     OW24361   4.027   5.717   6.852
 7821SOL    HW124362   3.934   5.684   6.834
 7821SOL    HW224363   4.062   5.766   6.773
 7822SOL     OW24364   0.264   1.521   4.506
 7822SOL    HW124365   0.242   1.535   4.409
 7822SOL    HW224366   0.357   1.484   4.513
 7823SOL     OW24367   2.814   3.255   5.768
 7823SOL    HW124368   2.746   3.189   5.736
 7823SOL    HW224369   2.903   3.211   5.775
 7824SOL     OW24370   5.892   3.628   3.020
 7824SOL    HW124371   5.829   3.560   3.058
 7824SOL    HW224372   5.978   3.583   2.995
 7825SOL     OW24373   3.369   3.537   2.757
 7825SOL    HW124374   3.277   3.553   2.793
 7825SOL    HW224375   3.363   3.500   2.664
 7826SOL     OW24376   6.870   0.039   0.602
 7826SOL    HW124377   6.803   0.055   0.529
 7826SOL    HW224378   6.872   0.117   0.664
 7827SOL     OW24379   4.336   3.142   0.416
 7827SOL    HW124380   4.281   3.154   0.333
 7827SOL    HW224381   4.410   3.209   0.416
 7828SOL     OW24382   1.143   6.065   1.248
 7828SOL    HW124383   1.110   6.152   1.212
 7828SOL    HW224384   1.068   5.999   1.251
 7829SOL     OW24385   3.587   3.870   3.601
 7829SOL    HW124386   3.556   3.960   3.633
 7829SOL    HW224387   3.568   3.862   3.503
 7830SOL     OW24388   6.054   4.176   0.182
 7830SOL    HW124389   5.961   4.193   0.215
 7830SOL    HW224390   6.049   4.131   0.093
 7831SOL     OW24391   1.611   2.798   0.334
 7831SOL    HW124392   1.636   2.893   0.355
 7831SOL    HW224393   1.670   2.763   0.261
 7832SOL     OW24394   3.617   2.632   5.672
 7832SOL    HW124395   3.663   2.547   5.696
 7832SOL    HW224396   3.605   2.637   5.573
 7833SOL     OW24397   6.519   6.334   1.489
 7833SOL    HW124398   6.560   6.265   1.430
 7833SOL    HW224399   6.557   6.424   1.467
 7834SOL     OW24400   5.915   0.512   1.355
 7834SOL    HW124401   5.843   0.457   1.398
 7834SOL    HW224402   5.947   0.581   1.419
 7835SOL     OW24403   1.859   1.703   4.487
 7835SOL    HW124404   1.904   1.760   4.555
 7835SOL    HW224405   1.787   1.649   4.531
 7836SOL     OW24406   2.081   0.552   0.616
 7836SOL    HW124407   2.120   0.464   0.588
 7836SOL    HW224408   2.110   0.573   0.710
 7837SOL     OW24409   5.707   6.274   2.637
 7837SOL    HW124410   5.786   6.239   2.688
 7837SOL    HW224411   5.699   6.224   2.551
 7838SOL     OW24412   4.467   6.421   4.020
 7838SOL    HW124413   4.443   6.343   3.962
 7838SOL    HW224414   4.407   6.423   4.100
 7839SOL     OW24415   0.224   4.765   3.645
 7839SOL    HW124416   0.181   4.717   3.721
 7839SOL    HW224417   0.171   4.847   3.623
 7840SOL     OW24418   4.884   3.308   6.440
 7840SOL    HW124419   4.936   3.389   6.413
 7840SOL    HW224420   4.910   3.231   6.382
 7841SOL     OW24421   1.139   1.863   6.517
 7841SOL    HW124422   1.231   1.899   6.530
 7841SOL    HW224423   1.134   1.771   6.555
 7842SOL     OW24424   2.870   6.936   2.263
 7842SOL    HW124425   2.950   6.885   2.294
 7842SOL    HW224426   2.898   7.002   2.193
 7843SOL     OW24427   0.333   2.650   2.137
 7843SOL    HW124428   0.405   2.630   2.070
 7843SOL    HW224429   0.246   2.662   2.090
 7844SOL     OW24430   4.093   1.569   3.707
 7844SOL    HW124431   4.089   1.530   3.614
 7844SOL    HW224432   4.000   1.582   3.741
 7845SOL     OW24433   0.991   1.189   3.706
 7845SOL    HW124434   0.913   1.159   3.761
 7845SOL    HW224435   0.993   1.289   3.702
 7846SOL     OW24436   4.504   6.442   2.165
 7846SOL    HW124437   4.463   6.464   2.076
 7846SOL    HW224438   4.460   6.498   2.235
 7847SOL     OW24439   0.297   6.956   6.899
 7847SOL    HW124440   0.229   0.002   6.895
 7847SOL    HW224441   0.262   6.880   6.954
 7848SOL     OW24442   3.656   4.262   1.247
 7848SOL    HW124443   3.755   4.255   1.245
 7848SOL    HW224444   3.629   4.357   1.233
 7849SOL     OW24445   5.364   4.189   4.758
 7849SOL    HW124446   5.375   4.249   4.679
 7849SOL    HW224447   5.268   4.187   4.785
 7850SOL     OW24448   0.824   2.155   5.122
 7850SOL    HW124449   0.904   2.216   5.118
 7850SOL    HW224450   0.784   2.146   5.031
 7851SOL     OW24451   4.441   6.368   1.045
 7851SOL    HW124452   4.454   6.365   1.144
 7851SOL    HW224453   4.422   6.276   1.011
 7852SOL     OW24454   2.276   6.406   0.412
 7852SOL    HW124455   2.342   6.478   0.434
 7852SOL    HW224456   2.323   6.331   0.366
 7853SOL     OW24457   2.084   2.500   0.382
 7853SOL    HW124458   2.102   2.414   0.429
 7853SOL    HW224459   2.005   2.489   0.322
 7854SOL     OW24460   3.298   4.137   3.219
 7854SOL    HW124461   3.205   4.105   3.235
 7854SOL    HW224462   3.303   4.182   3.130
 7855SOL     OW24463   3.713   0.053   5.139
 7855SOL    HW124464   3.683   6.995   5.184
 7855SOL    HW224465   3.788   0.094   5.192
 7856SOL     OW24466   2.877   3.469   6.901
 7856SOL    HW124467   2.915   3.445   6.811
 7856SOL    HW224468   2.922   3.416   6.972
 7857SOL     OW24469   0.750   3.363   5.624
 7857SOL    HW124470   0.665   3.330   5.582
 7857SOL    HW224471   0.790   3.434   5.566
 7858SOL     OW24472   6.223   3.660   2.814
 7858SOL    HW124473   6.175   3.610   2.886
 7858SOL    HW224474   6.272   3.595   2.755
 7859SOL     OW24475   0.918   6.143   0.508
 7859SOL    HW124476   0.983   6.068   0.496
 7859SOL    HW224477   0.826   6.111   0.489
 7860SOL     OW24478   4.710   6.537   1.888
 7860SOL    HW124479   4.632   6.591   1.920
 7860SOL    HW224480   4.678   6.452   1.847
 7861SOL     OW24481   5.261   3.459   0.713
 7861SOL    HW124482   5.328   3.445   0.640
 7861SOL    HW224483   5.300   3.517   0.784
 7862SOL     OW24484   3.052   4.732   1.799
 7862SOL    HW124485   2.991   4.663   1.840
 7862SOL    HW224486   3.008   4.772   1.719
 7863SOL     OW24487   5.378   5.640   2.353
 7863SOL    HW124488   5.290   5.646   2.401
 7863SOL    HW224489   5.428   5.560   2.385
 7864SOL     OW24490   0.900   6.175   4.358
 7864SOL    HW124491   0.912   6.098   4.420
 7864SOL    HW224492   0.849   6.145   4.277
 7865SOL     OW24493   4.269   0.905   3.203
 7865SOL    HW124494   4.270   1.002   3.230
 7865SOL    HW224495   4.351   0.885   3.149
 7866SOL     OW24496   2.046   2.278   4.937
 7866SOL    HW124497   1.999   2.361   4.966
 7866SOL    HW224498   2.130   2.267   4.990
 7867SOL     OW24499   5.910   4.048   2.078
 7867SOL    HW124500   5.970   3.975   2.110
 7867SOL    HW224501   5.888   4.109   2.154
 7868SOL     OW24502   5.030   6.850   0.926
 7868SOL    HW124503   5.111   6.791   0.926
 7868SOL    HW224504   5.003   6.869   1.020
 7869SOL     OW24505   6.281   1.769   4.071
 7869SOL    HW124506   6.315   1.754   3.978
 7869SOL    HW224507   6.258   1.681   4.112
 7870SOL     OW24508   6.166   6.794   2.926
 7870SOL    HW124509   6.226   6.751   2.859
 7870SOL    HW224510   6.143   6.887   2.896
 7871SOL     OW24511   6.083   3.022   4.313
 7871SOL    HW124512   6.099   3.120   4.329
 7871SOL    HW224513   6.000   3.010   4.259
 7872SOL     OW24514   0.052   4.021   4.774
 7872SOL    HW124515   0.130   3.991   4.829
 7872SOL    HW224516   0.085   4.064   4.690
 7873SOL     OW24517   0.023   5.713   4.614
 7873SOL    HW124518   0.098   5.740   4.675
 7873SOL    HW224519   0.061   5.688   4.525
 7874SOL     OW24520   6.325   0.716   0.565
 7874SOL    HW124521   6.377   0.631   0.570
 7874SOL    HW224522   6.354   0.768   0.484
 7875SOL     OW24523   5.091   3.251   0.621
 7875SOL    HW124524   5.155   3.317   0.660
 7875SOL    HW224525   5.123   3.158   0.641
 7876SOL     OW24526   0.303   0.751   5.326
 7876SOL    HW124527   0.269   0.665   5.289
 7876SOL    HW224528   0.241   0.826   5.301
 7877SOL     OW24529   6.295   2.896   3.002
 7877SOL    HW124530   6.232   2.937   2.935
 7877SOL    HW224531   6.358   2.965   3.035
 7878SOL     OW24532   4.272   3.887   1.562
 7878SOL    HW124533   4.238   3.944   1.487
 7878SOL    HW224534   4.254   3.931   1.649
 7879SOL     OW24535   6.511   0.741   4.833
 7879SOL    HW124536   6.475   0.779   4.748
 7879SOL    HW224537   6.513   0.813   4.903
 7880SOL     OW24538   1.743   6.665   6.033
 7880SOL    HW124539   1.800   6.743   6.058
 7880SOL    HW224540   1.769   6.633   5.942
 7881SOL     OW24541   0.598   5.299   4.396
 7881SOL    HW124542   0.530   5.373   4.389
 7881SOL    HW224543   0.657   5.300   4.316
 7882SOL     OW24544   1.890   4.816   1.747
 7882SOL    HW124545   1.825   4.891   1.738
 7882SOL    HW224546   1.840   4.730   1.758
 7883SOL     OW24547   3.539   2.002   2.872
 7883SOL    HW124548   3.573   2.036   2.960
 7883SOL    HW224549   3.570   1.908   2.857
 7884SOL     OW24550   0.485   3.465   4.336
 7884SOL    HW124551   0.409   3.469   4.402
 7884SOL    HW224552   0.452   3.424   4.251
 7885SOL     OW24553   6.263   5.335   2.040
 7885SOL    HW124554   6.183   5.280   2.013
 7885SOL    HW224555   6.239   5.432   2.037
 7886SOL     OW24556   4.904   4.049   2.641
 7886SOL    HW124557   4.900   3.961   2.593
 7886SOL    HW224558   4.960   4.113   2.589
 7887SOL     OW24559   0.940   3.095   1.759
 7887SOL    HW124560   0.894   3.081   1.671
 7887SOL    HW224561   1.021   3.152   1.746
 7888SOL     OW24562   6.550   0.787   5.173
 7888SOL    HW124563   6.604   0.853   5.120
 7888SOL    HW224564   6.598   0.765   5.258
 7889SOL     OW24565   5.817   5.337   0.602
 7889SOL    HW124566   5.771   5.323   0.514
 7889SOL    HW224567   5.826   5.435   0.620
 7890SOL     OW24568   2.465   2.597   3.625
 7890SOL    HW124569   2.482   2.633   3.717
 7890SOL    HW224570   2.388   2.645   3.584
 7891SOL     OW24571   6.296   1.695   4.424
 7891SOL    HW124572   6.331   1.602   4.413
 7891SOL    HW224573   6.369   1.753   4.460
 7892SOL     OW24574   0.831   1.623   5.625
 7892SOL    HW124575   0.792   1.697   5.571
 7892SOL    HW224576   0.865   1.552   5.563
 7893SOL     OW24577   6.268   6.529   0.996
 7893SOL    HW124578   6.309   6.510   1.085
 7893SOL    HW224579   6.249   6.443   0.949
 7894SOL     OW24580   2.918   0.958   0.175
 7894SOL    HW124581   2.845   0.892   0.154
 7894SOL    HW224582   2.917   0.978   0.273
 7895SOL     OW24583   6.403   5.958   2.654
 7895SOL    HW124584   6.374   5.950   2.749
 7895SOL    HW224585   6.382   6.050   2.620
 7896SOL     OW24586   2.381   1.385   0.322
 7896SOL    HW124587   2.391   1.477   0.282
 7896SOL    HW224588   2.350   1.393   0.417
 7897SOL     OW24589   3.533   2.315   0.797
 7897SOL    HW124590   3.477   2.233   0.783
 7897SOL    HW224591   3.589   2.332   0.716
 7898SOL     OW24592   4.759   6.678   3.120
 7898SOL    HW124593   4.844   6.729   3.128
 7898SOL    HW224594   4.729   6.648   3.210
 7899SOL     OW24595   6.056   4.458   3.787
 7899SOL    HW124596   6.117   4.472   3.864
 7899SOL    HW224597   6.065   4.364   3.754
 7900SOL     OW24598   0.390   3.585   0.240
 7900SOL    HW124599   0.479   3.538   0.243
 7900SOL    HW224600   0.355   3.598   0.333
 7901SOL     OW24601   0.463   2.349   0.047
 7901SOL    HW124602   0.391   2.417   0.034
 7901SOL    HW224603   0.454   2.278   7.004
 7902SOL     OW24604   1.992   6.101   1.794
 7902SOL    HW124605   1.966   6.171   1.728
 7902SOL    HW224606   2.055   6.140   1.861
 7903SOL     OW24607   2.733   2.190   5.407
 7903SOL    HW124608   2.788   2.149   5.480
 7903SOL    HW224609   2.791   2.247   5.349
 7904SOL     OW24610   4.523   2.413   2.705
 7904SOL    HW124611   4.564   2.324   2.685
 7904SOL    HW224612   4.469   2.443   2.626
 7905SOL     OW24613   6.249   2.279   1.330
 7905SOL    HW124614   6.187   2.212   1.372
 7905SOL    HW224615   6.207   2.315   1.247
 7906SOL     OW24616   0.920   5.087   6.480
 7906SOL    HW124617   1.004   5.105   6.532
 7906SOL    HW224618   0.911   4.988   6.466
 7907SOL     OW24619   5.973   6.447   2.351
 7907SOL    HW124620   5.966   6.350   2.328
 7907SOL    HW224621   6.003   6.498   2.271
 7908SOL     OW24622   1.913   6.584   6.674
 7908SOL    HW124623   1.954   6.496   6.695
 7908SOL    HW224624   1.869   6.579   6.584
 7909SOL     OW24625   6.565   3.885   1.315
 7909SOL    HW124626   6.636   3.931   1.369
 7909SOL    HW224627   6.507   3.830   1.375
 7910SOL     OW24628   1.355   4.394   5.825
 7910SOL    HW124629   1.269   4.349   5.799
 7910SOL    HW224630   1.336   4.482   5.868
 7911SOL     OW24631   5.948   4.259   6.153
 7911SOL    HW124632   5.852   4.264   6.183
 7911SOL    HW224633   5.992   4.348   6.166
 7912SOL     OW24634   5.793   5.626   0.645
 7912SOL    HW124635   5.820   5.639   0.550
 7912SOL    HW224636   5.837   5.696   0.702
 7913SOL     OW24637   1.745   4.831   6.532
 7913SOL    HW124638   1.653   4.853   6.564
 7913SOL    HW224639   1.771   4.895   6.459
 7914SOL     OW24640   0.678   6.736   4.875
 7914SOL    HW124641   0.644   6.704   4.787
 7914SOL    HW224642   0.767   6.779   4.862
 7915SOL     OW24643   2.996   4.847   2.554
 7915SOL    HW124644   3.018   4.772   2.617
 7915SOL    HW224645   3.075   4.865   2.495
 7916SOL     OW24646   0.976   0.392   3.958
 7916SOL    HW124647   1.058   0.347   3.923
 7916SOL    HW224648   0.989   0.415   4.054
 7917SOL     OW24649   4.588   1.490   2.027
 7917SOL    HW124650   4.510   1.486   2.090
 7917SOL    HW224651   4.621   1.398   2.008
 7918SOL     OW24652   2.542   2.506   3.355
 7918SOL    HW124653   2.496   2.429   3.399
 7918SOL    HW224654   2.548   2.582   3.420
 7919SOL     OW24655   1.039   6.692   4.981
 7919SOL    HW124656   1.010   6.689   5.076
 7919SOL    HW224657   1.000   6.773   4.936
 7920SOL     OW24658   4.962   0.586   1.141
 7920SOL    HW124659   4.890   0.622   1.201
 7920SOL    HW224660   4.924   0.571   1.050
 7921SOL     OW24661   5.203   2.221   0.888
 7921SOL    HW124662   5.195   2.321   0.894
 7921SOL    HW224663   5.120   2.184   0.846
 7922SOL     OW24664   2.662   0.191   2.220
 7922SOL    HW124665   2.728   0.209   2.293
 7922SOL    HW224666   2.710   0.154   2.140
 7923SOL     OW24667   4.269   1.394   6.887
 7923SOL    HW124668   4.214   1.416   6.806
 7923SOL    HW224669   4.216   1.334   6.946
 7924SOL     OW24670   5.778   5.831   0.323
 7924SOL    HW124671   5.812   5.738   0.335
 7924SOL    HW224672   5.808   5.866   0.235
 7925SOL     OW24673   1.672   5.399   6.552
 7925SOL    HW124674   1.695   5.369   6.644
 7925SOL    HW224675   1.573   5.389   6.538
 7926SOL     OW24676   5.539   6.010   6.401
 7926SOL    HW124677   5.504   5.924   6.365
 7926SOL    HW224678   5.545   6.005   6.501
 7927SOL     OW24679   4.225   6.900   3.253
 7927SOL    HW124680   4.315   6.862   3.276
 7927SOL    HW224681   4.219   6.994   3.288
 7928SOL     OW24682   5.950   2.279   3.214
 7928SOL    HW124683   6.017   2.274   3.288
 7928SOL    HW224684   5.874   2.337   3.243
 7929SOL     OW24685   4.462   4.267   6.023
 7929SOL    HW124686   4.510   4.345   6.064
 7929SOL    HW224687   4.463   4.190   6.087
 7930SOL     OW24688   4.284   6.420   6.484
 7930SOL    HW124689   4.354   6.491   6.488
 7930SOL    HW224690   4.327   6.330   6.482
 7931SOL     OW24691   3.870   1.222   1.348
 7931SOL    HW124692   3.866   1.230   1.249
 7931SOL    HW224693   3.785   1.259   1.388
 7932SOL     OW24694   1.142   3.935   1.760
 7932SOL    HW124695   1.193   3.855   1.726
 7932SOL    HW224696   1.182   4.018   1.721
 7933SOL     OW24697   0.866   1.573   0.047
 7933SOL    HW124698   0.769   1.557   0.064
 7933SOL    HW224699   0.906   1.622   0.125
 7934SOL     OW24700   0.861   5.553   1.088
 7934SOL    HW124701   0.805   5.635   1.098
 7934SOL    HW224702   0.922   5.564   1.009
 7935SOL     OW24703   6.540   2.838   3.178
 7935SOL    HW124704   6.482   2.839   3.259
 7935SOL    HW224705   6.528   2.924   3.128
 7936SOL     OW24706   2.154   5.460   3.500
 7936SOL    HW124707   2.102   5.400   3.439
 7936SOL    HW224708   2.114   5.456   3.592
 7937SOL     OW24709   4.298   1.052   0.777
 7937SOL    HW124710   4.302   0.995   0.859
 7937SOL    HW224711   4.363   1.127   0.785
 7938SOL     OW24712   2.700   6.929   3.398
 7938SOL    HW124713   2.789   6.963   3.367
 7938SOL    HW224714   2.713   6.856   3.465
 7939SOL     OW24715   0.716   0.683   2.885
 7939SOL    HW124716   0.757   0.774   2.885
 7939SOL    HW224717   0.633   0.684   2.940
 7940SOL     OW24718   6.018   1.711   4.387
 7940SOL    HW124719   6.111   1.711   4.424
 7940SOL    HW224720   5.984   1.618   4.381
 7941SOL     OW24721   3.504   0.011   1.175
 7941SOL    HW124722   3.435   6.999   1.237
 7941SOL    HW224723   3.591   0.018   1.223
 7942SOL     OW24724   1.373   4.199   0.811
 7942SOL    HW124725   1.428   4.158   0.739
 7942SOL    HW224726   1.415   4.285   0.841
 7943SOL     OW24727   1.469   5.846   5.901
 7943SOL    HW124728   1.500   5.842   5.806
 7943SOL    HW224729   1.528   5.907   5.953
 7944SOL     OW24730   0.917   2.129   1.590
 7944SOL    HW124731   0.976   2.142   1.510
 7944SOL    HW224732   0.863   2.212   1.605
 7945SOL     OW24733   6.068   3.903   2.874
 7945SOL    HW124734   6.088   3.928   2.969
 7945SOL    HW224735   6.109   3.814   2.854
 7946SOL     OW24736   4.156   1.720   6.757
 7946SOL    HW124737   4.102   1.653   6.808
 7946SOL    HW224738   4.136   1.812   6.792
 7947SOL     OW24739   6.708   3.837   6.166
 7947SOL    HW124740   6.617   3.873   6.148
 7947SOL    HW224741   6.714   3.743   6.131
 7948SOL     OW24742   1.316   5.555   1.610
 7948SOL    HW124743   1.270   5.555   1.699
 7948SOL    HW224744   1.367   5.470   1.599
 7949SOL     OW24745   2.478   5.604   5.908
 7949SOL    HW124746   2.489   5.548   5.990
 7949SOL    HW224747   2.566   5.617   5.863
 7950SOL     OW24748   6.544   4.419   5.602
 7950SOL    HW124749   6.494   4.369   5.531
 7950SOL    HW224750   6.614   4.476   5.560
 7951SOL     OW24751   4.271   6.420   2.700
 7951SOL    HW124752   4.293   6.372   2.785
 7951SOL    HW224753   4.356   6.450   2.656
 7952SOL     OW24754   6.429   3.868   5.351
 7952SOL    HW124755   6.356   3.856   5.283
 7952SOL    HW224756   6.503   3.804   5.332
 7953SOL     OW24757   1.603   0.013   0.116
 7953SOL    HW124758   1.695   0.044   0.091
 7953SOL    HW224759   1.541   0.028   0.040
 7954SOL     OW24760   3.687   3.728   7.010
 7954SOL    HW124761   3.680   3.708   6.912
 7954SOL    HW224762   3.778   3.764   0.004
 7955SOL     OW24763   1.240   0.756   6.461
 7955SOL    HW124764   1.236   0.685   6.532
 7955SOL    HW224765   1.290   0.720   6.382
 7956SOL     OW24766   0.692   6.551   0.540
 7956SOL    HW124767   0.636   6.626   0.504
 7956SOL    HW224768   0.742   6.508   0.464
 7957SOL     OW24769   5.124   1.775   6.125
 7957SOL    HW124770   5.119   1.683   6.084
 7957SOL    HW224771   5.142   1.766   6.223
 7958SOL     OW24772   4.774   2.153   6.916
 7958SOL    HW124773   4.794   2.246   6.946
 7958SOL    HW224774   4.781   2.090   6.994
 7959SOL     OW24775   5.240   2.646   0.287
 7959SOL    HW124776   5.318   2.633   0.348
 7959SOL    HW224777   5.172   2.575   0.304
 7960SOL     OW24778   0.961   1.139   5.440
 7960SOL    HW124779   0.885   1.075   5.435
 7960SOL    HW224780   1.043   1.096   5.401
 7961SOL     OW24781   6.235   6.748   0.324
 7961SOL    HW124782   6.275   6.790   0.405
 7961SOL    HW224783   6.160   6.805   0.291
 7962SOL     OW24784   5.758   0.008   5.146
 7962SOL    HW124785   5.803   6.978   5.077
 7962SOL    HW224786   5.778   6.997   5.237
 7963SOL     OW24787   6.430   6.180   3.476
 7963SOL    HW124788   6.433   6.275   3.445
 7963SOL    HW224789   6.422   6.120   3.396
 7964SOL     OW24790   6.139   3.901   1.466
 7964SOL    HW124791   6.172   3.952   1.387
 7964SOL    HW224792   6.045   3.872   1.451
 7965SOL     OW24793   5.201   2.090   6.595
 7965SOL    HW124794   5.102   2.100   6.610
 7965SOL    HW224795   5.218   2.067   6.500
 7966SOL     OW24796   5.254   3.782   5.356
 7966SOL    HW124797   5.224   3.869   5.318
 7966SOL    HW224798   5.231   3.777   5.453
 7967SOL     OW24799   1.263   5.074   0.376
 7967SOL    HW124800   1.247   4.982   0.342
 7967SOL    HW224801   1.262   5.138   0.300
 7968SOL     OW24802   1.491   2.606   4.206
 7968SOL    HW124803   1.517   2.599   4.110
 7968SOL    HW224804   1.549   2.547   4.261
 7969SOL     OW24805   3.446   4.734   6.976
 7969SOL    HW124806   3.505   4.696   0.021
 7969SOL    HW224807   3.498   4.746   6.892
 7970SOL     OW24808   6.282   2.825   4.299
 7970SOL    HW124809   6.279   2.817   4.199
 7970SOL    HW224810   6.215   2.894   4.328
 7971SOL     OW24811   2.832   1.055   6.869
 7971SOL    HW124812   2.849   1.065   6.967
 7971SOL    HW224813   2.748   1.104   6.844
 7972SOL     OW24814   3.378   4.197   4.359
 7972SOL    HW124815   3.353   4.285   4.400
 7972SOL    HW224816   3.415   4.136   4.429
 7973SOL     OW24817   6.164   4.555   1.574
 7973SOL    HW124818   6.213   4.642   1.562
 7973SOL    HW224819   6.090   4.549   1.507
 7974SOL     OW24820   0.199   2.752   5.125
 7974SOL    HW124821   0.170   2.657   5.141
 7974SOL    HW224822   0.287   2.768   5.169
 7975SOL     OW24823   4.619   0.473   0.584
 7975SOL    HW124824   4.580   0.474   0.676
 7975SOL    HW224825   4.546   0.487   0.517
 7976SOL     OW24826   0.834   0.532   0.498
 7976SOL    HW124827   0.840   0.628   0.523
 7976SOL    HW224828   0.783   0.482   0.568
 7977SOL     OW24829   5.369   5.506   3.357
 7977SOL    HW124830   5.394   5.410   3.349
 7977SOL    HW224831   5.329   5.538   3.271
 7978SOL     OW24832   0.515   4.363   1.497
 7978SOL    HW124833   0.479   4.456   1.505
 7978SOL    HW224834   0.460   4.301   1.554
 7979SOL     OW24835   2.550   2.122   5.192
 7979SOL    HW124836   2.496   2.207   5.195
 7979SOL    HW224837   2.622   2.127   5.261
 7980SOL     OW24838   3.516   5.470   1.469
 7980SOL    HW124839   3.546   5.527   1.393
 7980SOL    HW224840   3.419   5.483   1.485
 7981SOL     OW24841   1.585   3.577   3.978
 7981SOL    HW124842   1.602   3.670   3.946
 7981SOL    HW224843   1.498   3.573   4.027
 7982SOL     OW24844   6.980   0.960   5.851
 7982SOL    HW124845   6.925   0.878   5.837
 7982SOL    HW224846   0.008   0.978   5.770
 7983SOL     OW24847   4.356   0.712   2.109
 7983SOL    HW124848   4.448   0.732   2.076
 7983SOL    HW224849   4.292   0.710   2.032
 7984SOL     OW24850   0.098   2.827   2.706
 7984SOL    HW124851   0.109   2.926   2.694
 7984SOL    HW224852   0.037   2.809   2.783
 7985SOL     OW24853   3.292   2.744   5.500
 7985SOL    HW124854   3.194   2.727   5.506
 7985SOL    HW224855   3.328   2.701   5.418
 7986SOL     OW24856   3.869   0.919   3.778
 7986SOL    HW124857   3.933   0.995   3.771
 7986SOL    HW224858   3.917   0.836   3.808
 7987SOL     OW24859   0.937   3.454   6.580
 7987SOL    HW124860   0.857   3.413   6.623
 7987SOL    HW224861   0.909   3.500   6.495
 7988SOL     OW24862   6.695   0.835   1.341
 7988SOL    HW124863   6.637   0.908   1.305
 7988SOL    HW224864   6.775   0.874   1.386
 7989SOL     OW24865   0.626   4.334   0.870
 7989SOL    HW124866   0.704   4.357   0.812
 7989SOL    HW224867   0.589   4.417   0.912
 7990SOL     OW24868   4.979   5.514   5.002
 7990SOL    HW124869   4.990   5.452   5.079
 7990SOL    HW224870   5.052   5.497   4.935
 7991SOL     OW24871   5.945   0.967   4.648
 7991SOL    HW124872   5.965   1.062   4.675
 7991SOL    HW224873   6.026   0.910   4.664
 7992SOL     OW24874   2.226   6.856   0.274
 7992SOL    HW124875   2.145   6.912   0.286
 7992SOL    HW224876   2.200   6.759   0.271
 7993SOL     OW24877   6.331   6.114   0.482
 7993SOL    HW124878   6.398   6.111   0.556
 7993SOL    HW224879   6.241   6.092   0.519
 7994SOL     OW24880   6.802   0.496   4.045
 7994SOL    HW124881   6.757   0.577   4.082
 7994SOL    HW224882   6.896   0.517   4.021
 7995SOL     OW24883   0.992   5.626   1.324
 7995SOL    HW124884   0.944   5.562   1.264
 7995SOL    HW224885   1.085   5.593   1.341
 7996SOL     OW24886   2.415   0.288   3.279
 7996SOL    HW124887   2.331   0.300   3.227
 7996SOL    HW224888   2.494   0.291   3.217
 7997SOL     OW24889   2.347   2.000   5.670
 7997SOL    HW124890   2.281   2.031   5.738
 7997SOL    HW224891   2.395   2.079   5.632
 7998SOL     OW24892   2.399   1.165   0.569
 7998SOL    HW124893   2.467   1.192   0.501
 7998SOL    HW224894   2.360   1.247   0.612
 7999SOL     OW24895   1.021   0.098   3.695
 7999SOL    HW124896   0.963   0.084   3.775
 7999SOL    HW224897   0.980   0.166   3.635
 8000SOL     OW24898   4.170   5.762   1.107
 8000SOL    HW124899   4.211   5.743   1.018
 8000SOL    HW224900   4.085   5.813   1.094
 8001SOL     OW24901   4.427   4.256   1.414
 8001SOL    HW124902   4.472   4.252   1.503
 8001SOL    HW224903   4.397   4.350   1.396
 8002SOL     OW24904   0.894   6.888   4.836
 8002SOL    HW124905   0.936   6.899   4.747
 8002SOL    HW224906   0.885   6.977   4.881
 8003SOL     OW24907   3.139   5.616   2.600
 8003SOL    HW124908   3.084   5.620   2.683
 8003SOL    HW224909   3.085   5.647   2.522
 8004SOL     OW24910   1.428   3.373   4.178
 8004SOL    HW124911   1.373   3.326   4.247
 8004SOL    HW224912   1.477   3.449   4.221
 8005SOL     OW24913   1.960   0.794   3.370
 8005SOL    HW124914   2.008   0.872   3.411
 8005SOL    HW224915   1.879   0.826   3.321
 8006SOL     OW24916   4.304   5.248   5.626
 8006SOL    HW124917   4.344   5.339   5.636
 8006SOL    HW224918   4.366   5.180   5.665
 8007SOL     OW24919   0.121   0.707   0.868
 8007SOL    HW124920   0.131   0.664   0.779
 8007SOL    HW224921   0.028   0.690   0.903
 8008SOL     OW24922   4.578   5.037   0.435
 8008SOL    HW124923   4.538   5.063   0.523
 8008SOL    HW224924   4.505   5.004   0.375
 8009SOL     OW24925   6.533   1.324   0.593
 8009SOL    HW124926   6.446   1.311   0.545
 8009SOL    HW224927   6.546   1.251   0.660
 8010SOL     OW24928   3.471   0.292   5.680
 8010SOL    HW124929   3.567   0.317   5.691
 8010SOL    HW224930   3.420   0.368   5.641
 8011SOL     OW24931   3.887   1.853   2.655
 8011SOL    HW124932   3.977   1.842   2.613
 8011SOL    HW224933   3.870   1.777   2.719
 8012SOL     OW24934   6.320   1.236   4.177
 8012SOL    HW124935   6.371   1.168   4.229
 8012SOL    HW224936   6.380   1.277   4.108
 8013SOL     OW24937   3.664   1.188   3.346
 8013SOL    HW124938   3.607   1.249   3.291
 8013SOL    HW224939   3.607   1.121   3.393
 8014SOL     OW24940   2.623   2.509   2.898
 8014SOL    HW124941   2.706   2.484   2.849
 8014SOL    HW224942   2.565   2.566   2.838
 8015SOL     OW24943   3.867   0.358   4.242
 8015SOL    HW124944   3.886   0.295   4.166
 8015SOL    HW224945   3.779   0.402   4.227
 8016SOL     OW24946   3.928   2.345   5.457
 8016SOL    HW124947   3.954   2.254   5.488
 8016SOL    HW224948   3.829   2.355   5.462
 8017SOL     OW24949   6.134   5.885   1.159
 8017SOL    HW124950   6.204   5.946   1.196
 8017SOL    HW224951   6.131   5.800   1.213
 8018SOL     OW24952   3.446   2.887   0.585
 8018SOL    HW124953   3.496   2.954   0.639
 8018SOL    HW224954   3.509   2.837   0.525
 8019SOL     OW24955   2.687   3.089   0.390
 8019SOL    HW124956   2.783   3.111   0.408
 8019SOL    HW224957   2.681   3.030   0.310
 8020SOL     OW24958   0.223   0.352   6.168
 8020SOL    HW124959   0.204   0.255   6.157
 8020SOL    HW224960   0.143   0.397   6.210
 8021SOL     OW24961   0.988   3.360   0.468
 8021SOL    HW124962   1.030   3.288   0.524
 8021SOL    HW224963   0.889   3.342   0.461
 8022SOL     OW24964   4.013   6.995   2.167
 8022SOL    HW124965   4.091   7.015   2.108
 8022SOL    HW224966   3.941   0.036   2.151
 8023SOL     OW24967   4.202   5.615   1.996
 8023SOL    HW124968   4.255   5.639   1.914
 8023SOL    HW224969   4.183   5.517   1.994
 8024SOL     OW24970   2.557   0.938   0.190
 8024SOL    HW124971   2.551   0.877   0.270
 8024SOL    HW224972   2.470   0.939   0.142
 8025SOL     OW24973   1.012   6.270   1.853
 8025SOL    HW124974   0.955   6.282   1.772
 8025SOL    HW224975   1.108   6.288   1.828
 8026SOL     OW24976   0.831   6.064   6.636
 8026SOL    HW124977   0.732   6.056   6.625
 8026SOL    HW224978   0.851   6.146   6.690
 8027SOL     OW24979   3.664   0.085   6.577
 8027SOL    HW124980   3.598   0.010   6.570
 8027SOL    HW224981   3.660   0.124   6.669
 8028SOL     OW24982   3.942   5.869   5.686
 8028SOL    HW124983   4.026   5.855   5.633
 8028SOL    HW224984   3.884   5.788   5.678
 8029SOL     OW24985   0.787   0.615   1.512
 8029SOL    HW124986   0.865   0.597   1.453
 8029SOL    HW224987   0.811   0.686   1.578
 8030SOL     OW24988   0.900   4.383   1.076
 8030SOL    HW124989   0.982   4.386   1.134
 8030SOL    HW224990   0.907   4.304   1.014
 8031SOL     OW24991   6.753   0.388   2.303
 8031SOL    HW124992   6.760   0.488   2.307
 8031SOL    HW224993   6.721   0.353   2.392
 8032SOL     OW24994   0.115   2.320   0.388
 8032SOL    HW124995   0.069   2.350   0.304
 8032SOL    HW224996   0.059   2.344   0.467
 8033SOL     OW24997   3.979   4.212   1.247
 8033SOL    HW124998   4.020   4.302   1.233
 8033SOL    HW224999   4.013   4.173   1.333
 8034SOL     OW25000   0.177   0.104   5.644
 8034SOL    HW125001   0.231   0.183   5.614
 8034SOL    HW225002   0.173   0.036   5.571
 8035SOL     OW25003   6.396   0.269   3.938
 8035SOL    HW125004   6.362   0.196   3.879
 8035SOL    HW225005   6.325   0.297   4.003
 8036SOL     OW25006   4.843   3.060   4.267
 8036SOL    HW125007   4.832   3.091   4.361
 8036SOL    HW225008   4.847   3.139   4.206
 8037SOL     OW25009   2.277   0.903   6.180
 8037SOL    HW125010   2.362   0.852   6.192
 8037SOL    HW225011   2.258   0.913   6.083
 8038SOL     OW25012   6.664   5.653   1.926
 8038SOL    HW125013   6.741   5.639   1.863
 8038SOL    HW225014   6.696   5.696   2.010
 8039SOL     OW25015   1.875   2.391   5.136
 8039SOL    HW125016   1.808   2.364   5.067
 8039SOL    HW225017   1.837   2.376   5.227
 8040SOL     OW25018   0.879   6.083   6.010
 8040SOL    HW125019   0.842   6.002   6.056
 8040SOL    HW225020   0.853   6.081   5.914
 8041SOL     OW25021   2.970   1.647   3.370
 8041SOL    HW125022   3.036   1.722   3.379
 8041SOL    HW225023   3.004   1.568   3.420
 8042SOL     OW25024   3.893   4.245   5.908
 8042SOL    HW125025   3.979   4.207   5.942
 8042SOL    HW225026   3.861   4.316   5.970
 8043SOL     OW25027   5.164   5.487   0.026
 8043SOL    HW125028   5.131   5.529   6.968
 8043SOL    HW225029   5.148   5.389   0.023
 8044SOL     OW25030   1.927   3.038   1.138
 8044SOL    HW125031   2.017   3.074   1.163
 8044SOL    HW225032   1.911   2.951   1.185
 8045SOL     OW25033   6.266   3.447   4.749
 8045SOL    HW125034   6.309   3.465   4.661
 8045SOL    HW225035   6.292   3.519   4.814
 8046SOL     OW25036   0.179   4.826   1.193
 8046SOL    HW125037   0.224   4.771   1.122
 8046SOL    HW225038   0.128   4.766   1.254
 8047SOL     OW25039   2.838   6.064   6.605
 8047SOL    HW125040   2.820   6.109   6.518
 8047SOL    HW225041   2.835   5.965   6.593
 8048SOL     OW25042   3.975   2.116   5.553
 8048SOL    HW125043   3.956   2.035   5.497
 8048SOL    HW225044   3.966   2.093   5.650
 8049SOL     OW25045   1.507   1.482   0.342
 8049SOL    HW125046   1.428   1.420   0.338
 8049SOL    HW225047   1.591   1.429   0.338
 8050SOL     OW25048   0.525   4.934   6.220
 8050SOL    HW125049   0.513   5.001   6.293
 8050SOL    HW225050   0.513   4.842   6.257
 8051SOL     OW25051   4.721   6.711   3.420
 8051SOL    HW125052   4.728   6.791   3.481
 8051SOL    HW225053   4.779   6.638   3.455
 8052SOL     OW25054   3.151   1.883   2.611
 8052SOL    HW125055   3.213   1.860   2.536
 8052SOL    HW225056   3.148   1.982   2.623
 8053SOL     OW25057   1.743   2.383   6.835
 8053SOL    HW125058   1.823   2.323   6.834
 8053SOL    HW225059   1.672   2.343   6.893
 8054SOL     OW25060   4.920   3.413   4.918
 8054SOL    HW125061   4.880   3.499   4.950
 8054SOL    HW225062   4.897   3.400   4.822
 8055SOL     OW25063   6.411   0.237   6.672
 8055SOL    HW125064   6.452   0.265   6.759
 8055SOL    HW225065   6.338   0.171   6.689
 8056SOL     OW25066   1.951   1.489   3.848
 8056SOL    HW125067   1.974   1.586   3.848
 8056SOL    HW225068   2.020   1.438   3.796
 8057SOL     OW25069   3.047   2.127   2.282
 8057SOL    HW125070   2.991   2.178   2.217
 8057SOL    HW225071   3.039   2.029   2.262
 8058SOL     OW25072   3.744   6.153   1.778
 8058SOL    HW125073   3.835   6.112   1.785
 8058SOL    HW225074   3.720   6.165   1.682
 8059SOL     OW25075   2.977   2.820   5.669
 8059SOL    HW125076   2.883   2.788   5.662
 8059SOL    HW225077   2.989   2.903   5.616
 8060SOL     OW25078   6.399   1.027   5.939
 8060SOL    HW125079   6.324   1.074   5.985
 8060SOL    HW225080   6.394   1.044   5.840
 8061SOL     OW25081   6.722   0.681   2.283
 8061SOL    HW125082   6.805   0.701   2.230
 8061SOL    HW225083   6.727   0.727   2.372
 8062SOL     OW25084   4.550   5.028   5.505
 8062SOL    HW125085   4.536   5.117   5.463
 8062SOL    HW225086   4.513   5.027   5.597
 8063SOL     OW25087   2.766   4.724   2.750
 8063SOL    HW125088   2.789   4.731   2.847
 8063SOL    HW225089   2.786   4.811   2.704
 8064SOL     OW25090   6.572   1.695   0.420
 8064SOL    HW125091   6.543   1.661   0.509
 8064SOL    HW225092   6.637   1.770   0.433
 8065SOL     OW25093   4.452   6.713   7.007
 8065SOL    HW125094   4.456   6.708   6.908
 8065SOL    HW225095   4.515   6.646   0.020
 8066SOL     OW25096   0.387   6.940   6.222
 8066SOL    HW125097   0.442   6.889   6.288
 8066SOL    HW225098   0.381   0.009   6.249
 8067SOL     OW25099   5.882   0.888   4.261
 8067SOL    HW125100   5.818   0.902   4.337
 8067SOL    HW225101   5.899   0.790   4.250
 8068SOL     OW25102   6.675   3.432   1.678
 8068SOL    HW125103   6.773   3.452   1.673
 8068SOL    HW225104   6.662   3.336   1.701
 8069SOL     OW25105   1.500   2.947   2.513
 8069SOL    HW125106   1.502   2.921   2.416
 8069SOL    HW225107   1.570   2.895   2.562
 8070SOL     OW25108   5.204   4.138   0.892
 8070SOL    HW125109   5.229   4.234   0.898
 8070SOL    HW225110   5.142   4.124   0.814
 8071SOL     OW25111   2.602   0.090   6.298
 8071SOL    HW125112   2.625   7.019   6.292
 8071SOL    HW225113   2.600   0.129   6.206
 8072SOL     OW25114   2.445   2.066   4.833
 8072SOL    HW125115   2.429   2.097   4.739
 8072SOL    HW225116   2.543   2.064   4.851
 8073SOL     OW25117   4.755   0.409   7.024
 8073SOL    HW125118   4.804   0.416   0.084
 8073SOL    HW225119   4.813   0.446   6.951
 8074SOL     OW25120   6.659   0.725   6.930
 8074SOL    HW125121   6.580   0.763   6.882
 8074SOL    HW225122   6.681   0.636   6.891
 8075SOL     OW25123   0.485   6.914   0.741
 8075SOL    HW125124   0.506   6.857   0.662
 8075SOL    HW225125   0.529   6.876   0.822
 8076SOL     OW25126   6.893   6.393   0.769
 8076SOL    HW125127   6.987   6.375   0.740
 8076SOL    HW225128   6.835   6.316   0.743
 8077SOL     OW25129   5.658   4.815   0.938
 8077SOL    HW125130   5.564   4.802   0.970
 8077SOL    HW225131   5.720   4.767   0.999
 8078SOL     OW25132   6.716   0.539   1.176
 8078SOL    HW125133   6.679   0.509   1.264
 8078SOL    HW225134   6.693   0.635   1.161
 8079SOL     OW25135   1.052   0.905   6.627
 8079SOL    HW125136   1.008   0.874   6.711
 8079SOL    HW225137   1.099   0.828   6.583
 8080SOL     OW25138   1.267   3.564   3.418
 8080SOL    HW125139   1.324   3.643   3.439
 8080SOL    HW225140   1.319   3.499   3.363
 8081SOL     OW25141   6.528   6.793   4.959
 8081SOL    HW125142   6.476   6.713   4.990
 8081SOL    HW225143   6.620   6.764   4.934
 8082SOL     OW25144   3.678   2.135   4.257
 8082SOL    HW125145   3.637   2.201   4.193
 8082SOL    HW225146   3.618   2.056   4.267
 8083SOL     OW25147   6.733   2.281   4.588
 8083SOL    HW125148   6.816   2.305   4.639
 8083SOL    HW225149   6.758   2.244   4.499
 8084SOL     OW25150   4.139   1.726   5.643
 8084SOL    HW125151   4.237   1.721   5.622
 8084SOL    HW225152   4.118   1.816   5.680
 8085SOL     OW25153   2.008   6.241   4.510
 8085SOL    HW125154   1.936   6.233   4.441
 8085SOL    HW225155   1.982   6.190   4.592
 8086SOL     OW25156   6.625   2.048   2.684
 8086SOL    HW125157   6.662   1.995   2.760
 8086SOL    HW225158   6.588   1.986   2.615
 8087SOL     OW25159   6.878   0.899   6.457
 8087SOL    HW125160   6.796   0.942   6.494
 8087SOL    HW225161   6.919   0.959   6.388
 8088SOL     OW25162   6.865   0.256   5.411
 8088SOL    HW125163   6.932   0.215   5.349
 8088SOL    HW225164   6.781   0.204   5.410
 8089SOL     OW25165   6.331   2.158   0.003
 8089SOL    HW125166   6.284   2.082   6.984
 8089SOL    HW225167   6.408   2.122   0.056
 8090SOL     OW25168   4.489   2.537   5.403
 8090SOL    HW125169   4.492   2.473   5.480
 8090SOL    HW225170   4.547   2.616   5.423
 8091SOL     OW25171   0.998   4.427   4.388
 8091SOL    HW125172   1.090   4.453   4.357
 8091SOL    HW225173   0.966   4.349   4.334
 8092SOL     OW25174   4.914   1.042   5.662
 8092SOL    HW125175   4.870   0.995   5.738
 8092SOL    HW225176   4.845   1.061   5.591
 8093SOL     OW25177   3.265   6.196   3.219
 8093SOL    HW125178   3.204   6.219   3.296
 8093SOL    HW225179   3.259   6.267   3.150
 8094SOL     OW25180   2.069   3.658   4.286
 8094SOL    HW125181   1.986   3.708   4.311
 8094SOL    HW225182   2.048   3.593   4.213
 8095SOL     OW25183   1.633   4.713   4.881
 8095SOL    HW125184   1.632   4.701   4.981
 8095SOL    HW225185   1.698   4.649   4.840
 8096SOL     OW25186   1.165   4.842   0.258
 8096SOL    HW125187   1.142   4.766   0.318
 8096SOL    HW225188   1.081   4.883   0.222
 8097SOL     OW25189   4.927   6.145   0.351
 8097SOL    HW125190   4.831   6.125   0.332
 8097SOL    HW225191   4.933   6.237   0.392
 8098SOL     OW25192   2.318   5.911   5.377
 8098SOL    HW125193   2.234   5.902   5.323
 8098SOL    HW225194   2.343   6.007   5.385
 8099SOL     OW25195   1.584   4.162   2.295
 8099SOL    HW125196   1.596   4.080   2.239
 8099SOL    HW225197   1.668   4.180   2.346
 8100SOL     OW25198   6.615   0.263   6.502
 8100SOL    HW125199   6.530   0.245   6.551
 8100SOL    HW225200   6.688   0.281   6.568
 8101SOL     OW25201   3.005   5.133   1.065
 8101SOL    HW125202   2.921   5.078   1.063
 8101SOL    HW225203   3.029   5.152   1.160
 8102SOL     OW25204   0.720   3.963   3.914
 8102SOL    HW125205   0.808   3.916   3.915
 8102SOL    HW225206   0.647   3.900   3.938
 8103SOL     OW25207   3.792   0.663   1.318
 8103SOL    HW125208   3.728   0.657   1.395
 8103SOL    HW225209   3.756   0.727   1.251
 8104SOL     OW25210   2.011   5.087   0.174
 8104SOL    HW125211   2.081   5.082   0.245
 8104SOL    HW225212   1.962   5.000   0.170
 8105SOL     OW25213   6.756   6.657   3.975
 8105SOL    HW125214   6.816   6.698   4.043
 8105SOL    HW225215   6.705   6.581   4.017
 8106SOL     OW25216   2.649   6.614   6.114
 8106SOL    HW125217   2.744   6.584   6.127
 8106SOL    HW225218   2.609   6.566   6.037
 8107SOL     OW25219   1.601   6.321   6.750
 8107SOL    HW125220   1.542   6.266   6.810
 8107SOL    HW225221   1.696   6.293   6.763
 8108SOL     OW25222   1.190   1.118   6.995
 8108SOL    HW125223   1.278   1.164   7.013
 8108SOL    HW225224   1.206   1.035   6.942
 8109SOL     OW25225   6.536   2.869   1.699
 8109SOL    HW125226   6.458   2.931   1.712
 8109SOL    HW225227   6.560   2.866   1.602
 8110SOL     OW25228   3.927   4.536   1.041
 8110SOL    HW125229   3.859   4.543   1.114
 8110SOL    HW225230   3.953   4.627   1.011
 8111SOL     OW25231   6.440   1.525   2.624
 8111SOL    HW125232   6.389   1.604   2.591
 8111SOL    HW225233   6.390   1.482   2.699
 8112SOL     OW25234   1.848   4.916   6.756
 8112SOL    HW125235   1.785   4.979   6.800
 8112SOL    HW225236   1.809   4.884   6.670
 8113SOL     OW25237   5.308   4.484   5.964
 8113SOL    HW125238   5.276   4.509   5.872
 8113SOL    HW225239   5.246   4.524   6.032
 8114SOL     OW25240   1.706   3.692   2.844
 8114SOL    HW125241   1.785   3.640   2.810
 8114SOL    HW225242   1.622   3.654   2.805
 8115SOL     OW25243   2.238   0.995   5.914
 8115SOL    HW125244   2.193   1.071   5.867
 8115SOL    HW225245   2.336   0.995   5.891
 8116SOL     OW25246   4.264   2.935   1.599
 8116SOL    HW125247   4.283   2.963   1.505
 8116SOL    HW225248   4.283   3.012   1.660
 8117SOL     OW25249   2.594   6.847   4.278
 8117SOL    HW125250   2.628   6.787   4.205
 8117SOL    HW225251   2.649   6.930   4.281
 8118SOL     OW25252   6.396   2.818   6.892
 8118SOL    HW125253   6.450   2.741   6.858
 8118SOL    HW225254   6.327   2.784   6.956
 8119SOL     OW25255   5.751   6.684   6.803
 8119SOL    HW125256   5.803   6.603   6.829
 8119SOL    HW225257   5.709   6.724   6.884
 8120SOL     OW25258   1.896   6.727   2.104
 8120SOL    HW125259   1.890   6.637   2.148
 8120SOL    HW225260   1.939   6.717   2.015
 8121SOL     OW25261   1.221   2.800   2.371
 8121SOL    HW125262   1.240   2.728   2.437
 8121SOL    HW225263   1.305   2.849   2.349
 8122SOL     OW25264   0.287   5.000   1.378
 8122SOL    HW125265   0.244   5.088   1.356
 8122SOL    HW225266   0.251   4.930   1.317
 8123SOL     OW25267   6.369   1.815   0.284
 8123SOL    HW125268   6.357   1.766   0.198
 8123SOL    HW225269   6.451   1.781   0.331
 8124SOL     OW25270   5.754   6.015   4.662
 8124SOL    HW125271   5.797   5.950   4.599
 8124SOL    HW225272   5.711   6.089   4.609
 8125SOL     OW25273   1.448   5.488   2.289
 8125SOL    HW125274   1.426   5.395   2.258
 8125SOL    HW225275   1.373   5.524   2.343
 8126SOL     OW25276   4.025   5.973   4.700
 8126SOL    HW125277   4.035   5.935   4.608
 8126SOL    HW225278   4.011   5.898   4.765
 8127SOL     OW25279   3.445   1.806   6.384
 8127SOL    HW125280   3.377   1.762   6.326
 8127SOL    HW225281   3.412   1.895   6.414
 8128SOL     OW25282   3.129   2.463   1.147
 8128SOL    HW125283   3.152   2.445   1.243
 8128SOL    HW225284   3.123   2.376   1.098
 8129SOL     OW25285   0.530   2.467   2.457
 8129SOL    HW125286   0.545   2.370   2.477
 8129SOL    HW225287   0.589   2.523   2.516
 8130SOL     OW25288   0.643   5.698   6.574
 8130SOL    HW125289   0.653   5.791   6.609
 8130SOL    HW225290   0.730   5.666   6.538
 8131SOL     OW25291   1.803   2.674   6.895
 8131SOL    HW125292   1.755   2.603   6.843
 8131SOL    HW225293   1.886   2.701   6.847
 8132SOL     OW25294   0.300   1.134   5.184
 8132SOL    HW125295   0.234   1.062   5.205
 8132SOL    HW225296   0.349   1.111   5.100
 8133SOL     OW25297   3.578   4.717   0.912
 8133SOL    HW125298   3.633   4.731   0.994
 8133SOL    HW225299   3.553   4.620   0.904
 8134SOL     OW25300   5.530   1.811   5.934
 8134SOL    HW125301   5.546   1.824   5.836
 8134SOL    HW225302   5.590   1.739   5.969
 8135SOL     OW25303   2.735   6.787   2.080
 8135SOL    HW125304   2.765   6.692   2.085
 8135SOL    HW225305   2.781   6.840   2.152
 8136SOL     OW25306   5.056   4.237   1.930
 8136SOL    HW125307   5.047   4.151   1.879
 8136SOL    HW225308   5.149   4.272   1.919
 8137SOL     OW25309   4.547   1.887   6.046
 8137SOL    HW125310   4.563   1.923   5.954
 8137SOL    HW225311   4.574   1.956   6.114
 8138SOL     OW25312   5.165   0.916   2.267
 8138SOL    HW125313   5.078   0.935   2.313
 8138SOL    HW225314   5.183   0.987   2.199
 8139SOL     OW25315   0.214   2.068   3.325
 8139SOL    HW125316   0.220   2.083   3.226
 8139SOL    HW225317   0.245   1.975   3.346
 8140SOL     OW25318   4.616   2.344   3.395
 8140SOL    HW125319   4.688   2.275   3.406
 8140SOL    HW225320   4.573   2.334   3.305
 8141SOL     OW25321   5.537   4.540   4.246
 8141SOL    HW125322   5.442   4.509   4.243
 8141SOL    HW225323   5.595   4.474   4.199
 8142SOL     OW25324   0.569   5.973   6.588
 8142SOL    HW125325   0.523   6.037   6.527
 8142SOL    HW225326   0.504   5.934   6.653
 8143SOL     OW25327   6.095   3.247   5.654
 8143SOL    HW125328   6.064   3.195   5.733
 8143SOL    HW225329   6.194   3.238   5.644
 8144SOL     OW25330   5.134   0.100   0.073
 8144SOL    HW125331   5.100   0.132   0.162
 8144SOL    HW225332   5.232   0.117   0.067
 8145SOL     OW25333   4.854   5.955   2.763
 8145SOL    HW125334   4.881   5.914   2.850
 8145SOL    HW225335   4.908   6.038   2.747
 8146SOL     OW25336   3.634   1.217   4.345
 8146SOL    HW125337   3.584   1.159   4.280
 8146SOL    HW225338   3.643   1.170   4.432
 8147SOL     OW25339   4.773   0.751   3.103
 8147SOL    HW125340   4.855   0.757   3.160
 8147SOL    HW225341   4.698   0.714   3.157
 8148SOL     OW25342   5.849   4.381   3.540
 8148SOL    HW125343   5.838   4.476   3.511
 8148SOL    HW225344   5.802   4.366   3.627
 8149SOL     OW25345   4.040   4.936   3.188
 8149SOL    HW125346   3.942   4.940   3.169
 8149SOL    HW225347   4.092   4.943   3.103
 8150SOL     OW25348   0.923   5.893   1.297
 8150SOL    HW125349   0.955   5.801   1.276
 8150SOL    HW225350   0.930   5.910   1.395
 8151SOL     OW25351   0.945   1.851   5.052
 8151SOL    HW125352   0.853   1.886   5.036
 8151SOL    HW225353   0.963   1.775   4.990
 8152SOL     OW25354   1.454   0.476   2.674
 8152SOL    HW125355   1.437   0.497   2.578
 8152SOL    HW225356   1.370   0.492   2.727
 8153SOL     OW25357   1.575   6.620   7.007
 8153SOL    HW125358   1.585   6.521   7.017
 8153SOL    HW225359   1.624   6.650   6.925
 8154SOL     OW25360   2.241   6.844   3.294
 8154SOL    HW125361   2.203   6.934   3.272
 8154SOL    HW225362   2.169   6.785   3.330
 8155SOL     OW25363   3.225   3.562   4.367
 8155SOL    HW125364   3.196   3.657   4.367
 8155SOL    HW225365   3.276   3.542   4.283
 8156SOL     OW25366   0.107   0.524   5.708
 8156SOL    HW125367   0.058   0.519   5.796
 8156SOL    HW225368   0.178   0.454   5.705
 8157SOL     OW25369   6.259   2.718   6.622
 8157SOL    HW125370   6.254   2.620   6.601
 8157SOL    HW225371   6.197   2.739   6.697
 8158SOL     OW25372   1.908   5.363   2.556
 8158SOL    HW125373   1.930   5.283   2.501
 8158SOL    HW225374   1.854   5.428   2.501
 8159SOL     OW25375   0.762   5.126   1.558
 8159SOL    HW125376   0.788   5.054   1.622
 8159SOL    HW225377   0.685   5.178   1.596
 8160SOL     OW25378   4.695   1.723   2.112
 8160SOL    HW125379   4.665   1.778   2.034
 8160SOL    HW225380   4.673   1.627   2.096
 8161SOL     OW25381   4.313   2.084   1.810
 8161SOL    HW125382   4.229   2.031   1.825
 8161SOL    HW225383   4.305   2.137   1.726
 8162SOL     OW25384   6.050   0.656   1.542
 8162SOL    HW125385   5.976   0.722   1.560
 8162SOL    HW225386   6.133   0.706   1.518
 8163SOL     OW25387   1.834   3.420   4.917
 8163SOL    HW125388   1.869   3.505   4.958
 8163SOL    HW225389   1.764   3.382   4.977
 8164SOL     OW25390   4.897   2.413   2.693
 8164SOL    HW125391   4.838   2.493   2.685
 8164SOL    HW225392   4.993   2.441   2.685
 8165SOL     OW25393   2.442   5.018   1.408
 8165SOL    HW125394   2.498   4.962   1.469
 8165SOL    HW225395   2.347   5.018   1.440
 8166SOL     OW25396   3.489   6.650   1.125
 8166SOL    HW125397   3.493   6.718   1.051
 8166SOL    HW225398   3.573   6.596   1.125
 8167SOL     OW25399   5.546   3.279   3.825
 8167SOL    HW125400   5.497   3.194   3.803
 8167SOL    HW225401   5.598   3.266   3.910
 8168SOL     OW25402   3.284   1.817   2.361
 8168SOL    HW125403   3.283   1.907   2.316
 8168SOL    HW225404   3.375   1.777   2.353
 8169SOL     OW25405   5.208   3.997   5.219
 8169SOL    HW125406   5.260   4.082   5.214
 8169SOL    HW225407   5.192   3.963   5.126
 8170SOL     OW25408   1.581   4.686   4.547
 8170SOL    HW125409   1.514   4.612   4.550
 8170SOL    HW225410   1.651   4.665   4.479
 8171SOL     OW25411   1.497   1.060   6.323
 8171SOL    HW125412   1.478   1.012   6.409
 8171SOL    HW225413   1.412   1.071   6.272
 8172SOL     OW25414   6.806   6.429   1.140
 8172SOL    HW125415   6.824   6.485   1.221
 8172SOL    HW225416   6.858   6.343   1.147
 8173SOL     OW25417   5.791   2.684   6.793
 8173SOL    HW125418   5.843   2.681   6.708
 8173SOL    HW225419   5.827   2.755   6.853
 8174SOL     OW25420   5.403   6.509   2.010
 8174SOL    HW125421   5.450   6.472   2.091
 8174SOL    HW225422   5.470   6.554   1.951
 8175SOL     OW25423   1.434   2.514   4.859
 8175SOL    HW125424   1.454   2.612   4.863
 8175SOL    HW225425   1.410   2.481   4.950
 8176SOL     OW25426   3.977   5.214   3.320
 8176SOL    HW125427   3.952   5.131   3.271
 8176SOL    HW225428   4.057   5.255   3.276
 8177SOL     OW25429   0.557   6.646   5.467
 8177SOL    HW125430   0.645   6.663   5.511
 8177SOL    HW225431   0.511   6.569   5.512
 8178SOL     OW25432   1.921   6.887   5.972
 8178SOL    HW125433   1.988   6.834   6.025
 8178SOL    HW225434   1.940   6.985   5.983
 8179SOL     OW25435   3.340   0.338   0.062
 8179SOL    HW125436   3.305   0.265   0.003
 8179SOL    HW225437   3.271   0.363   0.130
 8180SOL     OW25438   4.724   4.781   5.786
 8180SOL    HW125439   4.704   4.717   5.712
 8180SOL    HW225440   4.770   4.862   5.748
 8181SOL     OW25441   2.661   2.002   2.366
 8181SOL    HW125442   2.668   2.089   2.316
 8181SOL    HW225443   2.570   1.964   2.354
 8182SOL     OW25444   5.148   2.714   5.919
 8182SOL    HW125445   5.109   2.743   5.832
 8182SOL    HW225446   5.186   2.622   5.909
 8183SOL     OW25447   2.070   2.709   3.955
 8183SOL    HW125448   2.162   2.713   3.996
 8183SOL    HW225449   2.010   2.773   4.003
 8184SOL     OW25450   5.734   6.403   4.823
 8184SOL    HW125451   5.812   6.425   4.882
 8184SOL    HW225452   5.765   6.394   4.728
 8185SOL     OW25453   1.916   2.096   3.322
 8185SOL    HW125454   2.010   2.123   3.301
 8185SOL    HW225455   1.913   1.999   3.344
 8186SOL     OW25456   4.286   4.151   6.674
 8186SOL    HW125457   4.313   4.106   6.760
 8186SOL    HW225458   4.235   4.234   6.695
 8187SOL     OW25459   1.892   1.135   5.761
 8187SOL    HW125460   1.871   1.037   5.761
 8187SOL    HW225461   1.825   1.184   5.817
 8188SOL     OW25462   5.625   3.524   2.777
 8188SOL    HW125463   5.543   3.539   2.722
 8188SOL    HW225464   5.599   3.508   2.872
 8189SOL     OW25465   6.984   4.974   2.892
 8189SOL    HW125466   6.910   4.907   2.883
 8189SOL    HW225467   6.959   5.042   2.962
 8190SOL     OW25468   5.820   3.661   2.184
 8190SOL    HW125469   5.838   3.713   2.100
 8190SOL    HW225470   5.877   3.696   2.258
 8191SOL     OW25471   6.946   5.174   1.890
 8191SOL    HW125472   6.853   5.142   1.869
 8191SOL    HW225473   6.998   5.099   1.930
 8192SOL     OW25474   1.375   3.474   0.442
 8192SOL    HW125475   1.454   3.521   0.403
 8192SOL    HW225476   1.292   3.503   0.394
 8193SOL     OW25477   4.017   0.138   5.288
 8193SOL    HW125478   4.048   0.232   5.298
 8193SOL    HW225479   4.007   0.096   5.378
 8194SOL     OW25480   1.649   0.139   1.806
 8194SOL    HW125481   1.731   0.166   1.756
 8194SOL    HW225482   1.652   0.041   1.827
 8195SOL     OW25483   5.250   1.327   1.377
 8195SOL    HW125484   5.229   1.246   1.432
 8195SOL    HW225485   5.189   1.402   1.403
 8196SOL     OW25486   2.222   0.450   0.182
 8196SOL    HW125487   2.194   0.447   0.086
 8196SOL    HW225488   2.157   0.399   0.237
 8197SOL     OW25489   0.735   7.015   0.972
 8197SOL    HW125490   0.697   6.924   0.990
 8197SOL    HW225491   0.810   7.008   0.907
 8198SOL     OW25492   3.387   0.302   2.796
 8198SOL    HW125493   3.330   0.224   2.769
 8198SOL    HW225494   3.461   0.269   2.855
 8199SOL     OW25495   5.671   5.149   0.374
 8199SOL    HW125496   5.652   5.060   0.414
 8199SOL    HW225497   5.769   5.159   0.358
 8200SOL     OW25498   4.171   3.742   1.915
 8200SOL    HW125499   4.199   3.815   1.977
 8200SOL    HW225500   4.132   3.666   1.968
 8201SOL     OW25501   6.368   0.481   4.712
 8201SOL    HW125502   6.301   0.420   4.754
 8201SOL    HW225503   6.393   0.553   4.777
 8202SOL     OW25504   1.816   3.807   4.364
 8202SOL    HW125505   1.813   3.891   4.309
 8202SOL    HW225506   1.835   3.831   4.459
 8203SOL     OW25507   6.302   4.191   0.279
 8203SOL    HW125508   6.224   4.177   0.218
 8203SOL    HW225509   6.292   4.279   0.325
 8204SOL     OW25510   3.483   0.031   0.786
 8204SOL    HW125511   3.415   0.034   0.712
 8204SOL    HW225512   3.459   0.099   0.855
 8205SOL     OW25513   5.255   5.567   3.112
 8205SOL    HW125514   5.219   5.644   3.163
 8205SOL    HW225515   5.179   5.508   3.082
 8206SOL     OW25516   4.333   1.978   4.229
 8206SOL    HW125517   4.289   2.048   4.286
 8206SOL    HW225518   4.306   1.887   4.263
 8207SOL     OW25519   3.099   5.809   6.652
 8207SOL    HW125520   3.156   5.891   6.663
 8207SOL    HW225521   3.050   5.790   6.737
 8208SOL     OW25522   1.457   5.904   0.251
 8208SOL    HW125523   1.501   5.907   0.161
 8208SOL    HW225524   1.526   5.907   0.322
 8209SOL     OW25525   1.415   5.650   4.811
 8209SOL    HW125526   1.352   5.702   4.753
 8209SOL    HW225527   1.383   5.555   4.818
 8210SOL     OW25528   1.907   1.632   0.314
 8210SOL    HW125529   1.971   1.560   0.287
 8210SOL    HW225530   1.843   1.597   0.382
 8211SOL     OW25531   3.801   4.037   3.603
 8211SOL    HW125532   3.763   4.090   3.679
 8211SOL    HW225533   3.760   3.946   3.603
 8212SOL     OW25534   4.329   5.401   0.070
 8212SOL    HW125535   4.357   5.431   7.006
 8212SOL    HW225536   4.275   5.473   0.114
 8213SOL     OW25537   4.566   4.291   1.649
 8213SOL    HW125538   4.505   4.273   1.726
 8213SOL    HW225539   4.625   4.368   1.670
 8214SOL     OW25540   3.850   5.464   2.858
 8214SOL    HW125541   3.797   5.525   2.916
 8214SOL    HW225542   3.789   5.417   2.795
 8215SOL     OW25543   2.441   6.161   6.229
 8215SOL    HW125544   2.474   6.068   6.214
 8215SOL    HW225545   2.424   6.175   6.327
 8216SOL     OW25546   5.214   5.799   1.381
 8216SOL    HW125547   5.235   5.768   1.474
 8216SOL    HW225548   5.186   5.895   1.384
 8217SOL     OW25549   3.235   6.532   4.104
 8217SOL    HW125550   3.194   6.441   4.114
 8217SOL    HW225551   3.267   6.543   4.010
 8218SOL     OW25552   2.333   6.190   5.157
 8218SOL    HW125553   2.383   6.117   5.112
 8218SOL    HW225554   2.349   6.187   5.256
 8219SOL     OW25555   3.878   3.186   2.613
 8219SOL    HW125556   3.903   3.243   2.534
 8219SOL    HW225557   3.785   3.150   2.600
 8220SOL     OW25558   3.714   4.063   5.783
 8220SOL    HW125559   3.667   3.998   5.843
 8220SOL    HW225560   3.761   4.132   5.838
 8221SOL     OW25561   6.443   3.607   4.211
 8221SOL    HW125562   6.490   3.540   4.267
 8221SOL    HW225563   6.466   3.699   4.243
 8222SOL     OW25564   6.048   2.667   0.247
 8222SOL    HW125565   6.011   2.756   0.271
 8222SOL    HW225566   5.974   2.608   0.214
 8223SOL     OW25567   2.065   6.157   5.315
 8223SOL    HW125568   2.108   6.106   5.241
 8223SOL    HW225569   1.983   6.203   5.281
 8224SOL     OW25570   5.534   1.201   6.403
 8224SOL    HW125571   5.547   1.222   6.306
 8224SOL    HW225572   5.563   1.279   6.458
 8225SOL     OW25573   5.743   3.365   0.319
 8225SOL    HW125574   5.650   3.396   0.339
 8225SOL    HW225575   5.756   3.272   0.354
 8226SOL     OW25576   3.741   0.935   6.481
 8226SOL    HW125577   3.684   0.879   6.541
 8226SOL    HW225578   3.690   1.017   6.454
 8227SOL     OW25579   4.666   2.517   3.031
 8227SOL    HW125580   4.716   2.539   3.115
 8227SOL    HW225581   4.641   2.602   2.985
 8228SOL     OW25582   3.059   0.535   5.074
 8228SOL    HW125583   3.142   0.574   5.033
 8228SOL    HW225584   2.991   0.607   5.086
 8229SOL     OW25585   4.643   4.548   0.725
 8229SOL    HW125586   4.640   4.618   0.654
 8229SOL    HW225587   4.556   4.547   0.774
 8230SOL     OW25588   5.901   1.300   5.758
 8230SOL    HW125589   5.849   1.350   5.688
 8230SOL    HW225590   5.841   1.278   5.835
 8231SOL     OW25591   2.820   1.087   1.925
 8231SOL    HW125592   2.896   1.075   1.988
 8231SOL    HW225593   2.734   1.062   1.970
 8232SOL     OW25594   3.565   6.213   3.082
 8232SOL    HW125595   3.567   6.276   3.160
 8232SOL    HW225596   3.469   6.192   3.060
 8233SOL     OW25597   1.959   1.059   6.540
 8233SOL    HW125598   2.011   0.982   6.504
 8233SOL    HW225599   2.015   1.109   6.606
 8234SOL     OW25600   0.997   2.636   0.200
 8234SOL    HW125601   1.019   2.538   0.201
 8234SOL    HW225602   0.898   2.648   0.210
 8235SOL     OW25603   0.816   0.890   1.314
 8235SOL    HW125604   0.887   0.924   1.251
 8235SOL    HW225605   0.856   0.823   1.375
 8236SOL     OW25606   0.413   0.001   1.537
 8236SOL    HW125607   0.393   6.978   1.453
 8236SOL    HW225608   0.426   0.098   1.516
 8237SOL     OW25609   3.878   4.855   5.340
 8237SOL    HW125610   3.888   4.841   5.438
 8237SOL    HW225611   3.941   4.927   5.310
 8238SOL     OW25612   0.352   5.769   0.296
 8238SOL    HW125613   0.391   5.716   0.371
 8238SOL    HW225614   0.352   5.715   0.212
 8239SOL     OW25615   3.212   1.377   5.758
 8239SOL    HW125616   3.240   1.294   5.709
 8239SOL    HW225617   3.236   1.457   5.702
 8240SOL     OW25618   3.554   3.822   5.212
 8240SOL    HW125619   3.483   3.892   5.211
 8240SOL    HW225620   3.555   3.778   5.303
 8241SOL     OW25621   1.278   3.732   5.294
 8241SOL    HW125622   1.268   3.795   5.216
 8241SOL    HW225623   1.283   3.785   5.379
 8242SOL     OW25624   0.335   2.910   2.212
 8242SOL    HW125625   0.346   2.816   2.182
 8242SOL    HW225626   0.294   2.964   2.139
 8243SOL     OW25627   1.537   6.851   3.696
 8243SOL    HW125628   1.516   6.930   3.753
 8243SOL    HW225629   1.630   6.861   3.660
 8244SOL     OW25630   6.673   0.860   3.412
 8244SOL    HW125631   6.609   0.784   3.419
 8244SOL    HW225632   6.682   0.904   3.502
 8245SOL     OW25633   4.729   2.873   2.465
 8245SOL    HW125634   4.679   2.825   2.538
 8245SOL    HW225635   4.717   2.972   2.476
 8246SOL     OW25636   1.860   4.443   6.768
 8246SOL    HW125637   1.827   4.492   6.687
 8246SOL    HW225638   1.785   4.430   6.833
 8247SOL     OW25639   2.578   5.024   3.567
 8247SOL    HW125640   2.618   4.954   3.627
 8247SOL    HW225641   2.595   5.000   3.471
 8248SOL     OW25642   0.138   5.179   3.090
 8248SOL    HW125643   0.051   5.139   3.117
 8248SOL    HW225644   0.137   5.277   3.110
 8249SOL     OW25645   3.054   1.255   6.832
 8249SOL    HW125646   2.998   1.173   6.841
 8249SOL    HW225647   3.055   1.285   6.737
 8250SOL     OW25648   1.569   2.004   7.005
 8250SOL    HW125649   1.653   1.961   0.010
 8250SOL    HW225650   1.502   1.934   6.980
 8251SOL     OW25651   0.851   2.007   6.021
 8251SOL    HW125652   0.911   1.946   5.970
 8251SOL    HW225653   0.899   2.092   6.042
 8252SOL     OW25654   1.033   2.383   6.664
 8252SOL    HW125655   1.018   2.287   6.642
 8252SOL    HW225656   1.096   2.423   6.598
 8253SOL     OW25657   5.783   4.953   6.202
 8253SOL    HW125658   5.729   5.006   6.267
 8253SOL    HW225659   5.846   5.014   6.154
 8254SOL     OW25660   6.109   5.855   0.035
 8254SOL    HW125661   6.017   5.867   0.073
 8254SOL    HW225662   6.144   5.943   0.004
 8255SOL     OW25663   0.895   0.177   5.411
 8255SOL    HW125664   0.869   0.181   5.508
 8255SOL    HW225665   0.935   0.087   5.391
 8256SOL     OW25666   1.388   6.006   4.226
 8256SOL    HW125667   1.431   5.995   4.136
 8256SOL    HW225668   1.289   6.004   4.216
 8257SOL     OW25669   5.066   3.393   3.558
 8257SOL    HW125670   5.148   3.361   3.604
 8257SOL    HW225671   5.082   3.485   3.522
 8258SOL     OW25672   0.263   2.671   3.758
 8258SOL    HW125673   0.170   2.650   3.729
 8258SOL    HW225674   0.324   2.599   3.724
 8259SOL     OW25675   5.841   2.131   4.387
 8259SOL    HW125676   5.904   2.054   4.372
 8259SOL    HW225677   5.759   2.098   4.433
 8260SOL     OW25678   5.148   2.481   6.778
 8260SOL    HW125679   5.125   2.578   6.780
 8260SOL    HW225680   5.200   2.457   6.861
 8261SOL     OW25681   6.048   1.334   2.845
 8261SOL    HW125682   5.988   1.289   2.778
 8261SOL    HW225683   6.143   1.311   2.825
 8262SOL     OW25684   5.167   3.943   1.986
 8262SOL    HW125685   5.236   4.014   2.001
 8262SOL    HW225686   5.208   3.853   2.004
 8263SOL     OW25687   6.782   2.061   6.211
 8263SOL    HW125688   6.869   2.108   6.225
 8263SOL    HW225689   6.799   1.962   6.205
 8264SOL     OW25690   3.179   0.539   1.659
 8264SOL    HW125691   3.178   0.622   1.715
 8264SOL    HW225692   3.113   0.548   1.585
 8265SOL     OW25693   4.516   5.531   0.485
 8265SOL    HW125694   4.490   5.473   0.562
 8265SOL    HW225695   4.509   5.479   0.400
 8266SOL     OW25696   3.264   1.521   3.279
 8266SOL    HW125697   3.261   1.439   3.223
 8266SOL    HW225698   3.263   1.602   3.220
 8267SOL     OW25699   1.760   2.665   3.456
 8267SOL    HW125700   1.830   2.640   3.389
 8267SOL    HW225701   1.786   2.630   3.546
 8268SOL     OW25702   3.070   4.312   0.055
 8268SOL    HW125703   3.113   4.360   0.132
 8268SOL    HW225704   3.056   4.377   7.006
 8269SOL     OW25705   6.543   2.127   5.198
 8269SOL    HW125706   6.628   2.147   5.247
 8269SOL    HW225707   6.564   2.081   5.112
 8270SOL     OW25708   4.019   4.889   0.263
 8270SOL    HW125709   3.933   4.845   0.236
 8270SOL    HW225710   4.066   4.831   0.330
 8271SOL     OW25711   3.480   6.585   5.966
 8271SOL    HW125712   3.494   6.591   6.065
 8271SOL    HW225713   3.412   6.653   5.938
 8272SOL     OW25714   0.164   0.516   2.164
 8272SOL    HW125715   0.088   0.580   2.170
 8272SOL    HW225716   0.136   0.427   2.198
 8273SOL     OW25717   3.719   0.225   6.324
 8273SOL    HW125718   3.631   0.216   6.276
 8273SOL    HW225719   3.716   0.169   6.407
 8274SOL     OW25720   5.248   6.394   5.403
 8274SOL    HW125721   5.203   6.384   5.315
 8274SOL    HW225722   5.200   6.338   5.472
 8275SOL     OW25723   4.581   1.044   4.941
 8275SOL    HW125724   4.599   0.965   5.000
 8275SOL    HW225725   4.603   1.021   4.846
 8276SOL     OW25726   5.699   2.855   0.452
 8276SOL    HW125727   5.616   2.805   0.427
 8276SOL    HW225728   5.774   2.829   0.391
 8277SOL     OW25729   0.976   6.424   1.563
 8277SOL    HW125730   1.027   6.489   1.507
 8277SOL    HW225731   0.929   6.473   1.636
 8278SOL     OW25732   1.550   0.190   1.150
 8278SOL    HW125733   1.493   0.234   1.219
 8278SOL    HW225734   1.495   0.127   1.096
 8279SOL     OW25735   4.807   5.803   6.016
 8279SOL    HW125736   4.852   5.745   6.083
 8279SOL    HW225737   4.750   5.871   6.062
 8280SOL     OW25738   5.401   4.580   6.678
 8280SOL    HW125739   5.450   4.571   6.765
 8280SOL    HW225740   5.430   4.664   6.631
 8281SOL     OW25741   3.113   5.576   6.309
 8281SOL    HW125742   3.142   5.650   6.249
 8281SOL    HW225743   3.129   5.488   6.264
 8282SOL     OW25744   4.036   2.598   0.967
 8282SOL    HW125745   4.123   2.616   0.922
 8282SOL    HW225746   4.042   2.513   1.019
 8283SOL     OW25747   0.435   0.305   3.163
 8283SOL    HW125748   0.508   0.278   3.100
 8283SOL    HW225749   0.465   0.381   3.220
 8284SOL     OW25750   5.426   1.904   2.060
 8284SOL    HW125751   5.463   1.935   1.973
 8284SOL    HW225752   5.470   1.955   2.135
 8285SOL     OW25753   0.741   4.551   0.508
 8285SOL    HW125754   0.761   4.496   0.589
 8285SOL    HW225755   0.674   4.621   0.531
 8286SOL     OW25756   6.154   2.567   6.855
 8286SOL    HW125757   6.140   2.629   6.932
 8286SOL    HW225758   6.194   2.481   6.887
 8287SOL     OW25759   1.531   1.185   2.814
 8287SOL    HW125760   1.505   1.214   2.722
 8287SOL    HW225761   1.622   1.220   2.836
 8288SOL     OW25762   1.993   0.428   2.183
 8288SOL    HW125763   1.918   0.361   2.180
 8288SOL    HW225764   1.974   0.497   2.253
 8289SOL     OW25765   5.626   6.790   0.277
 8289SOL    HW125766   5.599   6.697   0.302
 8289SOL    HW225767   5.687   6.828   0.347
 8290SOL     OW25768   4.938   2.587   2.149
 8290SOL    HW125769   4.947   2.505   2.205
 8290SOL    HW225770   4.852   2.633   2.170
 8291SOL     OW25771   5.172   6.021   6.403
 8291SOL    HW125772   5.229   6.071   6.337
 8291SOL    HW225773   5.186   6.060   6.494
 8292SOL     OW25774   0.043   3.578   5.656
 8292SOL    HW125775   7.011   3.590   5.736
 8292SOL    HW225776   0.125   3.527   5.682
 8293SOL     OW25777   3.002   4.895   4.185
 8293SOL    HW125778   3.048   4.925   4.101
 8293SOL    HW225779   2.905   4.879   4.165
 8294SOL     OW25780   6.060   3.837   5.835
 8294SOL    HW125781   6.025   3.925   5.865
 8294SOL    HW225782   6.153   3.848   5.799
 8295SOL     OW25783   4.570   5.139   2.772
 8295SOL    HW125784   4.574   5.227   2.820
 8295SOL    HW225785   4.582   5.065   2.837
 8296SOL     OW25786   3.991   0.259   2.592
 8296SOL    HW125787   4.057   0.334   2.588
 8296SOL    HW225788   3.931   0.264   2.512
 8297SOL     OW25789   5.827   4.521   1.837
 8297SOL    HW125790   5.875   4.488   1.917
 8297SOL    HW225791   5.833   4.453   1.764
 8298SOL     OW25792   6.546   6.669   0.894
 8298SOL    HW125793   6.475   6.662   0.964
 8298SOL    HW225794   6.570   6.577   0.862
 8299SOL     OW25795   1.201   3.121   6.445
 8299SOL    HW125796   1.227   3.062   6.368
 8299SOL    HW225797   1.212   3.216   6.418
 8300SOL     OW25798   6.088   5.235   4.717
 8300SOL    HW125799   6.080   5.304   4.788
 8300SOL    HW225800   6.003   5.181   4.713
 8301SOL     OW25801   6.970   5.772   0.185
 8301SOL    HW125802   6.976   5.769   0.284
 8301SOL    HW225803   6.914   5.696   0.152
 8302SOL     OW25804   3.831   6.369   5.559
 8302SOL    HW125805   3.795   6.277   5.572
 8302SOL    HW225806   3.930   6.369   5.574
 8303SOL     OW25807   1.331   4.704   4.315
 8303SOL    HW125808   1.427   4.694   4.286
 8303SOL    HW225809   1.328   4.747   4.405
 8304SOL     OW25810   6.501   2.836   4.067
 8304SOL    HW125811   6.424   2.808   4.009
 8304SOL    HW225812   6.511   2.935   4.062
 8305SOL     OW25813   4.399   0.200   5.763
 8305SOL    HW125814   4.419   0.259   5.841
 8305SOL    HW225815   4.484   0.178   5.715
 8306SOL     OW25816   6.171   0.315   4.078
 8306SOL    HW125817   6.120   0.250   4.134
 8306SOL    HW225818   6.107   0.365   4.019
 8307SOL     OW25819   0.953   4.332   3.827
 8307SOL    HW125820   0.996   4.422   3.836
 8307SOL    HW225821   1.021   4.260   3.842
 8308SOL     OW25822   1.528   5.391   0.527
 8308SOL    HW125823   1.435   5.401   0.493
 8308SOL    HW225824   1.581   5.336   0.463
 8309SOL     OW25825   6.476   5.065   3.125
 8309SOL    HW125826   6.387   5.076   3.080
 8309SOL    HW225827   6.470   5.096   3.220
 8310SOL     OW25828   2.448   6.506   2.814
 8310SOL    HW125829   2.390   6.581   2.781
 8310SOL    HW225830   2.498   6.537   2.895
 8311SOL     OW25831   4.369   6.142   2.069
 8311SOL    HW125832   4.435   6.167   2.140
 8311SOL    HW225833   4.369   6.042   2.058
 8312SOL     OW25834   6.721   1.763   0.720
 8312SOL    HW125835   6.654   1.690   0.707
 8312SOL    HW225836   6.807   1.739   0.673
 8313SOL     OW25837   5.330   3.262   6.473
 8313SOL    HW125838   5.296   3.172   6.447
 8313SOL    HW225839   5.430   3.263   6.468
 8314SOL     OW25840   4.413   5.648   3.736
 8314SOL    HW125841   4.327   5.597   3.749
 8314SOL    HW225842   4.490   5.586   3.750
 8315SOL     OW25843   3.101   2.848   6.618
 8315SOL    HW125844   3.121   2.847   6.520
 8315SOL    HW225845   3.111   2.755   6.654
 8316SOL     OW25846   1.657   1.667   5.295
 8316SOL    HW125847   1.689   1.575   5.274
 8316SOL    HW225848   1.604   1.702   5.217
 8317SOL     OW25849   1.134   2.193   4.931
 8317SOL    HW125850   1.153   2.099   4.961
 8317SOL    HW225851   1.093   2.244   5.006
 8318SOL     OW25852   4.364   6.755   6.054
 8318SOL    HW125853   4.421   6.715   5.982
 8318SOL    HW225854   4.290   6.807   6.012
 8319SOL     OW25855   2.274   5.599   0.164
 8319SOL    HW125856   2.283   5.551   0.077
 8319SOL    HW225857   2.360   5.593   0.214
 8320SOL     OW25858   3.795   3.952   5.543
 8320SOL    HW125859   3.773   4.007   5.624
 8320SOL    HW225860   3.716   3.895   5.519
 8321SOL     OW25861   0.427   0.218   0.752
 8321SOL    HW125862   0.436   0.120   0.736
 8321SOL    HW225863   0.451   0.238   0.847
 8322SOL     OW25864   1.116   0.552   0.472
 8322SOL    HW125865   1.017   0.544   0.466
 8322SOL    HW225866   1.141   0.618   0.543
 8323SOL     OW25867   5.631   4.848   6.796
 8323SOL    HW125868   5.726   4.820   6.789
 8323SOL    HW225869   5.577   4.776   6.839
 8324SOL     OW25870   5.015   6.543   6.720
 8324SOL    HW125871   4.954   6.541   6.641
 8324SOL    HW225872   5.078   6.466   6.716
 8325SOL     OW25873   1.619   6.390   4.855
 8325SOL    HW125874   1.563   6.409   4.936
 8325SOL    HW225875   1.705   6.348   4.884
 8326SOL     OW25876   2.364   2.213   6.720
 8326SOL    HW125877   2.384   2.279   6.792
 8326SOL    HW225878   2.351   2.122   6.759
 8327SOL     OW25879   0.879   6.266   5.037
 8327SOL    HW125880   0.791   6.218   5.037
 8327SOL    HW225881   0.883   6.329   4.960
 8328SOL     OW25882   1.009   6.283   1.084
 8328SOL    HW125883   0.931   6.326   1.039
 8328SOL    HW225884   1.060   6.228   1.017
 8329SOL     OW25885   1.437   2.791   5.526
 8329SOL    HW125886   1.346   2.766   5.493
 8329SOL    HW225887   1.502   2.718   5.504
 8330SOL     OW25888   2.493   6.594   0.455
 8330SOL    HW125889   2.469   6.670   0.395
 8330SOL    HW225890   2.520   6.629   0.545
 8331SOL     OW25891   2.353   2.445   5.759
 8331SOL    HW125892   2.316   2.361   5.799
 8331SOL    HW225893   2.367   2.432   5.661
 8332SOL     OW25894   6.139   3.885   1.167
 8332SOL    HW125895   6.168   3.798   1.127
 8332SOL    HW225896   6.176   3.961   1.112
 8333SOL     OW25897   2.494   4.181   6.729
 8333SOL    HW125898   2.525   4.179   6.635
 8333SOL    HW225899   2.444   4.266   6.746
 8334SOL     OW25900   3.626   2.312   5.379
 8334SOL    HW125901   3.531   2.333   5.402
 8334SOL    HW225902   3.629   2.244   5.307
 8335SOL     OW25903   4.997   4.234   5.817
 8335SOL    HW125904   4.981   4.316   5.762
 8335SOL    HW225905   5.095   4.216   5.822
 8336SOL     OW25906   1.350   3.411   3.667
 8336SOL    HW125907   1.333   3.495   3.616
 8336SOL    HW225908   1.284   3.404   3.742
 8337SOL     OW25909   6.879   1.284   4.554
 8337SOL    HW125910   6.804   1.345   4.579
 8337SOL    HW225911   6.928   1.322   4.475
 8338SOL     OW25912   2.680   5.695   1.184
 8338SOL    HW125913   2.683   5.719   1.087
 8338SOL    HW225914   2.703   5.599   1.196
 8339SOL     OW25915   6.091   0.434   1.685
 8339SOL    HW125916   6.163   0.370   1.658
 8339SOL    HW225917   6.110   0.525   1.647
 8340SOL     OW25918   5.971   2.665   6.533
 8340SOL    HW125919   6.032   2.585   6.534
 8340SOL    HW225920   6.019   2.743   6.573
 8341SOL     OW25921   4.128   0.568   0.639
 8341SOL    HW125922   4.098   0.569   0.734
 8341SOL    HW225923   4.048   0.567   0.579
 8342SOL     OW25924   3.553   1.034   0.083
 8342SOL    HW125925   3.596   1.103   0.025
 8342SOL    HW225926   3.526   1.075   0.170
 8343SOL     OW25927   5.950   4.989   2.781
 8343SOL    HW125928   5.900   5.016   2.863
 8343SOL    HW225929   6.006   5.065   2.749
 8344SOL     OW25930   2.651   4.793   6.138
 8344SOL    HW125931   2.668   4.721   6.205
 8344SOL    HW225932   2.735   4.846   6.125
 8345SOL     OW25933   5.940   0.325   3.828
 8345SOL    HW125934   5.965   0.400   3.889
 8345SOL    HW225935   5.859   0.278   3.865
 8346SOL     OW25936   5.553   3.797   4.301
 8346SOL    HW125937   5.640   3.769   4.341
 8346SOL    HW225938   5.490   3.719   4.301
 8347SOL     OW25939   1.416   1.379   6.022
 8347SOL    HW125940   1.481   1.334   6.084
 8347SOL    HW225941   1.323   1.363   6.054
 8348SOL     OW25942   3.071   5.605   1.801
 8348SOL    HW125943   3.133   5.664   1.750
 8348SOL    HW225944   2.977   5.635   1.787
 8349SOL     OW25945   4.689   6.140   1.422
 8349SOL    HW125946   4.684   6.201   1.501
 8349SOL    HW225947   4.602   6.142   1.372
 8350SOL     OW25948   1.065   6.980   0.335
 8350SOL    HW125949   0.974   6.970   0.375
 8350SOL    HW225950   1.126   7.023   0.401
 8351SOL     OW25951   7.018   2.554   2.638
 8351SOL    HW125952   0.091   2.543   2.644
 8351SOL    HW225953   6.982   2.577   2.728
 8352SOL     OW25954   2.809   6.627   6.559
 8352SOL    HW125955   2.853   6.717   6.555
 8352SOL    HW225956   2.822   6.579   6.473
 8353SOL     OW25957   0.727   6.360   2.261
 8353SOL    HW125958   0.787   6.295   2.213
 8353SOL    HW225959   0.728   6.447   2.213
 8354SOL     OW25960   4.418   1.739   3.128
 8354SOL    HW125961   4.393   1.694   3.213
 8354SOL    HW225962   4.358   1.818   3.113
 8355SOL     OW25963   3.170   5.337   6.186
 8355SOL    HW125964   3.245   5.298   6.132
 8355SOL    HW225965   3.083   5.318   6.140
 8356SOL     OW25966   2.773   4.172   1.169
 8356SOL    HW125967   2.870   4.186   1.185
 8356SOL    HW225968   2.750   4.075   1.181
 8357SOL     OW25969   4.104   6.799   4.443
 8357SOL    HW125970   4.099   6.705   4.479
 8357SOL    HW225971   4.118   6.796   4.344
 8358SOL     OW25972   0.604   1.161   5.147
 8358SOL    HW125973   0.620   1.258   5.133
 8358SOL    HW225974   0.520   1.133   5.100
 8359SOL     OW25975   4.482   2.371   5.616
 8359SOL    HW125976   4.392   2.329   5.627
 8359SOL    HW225977   4.534   2.362   5.701
 8360SOL     OW25978   4.233   6.823   1.365
 8360SOL    HW125979   4.188   6.869   1.441
 8360SOL    HW225980   4.169   6.760   1.322
 8361SOL     OW25981   4.711   1.545   0.206
 8361SOL    HW125982   4.811   1.551   0.203
 8361SOL    HW225983   4.685   1.468   0.264
 8362SOL     OW25984   0.175   3.254   1.344
 8362SOL    HW125985   0.223   3.335   1.378
 8362SOL    HW225986   0.220   3.171   1.378
 8363SOL     OW25987   1.113   2.748   1.282
 8363SOL    HW125988   1.063   2.683   1.225
 8363SOL    HW225989   1.212   2.731   1.273
 8364SOL     OW25990   0.488   2.426   4.424
 8364SOL    HW125991   0.459   2.480   4.345
 8364SOL    HW225992   0.448   2.335   4.418
 8365SOL     OW25993   1.229   2.287   1.572
 8365SOL    HW125994   1.160   2.346   1.529
 8365SOL    HW225995   1.278   2.236   1.502
 8366SOL     OW25996   4.939   5.547   1.943
 8366SOL    HW125997   4.969   5.458   1.979
 8366SOL    HW225998   4.857   5.576   1.991
 8367SOL     OW25999   2.236   4.445   3.465
 8367SOL    HW126000   2.202   4.444   3.559
 8367SOL    HW226001   2.231   4.539   3.430
 8368SOL     OW26002   6.248   4.981   6.028
 8368SOL    HW126003   6.166   4.936   6.063
 8368SOL    HW226004   6.228   5.020   5.937
 8369SOL     OW26005   1.743   6.713   6.817
 8369SOL    HW126006   1.805   6.648   6.773
 8369SOL    HW226007   1.717   6.784   6.752
 8370SOL     OW26008   2.870   2.803   0.394
 8370SOL    HW126009   2.893   2.895   0.361
 8370SOL    HW226010   2.775   2.801   0.425
 8371SOL     OW26011   3.244   3.791   6.511
 8371SOL    HW126012   3.190   3.707   6.514
 8371SOL    HW226013   3.310   3.791   6.587
 8372SOL     OW26014   1.635   6.515   1.441
 8372SOL    HW126015   1.571   6.590   1.426
 8372SOL    HW226016   1.702   6.542   1.510
 8373SOL     OW26017   6.216   0.676   4.051
 8373SOL    HW126018   6.271   0.620   4.113
 8373SOL    HW226019   6.193   0.762   4.096
 8374SOL     OW26020   0.941   1.550   3.360
 8374SOL    HW126021   0.956   1.592   3.449
 8374SOL    HW226022   0.912   1.620   3.294
 8375SOL     OW26023   1.535   2.440   5.276
 8375SOL    HW126024   1.476   2.447   5.356
 8375SOL    HW226025   1.631   2.441   5.305
 8376SOL     OW26026   1.199   1.820   3.470
 8376SOL    HW126027   1.271   1.757   3.501
 8376SOL    HW226028   1.155   1.861   3.550
 8377SOL     OW26029   3.996   5.358   0.301
 8377SOL    HW126030   3.974   5.276   0.249
 8377SOL    HW226031   3.916   5.388   0.354
 8378SOL     OW26032   4.455   5.671   4.580
 8378SOL    HW126033   4.367   5.624   4.589
 8378SOL    HW226034   4.452   5.757   4.632
 8379SOL     OW26035   6.039   2.080   1.410
 8379SOL    HW126036   6.064   2.021   1.334
 8379SOL    HW226037   6.102   2.065   1.487
 8380SOL     OW26038   0.458   6.321   2.112
 8380SOL    HW126039   0.540   6.360   2.155
 8380SOL    HW226040   0.440   6.368   2.026
 8381SOL     OW26041   0.884   1.854   2.451
 8381SOL    HW126042   0.906   1.922   2.521
 8381SOL    HW226043   0.877   1.899   2.362
 8382SOL     OW26044   0.807   0.320   1.959
 8382SOL    HW126045   0.757   0.234   1.947
 8382SOL    HW226046   0.832   0.357   1.869
 8383SOL     OW26047   2.954   0.063   6.120
 8383SOL    HW126048   2.874   0.079   6.064
 8383SOL    HW226049   3.035   0.054   6.062
 8384SOL     OW26050   0.499   3.863   2.906
 8384SOL    HW126051   0.579   3.871   2.966
 8384SOL    HW226052   0.486   3.949   2.857
 8385SOL     OW26053   4.407   1.988   2.334
 8385SOL    HW126054   4.316   1.974   2.373
 8385SOL    HW226055   4.400   1.992   2.234
 8386SOL     OW26056   1.541   5.205   1.803
 8386SOL    HW126057   1.484   5.256   1.739
 8386SOL    HW226058   1.619   5.262   1.831
 8387SOL     OW26059   1.062   1.852   3.225
 8387SOL    HW126060   1.105   1.792   3.157
 8387SOL    HW226061   1.121   1.860   3.305
 8388SOL     OW26062   3.883   4.968   1.222
 8388SOL    HW126063   3.881   5.057   1.177
 8388SOL    HW226064   3.920   4.978   1.314
 8389SOL     OW26065   0.641   3.486   4.022
 8389SOL    HW126066   0.544   3.472   4.044
 8389SOL    HW226067   0.651   3.568   3.967
 8390SOL     OW26068   2.994   0.169   6.535
 8390SOL    HW126069   3.041   0.133   6.454
 8390SOL    HW226070   2.932   0.241   6.508
 8391SOL     OW26071   5.247   6.091   0.419
 8391SOL    HW126072   5.149   6.093   0.395
 8391SOL    HW226073   5.289   6.011   0.377
 8392SOL     OW26074   5.078   6.199   6.909
 8392SOL    HW126075   5.119   6.276   6.958
 8392SOL    HW226076   5.035   6.136   6.974
 8393SOL     OW26077   0.570   4.758   2.302
 8393SOL    HW126078   0.487   4.703   2.310
 8393SOL    HW226079   0.586   4.780   2.206
 8394SOL     OW26080   1.489   1.587   2.850
 8394SOL    HW126081   1.493   1.509   2.912
 8394SOL    HW226082   1.397   1.593   2.810
 8395SOL     OW26083   1.123   6.456   5.693
 8395SOL    HW126084   1.191   6.513   5.646
 8395SOL    HW226085   1.031   6.488   5.670
 8396SOL     OW26086   4.631   2.134   1.772
 8396SOL    HW126087   4.532   2.125   1.761
 8396SOL    HW226088   4.651   2.169   1.864
 8397SOL     OW26089   2.179   5.292   3.893
 8397SOL    HW126090   2.264   5.337   3.918
 8397SOL    HW226091   2.197   5.223   3.823
 8398SOL     OW26092   6.148   1.487   0.462
 8398SOL    HW126093   6.230   1.429   0.465
 8398SOL    HW226094   6.113   1.491   0.368
 8399SOL     OW26095   5.310   5.696   6.735
 8399SOL    HW126096   5.290   5.730   6.643
 8399SOL    HW226097   5.291   5.598   6.740
 8400SOL     OW26098   6.345   6.552   4.196
 8400SOL    HW126099   6.428   6.566   4.250
 8400SOL    HW226100   6.300   6.468   4.226
 8401SOL     OW26101   2.795   3.933   5.475
 8401SOL    HW126102   2.892   3.920   5.495
 8401SOL    HW226103   2.749   3.970   5.556
 8402SOL     OW26104   4.621   0.533   5.300
 8402SOL    HW126105   4.673   0.460   5.344
 8402SOL    HW226106   4.638   0.532   5.201
 8403SOL     OW26107   0.624   3.088   5.312
 8403SOL    HW126108   0.650   3.160   5.248
 8403SOL    HW226109   0.653   2.999   5.276
 8404SOL     OW26110   4.185   5.051   5.288
 8404SOL    HW126111   4.210   5.100   5.205
 8404SOL    HW226112   4.238   4.966   5.294
 8405SOL     OW26113   1.991   2.638   5.051
 8405SOL    HW126114   1.959   2.731   5.068
 8405SOL    HW226115   1.949   2.576   5.117
 8406SOL     OW26116   5.253   3.517   1.846
 8406SOL    HW126117   5.261   3.417   1.849
 8406SOL    HW226118   5.222   3.545   1.755
 8407SOL     OW26119   4.939   3.539   3.056
 8407SOL    HW126120   4.964   3.501   3.145
 8407SOL    HW226121   4.946   3.639   3.059
 8408SOL     OW26122   4.909   4.270   4.174
 8408SOL    HW126123   4.916   4.176   4.140
 8408SOL    HW226124   4.842   4.273   4.248
 8409SOL     OW26125   0.584   1.759   4.108
 8409SOL    HW126126   0.675   1.780   4.073
 8409SOL    HW226127   0.517   1.771   4.034
 8410SOL     OW26128   2.209   6.054   2.631
 8410SOL    HW126129   2.217   6.153   2.645
 8410SOL    HW226130   2.291   6.009   2.666
 8411SOL     OW26131   1.933   3.341   3.298
 8411SOL    HW126132   2.017   3.386   3.326
 8411SOL    HW226133   1.900   3.282   3.372
 8412SOL     OW26134   6.920   2.172   2.516
 8412SOL    HW126135   6.926   2.081   2.474
 8412SOL    HW226136   6.940   2.242   2.447
 8413SOL     OW26137   2.368   4.532   1.482
 8413SOL    HW126138   2.289   4.515   1.422
 8413SOL    HW226139   2.416   4.446   1.499
 8414SOL     OW26140   5.868   6.981   3.177
 8414SOL    HW126141   5.797   6.912   3.162
 8414SOL    HW226142   5.838   0.018   3.248
 8415SOL     OW26143   6.787   4.171   2.008
 8415SOL    HW126144   6.798   4.099   1.938
 8415SOL    HW226145   6.690   4.183   2.029
 8416SOL     OW26146   4.529   4.416   2.283
 8416SOL    HW126147   4.628   4.429   2.283
 8416SOL    HW226148   4.506   4.330   2.238
 8417SOL     OW26149   1.969   5.953   6.302
 8417SOL    HW126150   1.923   5.959   6.391
 8417SOL    HW226151   2.053   5.900   6.311
 8418SOL     OW26152   6.507   5.676   2.553
 8418SOL    HW126153   6.573   5.730   2.501
 8418SOL    HW226154   6.546   5.587   2.574
 8419SOL     OW26155   5.551   7.000   3.932
 8419SOL    HW126156   5.588   0.013   3.847
 8419SOL    HW226157   5.454   6.980   3.919
 8420SOL     OW26158   4.209   2.279   5.672
 8420SOL    HW126159   4.149   2.202   5.650
 8420SOL    HW226160   4.170   2.332   5.747
 8421SOL     OW26161   0.291   0.515   0.979
 8421SOL    HW126162   0.240   0.459   0.913
 8421SOL    HW226163   0.263   0.610   0.970
 8422SOL     OW26164   4.098   0.012   1.808
 8422SOL    HW126165   4.173   7.019   1.872
 8422SOL    HW226166   4.028   0.067   1.855
 8423SOL     OW26167   1.898   3.816   1.795
 8423SOL    HW126168   1.840   3.892   1.765
 8423SOL    HW226169   1.893   3.742   1.728
 8424SOL     OW26170   2.714   2.470   1.785
 8424SOL    HW126171   2.791   2.443   1.843
 8424SOL    HW226172   2.696   2.398   1.718
 8425SOL     OW26173   6.294   4.662   6.940
 8425SOL    HW126174   6.385   4.627   6.915
 8425SOL    HW226175   6.278   4.748   6.893
 8426SOL     OW26176   3.371   3.135   2.638
 8426SOL    HW126177   3.335   3.042   2.641
 8426SOL    HW226178   3.469   3.131   2.618
 8427SOL     OW26179   2.159   2.375   6.672
 8427SOL    HW126180   2.104   2.314   6.729
 8427SOL    HW226181   2.252   2.339   6.664
 8428SOL     OW26182   6.517   4.334   1.264
 8428SOL    HW126183   6.498   4.378   1.176
 8428SOL    HW226184   6.613   4.307   1.268
 8429SOL     OW26185   1.642   6.729   3.006
 8429SOL    HW126186   1.714   6.728   3.076
 8429SOL    HW226187   1.555   6.755   3.047
 8430SOL     OW26188   5.615   4.040   2.847
 8430SOL    HW126189   5.675   3.976   2.894
 8430SOL    HW226190   5.521   4.005   2.848
 8431SOL     OW26191   2.785   3.419   2.009
 8431SOL    HW126192   2.813   3.340   1.955
 8431SOL    HW226193   2.700   3.398   2.058
 8432SOL     OW26194   4.912   6.384   0.085
 8432SOL    HW126195   4.969   6.430   0.153
 8432SOL    HW226196   4.866   6.306   0.127
 8433SOL     OW26197   0.368   1.839   4.290
 8433SOL    HW126198   0.451   1.817   4.238
 8433SOL    HW226199   0.306   1.892   4.232
 8434SOL     OW26200   5.593   6.201   6.197
 8434SOL    HW126201   5.609   6.144   6.278
 8434SOL    HW226202   5.611   6.296   6.220
 8435SOL     OW26203   4.935   2.191   2.006
 8435SOL    HW126204   5.008   2.207   2.073
 8435SOL    HW226205   4.973   2.195   1.914
 8436SOL     OW26206   3.083   4.449   1.643
 8436SOL    HW126207   3.057   4.352   1.643
 8436SOL    HW226208   3.024   4.499   1.705
 8437SOL     OW26209   0.201   1.612   0.722
 8437SOL    HW126210   0.136   1.659   0.782
 8437SOL    HW226211   0.264   1.557   0.777
 8438SOL     OW26212   2.124   5.921   1.010
 8438SOL    HW126213   2.038   5.873   1.022
 8438SOL    HW226214   2.107   6.020   1.009
 8439SOL     OW26215   6.180   0.629   2.081
 8439SOL    HW126216   6.202   0.702   2.146
 8439SOL    HW226217   6.233   0.641   1.997
 8440SOL     OW26218   0.503   2.850   4.443
 8440SOL    HW126219   0.591   2.897   4.436
 8440SOL    HW226220   0.430   2.916   4.459
 8441SOL     OW26221   4.569   5.708   2.756
 8441SOL    HW126222   4.530   5.618   2.775
 8441SOL    HW226223   4.528   5.745   2.672
 8442SOL     OW26224   2.318   2.935   0.411
 8442SOL    HW126225   2.229   2.902   0.443
 8442SOL    HW226226   2.334   3.027   0.447
 8443SOL     OW26227   0.482   1.863   1.708
 8443SOL    HW126228   0.472   1.763   1.703
 8443SOL    HW226229   0.569   1.890   1.668
 8444SOL     OW26230   4.280   1.119   2.973
 8444SOL    HW126231   4.360   1.176   2.957
 8444SOL    HW226232   4.309   1.027   2.998
 8445SOL     OW26233   4.563   5.315   2.189
 8445SOL    HW126234   4.527   5.406   2.207
 8445SOL    HW226235   4.505   5.247   2.235
 8446SOL     OW26236   0.002   3.580   2.843
 8446SOL    HW126237   7.013   3.658   2.904
 8446SOL    HW226238   0.045   3.612   2.759
 8447SOL     OW26239   4.447   3.395   1.347
 8447SOL    HW126240   4.384   3.453   1.398
 8447SOL    HW226241   4.415   3.300   1.351
 8448SOL     OW26242   1.641   3.515   5.794
 8448SOL    HW126243   1.685   3.470   5.716
 8448SOL    HW226244   1.677   3.478   5.879
 8449SOL     OW26245   0.924   1.508   4.248
 8449SOL    HW126246   1.017   1.504   4.286
 8449SOL    HW226247   0.927   1.484   4.151
 8450SOL     OW26248   1.786   5.238   1.226
 8450SOL    HW126249   1.882   5.230   1.199
 8450SOL    HW226250   1.731   5.264   1.148
 8451SOL     OW26251   3.725   2.774   0.686
 8451SOL    HW126252   3.659   2.800   0.756
 8451SOL    HW226253   3.756   2.680   0.702
 8452SOL     OW26254   0.244   5.342   1.647
 8452SOL    HW126255   0.261   5.435   1.615
 8452SOL    HW226256   0.252   5.339   1.747
 8453SOL     OW26257   6.163   5.497   5.146
 8453SOL    HW126258   6.203   5.589   5.144
 8453SOL    HW226259   6.235   5.429   5.150
 8454SOL     OW26260   2.379   6.813   4.666
 8454SOL    HW126261   2.458   6.795   4.607
 8454SOL    HW226262   2.352   6.729   4.713
 8455SOL     OW26263   5.995   2.688   0.802
 8455SOL    HW126264   6.025   2.776   0.838
 8455SOL    HW226265   5.907   2.700   0.756
 8456SOL     OW26266   4.834   5.386   3.708
 8456SOL    HW126267   4.921   5.376   3.659
 8456SOL    HW226268   4.830   5.318   3.781
 8457SOL     OW26269   6.681   6.171   6.168
 8457SOL    HW126270   6.659   6.165   6.071
 8457SOL    HW226271   6.759   6.112   6.189
 8458SOL     OW26272   1.639   2.079   1.318
 8458SOL    HW126273   1.641   2.076   1.418
 8458SOL    HW226274   1.731   2.095   1.283
 8459SOL     OW26275   2.187   5.667   3.210
 8459SOL    HW126276   2.246   5.744   3.185
 8459SOL    HW226277   2.212   5.633   3.301
 8460SOL     OW26278   3.957   1.431   0.871
 8460SOL    HW126279   3.991   1.386   0.954
 8460SOL    HW226280   4.020   1.414   0.796
 8461SOL     OW26281   5.263   4.212   3.225
 8461SOL    HW126282   5.265   4.305   3.262
 8461SOL    HW226283   5.310   4.150   3.288
 8462SOL     OW26284   2.146   3.966   1.077
 8462SOL    HW126285   2.125   3.967   0.979
 8462SOL    HW226286   2.134   4.059   1.114
 8463SOL     OW26287   6.527   0.269   0.374
 8463SOL    HW126288   6.460   0.198   0.357
 8463SOL    HW226289   6.580   0.246   0.456
 8464SOL     OW26290   6.402   3.772   6.573
 8464SOL    HW126291   6.360   3.729   6.653
 8464SOL    HW226292   6.450   3.704   6.519
 8465SOL     OW26293   4.725   3.604   0.668
 8465SOL    HW126294   4.821   3.578   0.679
 8465SOL    HW226295   4.687   3.628   0.757
 8466SOL     OW26296   0.590   1.390   5.513
 8466SOL    HW126297   0.585   1.387   5.613
 8466SOL    HW226298   0.512   1.342   5.474
 8467SOL     OW26299   3.201   1.202   0.416
 8467SOL    HW126300   3.153   1.153   0.489
 8467SOL    HW226301   3.147   1.280   0.387
 8468SOL     OW26302   5.480   3.843   0.459
 8468SOL    HW126303   5.396   3.805   0.421
 8468SOL    HW226304   5.488   3.939   0.432
 8469SOL     OW26305   3.709   2.953   5.419
 8469SOL    HW126306   3.808   2.966   5.420
 8469SOL    HW226307   3.670   2.990   5.502
 8470SOL     OW26308   1.474   5.360   1.570
 8470SOL    HW126309   1.560   5.391   1.531
 8470SOL    HW226310   1.418   5.317   1.499
 8471SOL     OW26311   4.264   2.125   4.615
 8471SOL    HW126312   4.186   2.166   4.663
 8471SOL    HW226313   4.263   2.153   4.519
 8472SOL     OW26314   5.828   1.832   6.906
 8472SOL    HW126315   5.885   1.888   6.965
 8472SOL    HW226316   5.733   1.835   6.938
 8473SOL     OW26317   4.967   5.183   5.880
 8473SOL    HW126318   4.905   5.127   5.935
 8473SOL    HW226319   4.970   5.275   5.918
 8474SOL     OW26320   3.013   3.864   5.167
 8474SOL    HW126321   2.926   3.902   5.199
 8474SOL    HW226322   3.051   3.803   5.237
 8475SOL     OW26323   6.688   1.826   2.852
 8475SOL    HW126324   6.615   1.780   2.904
 8475SOL    HW226325   6.773   1.774   2.862
 8476SOL     OW26326   6.016   1.474   1.967
 8476SOL    HW126327   6.041   1.377   1.961
 8476SOL    HW226328   6.022   1.516   1.877
 8477SOL     OW26329   5.712   0.646   1.719
 8477SOL    HW126330   5.622   0.658   1.762
 8477SOL    HW226331   5.780   0.627   1.790
 8478SOL     OW26332   0.411   6.880   5.496
 8478SOL    HW126333   0.403   6.871   5.596
 8478SOL    HW226334   0.447   6.795   5.458
 8479SOL     OW26335   0.637   2.884   0.422
 8479SOL    HW126336   0.669   2.794   0.393
 8479SOL    HW226337   0.538   2.880   0.440
 8480SOL     OW26338   3.514   4.137   0.740
 8480SOL    HW126339   3.575   4.193   0.683
 8480SOL    HW226340   3.566   4.060   0.778
 8481SOL     OW26341   3.835   2.124   2.771
 8481SOL    HW126342   3.737   2.105   2.765
 8481SOL    HW226343   3.886   2.039   2.758
 8482SOL     OW26344   4.255   0.644   6.428
 8482SOL    HW126345   4.246   0.555   6.473
 8482SOL    HW226346   4.214   0.715   6.485
 8483SOL     OW26347   3.823   4.954   3.475
 8483SOL    HW126348   3.888   4.944   3.400
 8483SOL    HW226349   3.818   4.868   3.527
 8484SOL     OW26350   5.838   6.027   4.926
 8484SOL    HW126351   5.822   6.023   4.827
 8484SOL    HW226352   5.809   5.940   4.968
 8485SOL     OW26353   4.160   0.999   6.295
 8485SOL    HW126354   4.260   0.995   6.298
 8485SOL    HW226355   4.131   1.073   6.234
 8486SOL     OW26356   5.690   2.741   4.971
 8486SOL    HW126357   5.749   2.821   4.970
 8486SOL    HW226358   5.653   2.728   5.063
 8487SOL     OW26359   6.508   2.129   5.993
 8487SOL    HW126360   6.413   2.124   5.963
 8487SOL    HW226361   6.542   2.037   6.011
 8488SOL     OW26362   4.579   4.408   3.171
 8488SOL    HW126363   4.647   4.342   3.202
 8488SOL    HW226364   4.511   4.423   3.243
 8489SOL     OW26365   6.222   1.976   1.617
 8489SOL    HW126366   6.236   1.934   1.527
 8489SOL    HW226367   6.309   2.015   1.649
 8490SOL     OW26368   3.184   6.741   0.211
 8490SOL    HW126369   3.268   6.794   0.201
 8490SOL    HW226370   3.131   6.777   0.288
 8491SOL     OW26371   3.115   5.629   2.165
 8491SOL    HW126372   3.042   5.591   2.108
 8491SOL    HW226373   3.200   5.577   2.150
 8492SOL     OW26374   6.486   6.092   4.316
 8492SOL    HW126375   6.551   6.019   4.294
 8492SOL    HW226376   6.438   6.120   4.233
 8493SOL     OW26377   4.720   0.938   5.831
 8493SOL    HW126378   4.717   1.008   5.902
 8493SOL    HW226379   4.664   0.860   5.859
 8494SOL     OW26380   6.865   3.523   2.516
 8494SOL    HW126381   6.907   3.451   2.461
 8494SOL    HW226382   6.934   3.593   2.536
 8495SOL     OW26383   6.014   5.577   6.603
 8495SOL    HW126384   6.058   5.652   6.553
 8495SOL    HW226385   6.076   5.500   6.610
 8496SOL     OW26386   5.209   2.496   2.833
 8496SOL    HW126387   5.227   2.447   2.747
 8496SOL    HW226388   5.126   2.551   2.823
 8497SOL     OW26389   6.814   0.634   2.709
 8497SOL    HW126390   6.796   0.682   2.795
 8497SOL    HW226391   6.769   0.544   2.711
 8498SOL     OW26392   5.006   6.482   4.013
 8498SOL    HW126393   5.078   6.549   3.994
 8498SOL    HW226394   4.922   6.531   4.039
 8499SOL     OW26395   5.764   6.971   5.424
 8499SOL    HW126396   5.819   6.902   5.470
 8499SOL    HW226397   5.680   6.987   5.478
 8500SOL     OW26398   0.988   0.433   6.767
 8500SOL    HW126399   1.028   0.366   6.830
 8500SOL    HW226400   0.905   0.471   6.809
 8501SOL     OW26401   2.363   1.127   6.355
 8501SOL    HW126402   2.299   1.202   6.368
 8501SOL    HW226403   2.328   1.065   6.285
 8502SOL     OW26404   6.044   3.653   6.946
 8502SOL    HW126405   5.950   3.688   6.944
 8502SOL    HW226406   6.099   3.708   7.009
 8503SOL     OW26407   4.906   2.745   5.317
 8503SOL    HW126408   4.941   2.821   5.263
 8503SOL    HW226409   4.883   2.776   5.409
 8504SOL     OW26410   0.993   6.892   2.507
 8504SOL    HW126411   1.055   6.814   2.514
 8504SOL    HW226412   1.023   6.952   2.433
 8505SOL     OW26413   5.738   2.311   2.659
 8505SOL    HW126414   5.649   2.297   2.615
 8505SOL    HW226415   5.810   2.273   2.601
 8506SOL     OW26416   1.088   6.719   6.054
 8506SOL    HW126417   1.115   6.640   6.109
 8506SOL    HW226418   1.121   6.803   6.098
 8507SOL     OW26419   3.684   5.195   5.251
 8507SOL    HW126420   3.754   5.253   5.208
 8507SOL    HW226421   3.606   5.251   5.277
 8508SOL     OW26422   2.796   0.790   6.430
 8508SOL    HW126423   2.768   0.886   6.424
 8508SOL    HW226424   2.825   0.770   6.523
 8509SOL     OW26425   5.254   2.048   2.608
 8509SOL    HW126426   5.198   1.992   2.547
 8509SOL    HW226427   5.301   1.989   2.673
 8510SOL     OW26428   0.780   2.114   4.845
 8510SOL    HW126429   0.814   2.196   4.798
 8510SOL    HW226430   0.835   2.035   4.817
 8511SOL     OW26431   6.051   1.950   3.320
 8511SOL    HW126432   6.085   1.856   3.317
 8511SOL    HW226433   6.105   2.007   3.258
 8512SOL     OW26434   2.201   6.468   5.471
 8512SOL    HW126435   2.294   6.503   5.484
 8512SOL    HW226436   2.186   6.390   5.530
 8513SOL     OW26437   4.969   5.846   6.666
 8513SOL    HW126438   4.986   5.890   6.578
 8513SOL    HW226439   5.052   5.849   6.721
 8514SOL     OW26440   3.925   5.608   4.067
 8514SOL    HW126441   3.966   5.682   4.015
 8514SOL    HW226442   3.901   5.533   4.006
 8515SOL     OW26443   6.486   2.165   1.466
 8515SOL    HW126444   6.413   2.211   1.415
 8515SOL    HW226445   6.535   2.102   1.405
 8516SOL     OW26446   6.918   1.927   2.357
 8516SOL    HW126447   6.832   1.932   2.307
 8516SOL    HW226448   6.916   1.849   2.420
 8517SOL     OW26449   1.650   3.598   6.205
 8517SOL    HW126450   1.612   3.633   6.291
 8517SOL    HW226451   1.742   3.564   6.220
 8518SOL     OW26452   2.810   5.842   0.606
 8518SOL    HW126453   2.856   5.867   0.522
 8518SOL    HW226454   2.876   5.806   0.672
 8519SOL     OW26455   2.961   6.134   3.949
 8519SOL    HW126456   2.875   6.084   3.963
 8519SOL    HW226457   3.018   6.083   3.885
 8520SOL     OW26458   3.632   6.194   6.842
 8520SOL    HW126459   3.575   6.125   6.887
 8520SOL    HW226460   3.573   6.266   6.805
 8521SOL     OW26461   1.632   0.481   1.692
 8521SOL    HW126462   1.646   0.436   1.603
 8521SOL    HW226463   1.601   0.414   1.759
 8522SOL     OW26464   2.604   6.645   4.520
 8522SOL    HW126465   2.573   6.552   4.541
 8522SOL    HW226466   2.591   6.663   4.423
 8523SOL     OW26467   1.660   6.468   6.520
 8523SOL    HW126468   1.609   6.553   6.510
 8523SOL    HW226469   1.628   6.419   6.602
 8524SOL     OW26470   1.691   1.211   6.668
 8524SOL    HW126471   1.665   1.307   6.681
 8524SOL    HW226472   1.787   1.207   6.639
 8525SOL     OW26473   5.598   3.628   3.870
 8525SOL    HW126474   5.549   3.616   3.784
 8525SOL    HW226475   5.544   3.686   3.931
 8526SOL     OW26476   2.125   3.422   2.298
 8526SOL    HW126477   2.040   3.449   2.252
 8526SOL    HW226478   2.201   3.430   2.233
 8527SOL     OW26479   4.502   0.220   4.075
 8527SOL    HW126480   4.445   0.212   4.157
 8527SOL    HW226481   4.552   0.307   4.078
 8528SOL     OW26482   5.630   1.550   6.849
 8528SOL    HW126483   5.621   1.643   6.884
 8528SOL    HW226484   5.647   1.488   6.925
 8529SOL     OW26485   6.606   5.784   5.770
 8529SOL    HW126486   6.574   5.817   5.681
 8529SOL    HW226487   6.545   5.711   5.802
 8530SOL     OW26488   2.114   4.853   6.009
 8530SOL    HW126489   2.079   4.815   6.094
 8530SOL    HW226490   2.194   4.910   6.028
 8531SOL     OW26491   4.425   4.809   1.825
 8531SOL    HW126492   4.394   4.734   1.883
 8531SOL    HW226493   4.350   4.873   1.809
 8532SOL     OW26494   1.608   3.985   1.012
 8532SOL    HW126495   1.541   4.001   0.940
 8532SOL    HW226496   1.698   3.966   0.971
 8533SOL     OW26497   4.106   6.395   5.561
 8533SOL    HW126498   4.125   6.414   5.657
 8533SOL    HW226499   4.181   6.430   5.504
 8534SOL     OW26500   1.789   2.351   1.221
 8534SOL    HW126501   1.694   2.328   1.202
 8534SOL    HW226502   1.843   2.267   1.227
 8535SOL     OW26503   0.327   3.473   5.087
 8535SOL    HW126504   0.257   3.438   5.149
 8535SOL    HW226505   0.371   3.396   5.040
 8536SOL     OW26506   5.811   1.098   5.567
 8536SOL    HW126507   5.845   1.173   5.624
 8536SOL    HW226508   5.836   1.115   5.472
 8537SOL     OW26509   4.572   6.580   2.848
 8537SOL    HW126510   4.530   6.644   2.913
 8537SOL    HW226511   4.614   6.505   2.897
 8538SOL     OW26512   5.319   0.434   5.401
 8538SOL    HW126513   5.316   0.342   5.442
 8538SOL    HW226514   5.302   0.427   5.303
 8539SOL     OW26515   0.866   2.861   2.637
 8539SOL    HW126516   0.965   2.877   2.632
 8539SOL    HW226517   0.818   2.935   2.590
 8540SOL     OW26518   4.064   6.878   6.688
 8540SOL    HW126519   4.146   6.920   6.648
 8540SOL    HW226520   4.075   6.779   6.693
 8541SOL     OW26521   3.064   6.440   5.379
 8541SOL    HW126522   3.001   6.500   5.428
 8541SOL    HW226523   3.044   6.445   5.281
 8542SOL     OW26524   1.171   5.095   5.199
 8542SOL    HW126525   1.168   5.155   5.119
 8542SOL    HW226526   1.226   5.014   5.178
 8543SOL     OW26527   2.964   2.351   5.327
 8543SOL    HW126528   3.038   2.332   5.261
 8543SOL    HW226529   3.002   2.352   5.420
 8544SOL     OW26530   5.267   4.572   5.710
 8544SOL    HW126531   5.350   4.601   5.663
 8544SOL    HW226532   5.196   4.641   5.699
 8545SOL     OW26533   1.902   6.837   6.423
 8545SOL    HW126534   1.902   6.738   6.410
 8545SOL    HW226535   1.810   6.873   6.407
 8546SOL     OW26536   4.493   1.116   3.858
 8546SOL    HW126537   4.534   1.029   3.830
 8546SOL    HW226538   4.518   1.187   3.792
 8547SOL     OW26539   5.500   6.081   5.815
 8547SOL    HW126540   5.557   6.159   5.790
 8547SOL    HW226541   5.531   6.044   5.902
 8548SOL     OW26542   1.192   4.516   4.150
 8548SOL    HW126543   1.238   4.573   4.218
 8548SOL    HW226544   1.105   4.557   4.125
 8549SOL     OW26545   2.078   0.795   3.973
 8549SOL    HW126546   2.080   0.704   4.015
 8549SOL    HW226547   2.085   0.864   4.045
 8550SOL     OW26548   0.060   4.746   5.729
 8550SOL    HW126549   0.147   4.793   5.747
 8550SOL    HW226550   0.065   4.701   5.639
 8551SOL     OW26551   3.782   1.145   4.802
 8551SOL    HW126552   3.867   1.134   4.750
 8551SOL    HW226553   3.765   1.062   4.855
 8552SOL     OW26554   3.475   1.372   1.512
 8552SOL    HW126555   3.415   1.408   1.583
 8552SOL    HW226556   3.530   1.446   1.474
 8553SOL     OW26557   4.656   4.041   0.713
 8553SOL    HW126558   4.606   4.088   0.786
 8553SOL    HW226559   4.729   3.986   0.753
 8554SOL     OW26560   1.607   0.693   6.584
 8554SOL    HW126561   1.554   0.712   6.501
 8554SOL    HW226562   1.556   0.631   6.643
 8555SOL     OW26563   3.387   2.076   3.423
 8555SOL    HW126564   3.309   2.097   3.482
 8555SOL    HW226565   3.472   2.080   3.476
 8556SOL     OW26566   0.258   5.291   5.282
 8556SOL    HW126567   0.340   5.240   5.308
 8556SOL    HW226568   0.206   5.312   5.365
 8557SOL     OW26569   6.632   1.006   6.617
 8557SOL    HW126570   6.562   0.957   6.668
 8557SOL    HW226571   6.612   1.000   6.519
 8558SOL     OW26572   3.256   5.794   3.980
 8558SOL    HW126573   3.286   5.712   3.930
 8558SOL    HW226574   3.331   5.827   4.037
 8559SOL     OW26575   1.859   3.418   2.226
 8559SOL    HW126576   1.834   3.422   2.322
 8559SOL    HW226577   1.856   3.323   2.194
 8560SOL     OW26578   3.278   3.806   1.172
 8560SOL    HW126579   3.219   3.804   1.091
 8560SOL    HW226580   3.225   3.778   1.253
 8561SOL     OW26581   3.467   0.891   2.851
 8561SOL    HW126582   3.509   0.808   2.814
 8561SOL    HW226583   3.510   0.971   2.809
 8562SOL     OW26584   5.566   2.070   0.004
 8562SOL    HW126585   5.499   2.113   0.064
 8562SOL    HW226586   5.550   1.971   0.002
 8563SOL     OW26587   2.442   5.281   2.648
 8563SOL    HW126588   2.494   5.360   2.679
 8563SOL    HW226589   2.417   5.292   2.552
 8564SOL     OW26590   3.673   6.031   0.549
 8564SOL    HW126591   3.686   5.934   0.528
 8564SOL    HW226592   3.723   6.087   0.482
 8565SOL     OW26593   1.229   5.055   0.886
 8565SOL    HW126594   1.134   5.040   0.859
 8565SOL    HW226595   1.275   5.113   0.819
 8566SOL     OW26596   3.282   0.982   3.263
 8566SOL    HW126597   3.284   0.917   3.188
 8566SOL    HW226598   3.196   1.034   3.260
 8567SOL     OW26599   1.798   2.508   1.731
 8567SOL    HW126600   1.780   2.462   1.644
 8567SOL    HW226601   1.712   2.518   1.782
 8568SOL     OW26602   6.080   1.028   5.726
 8568SOL    HW126603   6.012   1.101   5.729
 8568SOL    HW226604   6.165   1.063   5.684
 8569SOL     OW26605   5.276   1.791   0.468
 8569SOL    HW126606   5.184   1.766   0.497
 8569SOL    HW226607   5.286   1.775   0.370
 8570SOL     OW26608   2.206   1.344   2.700
 8570SOL    HW126609   2.254   1.298   2.625
 8570SOL    HW226610   2.197   1.441   2.680
 8571SOL     OW26611   1.559   0.716   3.427
 8571SOL    HW126612   1.550   0.816   3.430
 8571SOL    HW226613   1.553   0.685   3.333
 8572SOL     OW26614   2.993   3.808   6.308
 8572SOL    HW126615   3.034   3.721   6.280
 8572SOL    HW226616   3.051   3.853   6.376
 8573SOL     OW26617   1.845   6.149   6.181
 8573SOL    HW126618   1.912   6.083   6.216
 8573SOL    HW226619   1.774   6.165   6.250
 8574SOL     OW26620   4.891   1.464   5.422
 8574SOL    HW126621   4.956   1.475   5.497
 8574SOL    HW226622   4.936   1.488   5.336
 8575SOL     OW26623   3.207   6.588   4.378
 8575SOL    HW126624   3.217   6.582   4.279
 8575SOL    HW226625   3.288   6.629   4.417
 8576SOL     OW26626   1.627   4.448   4.023
 8576SOL    HW126627   1.718   4.467   3.987
 8576SOL    HW226628   1.577   4.392   3.957
 8577SOL     OW26629   1.917   0.332   0.268
 8577SOL    HW126630   1.934   0.430   0.270
 8577SOL    HW226631   1.974   0.286   0.336
 8578SOL     OW26632   0.972   6.998   5.964
 8578SOL    HW126633   1.069   7.024   5.956
 8578SOL    HW226634   0.927   0.031   6.030
 8579SOL     OW26635   3.288   0.060   2.217
 8579SOL    HW126636   3.368   0.038   2.273
 8579SOL    HW226637   3.282   0.159   2.205
 8580SOL     OW26638   1.772   0.759   2.104
 8580SOL    HW126639   1.802   0.721   2.017
 8580SOL    HW226640   1.740   0.685   2.164
 8581SOL     OW26641   3.932   3.897   2.148
 8581SOL    HW126642   3.915   3.799   2.157
 8581SOL    HW226643   3.956   3.935   2.237
 8582SOL     OW26644   4.192   5.207   5.935
 8582SOL    HW126645   4.220   5.303   5.934
 8582SOL    HW226646   4.268   5.150   5.965
 8583SOL     OW26647   3.138   6.840   2.776
 8583SOL    HW126648   3.196   6.768   2.738
 8583SOL    HW226649   3.195   6.917   2.805
 8584SOL     OW26650   6.592   1.961   4.995
 8584SOL    HW126651   6.588   2.030   4.922
 8584SOL    HW226652   6.683   1.918   4.994
 8585SOL     OW26653   5.022   2.689   2.739
 8585SOL    HW126654   5.016   2.783   2.771
 8585SOL    HW226655   4.989   2.684   2.645
 8586SOL     OW26656   5.868   5.749   5.440
 8586SOL    HW126657   5.770   5.729   5.436
 8586SOL    HW226658   5.911   5.722   5.353
 8587SOL     OW26659   6.327   1.688   6.871
 8587SOL    HW126660   6.239   1.729   6.847
 8587SOL    HW226661   6.401   1.747   6.839
 8588SOL     OW26662   1.678   0.742   5.359
 8588SOL    HW126663   1.581   0.741   5.335
 8588SOL    HW226664   1.727   0.676   5.303
 8589SOL     OW26665   5.527   3.133   0.107
 8589SOL    HW126666   5.465   3.132   0.185
 8589SOL    HW226667   5.535   3.227   0.073
 8590SOL     OW26668   0.734   1.796   3.776
 8590SOL    HW126669   0.795   1.791   3.855
 8590SOL    HW226670   0.655   1.738   3.792
 8591SOL     OW26671   7.019   4.113   5.600
 8591SOL    HW126672   7.010   4.053   5.521
 8591SOL    HW226673   0.061   4.183   5.582
 8592SOL     OW26674   0.031   1.802   4.305
 8592SOL    HW126675   0.076   1.848   4.228
 8592SOL    HW226676   0.003   1.869   4.373
 8593SOL     OW26677   5.957   1.057   0.080
 8593SOL    HW126678   5.905   1.112   0.145
 8593SOL    HW226679   5.894   1.008   0.020
 8594SOL     OW26680   6.252   4.239   6.209
 8594SOL    HW126681   6.169   4.217   6.158
 8594SOL    HW226682   6.288   4.155   6.251
 8595SOL     OW26683   5.020   5.726   2.903
 8595SOL    HW126684   5.077   5.671   2.963
 8595SOL    HW226685   5.077   5.770   2.833
 8596SOL     OW26686   0.673   2.692   5.027
 8596SOL    HW126687   0.597   2.720   4.968
 8596SOL    HW226688   0.658   2.598   5.059
 8597SOL     OW26689   5.845   2.165   6.235
 8597SOL    HW126690   5.844   2.129   6.328
 8597SOL    HW226691   5.933   2.143   6.192
 8598SOL     OW26692   0.072   0.579   5.209
 8598SOL    HW126693   0.061   0.534   5.297
 8598SOL    HW226694   7.018   0.564   5.153
 8599SOL     OW26695   6.214   3.844   5.151
 8599SOL    HW126696   6.177   3.790   5.076
 8599SOL    HW226697   6.166   3.822   5.236
 8600SOL     OW26698   4.612   2.745   1.876
 8600SOL    HW126699   4.703   2.701   1.880
 8600SOL    HW226700   4.618   2.838   1.912
 8601SOL     OW26701   6.086   5.727   2.928
 8601SOL    HW126702   5.993   5.765   2.922
 8601SOL    HW226703   6.133   5.740   2.841
 8602SOL     OW26704   1.783   6.751   5.511
 8602SOL    HW126705   1.700   6.779   5.463
 8602SOL    HW226706   1.782   6.790   5.604
 8603SOL     OW26707   0.613   0.722   6.515
 8603SOL    HW126708   0.655   0.644   6.561
 8603SOL    HW226709   0.515   0.723   6.535
 8604SOL     OW26710   2.124   5.291   5.868
 8604SOL    HW126711   2.186   5.290   5.946
 8604SOL    HW226712   2.031   5.275   5.900
 8605SOL     OW26713   6.974   4.742   3.777
 8605SOL    HW126714   0.012   4.801   3.825
 8605SOL    HW226715   6.990   4.647   3.804
 8606SOL     OW26716   1.244   0.826   6.922
 8606SOL    HW126717   1.188   0.822   7.005
 8606SOL    HW226718   1.225   0.747   6.864
 8607SOL     OW26719   3.077   3.328   1.344
 8607SOL    HW126720   3.080   3.305   1.246
 8607SOL    HW226721   3.162   3.297   1.387
 8608SOL     OW26722   1.714   5.484   2.372
 8608SOL    HW126723   1.758   5.573   2.358
 8608SOL    HW226724   1.624   5.485   2.329
 8609SOL     OW26725   4.851   2.031   4.483
 8609SOL    HW126726   4.756   2.056   4.462
 8609SOL    HW226727   4.891   1.982   4.406
 8610SOL     OW26728   0.067   5.822   2.893
 8610SOL    HW126729   0.032   5.730   2.908
 8610SOL    HW226730   0.167   5.818   2.883
 8611SOL     OW26731   1.975   1.141   5.056
 8611SOL    HW126732   2.020   1.160   5.143
 8611SOL    HW226733   1.968   1.226   5.003
 8612SOL     OW26734   3.392   3.279   4.635
 8612SOL    HW126735   3.367   3.239   4.723
 8612SOL    HW226736   3.348   3.368   4.625
 8613SOL     OW26737   3.896   3.122   3.112
 8613SOL    HW126738   3.907   3.086   3.019
 8613SOL    HW226739   3.984   3.119   3.160
 8614SOL     OW26740   0.461   2.491   3.648
 8614SOL    HW126741   0.439   2.537   3.562
 8614SOL    HW226742   0.468   2.392   3.631
 8615SOL     OW26743   3.331   1.916   5.447
 8615SOL    HW126744   3.262   1.988   5.439
 8615SOL    HW226745   3.392   1.919   5.367
 8616SOL     OW26746   5.755   4.323   5.020
 8616SOL    HW126747   5.803   4.283   5.098
 8616SOL    HW226748   5.684   4.260   4.989
 8617SOL     OW26749   1.377   6.757   3.140
 8617SOL    HW126750   1.351   6.850   3.114
 8617SOL    HW226751   1.308   6.693   3.107
 8618SOL     OW26752   5.855   4.408   0.802
 8618SOL    HW126753   5.870   4.350   0.722
 8618SOL    HW226754   5.758   4.428   0.811
 8619SOL     OW26755   5.535   6.084   0.528
 8619SOL    HW126756   5.577   5.994   0.519
 8619SOL    HW226757   5.506   6.116   0.437
 8620SOL     OW26758   2.091   6.813   3.838
 8620SOL    HW126759   2.004   6.765   3.842
 8620SOL    HW226760   2.152   6.778   3.909
 8621SOL     OW26761   5.712   3.330   1.954
 8621SOL    HW126762   5.658   3.411   1.930
 8621SOL    HW226763   5.780   3.314   1.883
 8622SOL     OW26764   0.572   5.277   2.821
 8622SOL    HW126765   0.639   5.218   2.865
 8622SOL    HW226766   0.593   5.372   2.841
 8623SOL     OW26767   1.864   2.489   3.677
 8623SOL    HW126768   1.874   2.397   3.639
 8623SOL    HW226769   1.784   2.492   3.738
 8624SOL     OW26770   3.329   3.977   5.217
 8624SOL    HW126771   3.356   4.052   5.278
 8624SOL    HW226772   3.261   4.010   5.152
 8625SOL     OW26773   4.536   2.936   6.097
 8625SOL    HW126774   4.490   3.024   6.106
 8625SOL    HW226775   4.468   2.863   6.096
 8626SOL     OW26776   4.737   1.894   1.846
 8626SOL    HW126777   4.701   1.970   1.792
 8626SOL    HW226778   4.834   1.908   1.863
 8627SOL     OW26779   1.677   0.552   2.292
 8627SOL    HW126780   1.690   0.458   2.261
 8627SOL    HW226781   1.591   0.558   2.343
 8628SOL     OW26782   0.941   6.841   0.899
 8628SOL    HW126783   0.888   6.757   0.908
 8628SOL    HW226784   0.965   6.855   0.803
 8629SOL     OW26785   0.305   6.957   4.493
 8629SOL    HW126786   0.269   0.019   4.520
 8629SOL    HW226787   0.238   6.909   4.436
 8630SOL     OW26788   4.925   2.647   2.440
 8630SOL    HW126789   4.850   2.709   2.459
 8630SOL    HW226790   4.889   2.557   2.413
 8631SOL     OW26791   2.243   6.073   5.987
 8631SOL    HW126792   2.242   5.973   5.980
 8631SOL    HW226793   2.309   6.101   6.057
 8632SOL     OW26794   6.035   5.577   4.180
 8632SOL    HW126795   6.042   5.569   4.081
 8632SOL    HW226796   5.938   5.579   4.206
 8633SOL     OW26797   5.605   4.112   5.135
 8633SOL    HW126798   5.519   4.159   5.114
 8633SOL    HW226799   5.637   4.064   5.054
 8634SOL     OW26800   5.209   4.319   6.272
 8634SOL    HW126801   5.149   4.348   6.197
 8634SOL    HW226802   5.245   4.228   6.254
 8635SOL     OW26803   5.299   2.847   6.948
 8635SOL    HW126804   5.234   2.905   6.898
 8635SOL    HW226805   5.354   2.794   6.883
 8636SOL     OW26806   4.508   5.989   1.820
 8636SOL    HW126807   4.599   6.028   1.829
 8636SOL    HW226808   4.476   5.956   1.909
 8637SOL     OW26809   1.894   1.822   6.787
 8637SOL    HW126810   1.815   1.881   6.775
 8637SOL    HW226811   1.977   1.873   6.765
 8638SOL     OW26812   4.949   3.278   3.952
 8638SOL    HW126813   4.902   3.317   4.031
 8638SOL    HW226814   4.950   3.344   3.877
 8639SOL     OW26815   3.144   3.932   0.503
 8639SOL    HW126816   3.243   3.927   0.517
 8639SOL    HW226817   3.118   4.028   0.488
 8640SOL     OW26818   3.962   2.271   0.473
 8640SOL    HW126819   3.959   2.223   0.386
 8640SOL    HW226820   4.023   2.350   0.466
 8641SOL     OW26821   3.709   5.249   2.665
 8641SOL    HW126822   3.783   5.196   2.707
 8641SOL    HW226823   3.676   5.200   2.584
 8642SOL     OW26824   1.714   5.744   2.923
 8642SOL    HW126825   1.718   5.672   2.991
 8642SOL    HW226826   1.803   5.790   2.917
 8643SOL     OW26827   3.763   6.576   1.171
 8643SOL    HW126828   3.814   6.513   1.230
 8643SOL    HW226829   3.827   6.635   1.122
 8644SOL     OW26830   6.187   2.550   5.946
 8644SOL    HW126831   6.165   2.609   6.024
 8644SOL    HW226832   6.164   2.598   5.861
 8645SOL     OW26833   5.329   5.870   2.883
 8645SOL    HW126834   5.394   5.941   2.857
 8645SOL    HW226835   5.287   5.831   2.800
 8646SOL     OW26836   6.922   2.787   5.669
 8646SOL    HW126837   6.853   2.768   5.739
 8646SOL    HW226838   6.991   2.714   5.670
 8647SOL     OW26839   1.792   5.332   1.862
 8647SOL    HW126840   1.891   5.325   1.877
 8647SOL    HW226841   1.759   5.419   1.900
 8648SOL     OW26842   4.816   5.352   0.567
 8648SOL    HW126843   4.829   5.426   0.500
 8648SOL    HW226844   4.727   5.363   0.612
 8649SOL     OW26845   5.584   1.499   0.907
 8649SOL    HW126846   5.563   1.505   1.005
 8649SOL    HW226847   5.520   1.555   0.855
 8650SOL     OW26848   1.988   6.999   5.575
 8650SOL    HW126849   1.925   0.046   5.602
 8650SOL    HW226850   1.941   6.936   5.513
 8651SOL     OW26851   3.890   2.046   1.620
 8651SOL    HW126852   3.824   2.084   1.685
 8651SOL    HW226853   3.968   2.010   1.670
 8652SOL     OW26854   0.765   2.875   3.472
 8652SOL    HW126855   0.857   2.871   3.432
 8652SOL    HW226856   0.763   2.944   3.545
 8653SOL     OW26857   5.929   1.499   6.676
 8653SOL    HW126858   5.873   1.512   6.758
 8653SOL    HW226859   6.025   1.488   6.703
 8654SOL     OW26860   6.743   4.813   2.868
 8654SOL    HW126861   6.739   4.723   2.912
 8654SOL    HW226862   6.706   4.807   2.776
 8655SOL     OW26863   1.091   0.212   4.987
 8655SOL    HW126864   1.007   0.158   4.991
 8655SOL    HW226865   1.076   0.293   4.931
 8656SOL     OW26866   4.282   6.489   0.525
 8656SOL    HW126867   4.290   6.588   0.521
 8656SOL    HW226868   4.221   6.463   0.599
 8657SOL     OW26869   2.997   2.151   2.933
 8657SOL    HW126870   3.095   2.144   2.916
 8657SOL    HW226871   2.967   2.073   2.988
 8658SOL     OW26872   6.059   4.830   1.431
 8658SOL    HW126873   6.095   4.923   1.439
 8658SOL    HW226874   6.127   4.772   1.387
 8659SOL     OW26875   3.983   0.720   2.519
 8659SOL    HW126876   4.032   0.725   2.607
 8659SOL    HW226877   4.033   0.772   2.450
 8660SOL     OW26878   0.330   4.280   1.731
 8660SOL    HW126879   0.346   4.347   1.803
 8660SOL    HW226880   0.358   4.189   1.763
 8661SOL     OW26881   0.023   3.696   1.961
 8661SOL    HW126882   6.971   3.747   1.997
 8661SOL    HW226883   0.026   3.606   2.005
 8662SOL     OW26884   1.456   2.166   2.341
 8662SOL    HW126885   1.421   2.256   2.314
 8662SOL    HW226886   1.555   2.163   2.328
 8663SOL     OW26887   4.110   4.736   2.781
 8663SOL    HW126888   4.191   4.771   2.735
 8663SOL    HW226889   4.128   4.643   2.815
 8664SOL     OW26890   3.881   6.090   3.850
 8664SOL    HW126891   3.948   6.026   3.886
 8664SOL    HW226892   3.876   6.080   3.751
 8665SOL     OW26893   5.491   4.048   6.801
 8665SOL    HW126894   5.460   3.954   6.814
 8665SOL    HW226895   5.505   4.065   6.704
 8666SOL     OW26896   4.749   0.448   2.772
 8666SOL    HW126897   4.813   0.520   2.798
 8666SOL    HW226898   4.799   0.375   2.724
 8667SOL     OW26899   5.178   2.610   2.315
 8667SOL    HW126900   5.116   2.638   2.241
 8667SOL    HW226901   5.128   2.611   2.402
 8668SOL     OW26902   4.884   2.342   4.357
 8668SOL    HW126903   4.882   2.264   4.294
 8668SOL    HW226904   4.793   2.356   4.396
 8669SOL     OW26905   6.895   6.234   6.447
 8669SOL    HW126906   6.932   6.313   6.495
 8669SOL    HW226907   6.797   6.226   6.465
 8670SOL     OW26908   6.636   5.163   5.416
 8670SOL    HW126909   6.630   5.222   5.335
 8670SOL    HW226910   6.670   5.073   5.389
 8671SOL     OW26911   0.016   3.069   3.051
 8671SOL    HW126912   0.043   3.121   2.970
 8671SOL    HW226913   6.985   2.992   3.023
 8672SOL     OW26914   0.083   1.519   2.808
 8672SOL    HW126915   0.029   1.495   2.728
 8672SOL    HW226916   0.173   1.476   2.802
 8673SOL     OW26917   1.298   1.689   1.148
 8673SOL    HW126918   1.379   1.746   1.162
 8673SOL    HW226919   1.302   1.610   1.208
 8674SOL     OW26920   6.915   4.295   3.218
 8674SOL    HW126921   6.849   4.224   3.244
 8674SOL    HW226922   7.000   4.281   3.268
 8675SOL     OW26923   4.367   2.388   4.772
 8675SOL    HW126924   4.437   2.319   4.791
 8675SOL    HW226925   4.308   2.401   4.851
 8676SOL     OW26926   4.962   1.949   1.364
 8676SOL    HW126927   4.963   2.015   1.440
 8676SOL    HW226928   4.896   1.979   1.295
 8677SOL     OW26929   2.676   6.831   6.292
 8677SOL    HW126930   2.652   6.752   6.237
 8677SOL    HW226931   2.637   6.822   6.384
 8678SOL     OW26932   2.793   2.098   0.538
 8678SOL    HW126933   2.786   2.176   0.476
 8678SOL    HW226934   2.742   2.117   0.621
 8679SOL     OW26935   1.690   1.986   6.743
 8679SOL    HW126936   1.656   2.040   6.666
 8679SOL    HW226937   1.635   2.006   6.824
 8680SOL     OW26938   0.209   0.218   0.383
 8680SOL    HW126939   0.174   0.284   0.317
 8680SOL    HW226940   0.299   0.248   0.416
 8681SOL     OW26941   5.055   4.940   1.441
 8681SOL    HW126942   5.121   4.999   1.396
 8681SOL    HW226943   4.963   4.964   1.411
 8682SOL     OW26944   2.827   0.868   2.706
 8682SOL    HW126945   2.781   0.779   2.710
 8682SOL    HW226946   2.872   0.879   2.618
 8683SOL     OW26947   2.386   4.394   4.124
 8683SOL    HW126948   2.400   4.345   4.210
 8683SOL    HW226949   2.347   4.331   4.056
 8684SOL     OW26950   2.694   4.624   3.253
 8684SOL    HW126951   2.625   4.568   3.300
 8684SOL    HW226952   2.784   4.585   3.266
 8685SOL     OW26953   4.829   3.080   4.562
 8685SOL    HW126954   4.767   3.061   4.638
 8685SOL    HW226955   4.923   3.055   4.588
 8686SOL     OW26956   1.257   5.234   3.200
 8686SOL    HW126957   1.242   5.331   3.221
 8686SOL    HW226958   1.290   5.188   3.282
 8687SOL     OW26959   5.786   4.653   5.268
 8687SOL    HW126960   5.837   4.623   5.349
 8687SOL    HW226961   5.718   4.583   5.244
 8688SOL     OW26962   1.210   3.948   5.084
 8688SOL    HW126963   1.243   4.042   5.086
 8688SOL    HW226964   1.253   3.900   5.007
 8689SOL     OW26965   4.486   3.308   1.003
 8689SOL    HW126966   4.511   3.389   1.056
 8689SOL    HW226967   4.459   3.335   0.911
 8690SOL     OW26968   1.420   1.705   2.310
 8690SOL    HW126969   1.498   1.646   2.286
 8690SOL    HW226970   1.363   1.658   2.378
 8691SOL     OW26971   3.397   2.498   6.159
 8691SOL    HW126972   3.461   2.494   6.082
 8691SOL    HW226973   3.443   2.541   6.238
 8692SOL     OW26974   5.284   2.956   4.128
 8692SOL    HW126975   5.283   2.963   4.228
 8692SOL    HW226976   5.213   2.892   4.099
 8693SOL     OW26977   6.745   6.899   5.360
 8693SOL    HW126978   6.759   6.854   5.272
 8693SOL    HW226979   6.748   6.830   5.433
 8694SOL     OW26980   4.539   3.453   5.608
 8694SOL    HW126981   4.442   3.439   5.586
 8694SOL    HW226982   4.571   3.378   5.666
 8695SOL     OW26983   2.940   4.999   0.794
 8695SOL    HW126984   3.034   4.993   0.827
 8695SOL    HW226985   2.878   5.011   0.873
 8696SOL     OW26986   2.430   5.789   6.128
 8696SOL    HW126987   2.422   5.719   6.057
 8696SOL    HW226988   2.403   5.750   6.216
 8697SOL     OW26989   1.000   3.467   5.003
 8697SOL    HW126990   1.059   3.442   5.080
 8697SOL    HW226991   1.011   3.565   4.984
 8698SOL     OW26992   4.417   4.398   6.829
 8698SOL    HW126993   4.457   4.426   6.742
 8698SOL    HW226994   4.390   4.479   6.881
 8699SOL     OW26995   1.893   2.242   0.710
 8699SOL    HW126996   1.819   2.177   0.728
 8699SOL    HW226997   1.877   2.327   0.759
 8700SOL     OW26998   0.827   1.637   4.835
 8700SOL    HW126999   0.757   1.692   4.790
 8700SOL    HW227000   0.885   1.594   4.765
 8701SOL     OW27001   1.782   3.149   6.591
 8701SOL    HW127002   1.776   3.240   6.551
 8701SOL    HW227003   1.692   3.105   6.588
 8702SOL     OW27004   5.952   4.346   1.057
 8702SOL    HW127005   5.895   4.371   0.979
 8702SOL    HW227006   5.898   4.290   1.120
 8703SOL     OW27007   2.555   5.609   1.564
 8703SOL    HW127008   2.566   5.546   1.641
 8703SOL    HW227009   2.510   5.562   1.488
 8704SOL     OW27010   0.301   1.391   5.084
 8704SOL    HW127011   0.387   1.400   5.035
 8704SOL    HW227012   0.289   1.296   5.113
 8705SOL     OW27013   3.799   2.110   0.120
 8705SOL    HW127014   3.788   2.207   0.142
 8705SOL    HW227015   3.768   2.093   0.027
 8706SOL     OW27016   4.930   2.187   6.571
 8706SOL    HW127017   4.876   2.190   6.487
 8706SOL    HW227018   4.898   2.258   6.634
 8707SOL     OW27019   1.121   1.107   4.007
 8707SOL    HW127020   1.051   1.094   3.936
 8707SOL    HW227021   1.077   1.138   4.092
 8708SOL     OW27022   5.813   2.327   1.214
 8708SOL    HW127023   5.813   2.310   1.312
 8708SOL    HW227024   5.837   2.423   1.197
 8709SOL     OW27025   6.344   6.155   4.065
 8709SOL    HW127026   6.378   6.220   3.998
 8709SOL    HW227027   6.251   6.178   4.091
 8710SOL     OW27028   2.061   1.819   3.479
 8710SOL    HW127029   2.038   1.813   3.576
 8710SOL    HW227030   2.140   1.880   3.468
 8711SOL     OW27031   1.512   1.242   2.226
 8711SOL    HW127032   1.540   1.320   2.171
 8711SOL    HW227033   1.586   1.216   2.287
 8712SOL     OW27034   0.781   4.732   4.558
 8712SOL    HW127035   0.860   4.690   4.603
 8712SOL    HW227036   0.716   4.660   4.533
 8713SOL     OW27037   0.307   3.683   2.142
 8713SOL    HW127038   0.236   3.664   2.074
 8713SOL    HW227039   0.388   3.721   2.097
 8714SOL     OW27040   6.159   4.450   6.796
 8714SOL    HW127041   6.097   4.480   6.724
 8714SOL    HW227042   6.207   4.529   6.833
 8715SOL     OW27043   2.181   4.898   1.488
 8715SOL    HW127044   2.145   4.815   1.445
 8715SOL    HW227045   2.202   4.879   1.584
 8716SOL     OW27046   6.579   0.399   1.862
 8716SOL    HW127047   6.483   0.376   1.877
 8716SOL    HW227048   6.585   0.490   1.820
 8717SOL     OW27049   3.414   2.560   0.397
 8717SOL    HW127050   3.483   2.491   0.374
 8717SOL    HW227051   3.433   2.598   0.488
 8718SOL     OW27052   3.195   5.257   6.606
 8718SOL    HW127053   3.216   5.330   6.671
 8718SOL    HW227054   3.277   5.203   6.589
 8719SOL     OW27055   3.280   1.452   4.924
 8719SOL    HW127056   3.368   1.406   4.933
 8719SOL    HW227057   3.295   1.548   4.900
 8720SOL     OW27058   1.152   6.067   4.544
 8720SOL    HW127059   1.196   6.009   4.612
 8720SOL    HW227060   1.136   6.015   4.460
 8721SOL     OW27061   1.031   6.971   1.126
 8721SOL    HW127062   1.028   6.910   1.047
 8721SOL    HW227063   0.945   6.965   1.177
 8722SOL     OW27064   3.082   0.994   0.632
 8722SOL    HW127065   3.143   1.064   0.668
 8722SOL    HW227066   2.997   0.993   0.686
 8723SOL     OW27067   4.322   6.485   1.929
 8723SOL    HW127068   4.272   6.571   1.937
 8723SOL    HW227069   4.260   6.408   1.942
 8724SOL     OW27070   3.308   1.724   4.878
 8724SOL    HW127071   3.273   1.746   4.970
 8724SOL    HW227072   3.394   1.773   4.863
 8725SOL     OW27073   6.658   0.408   2.775
 8725SOL    HW127074   6.612   0.334   2.727
 8725SOL    HW227075   6.592   0.481   2.796
 8726SOL     OW27076   6.097   0.721   0.691
 8726SOL    HW127077   6.124   0.772   0.772
 8726SOL    HW227078   6.175   0.710   0.630
 8727SOL     OW27079   5.427   5.938   6.699
 8727SOL    HW127080   5.362   6.010   6.672
 8727SOL    HW227081   5.376   5.858   6.731
 8728SOL     OW27082   6.134   6.689   4.306
 8728SOL    HW127083   6.049   6.637   4.298
 8728SOL    HW227084   6.205   6.646   4.251
 8729SOL     OW27085   5.811   5.723   5.985
 8729SOL    HW127086   5.862   5.775   6.055
 8729SOL    HW227087   5.839   5.754   5.894
 8730SOL     OW27088   4.139   4.760   1.680
 8730SOL    HW127089   4.174   4.675   1.718
 8730SOL    HW227090   4.158   4.836   1.742
 8731SOL     OW27091   6.835   1.787   3.815
 8731SOL    HW127092   6.792   1.782   3.725
 8731SOL    HW227093   6.768   1.820   3.883
 8732SOL     OW27094   5.274   6.241   5.826
 8732SOL    HW127095   5.226   6.239   5.914
 8732SOL    HW227096   5.355   6.183   5.832
 8733SOL     OW27097   6.382   4.790   2.395
 8733SOL    HW127098   6.407   4.788   2.298
 8733SOL    HW227099   6.316   4.864   2.411
 8734SOL     OW27100   1.543   5.029   0.773
 8734SOL    HW127101   1.635   5.049   0.805
 8734SOL    HW227102   1.487   4.998   0.850
 8735SOL     OW27103   1.501   3.076   5.942
 8735SOL    HW127104   1.412   3.118   5.961
 8735SOL    HW227105   1.504   3.049   5.846
 8736SOL     OW27106   1.670   5.675   3.482
 8736SOL    HW127107   1.589   5.662   3.425
 8736SOL    HW227108   1.733   5.739   3.437
 8737SOL     OW27109   0.339   5.757   6.848
 8737SOL    HW127110   0.248   5.784   6.881
 8737SOL    HW227111   0.331   5.723   6.755
 8738SOL     OW27112   1.974   2.515   2.124
 8738SOL    HW127113   1.962   2.597   2.069
 8738SOL    HW227114   2.038   2.533   2.198
 8739SOL     OW27115   5.400   4.477   3.720
 8739SOL    HW127116   5.469   4.505   3.787
 8739SOL    HW227117   5.446   4.449   3.635
 8740SOL     OW27118   3.117   1.889   3.223
 8740SOL    HW127119   3.046   1.916   3.159
 8740SOL    HW227120   3.127   1.961   3.293
 8741SOL     OW27121   1.003   1.603   2.409
 8741SOL    HW127122   1.000   1.592   2.310
 8741SOL    HW227123   0.958   1.688   2.435
 8742SOL     OW27124   2.586   2.702   1.771
 8742SOL    HW127125   2.555   2.712   1.865
 8742SOL    HW227126   2.627   2.612   1.758
 8743SOL     OW27127   0.682   3.270   0.459
 8743SOL    HW127128   0.594   3.254   0.504
 8743SOL    HW227129   0.755   3.229   0.514
 8744SOL     OW27130   3.602   3.910   5.959
 8744SOL    HW127131   3.621   3.897   6.057
 8744SOL    HW227132   3.509   3.881   5.939
 8745SOL     OW27133   6.006   1.872   6.512
 8745SOL    HW127134   5.959   1.960   6.522
 8745SOL    HW227135   5.939   1.799   6.499
 8746SOL     OW27136   4.055   4.919   4.878
 8746SOL    HW127137   4.018   4.907   4.970
 8746SOL    HW227138   4.109   4.838   4.854
 8747SOL     OW27139   0.948   0.552   2.468
 8747SOL    HW127140   0.898   0.476   2.427
 8747SOL    HW227141   0.884   0.610   2.518
 8748SOL     OW27142   5.491   1.785   4.454
 8748SOL    HW127143   5.446   1.696   4.452
 8748SOL    HW227144   5.583   1.778   4.416
 8749SOL     OW27145   2.768   1.135   3.979
 8749SOL    HW127146   2.701   1.075   4.023
 8749SOL    HW227147   2.766   1.225   4.022
 8750SOL     OW27148   4.185   3.469   1.771
 8750SOL    HW127149   4.109   3.534   1.777
 8750SOL    HW227150   4.154   3.379   1.803
 8751SOL     OW27151   2.480   6.894   0.361
 8751SOL    HW127152   2.392   6.858   0.332
 8751SOL    HW227153   2.506   6.971   0.302
 8752SOL     OW27154   6.847   3.023   6.028
 8752SOL    HW127155   6.755   3.061   6.022
 8752SOL    HW227156   6.877   3.022   6.123
 8753SOL     OW27157   2.076   1.679   0.905
 8753SOL    HW127158   2.061   1.590   0.947
 8753SOL    HW227159   2.036   1.681   0.814
 8754SOL     OW27160   1.008   5.936   6.407
 8754SOL    HW127161   0.933   5.989   6.445
 8754SOL    HW227162   1.054   5.886   6.481
 8755SOL     OW27163   0.246   2.775   1.777
 8755SOL    HW127164   0.324   2.835   1.759
 8755SOL    HW227165   0.255   2.692   1.722
 8756SOL     OW27166   1.573   1.469   2.100
 8756SOL    HW127167   1.634   1.500   2.027
 8756SOL    HW227168   1.479   1.494   2.078
 8757SOL     OW27169   5.515   6.368   5.439
 8757SOL    HW127170   5.530   6.271   5.460
 8757SOL    HW227171   5.425   6.379   5.397
 8758SOL     OW27172   3.980   5.928   5.962
 8758SOL    HW127173   3.943   5.922   5.869
 8758SOL    HW227174   3.989   6.024   5.988
 8759SOL     OW27175   5.821   1.321   2.170
 8759SOL    HW127176   5.861   1.368   2.249
 8759SOL    HW227177   5.874   1.343   2.088
 8760SOL     OW27178   2.447   2.328   4.253
 8760SOL    HW127179   2.384   2.251   4.270
 8760SOL    HW227180   2.429   2.366   4.162
 8761SOL     OW27181   4.842   2.331   2.955
 8761SOL    HW127182   4.778   2.405   2.977
 8761SOL    HW227183   4.874   2.341   2.861
 8762SOL     OW27184   4.063   6.207   2.844
 8762SOL    HW127185   3.983   6.202   2.903
 8762SOL    HW227186   4.041   6.168   2.755
 8763SOL     OW27187   0.145   1.380   5.484
 8763SOL    HW127188   0.169   1.469   5.523
 8763SOL    HW227189   0.228   1.329   5.464
 8764SOL     OW27190   3.737   5.111   6.216
 8764SOL    HW127191   3.659   5.088   6.275
 8764SOL    HW227192   3.752   5.037   6.150
 8765SOL     OW27193   4.248   6.623   3.663
 8765SOL    HW127194   4.273   6.545   3.721
 8765SOL    HW227195   4.227   6.591   3.571
 8766SOL     OW27196   5.400   7.005   4.970
 8766SOL    HW127197   5.363   6.963   5.053
 8766SOL    HW227198   5.326   0.018   4.916
 8767SOL     OW27199   1.247   1.345   3.908
 8767SOL    HW127200   1.190   1.265   3.927
 8767SOL    HW227201   1.338   1.315   3.880
 8768SOL     OW27202   6.777   1.291   0.443
 8768SOL    HW127203   6.833   1.211   0.463
 8768SOL    HW227204   6.685   1.278   0.481
 8769SOL     OW27205   6.107   0.126   6.270
 8769SOL    HW127206   6.061   0.087   6.190
 8769SOL    HW227207   6.146   0.215   6.246
 8770SOL     OW27208   5.162   2.057   0.383
 8770SOL    HW127209   5.181   2.142   0.433
 8770SOL    HW227210   5.123   2.079   0.294
 8771SOL     OW27211   0.806   2.770   6.109
 8771SOL    HW127212   0.877   2.791   6.177
 8771SOL    HW227213   0.762   2.683   6.133
 8772SOL     OW27214   0.178   0.145   3.816
 8772SOL    HW127215   0.103   0.206   3.841
 8772SOL    HW227216   0.225   0.114   3.898
 8773SOL     OW27217   0.318   1.586   3.489
 8773SOL    HW127218   0.372   1.541   3.419
 8773SOL    HW227219   0.335   1.542   3.578
 8774SOL     OW27220   1.364   1.854   6.911
 8774SOL    HW127221   1.333   1.885   7.001
 8774SOL    HW227222   1.308   1.777   6.881
 8775SOL     OW27223   5.400   2.389   3.146
 8775SOL    HW127224   5.344   2.374   3.228
 8775SOL    HW227225   5.386   2.312   3.083
 8776SOL     OW27226   4.928   2.693   1.626
 8776SOL    HW127227   4.853   2.730   1.571
 8776SOL    HW227228   4.902   2.691   1.722
 8777SOL     OW27229   6.694   2.341   3.412
 8777SOL    HW127230   6.766   2.359   3.479
 8777SOL    HW227231   6.705   2.403   3.334
 8778SOL     OW27232   2.862   3.825   0.097
 8778SOL    HW127233   2.832   3.753   0.034
 8778SOL    HW227234   2.794   3.837   0.169
 8779SOL     OW27235   4.093   5.590   2.803
 8779SOL    HW127236   4.020   5.534   2.843
 8779SOL    HW227237   4.102   5.569   2.706
 8780SOL     OW27238   0.790   4.227   4.021
 8780SOL    HW127239   0.836   4.264   3.940
 8780SOL    HW227240   0.754   4.136   4.000
 8781SOL     OW27241   2.563   0.855   1.430
 8781SOL    HW127242   2.651   0.848   1.478
 8781SOL    HW227243   2.519   0.765   1.429
 8782SOL     OW27244   6.132   2.390   1.092
 8782SOL    HW127245   6.072   2.469   1.102
 8782SOL    HW227246   6.091   2.325   1.027
 8783SOL     OW27247   4.420   3.979   5.328
 8783SOL    HW127248   4.366   4.063   5.333
 8783SOL    HW227249   4.393   3.918   5.403
 8784SOL     OW27250   4.463   0.909   6.764
 8784SOL    HW127251   4.377   0.859   6.749
 8784SOL    HW227252   4.528   0.849   6.810
 8785SOL     OW27253   6.892   5.574   5.541
 8785SOL    HW127254   6.962   5.558   5.471
 8785SOL    HW227255   6.827   5.498   5.541
 8786SOL     OW27256   5.793   1.942   3.216
 8786SOL    HW127257   5.793   1.859   3.160
 8786SOL    HW227258   5.878   1.947   3.268
 8787SOL     OW27259   3.613   5.485   1.736
 8787SOL    HW127260   3.538   5.443   1.685
 8787SOL    HW227261   3.659   5.552   1.679
 8788SOL     OW27262   0.445   6.261   4.289
 8788SOL    HW127263   0.397   6.257   4.377
 8788SOL    HW227264   0.382   6.289   4.217
 8789SOL     OW27265   1.461   2.482   6.396
 8789SOL    HW127266   1.457   2.555   6.328
 8789SOL    HW227267   1.536   2.499   6.460
 8790SOL     OW27268   4.487   2.526   4.991
 8790SOL    HW127269   4.452   2.506   4.899
 8790SOL    HW227270   4.580   2.491   4.999
 8791SOL     OW27271   4.171   6.235   4.784
 8791SOL    HW127272   4.102   6.176   4.828
 8791SOL    HW227273   4.169   6.325   4.826
 8792SOL     OW27274   5.802   5.334   1.837
 8792SOL    HW127275   5.740   5.312   1.912
 8792SOL    HW227276   5.861   5.255   1.817
 8793SOL     OW27277   6.455   6.092   5.462
 8793SOL    HW127278   6.526   6.159   5.481
 8793SOL    HW227279   6.386   6.132   5.401
 8794SOL     OW27280   0.180   1.734   3.044
 8794SOL    HW127281   0.150   1.665   2.979
 8794SOL    HW227282   0.273   1.764   3.020
 8795SOL     OW27283   0.924   6.327   6.462
 8795SOL    HW127284   0.833   6.336   6.504
 8795SOL    HW227285   0.927   6.378   6.376
 8796SOL     OW27286   5.613   4.138   4.862
 8796SOL    HW127287   5.527   4.158   4.815
 8796SOL    HW227288   5.660   4.064   4.814
 8797SOL     OW27289   5.189   6.108   4.317
 8797SOL    HW127290   5.202   6.053   4.400
 8797SOL    HW227291   5.132   6.187   4.338
 8798SOL     OW27292   2.121   6.286   5.649
 8798SOL    HW127293   2.022   6.285   5.638
 8798SOL    HW227294   2.153   6.196   5.679
 8799SOL     OW27295   1.358   6.048   1.889
 8799SOL    HW127296   1.305   6.091   1.815
 8799SOL    HW227297   1.436   6.000   1.850
 8800SOL     OW27298   6.558   5.993   3.985
 8800SOL    HW127299   6.555   6.023   3.890
 8800SOL    HW227300   6.480   6.032   4.034
 8801SOL     OW27301   5.179   3.517   5.785
 8801SOL    HW127302   5.133   3.581   5.847
 8801SOL    HW227303   5.176   3.425   5.823
 8802SOL     OW27304   1.477   6.010   6.467
 8802SOL    HW127305   1.445   5.976   6.378
 8802SOL    HW227306   1.522   6.099   6.454
 8803SOL     OW27307   5.759   5.801   5.067
 8803SOL    HW127308   5.837   5.763   5.116
 8803SOL    HW227309   5.681   5.810   5.129
 8804SOL     OW27310   1.095   6.072   2.241
 8804SOL    HW127311   1.010   6.113   2.207
 8804SOL    HW227312   1.155   6.051   2.164
 8805SOL     OW27313   5.060   4.892   3.270
 8805SOL    HW127314   5.117   4.858   3.345
 8805SOL    HW227315   4.968   4.853   3.277
 8806SOL     OW27316   0.943   0.682   1.985
 8806SOL    HW127317   0.919   0.762   2.040
 8806SOL    HW227318   1.032   0.697   1.942
 8807SOL     OW27319   5.498   2.582   1.164
 8807SOL    HW127320   5.458   2.666   1.201
 8807SOL    HW227321   5.510   2.515   1.238
 8808SOL     OW27322   2.080   1.822   0.242
 8808SOL    HW127323   2.030   1.906   0.223
 8808SOL    HW227324   2.015   1.749   0.264
 8809SOL     OW27325   0.187   3.483   3.046
 8809SOL    HW127326   0.125   3.541   2.994
 8809SOL    HW227327   0.191   3.514   3.141
 8810SOL     OW27328   0.330   2.190   5.259
 8810SOL    HW127329   0.419   2.165   5.296
 8810SOL    HW227330   0.271   2.110   5.256
 8811SOL     OW27331   4.353   4.526   2.466
 8811SOL    HW127332   4.427   4.511   2.401
 8811SOL    HW227333   4.298   4.604   2.436
 8812SOL     OW27334   5.283   0.965   0.429
 8812SOL    HW127335   5.338   1.003   0.355
 8812SOL    HW227336   5.313   0.871   0.448
 8813SOL     OW27337   2.133   3.097   2.317
 8813SOL    HW127338   2.144   3.086   2.415
 8813SOL    HW227339   2.130   3.194   2.294
 8814SOL     OW27340   5.882   6.707   4.943
 8814SOL    HW127341   5.928   6.777   4.998
 8814SOL    HW227342   5.833   6.750   4.868
 8815SOL     OW27343   5.165   1.057   1.517
 8815SOL    HW127344   5.201   0.965   1.496
 8815SOL    HW227345   5.096   1.050   1.588
 8816SOL     OW27346   0.415   6.967   3.732
 8816SOL    HW127347   0.342   0.003   3.706
 8816SOL    HW227348   0.497   7.019   3.754
 8817SOL     OW27349   1.366   2.754   3.372
 8817SOL    HW127350   1.407   2.837   3.408
 8817SOL    HW227351   1.285   2.731   3.426
 8818SOL     OW27352   0.865   6.365   5.849
 8818SOL    HW127353   0.866   6.265   5.837
 8818SOL    HW227354   0.860   6.409   5.759
 8819SOL     OW27355   4.909   6.022   6.311
 8819SOL    HW127356   5.004   6.043   6.335
 8819SOL    HW227357   4.862   6.106   6.286
 8820SOL     OW27358   4.159   6.794   5.416
 8820SOL    HW127359   4.070   6.762   5.450
 8820SOL    HW227360   4.225   6.720   5.422
 8821SOL     OW27361   0.810   4.772   6.209
 8821SOL    HW127362   0.834   4.823   6.126
 8821SOL    HW227363   0.721   4.727   6.195
 8822SOL     OW27364   6.184   0.332   4.831
 8822SOL    HW127365   6.094   0.363   4.863
 8822SOL    HW227366   6.189   0.232   4.837
 8823SOL     OW27367   4.189   1.518   2.680
 8823SOL    HW127368   4.237   1.590   2.630
 8823SOL    HW227369   4.229   1.507   2.770
 8824SOL     OW27370   1.907   0.478   3.755
 8824SOL    HW127371   1.908   0.496   3.854
 8824SOL    HW227372   1.891   0.564   3.706
 8825SOL     OW27373   0.284   6.688   0.015
 8825SOL    HW127374   0.284   6.728   0.107
 8825SOL    HW227375   0.307   6.591   0.021
 8826SOL     OW27376   0.399   4.368   0.167
 8826SOL    HW127377   0.497   4.370   0.189
 8826SOL    HW227378   0.351   4.314   0.236
 8827SOL     OW27379   4.499   6.728   3.069
 8827SOL    HW127380   4.593   6.695   3.071
 8827SOL    HW227381   4.478   6.776   3.155
 8828SOL     OW27382   5.219   2.063   6.319
 8828SOL    HW127383   5.176   2.130   6.258
 8828SOL    HW227384   5.301   2.026   6.275
 8829SOL     OW27385   6.923   1.217   2.824
 8829SOL    HW127386   6.985   1.216   2.746
 8829SOL    HW227387   6.846   1.156   2.807
 8830SOL     OW27388   3.311   0.785   3.489
 8830SOL    HW127389   3.224   0.780   3.537
 8830SOL    HW227390   3.309   0.859   3.422
 8831SOL     OW27391   0.173   3.367   2.610
 8831SOL    HW127392   0.178   3.336   2.705
 8831SOL    HW227393   0.167   3.288   2.549
 8832SOL     OW27394   5.184   0.792   5.743
 8832SOL    HW127395   5.172   0.888   5.719
 8832SOL    HW227396   5.235   0.785   5.829
 8833SOL     OW27397   5.030   2.925   0.833
 8833SOL    HW127398   4.959   2.986   0.799
 8833SOL    HW227399   5.097   2.978   0.886
 8834SOL     OW27400   5.443   4.827   6.579
 8834SOL    HW127401   5.385   4.904   6.605
 8834SOL    HW227402   5.539   4.851   6.595
 8835SOL     OW27403   6.871   0.918   5.250
 8835SOL    HW127404   6.867   0.881   5.157
 8835SOL    HW227405   6.825   0.855   5.313
 8836SOL     OW27406   4.231   1.236   1.033
 8836SOL    HW127407   4.167   1.164   1.008
 8836SOL    HW227408   4.272   1.216   1.122
 8837SOL     OW27409   4.531   5.768   0.602
 8837SOL    HW127410   4.515   5.681   0.556
 8837SOL    HW227411   4.629   5.789   0.599
 8838SOL     OW27412   2.148   3.459   3.359
 8838SOL    HW127413   2.146   3.515   3.442
 8838SOL    HW227414   2.171   3.516   3.281
 8839SOL     OW27415   4.767   4.770   1.385
 8839SOL    HW127416   4.680   4.731   1.415
 8839SOL    HW227417   4.759   4.870   1.381
 8840SOL     OW27418   6.815   1.098   0.778
 8840SOL    HW127419   6.761   1.015   0.766
 8840SOL    HW227420   6.788   1.143   0.863
 8841SOL     OW27421   3.474   1.177   0.639
 8841SOL    HW127422   3.394   1.208   0.691
 8841SOL    HW227423   3.458   1.083   0.606
 8842SOL     OW27424   3.566   2.932   4.052
 8842SOL    HW127425   3.526   3.004   4.109
 8842SOL    HW227426   3.605   2.861   4.111
 8843SOL     OW27427   2.758   5.439   5.301
 8843SOL    HW127428   2.677   5.390   5.334
 8843SOL    HW227429   2.813   5.467   5.379
 8844SOL     OW27430   3.165   2.840   6.353
 8844SOL    HW127431   3.183   2.937   6.338
 8844SOL    HW227432   3.189   2.789   6.270
 8845SOL     OW27433   0.669   3.465   2.126
 8845SOL    HW127434   0.749   3.418   2.162
 8845SOL    HW227435   0.615   3.503   2.201
 8846SOL     OW27436   5.988   4.908   4.556
 8846SOL    HW127437   5.948   4.985   4.505
 8846SOL    HW227438   5.919   4.869   4.616
 8847SOL     OW27439   0.878   2.152   3.921
 8847SOL    HW127440   0.870   2.245   3.958
 8847SOL    HW227441   0.832   2.148   3.832
 8848SOL     OW27442   6.544   1.562   0.712
 8848SOL    HW127443   6.561   1.473   0.669
 8848SOL    HW227444   6.448   1.568   0.739
 8849SOL     OW27445   3.534   5.564   4.046
 8849SOL    HW127446   3.456   5.566   3.983
 8849SOL    HW227447   3.530   5.644   4.106
 8850SOL     OW27448   2.535   1.530   1.462
 8850SOL    HW127449   2.497   1.437   1.469
 8850SOL    HW227450   2.588   1.538   1.378
 8851SOL     OW27451   0.176   5.120   2.603
 8851SOL    HW127452   0.122   5.099   2.522
 8851SOL    HW227453   0.265   5.155   2.576
 8852SOL     OW27454   5.243   3.218   4.602
 8852SOL    HW127455   5.321   3.255   4.652
 8852SOL    HW227456   5.164   3.278   4.613
 8853SOL     OW27457   4.626   2.112   5.597
 8853SOL    HW127458   4.538   2.115   5.548
 8853SOL    HW227459   4.625   2.178   5.672
 8854SOL     OW27460   1.906   0.951   6.109
 8854SOL    HW127461   1.862   0.982   6.193
 8854SOL    HW227462   1.976   1.017   6.082
 8855SOL     OW27463   6.267   5.107   6.381
 8855SOL    HW127464   6.366   5.120   6.380
 8855SOL    HW227465   6.228   5.158   6.458
 8856SOL     OW27466   5.395   0.712   5.239
 8856SOL    HW127467   5.414   0.623   5.199
 8856SOL    HW227468   5.350   0.701   5.327
 8857SOL     OW27469   1.294   3.117   4.686
 8857SOL    HW127470   1.386   3.136   4.653
 8857SOL    HW227471   1.278   3.018   4.689
 8858SOL     OW27472   6.982   3.740   6.021
 8858SOL    HW127473   6.913   3.772   6.085
 8858SOL    HW227474   7.011   3.816   5.962
 8859SOL     OW27475   2.955   5.955   5.192
 8859SOL    HW127476   2.962   6.023   5.265
 8859SOL    HW227477   2.966   5.863   5.230
 8860SOL     OW27478   1.723   1.985   0.859
 8860SOL    HW127479   1.623   1.990   0.859
 8860SOL    HW227480   1.755   1.975   0.765
 8861SOL     OW27481   2.498   2.638   1.333
 8861SOL    HW127482   2.514   2.711   1.399
 8861SOL    HW227483   2.404   2.604   1.342
 8862SOL     OW27484   6.312   2.565   5.323
 8862SOL    HW127485   6.296   2.468   5.310
 8862SOL    HW227486   6.357   2.602   5.242
 8863SOL     OW27487   1.097   5.493   4.973
 8863SOL    HW127488   1.167   5.501   5.043
 8863SOL    HW227489   1.007   5.486   5.016
 8864SOL     OW27490   1.329   4.202   6.070
 8864SOL    HW127491   1.317   4.127   6.004
 8864SOL    HW227492   1.344   4.288   6.020
 8865SOL     OW27493   2.756   2.220   5.764
 8865SOL    HW127494   2.713   2.188   5.849
 8865SOL    HW227495   2.820   2.151   5.731
 8866SOL     OW27496   5.148   6.375   5.169
 8866SOL    HW127497   5.225   6.385   5.106
 8866SOL    HW227498   5.108   6.466   5.187
 8867SOL     OW27499   6.459   1.347   3.934
 8867SOL    HW127500   6.389   1.295   3.886
 8867SOL    HW227501   6.458   1.442   3.905
 8868SOL     OW27502   5.000   3.575   0.737
 8868SOL    HW127503   5.022   3.612   0.828
 8868SOL    HW227504   5.068   3.506   0.712
 8869SOL     OW27505   3.562   2.098   3.640
 8869SOL    HW127506   3.597   2.012   3.604
 8869SOL    HW227507   3.636   2.146   3.687
 8870SOL     OW27508   4.698   1.118   2.350
 8870SOL    HW127509   4.669   1.143   2.442
 8870SOL    HW227510   4.619   1.121   2.288
 8871SOL     OW27511   1.708   2.540   3.877
 8871SOL    HW127512   1.619   2.499   3.899
 8871SOL    HW227513   1.772   2.521   3.951
 8872SOL     OW27514   1.528   2.504   1.831
 8872SOL    HW127515   1.473   2.524   1.750
 8872SOL    HW227516   1.558   2.589   1.873
 8873SOL     OW27517   6.763   5.798   4.881
 8873SOL    HW127518   6.750   5.784   4.783
 8873SOL    HW227519   6.861   5.807   4.901
 8874SOL     OW27520   0.989   1.372   6.535
 8874SOL    HW127521   0.896   1.408   6.535
 8874SOL    HW227522   1.001   1.311   6.613
 8875SOL     OW27523   1.409   1.210   4.720
 8875SOL    HW127524   1.423   1.184   4.625
 8875SOL    HW227525   1.484   1.174   4.776
 8876SOL     OW27526   2.583   0.568   4.769
 8876SOL    HW127527   2.548   0.662   4.776
 8876SOL    HW227528   2.516   0.512   4.721
 8877SOL     OW27529   2.979   6.650   4.679
 8877SOL    HW127530   2.932   6.738   4.690
 8877SOL    HW227531   2.989   6.630   4.581
 8878SOL     OW27532   5.447   4.791   5.523
 8878SOL    HW127533   5.386   4.869   5.536
 8878SOL    HW227534   5.504   4.778   5.604
 8879SOL     OW27535   5.138   5.486   4.725
 8879SOL    HW127536   5.084   5.534   4.656
 8879SOL    HW227537   5.225   5.534   4.738
 8880SOL     OW27538   0.022   6.092   5.290
 8880SOL    HW127539   0.004   6.030   5.367
 8880SOL    HW227540   6.987   6.171   5.296
 8881SOL     OW27541   6.652   1.226   1.887
 8881SOL    HW127542   6.690   1.269   1.805
 8881SOL    HW227543   6.713   1.243   1.964
 8882SOL     OW27544   5.609   2.499   6.942
 8882SOL    HW127545   5.627   2.423   7.004
 8882SOL    HW227546   5.691   2.555   6.933
 8883SOL     OW27547   6.847   1.778   5.419
 8883SOL    HW127548   6.762   1.730   5.397
 8883SOL    HW227549   6.837   1.826   5.506
 8884SOL     OW27550   6.509   1.381   5.698
 8884SOL    HW127551   6.576   1.367   5.625
 8884SOL    HW227552   6.544   1.342   5.783
 8885SOL     OW27553   5.539   3.517   1.869
 8885SOL    HW127554   5.555   3.527   1.771
 8885SOL    HW227555   5.442   3.498   1.886
 8886SOL     OW27556   3.126   5.733   6.057
 8886SOL    HW127557   3.036   5.761   6.090
 8886SOL    HW227558   3.183   5.814   6.042
 8887SOL     OW27559   1.774   0.329   1.204
 8887SOL    HW127560   1.855   0.277   1.180
 8887SOL    HW227561   1.693   0.273   1.189
 8888SOL     OW27562   3.289   2.088   2.924
 8888SOL    HW127563   3.379   2.061   2.889
 8888SOL    HW227564   3.297   2.113   3.021
 8889SOL     OW27565   3.305   0.400   4.561
 8889SOL    HW127566   3.284   0.372   4.655
 8889SOL    HW227567   3.347   0.324   4.512
 8890SOL     OW27568   0.373   4.197   3.368
 8890SOL    HW127569   0.440   4.173   3.297
 8890SOL    HW227570   0.400   4.156   3.455
 8891SOL     OW27571   2.322   1.643   6.243
 8891SOL    HW127572   2.360   1.647   6.151
 8891SOL    HW227573   2.231   1.603   6.239
 8892SOL     OW27574   1.196   6.683   2.537
 8892SOL    HW127575   1.258   6.740   2.591
 8892SOL    HW227576   1.166   6.605   2.592
 8893SOL     OW27577   0.514   0.601   0.227
 8893SOL    HW127578   0.446   0.582   0.156
 8893SOL    HW227579   0.469   0.643   0.306
 8894SOL     OW27580   4.289   2.980   6.441
 8894SOL    HW127581   4.350   2.903   6.455
 8894SOL    HW227582   4.263   3.020   6.529
 8895SOL     OW27583   1.663   0.838   2.649
 8895SOL    HW127584   1.564   0.853   2.662
 8895SOL    HW227585   1.713   0.894   2.715
 8896SOL     OW27586   2.292   4.333   4.797
 8896SOL    HW127587   2.243   4.358   4.881
 8896SOL    HW227588   2.240   4.264   4.748
 8897SOL     OW27589   1.165   2.402   1.167
 8897SOL    HW127590   1.255   2.435   1.137
 8897SOL    HW227591   1.095   2.469   1.140
 8898SOL     OW27592   6.755   2.939   5.110
 8898SOL    HW127593   6.751   2.948   5.011
 8898SOL    HW227594   6.802   2.854   5.134
 8899SOL     OW27595   3.376   5.088   1.207
 8899SOL    HW127596   3.339   5.029   1.136
 8899SOL    HW227597   3.456   5.136   1.172
 8900SOL     OW27598   0.390   1.319   3.569
 8900SOL    HW127599   0.448   1.354   3.643
 8900SOL    HW227600   0.354   1.230   3.595
 8901SOL     OW27601   1.964   6.340   1.968
 8901SOL    HW127602   2.050   6.384   1.943
 8901SOL    HW227603   1.957   6.333   2.067
 8902SOL     OW27604   3.292   5.956   4.871
 8902SOL    HW127605   3.311   5.956   4.773
 8902SOL    HW227606   3.200   5.920   4.887
 8903SOL     OW27607   0.675   0.699   3.294
 8903SOL    HW127608   0.767   0.710   3.256
 8903SOL    HW227609   0.607   0.729   3.227
 8904SOL     OW27610   1.232   4.811   3.255
 8904SOL    HW127611   1.299   4.809   3.181
 8904SOL    HW227612   1.259   4.881   3.322
 8905SOL     OW27613   2.267   4.302   5.088
 8905SOL    HW127614   2.264   4.339   5.181
 8905SOL    HW227615   2.309   4.211   5.090
 8906SOL     OW27616   1.611   5.227   4.227
 8906SOL    HW127617   1.525   5.278   4.240
 8906SOL    HW227618   1.625   5.167   4.306
 8907SOL     OW27619   3.967   2.730   6.376
 8907SOL    HW127620   3.942   2.782   6.458
 8907SOL    HW227621   4.015   2.790   6.312
 8908SOL     OW27622   0.252   2.441   2.314
 8908SOL    HW127623   0.250   2.510   2.241
 8908SOL    HW227624   0.329   2.460   2.376
 8909SOL     OW27625   2.620   0.112   5.542
 8909SOL    HW127626   2.678   0.048   5.593
 8909SOL    HW227627   2.566   0.061   5.475
 8910SOL     OW27628   4.054   2.883   6.951
 8910SOL    HW127629   4.015   2.857   0.013
 8910SOL    HW227630   4.017   2.824   6.879
 8911SOL     OW27631   4.689   2.354   3.792
 8911SOL    HW127632   4.623   2.280   3.781
 8911SOL    HW227633   4.642   2.442   3.783
 8912SOL     OW27634   5.327   1.810   6.837
 8912SOL    HW127635   5.395   1.841   6.771
 8912SOL    HW227636   5.268   1.886   6.863
 8913SOL     OW27637   4.347   4.017   0.840
 8913SOL    HW127638   4.396   3.931   0.852
 8913SOL    HW227639   4.257   4.011   0.884
 8914SOL     OW27640   5.028   2.167   3.670
 8914SOL    HW127641   5.100   2.236   3.670
 8914SOL    HW227642   4.969   2.181   3.750
 8915SOL     OW27643   1.201   5.688   2.342
 8915SOL    HW127644   1.250   5.758   2.394
 8915SOL    HW227645   1.152   5.628   2.404
 8916SOL     OW27646   6.333   3.430   2.390
 8916SOL    HW127647   6.274   3.486   2.334
 8916SOL    HW227648   6.304   3.334   2.385
 8917SOL     OW27649   5.510   5.751   5.180
 8917SOL    HW127650   5.428   5.808   5.185
 8917SOL    HW227651   5.528   5.710   5.270
 8918SOL     OW27652   4.725   3.887   6.085
 8918SOL    HW127653   4.656   3.921   6.149
 8918SOL    HW227654   4.703   3.918   5.993
 8919SOL     OW27655   2.405   3.461   1.396
 8919SOL    HW127656   2.384   3.401   1.319
 8919SOL    HW227657   2.453   3.542   1.363
 8920SOL     OW27658   6.826   5.293   5.590
 8920SOL    HW127659   6.837   5.243   5.676
 8920SOL    HW227660   6.752   5.252   5.538
 8921SOL     OW27661   1.110   5.500   3.559
 8921SOL    HW127662   1.051   5.581   3.561
 8921SOL    HW227663   1.052   5.418   3.559
 8922SOL     OW27664   6.557   4.185   6.848
 8922SOL    HW127665   6.500   4.245   6.905
 8922SOL    HW227666   6.629   4.144   6.903
 8923SOL     OW27667   1.997   4.072   4.339
 8923SOL    HW127668   2.013   4.059   4.437
 8923SOL    HW227669   2.079   4.111   4.297
 8924SOL     OW27670   2.480   5.421   5.431
 8924SOL    HW127671   2.451   5.513   5.457
 8924SOL    HW227672   2.411   5.381   5.370
 8925SOL     OW27673   4.449   6.049   1.297
 8925SOL    HW127674   4.355   6.082   1.288
 8925SOL    HW227675   4.481   6.015   1.208
 8926SOL     OW27676   5.217   0.765   6.874
 8926SOL    HW127677   5.140   0.827   6.860
 8926SOL    HW227678   5.293   0.794   6.816
 8927SOL     OW27679   2.651   1.602   4.256
 8927SOL    HW127680   2.731   1.661   4.249
 8927SOL    HW227681   2.568   1.657   4.247
 8928SOL     OW27682   0.602   0.161   4.427
 8928SOL    HW127683   0.556   0.208   4.351
 8928SOL    HW227684   0.680   0.216   4.457
 8929SOL     OW27685   5.175   4.312   3.908
 8929SOL    HW127686   5.229   4.337   3.827
 8929SOL    HW227687   5.233   4.317   3.989
 8930SOL     OW27688   0.919   5.122   5.289
 8930SOL    HW127689   1.019   5.123   5.282
 8930SOL    HW227690   0.891   5.066   5.366
 8931SOL     OW27691   4.871   1.117   2.060
 8931SOL    HW127692   4.968   1.140   2.072
 8931SOL    HW227693   4.837   1.072   2.143
 8932SOL     OW27694   5.918   0.705   0.156
 8932SOL    HW127695   5.870   0.792   0.145
 8932SOL    HW227696   5.852   0.631   0.164
 8933SOL     OW27697   1.018   0.488   5.439
 8933SOL    HW127698   1.073   0.527   5.513
 8933SOL    HW227699   1.006   0.390   5.454
 8934SOL     OW27700   4.480   6.844   3.325
 8934SOL    HW127701   4.502   6.940   3.344
 8934SOL    HW227702   4.520   6.786   3.396
 8935SOL     OW27703   5.513   1.808   2.428
 8935SOL    HW127704   5.447   1.773   2.494
 8935SOL    HW227705   5.559   1.731   2.383
 8936SOL     OW27706   1.657   4.087   2.618
 8936SOL    HW127707   1.608   4.133   2.692
 8936SOL    HW227708   1.726   4.149   2.580
 8937SOL     OW27709   4.251   0.379   5.091
 8937SOL    HW127710   4.166   0.412   5.051
 8937SOL    HW227711   4.266   0.284   5.063
 8938SOL     OW27712   5.710   6.712   1.460
 8938SOL    HW127713   5.732   6.619   1.430
 8938SOL    HW227714   5.696   6.770   1.379
 8939SOL     OW27715   0.289   3.009   4.533
 8939SOL    HW127716   0.310   3.061   4.616
 8939SOL    HW227717   0.215   3.054   4.484
 8940SOL     OW27718   6.398   3.555   1.670
 8940SOL    HW127719   6.488   3.518   1.695
 8940SOL    HW227720   6.327   3.504   1.718
 8941SOL     OW27721   5.598   2.283   2.918
 8941SOL    HW127722   5.612   2.356   2.985
 8941SOL    HW227723   5.659   2.298   2.840
 8942SOL     OW27724   4.932   4.369   3.815
 8942SOL    HW127725   4.911   4.465   3.837
 8942SOL    HW227726   5.020   4.344   3.857
 8943SOL     OW27727   4.820   2.615   0.655
 8943SOL    HW127728   4.768   2.592   0.738
 8943SOL    HW227729   4.758   2.621   0.577
 8944SOL     OW27730   4.459   5.743   5.467
 8944SOL    HW127731   4.429   5.649   5.485
 8944SOL    HW227732   4.398   5.784   5.399
 8945SOL     OW27733   6.294   4.145   2.216
 8945SOL    HW127734   6.233   4.066   2.222
 8945SOL    HW227735   6.276   4.195   2.131
 8946SOL     OW27736   4.386   1.595   4.598
 8946SOL    HW127737   4.363   1.541   4.679
 8946SOL    HW227738   4.458   1.548   4.546
 8947SOL     OW27739   2.004   4.395   0.999
 8947SOL    HW127740   2.015   4.323   0.931
 8947SOL    HW227741   1.908   4.403   1.025
 8948SOL     OW27742   5.638   0.533   3.118
 8948SOL    HW127743   5.629   0.561   3.214
 8948SOL    HW227744   5.662   0.436   3.114
 8949SOL     OW27745   3.299   5.947   0.569
 8949SOL    HW127746   3.367   6.010   0.531
 8949SOL    HW227747   3.342   5.859   0.586
 8950SOL     OW27748   3.335   3.798   2.587
 8950SOL    HW127749   3.419   3.768   2.542
 8950SOL    HW227750   3.340   3.776   2.684
 8951SOL     OW27751   0.442   0.657   4.377
 8951SOL    HW127752   0.494   0.587   4.330
 8951SOL    HW227753   0.350   0.662   4.339
 8952SOL     OW27754   1.834   4.473   4.314
 8952SOL    HW127755   1.896   4.454   4.238
 8952SOL    HW227756   1.837   4.570   4.336
 8953SOL     OW27757   0.733   5.144   1.296
 8953SOL    HW127758   0.803   5.208   1.266
 8953SOL    HW227759   0.732   5.142   1.396
 8954SOL     OW27760   2.145   4.202   5.505
 8954SOL    HW127761   2.104   4.122   5.547
 8954SOL    HW227762   2.156   4.275   5.573
 8955SOL     OW27763   5.478   3.041   5.574
 8955SOL    HW127764   5.449   3.122   5.625
 8955SOL    HW227765   5.408   3.017   5.506
 8956SOL     OW27766   0.930   6.001   1.039
 8956SOL    HW127767   0.937   5.929   1.109
 8956SOL    HW227768   0.954   5.963   0.950
 8957SOL     OW27769   1.413   6.851   2.580
 8957SOL    HW127770   1.421   6.781   2.510
 8957SOL    HW227771   1.375   6.935   2.540
 8958SOL     OW27772   0.315   4.189   4.721
 8958SOL    HW127773   0.376   4.241   4.661
 8958SOL    HW227774   0.332   4.091   4.709
 8959SOL     OW27775   5.625   2.278   4.047
 8959SOL    HW127776   5.721   2.274   4.073
 8959SOL    HW227777   5.613   2.341   3.970
 8960SOL     OW27778   5.287   5.055   2.965
 8960SOL    HW127779   5.302   5.101   3.053
 8960SOL    HW227780   5.260   4.960   2.981
 8961SOL     OW27781   2.671   1.683   4.865
 8961SOL    HW127782   2.700   1.695   4.960
 8961SOL    HW227783   2.634   1.591   4.853
 8962SOL     OW27784   6.487   5.883   2.179
 8962SOL    HW127785   6.493   5.945   2.100
 8962SOL    HW227786   6.406   5.825   2.169
 8963SOL     OW27787   2.935   6.482   5.898
 8963SOL    HW127788   2.870   6.429   5.844
 8963SOL    HW227789   3.022   6.488   5.848
 8964SOL     OW27790   1.884   3.159   3.513
 8964SOL    HW127791   1.980   3.174   3.487
 8964SOL    HW227792   1.879   3.081   3.575
 8965SOL     OW27793   4.254   5.684   0.588
 8965SOL    HW127794   4.352   5.683   0.605
 8965SOL    HW227795   4.229   5.770   0.544
 8966SOL     OW27796   5.545   6.698   5.651
 8966SOL    HW127797   5.476   6.628   5.672
 8966SOL    HW227798   5.550   6.712   5.552
 8967SOL     OW27799   2.856   0.227   3.283
 8967SOL    HW127800   2.879   0.132   3.305
 8967SOL    HW227801   2.784   0.258   3.344
 8968SOL     OW27802   3.733   4.922   2.552
 8968SOL    HW127803   3.709   4.901   2.647
 8968SOL    HW227804   3.661   4.887   2.491
 8969SOL     OW27805   6.637   1.364   2.748
 8969SOL    HW127806   6.649   1.278   2.700
 8969SOL    HW227807   6.573   1.422   2.698
 8970SOL     OW27808   1.911   1.284   3.372
 8970SOL    HW127809   1.908   1.258   3.469
 8970SOL    HW227810   1.958   1.372   3.363
 8971SOL     OW27811   2.837   4.024   0.830
 8971SOL    HW127812   2.862   4.058   0.921
 8971SOL    HW227813   2.758   3.963   0.838
 8972SOL     OW27814   5.495   4.092   6.535
 8972SOL    HW127815   5.478   4.188   6.515
 8972SOL    HW227816   5.411   4.039   6.520
 8973SOL     OW27817   2.502   2.244   2.826
 8973SOL    HW127818   2.565   2.321   2.834
 8973SOL    HW227819   2.490   2.222   2.729
 8974SOL     OW27820   1.781   4.052   4.174
 8974SOL    HW127821   1.722   4.118   4.221
 8974SOL    HW227822   1.875   4.063   4.204
 8975SOL     OW27823   6.863   4.399   5.958
 8975SOL    HW127824   6.835   4.483   5.911
 8975SOL    HW227825   6.881   4.328   5.890
 8976SOL     OW27826   5.886   0.512   1.862
 8976SOL    HW127827   5.959   0.485   1.800
 8976SOL    HW227828   5.857   0.433   1.916
 8977SOL     OW27829   6.889   4.673   6.545
 8977SOL    HW127830   6.818   4.743   6.534
 8977SOL    HW227831   6.857   4.587   6.506
 8978SOL     OW27832   6.003   5.764   5.748
 8978SOL    HW127833   6.103   5.764   5.747
 8978SOL    HW227834   5.969   5.670   5.755
 8979SOL     OW27835   1.838   5.130   3.923
 8979SOL    HW127836   1.739   5.120   3.927
 8979SOL    HW227837   1.866   5.207   3.980
 8980SOL     OW27838   3.753   0.944   0.396
 8980SOL    HW127839   3.752   0.879   0.321
 8980SOL    HW227840   3.754   1.037   0.360
 8981SOL     OW27841   3.854   2.318   6.861
 8981SOL    HW127842   3.802   2.243   6.902
 8981SOL    HW227843   3.909   2.363   6.932
 8982SOL     OW27844   0.192   1.310   2.037
 8982SOL    HW127845   0.138   1.226   2.025
 8982SOL    HW227846   0.175   1.347   2.128
 8983SOL     OW27847   1.749   7.016   2.086
 8983SOL    HW127848   1.817   6.950   2.053
 8983SOL    HW227849   1.670   7.015   2.025
 8984SOL     OW27850   0.043   1.589   4.661
 8984SOL    HW127851   0.114   1.577   4.591
 8984SOL    HW227852   0.059   1.524   4.735
 8985SOL     OW27853   4.990   1.079   2.413
 8985SOL    HW127854   4.902   1.119   2.387
 8985SOL    HW227855   5.014   1.109   2.506
 8986SOL     OW27856   0.197   5.976   0.166
 8986SOL    HW127857   0.252   5.899   0.199
 8986SOL    HW227858   0.133   6.005   0.237
 8987SOL     OW27859   2.619   6.591   1.801
 8987SOL    HW127860   2.565   6.553   1.876
 8987SOL    HW227861   2.614   6.691   1.803
 8988SOL     OW27862   2.537   6.972   0.917
 8988SOL    HW127863   2.483   6.987   1.000
 8988SOL    HW227864   2.480   6.989   0.836
 8989SOL     OW27865   5.877   1.440   2.407
 8989SOL    HW127866   5.844   1.358   2.454
 8989SOL    HW227867   5.805   1.510   2.408
 8990SOL     OW27868   3.511   1.331   3.183
 8990SOL    HW127869   3.414   1.310   3.169
 8990SOL    HW227870   3.543   1.390   3.109
 8991SOL     OW27871   1.061   2.465   0.868
 8991SOL    HW127872   1.061   2.397   0.794
 8991SOL    HW227873   1.024   2.551   0.833
 8992SOL     OW27874   6.486   4.669   6.237
 8992SOL    HW127875   6.462   4.588   6.183
 8992SOL    HW227876   6.535   4.641   6.319
 8993SOL     OW27877   5.272   4.135   4.256
 8993SOL    HW127878   5.190   4.092   4.295
 8993SOL    HW227879   5.304   4.080   4.178
 8994SOL     OW27880   1.428   6.446   2.616
 8994SOL    HW127881   1.487   6.470   2.693
 8994SOL    HW227882   1.337   6.425   2.650
 8995SOL     OW27883   2.190   3.872   4.093
 8995SOL    HW127884   2.183   3.796   4.157
 8995SOL    HW227885   2.192   3.958   4.144
 8996SOL     OW27886   2.101   3.664   1.373
 8996SOL    HW127887   2.038   3.738   1.348
 8996SOL    HW227888   2.121   3.670   1.471
 8997SOL     OW27889   4.288   0.642   5.154
 8997SOL    HW127890   4.279   0.543   5.138
 8997SOL    HW227891   4.366   0.677   5.102
 8998SOL     OW27892   0.917   1.425   6.173
 8998SOL    HW127893   0.968   1.505   6.142
 8998SOL    HW227894   0.824   1.451   6.197
 8999SOL     OW27895   5.035   2.811   5.683
 8999SOL    HW127896   5.108   2.782   5.622
 8999SOL    HW227897   4.946   2.796   5.639
 9000SOL     OW27898   3.601   4.990   0.846
 9000SOL    HW127899   3.638   5.037   0.926
 9000SOL    HW227900   3.564   4.901   0.873
 9001SOL     OW27901   1.779   4.460   3.319
 9001SOL    HW127902   1.812   4.530   3.255
 9001SOL    HW227903   1.857   4.416   3.363
 9002SOL     OW27904   5.266   4.229   5.830
 9002SOL    HW127905   5.258   4.129   5.834
 9002SOL    HW227906   5.363   4.254   5.837
 9003SOL     OW27907   6.134   3.205   7.021
 9003SOL    HW127908   6.154   3.298   6.993
 9003SOL    HW227909   6.217   3.150   7.019
 9004SOL     OW27910   4.580   5.487   0.975
 9004SOL    HW127911   4.496   5.494   1.030
 9004SOL    HW227912   4.609   5.579   0.949
 9005SOL     OW27913   5.328   3.029   3.678
 9005SOL    HW127914   5.253   2.966   3.693
 9005SOL    HW227915   5.415   2.982   3.695
 9006SOL     OW27916   1.822   6.931   0.776
 9006SOL    HW127917   1.850   6.848   0.824
 9006SOL    HW227918   1.852   7.011   0.828
 9007SOL     OW27919   2.123   5.881   5.184
 9007SOL    HW127920   2.157   5.891   5.091
 9007SOL    HW227921   2.039   5.826   5.183
 9008SOL     OW27922   0.444   4.602   2.625
 9008SOL    HW127923   0.377   4.645   2.685
 9008SOL    HW227924   0.516   4.668   2.604
 9009SOL     OW27925   4.037   6.123   0.062
 9009SOL    HW127926   3.962   6.165   0.114
 9009SOL    HW227927   4.114   6.187   0.057
 9010SOL     OW27928   6.974   5.514   4.767
 9010SOL    HW127929   0.024   5.465   4.810
 9010SOL    HW227930   7.005   5.605   4.739
 9011SOL     OW27931   4.400   2.394   2.443
 9011SOL    HW127932   4.468   2.391   2.370
 9011SOL    HW227933   4.309   2.378   2.404
 9012SOL     OW27934   5.617   4.984   2.328
 9012SOL    HW127935   5.555   5.015   2.400
 9012SOL    HW227936   5.711   4.989   2.362
 9013SOL     OW27937   4.519   6.517   2.598
 9013SOL    HW127938   4.532   6.541   2.695
 9013SOL    HW227939   4.608   6.503   2.555
 9014SOL     OW27940   2.104   0.317   1.395
 9014SOL    HW127941   2.130   0.274   1.482
 9014SOL    HW227942   2.061   0.405   1.413
 9015SOL     OW27943   6.280   2.023   4.694
 9015SOL    HW127944   6.350   1.951   4.690
 9015SOL    HW227945   6.268   2.063   4.603
 9016SOL     OW27946   6.779   5.662   6.313
 9016SOL    HW127947   6.874   5.663   6.283
 9016SOL    HW227948   6.720   5.697   6.240
 9017SOL     OW27949   0.015   3.783   3.027
 9017SOL    HW127950   0.108   3.796   3.060
 9017SOL    HW227951   6.989   3.867   3.040
 9018SOL     OW27952   4.158   1.918   6.298
 9018SOL    HW127953   4.199   1.875   6.218
 9018SOL    HW227954   4.124   1.847   6.360
 9019SOL     OW27955   1.658   5.296   0.313
 9019SOL    HW127956   1.713   5.323   0.234
 9019SOL    HW227957   1.707   5.226   0.365
 9020SOL     OW27958   0.899   4.983   3.888
 9020SOL    HW127959   0.935   4.922   3.958
 9020SOL    HW227960   0.817   5.028   3.922
 9021SOL     OW27961   5.652   5.349   5.424
 9021SOL    HW127962   5.668   5.267   5.478
 9021SOL    HW227963   5.714   5.351   5.346
 9022SOL     OW27964   3.090   6.623   6.812
 9022SOL    HW127965   3.090   6.631   6.713
 9022SOL    HW227966   3.127   6.534   6.839
 9023SOL     OW27967   3.107   3.287   3.740
 9023SOL    HW127968   3.084   3.227   3.816
 9023SOL    HW227969   3.190   3.254   3.695
 9024SOL     OW27970   1.367   0.062   6.449
 9024SOL    HW127971   1.320   0.149   6.464
 9024SOL    HW227972   1.455   0.079   6.405
 9025SOL     OW27973   0.315   3.694   0.007
 9025SOL    HW127974   0.303   3.630   6.958
 9025SOL    HW227975   0.340   3.644   0.090
 9026SOL     OW27976   2.970   3.313   5.539
 9026SOL    HW127977   2.872   3.297   5.524
 9026SOL    HW227978   2.984   3.406   5.572
 9027SOL     OW27979   2.433   2.580   2.390
 9027SOL    HW127980   2.440   2.517   2.467
 9027SOL    HW227981   2.475   2.539   2.309
 9028SOL     OW27982   2.680   4.649   4.375
 9028SOL    HW127983   2.763   4.681   4.419
 9028SOL    HW227984   2.603   4.656   4.438
 9029SOL     OW27985   5.926   5.212   2.320
 9029SOL    HW127986   5.875   5.172   2.243
 9029SOL    HW227987   5.868   5.279   2.366
 9030SOL     OW27988   3.845   2.054   2.234
 9030SOL    HW127989   3.815   2.125   2.171
 9030SOL    HW227990   3.921   2.089   2.289
 9031SOL     OW27991   1.958   1.389   1.181
 9031SOL    HW127992   2.032   1.337   1.223
 9031SOL    HW227993   1.981   1.407   1.085
 9032SOL     OW27994   0.633   2.874   2.033
 9032SOL    HW127995   0.575   2.955   2.039
 9032SOL    HW227996   0.645   2.835   2.124
 9033SOL     OW27997   1.345   3.906   2.271
 9033SOL    HW127998   1.392   3.831   2.318
 9033SOL    HW227999   1.378   3.994   2.308
 9034SOL     OW28000   2.148   6.690   6.792
 9034SOL    HW128001   2.190   6.607   6.757
 9034SOL    HW228002   2.067   6.712   6.737
 9035SOL     OW28003   6.929   0.627   4.650
 9035SOL    HW128004   6.928   0.717   4.606
 9035SOL    HW228005   6.835   0.596   4.663
 9036SOL     OW28006   1.037   1.458   3.717
 9036SOL    HW128007   1.128   1.424   3.737
 9036SOL    HW228008   1.044   1.533   3.651
 9037SOL     OW28009   3.019   3.739   5.985
 9037SOL    HW128010   2.932   3.763   6.028
 9037SOL    HW228011   3.050   3.650   6.019
 9038SOL     OW28012   4.564   5.549   5.186
 9038SOL    HW128013   4.466   5.548   5.205
 9038SOL    HW228014   4.584   5.619   5.118
 9039SOL     OW28015   2.345   4.409   6.765
 9039SOL    HW128016   2.256   4.420   6.720
 9039SOL    HW228017   2.338   4.438   6.861
 9040SOL     OW28018   2.753   1.919   2.011
 9040SOL    HW128019   2.691   1.860   1.960
 9040SOL    HW228020   2.794   1.868   2.086
 9041SOL     OW28021   1.881   2.957   6.114
 9041SOL    HW128022   1.922   2.983   6.202
 9041SOL    HW228023   1.954   2.931   6.050
 9042SOL     OW28024   1.927   5.584   3.207
 9042SOL    HW128025   2.020   5.619   3.193
 9042SOL    HW228026   1.932   5.490   3.241
 9043SOL     OW28027   0.005   2.421   0.160
 9043SOL    HW128028   0.066   2.429   0.081
 9043SOL    HW228029   6.959   2.489   0.152
 9044SOL     OW28030   6.930   4.254   0.176
 9044SOL    HW128031   6.879   4.181   0.221
 9044SOL    HW228032   6.970   4.315   0.245
 9045SOL     OW28033   2.543   5.114   4.090
 9045SOL    HW128034   2.532   5.199   4.038
 9045SOL    HW228035   2.468   5.105   4.156
 9046SOL     OW28036   3.764   4.447   6.037
 9046SOL    HW128037   3.681   4.446   5.981
 9046SOL    HW228038   3.752   4.385   6.114
 9047SOL     OW28039   0.960   4.468   4.662
 9047SOL    HW128040   0.983   4.437   4.570
 9047SOL    HW228041   0.989   4.400   4.730
 9048SOL     OW28042   1.766   2.055   5.268
 9048SOL    HW128043   1.681   2.107   5.266
 9048SOL    HW228044   1.788   2.021   5.176
 9049SOL     OW28045   4.825   6.615   6.516
 9049SOL    HW128046   4.798   6.624   6.420
 9049SOL    HW228047   4.846   6.705   6.553
 9050SOL     OW28048   0.067   5.324   5.491
 9050SOL    HW128049   0.110   5.267   5.561
 9050SOL    HW228050   6.997   5.337   5.513
 9051SOL     OW28051   5.622   6.757   6.138
 9051SOL    HW128052   5.651   6.816   6.063
 9051SOL    HW228053   5.555   6.806   6.195
 9052SOL     OW28054   2.986   4.835   4.891
 9052SOL    HW128055   2.973   4.770   4.966
 9052SOL    HW228056   2.990   4.928   4.929
 9053SOL     OW28057   3.135   1.444   2.498
 9053SOL    HW128058   3.044   1.447   2.539
 9053SOL    HW228059   3.201   1.483   2.562
 9054SOL     OW28060   1.995   6.931   1.307
 9054SOL    HW128061   2.087   6.967   1.323
 9054SOL    HW228062   1.992   6.836   1.338
 9055SOL     OW28063   0.883   2.932   4.707
 9055SOL    HW128064   0.910   2.836   4.709
 9055SOL    HW228065   0.894   2.972   4.799
 9056SOL     OW28066   4.567   2.514   2.208
 9056SOL    HW128067   4.614   2.598   2.236
 9056SOL    HW228068   4.542   2.521   2.111
 9057SOL     OW28069   3.753   6.052   0.228
 9057SOL    HW128070   3.720   5.958   0.220
 9057SOL    HW228071   3.742   6.099   0.141
 9058SOL     OW28072   2.365   2.222   4.609
 9058SOL    HW128073   2.324   2.297   4.661
 9058SOL    HW228074   2.396   2.256   4.520
 9059SOL     OW28075   0.085   1.168   2.317
 9059SOL    HW128076   0.114   1.263   2.332
 9059SOL    HW228077   0.164   1.107   2.325
 9060SOL     OW28078   0.237   5.287   1.359
 9060SOL    HW128079   0.322   5.279   1.307
 9060SOL    HW228080   0.257   5.278   1.456
 9061SOL     OW28081   4.920   3.793   2.506
 9061SOL    HW128082   4.993   3.800   2.438
 9061SOL    HW228083   4.952   3.741   2.585
 9062SOL     OW28084   1.169   5.970   3.134
 9062SOL    HW128085   1.086   6.013   3.099
 9062SOL    HW228086   1.171   5.979   3.234
 9063SOL     OW28087   4.924   1.177   1.348
 9063SOL    HW128088   4.942   1.213   1.440
 9063SOL    HW228089   4.979   1.094   1.334
 9064SOL     OW28090   1.469   5.613   3.298
 9064SOL    HW128091   1.374   5.591   3.322
 9064SOL    HW228092   1.472   5.655   3.208
 9065SOL     OW28093   3.755   4.229   6.684
 9065SOL    HW128094   3.737   4.136   6.654
 9065SOL    HW228095   3.758   4.233   6.784
 9066SOL     OW28096   4.448   5.186   4.089
 9066SOL    HW128097   4.536   5.220   4.120
 9066SOL    HW228098   4.441   5.196   3.990
 9067SOL     OW28099   2.121   7.025   4.443
 9067SOL    HW128100   2.120   6.941   4.498
 9067SOL    HW228101   2.157   0.074   4.498
 9068SOL     OW28102   4.200   0.132   6.017
 9068SOL    HW128103   4.106   0.167   6.016
 9068SOL    HW228104   4.260   0.200   6.060
 9069SOL     OW28105   5.297   2.623   1.952
 9069SOL    HW128106   5.273   2.606   2.047
 9069SOL    HW228107   5.357   2.703   1.946
 9070SOL     OW28108   1.517   1.121   5.554
 9070SOL    HW128109   1.517   1.157   5.647
 9070SOL    HW228110   1.439   1.059   5.542
 9071SOL     OW28111   5.415   2.465   6.625
 9071SOL    HW128112   5.328   2.444   6.669
 9071SOL    HW228113   5.478   2.503   6.693
 9072SOL     OW28114   5.891   0.028   2.205
 9072SOL    HW128115   5.988   0.037   2.180
 9072SOL    HW228116   5.868   0.096   2.274
 9073SOL     OW28117   4.282   2.984   5.615
 9073SOL    HW128118   4.211   3.028   5.669
 9073SOL    HW228119   4.359   2.960   5.674
 9074SOL     OW28120   1.820   0.975   2.835
 9074SOL    HW128121   1.813   1.059   2.889
 9074SOL    HW228122   1.915   0.948   2.827
 9075SOL     OW28123   5.555   5.815   0.504
 9075SOL    HW128124   5.622   5.779   0.439
 9075SOL    HW228125   5.463   5.787   0.477
 9076SOL     OW28126   0.714   6.583   2.647
 9076SOL    HW128127   0.635   6.600   2.706
 9076SOL    HW228128   0.710   6.646   2.569
 9077SOL     OW28129   6.192   1.994   6.865
 9077SOL    HW128130   6.176   1.911   6.813
 9077SOL    HW228131   6.107   2.023   6.909
 9078SOL     OW28132   5.201   6.799   0.240
 9078SOL    HW128133   5.219   6.886   0.285
 9078SOL    HW228134   5.282   6.741   0.247
 9079SOL     OW28135   1.028   1.657   6.086
 9079SOL    HW128136   0.993   1.722   6.153
 9079SOL    HW228137   1.076   1.706   6.013
 9080SOL     OW28138   6.054   4.171   2.455
 9080SOL    HW128139   6.008   4.164   2.543
 9080SOL    HW228140   6.149   4.139   2.464
 9081SOL     OW28141   5.044   1.458   0.709
 9081SOL    HW128142   5.016   1.455   0.805
 9081SOL    HW228143   5.014   1.544   0.668
 9082SOL     OW28144   3.616   5.375   6.224
 9082SOL    HW128145   3.581   5.376   6.318
 9082SOL    HW228146   3.687   5.305   6.216
 9083SOL     OW28147   3.522   6.790   0.868
 9083SOL    HW128148   3.613   6.792   0.827
 9083SOL    HW228149   3.482   6.882   0.865
 9084SOL     OW28150   6.867   3.970   4.967
 9084SOL    HW128151   6.910   3.880   4.961
 9084SOL    HW228152   6.923   4.037   4.917
 9085SOL     OW28153   2.943   5.109   0.236
 9085SOL    HW128154   3.019   5.172   0.222
 9085SOL    HW228155   2.963   5.051   0.316
 9086SOL     OW28156   6.862   3.215   0.307
 9086SOL    HW128157   6.896   3.308   0.293
 9086SOL    HW228158   6.915   3.170   0.379
 9087SOL     OW28159   5.316   1.526   1.666
 9087SOL    HW128160   5.337   1.428   1.666
 9087SOL    HW228161   5.350   1.568   1.750
 9088SOL     OW28162   6.181   5.679   0.270
 9088SOL    HW128163   6.164   5.670   0.172
 9088SOL    HW228164   6.099   5.653   0.320
 9089SOL     OW28165   5.123   5.662   3.571
 9089SOL    HW128166   5.197   5.623   3.517
 9089SOL    HW228167   5.137   5.761   3.581
 9090SOL     OW28168   5.091   6.115   6.070
 9090SOL    HW128169   5.112   6.055   5.992
 9090SOL    HW228170   5.047   6.062   6.142
 9091SOL     OW28171   2.819   2.004   1.760
 9091SOL    HW128172   2.761   2.083   1.737
 9091SOL    HW228173   2.813   1.986   1.858
 9092SOL     OW28174   2.222   1.319   5.099
 9092SOL    HW128175   2.145   1.377   5.073
 9092SOL    HW228176   2.203   1.276   5.187
 9093SOL     OW28177   2.335   3.507   1.013
 9093SOL    HW128178   2.434   3.498   1.006
 9093SOL    HW228179   2.313   3.594   1.058
 9094SOL     OW28180   6.535   3.811   0.793
 9094SOL    HW128181   6.475   3.787   0.870
 9094SOL    HW228182   6.562   3.728   0.745
 9095SOL     OW28183   1.935   3.003   0.048
 9095SOL    HW128184   1.942   3.063   6.996
 9095SOL    HW228185   1.998   2.926   0.038
 9096SOL     OW28186   6.120   3.495   2.998
 9096SOL    HW128187   6.188   3.424   2.974
 9096SOL    HW228188   6.096   3.487   3.094
 9097SOL     OW28189   6.264   5.749   6.167
 9097SOL    HW128190   6.323   5.797   6.232
 9097SOL    HW228191   6.264   5.651   6.187
 9098SOL     OW28192   3.761   4.016   4.285
 9098SOL    HW128193   3.842   3.961   4.269
 9098SOL    HW228194   3.682   3.956   4.301
 9099SOL     OW28195   1.936   2.081   0.344
 9099SOL    HW128196   1.983   2.144   0.406
 9099SOL    HW228197   1.841   2.072   0.372
 9100SOL     OW28198   1.367   2.951   6.959
 9100SOL    HW128199   1.291   2.917   7.015
 9100SOL    HW228200   1.333   3.023   6.898
 9101SOL     OW28201   2.170   1.751   7.026
 9101SOL    HW128202   2.134   1.775   0.090
 9101SOL    HW228203   2.109   1.788   6.956
 9102SOL     OW28204   5.583   6.728   2.352
 9102SOL    HW128205   5.505   6.703   2.294
 9102SOL    HW228206   5.551   6.739   2.446
 9103SOL     OW28207   0.459   4.202   6.344
 9103SOL    HW128208   0.548   4.247   6.351
 9103SOL    HW228209   0.387   4.272   6.343
 9104SOL     OW28210   5.054   0.205   2.252
 9104SOL    HW128211   5.093   0.117   2.227
 9104SOL    HW228212   5.121   0.277   2.233
 9105SOL     OW28213   2.620   1.420   5.618
 9105SOL    HW128214   2.594   1.399   5.713
 9105SOL    HW228215   2.627   1.519   5.607
 9106SOL     OW28216   6.513   5.176   1.613
 9106SOL    HW128217   6.539   5.271   1.593
 9106SOL    HW228218   6.434   5.176   1.676
 9107SOL     OW28219   4.861   0.519   0.893
 9107SOL    HW128220   4.880   0.565   0.806
 9107SOL    HW228221   4.861   0.420   0.879
 9108SOL     OW28222   4.118   6.163   6.718
 9108SOL    HW128223   4.075   6.206   6.797
 9108SOL    HW228224   4.082   6.203   6.634
 9109SOL     OW28225   2.994   1.393   4.564
 9109SOL    HW128226   3.043   1.323   4.616
 9109SOL    HW228227   3.021   1.389   4.468
 9110SOL     OW28228   1.384   2.735   3.061
 9110SOL    HW128229   1.377   2.734   3.160
 9110SOL    HW228230   1.332   2.813   3.024
 9111SOL     OW28231   4.190   4.115   1.719
 9111SOL    HW128232   4.127   4.076   1.786
 9111SOL    HW228233   4.251   4.180   1.765
 9112SOL     OW28234   0.626   4.791   2.038
 9112SOL    HW128235   0.540   4.753   2.004
 9112SOL    HW228236   0.648   4.874   1.988
 9113SOL     OW28237   3.312   5.874   0.251
 9113SOL    HW128238   3.312   5.903   0.155
 9113SOL    HW228239   3.258   5.938   0.305
 9114SOL     OW28240   2.540   4.181   1.783
 9114SOL    HW128241   2.478   4.202   1.859
 9114SOL    HW228242   2.584   4.265   1.752
 9115SOL     OW28243   1.747   4.053   3.914
 9115SOL    HW128244   1.773   4.073   4.008
 9115SOL    HW228245   1.696   4.130   3.876
 9116SOL     OW28246   1.732   1.505   5.720
 9116SOL    HW128247   1.820   1.550   5.708
 9116SOL    HW228248   1.673   1.561   5.778
 9117SOL     OW28249   6.510   2.577   6.774
 9117SOL    HW128250   6.457   2.538   6.849
 9117SOL    HW228251   6.604   2.595   6.806
 9118SOL     OW28252   0.092   5.588   1.904
 9118SOL    HW128253   0.068   5.608   1.999
 9118SOL    HW228254   0.113   5.491   1.894
 9119SOL     OW28255   6.086   0.035   1.201
 9119SOL    HW128256   6.134   0.123   1.210
 9119SOL    HW228257   6.149   6.993   1.165
 9120SOL     OW28258   5.828   1.064   6.418
 9120SOL    HW128259   5.854   1.157   6.444
 9120SOL    HW228260   5.878   0.999   6.476
 9121SOL     OW28261   1.922   1.084   6.928
 9121SOL    HW128262   1.988   1.121   6.864
 9121SOL    HW228263   1.843   1.049   6.877
 9122SOL     OW28264   0.628   2.599   0.725
 9122SOL    HW128265   0.533   2.625   0.737
 9122SOL    HW228266   0.634   2.522   0.660
 9123SOL     OW28267   2.931   5.793   6.888
 9123SOL    HW128268   2.839   5.825   6.865
 9123SOL    HW228269   2.964   5.842   6.969
 9124SOL     OW28270   5.766   4.887   5.579
 9124SOL    HW128271   5.766   4.926   5.487
 9124SOL    HW228272   5.820   4.803   5.579
 9125SOL     OW28273   4.566   6.200   2.595
 9125SOL    HW128274   4.530   6.290   2.571
 9125SOL    HW228275   4.624   6.208   2.676
 9126SOL     OW28276   5.935   0.561   2.198
 9126SOL    HW128277   5.885   0.496   2.140
 9126SOL    HW228278   6.019   0.588   2.152
 9127SOL     OW28279   5.130   0.039   6.674
 9127SOL    HW128280   5.134   6.967   6.693
 9127SOL    HW228281   5.219   0.070   6.642
 9128SOL     OW28282   4.748   2.405   5.024
 9128SOL    HW128283   4.793   2.332   5.076
 9128SOL    HW228284   4.806   2.487   5.025
 9129SOL     OW28285   1.988   1.689   6.439
 9129SOL    HW128286   1.980   1.789   6.433
 9129SOL    HW228287   1.903   1.650   6.474
 9130SOL     OW28288   6.067   5.547   0.870
 9130SOL    HW128289   6.136   5.598   0.820
 9130SOL    HW228290   5.981   5.599   0.871
 9131SOL     OW28291   0.222   4.054   4.153
 9131SOL    HW128292   0.285   4.079   4.080
 9131SOL    HW228293   0.273   4.019   4.232
 9132SOL     OW28294   1.047   3.132   4.503
 9132SOL    HW128295   1.023   3.036   4.489
 9132SOL    HW228296   1.048   3.152   4.601
 9133SOL     OW28297   1.526   4.375   1.270
 9133SOL    HW128298   1.428   4.369   1.284
 9133SOL    HW228299   1.564   4.283   1.260
 9134SOL     OW28300   3.310   5.157   5.828
 9134SOL    HW128301   3.346   5.202   5.910
 9134SOL    HW228302   3.210   5.156   5.831
 9135SOL     OW28303   6.978   6.090   4.112
 9135SOL    HW128304   0.004   6.062   4.193
 9135SOL    HW228305   6.907   6.022   4.094
 9136SOL     OW28306   4.380   5.037   6.028
 9136SOL    HW128307   4.342   5.035   6.120
 9136SOL    HW228308   4.344   4.960   5.975
 9137SOL     OW28309   4.117   1.312   2.334
 9137SOL    HW128310   4.076   1.397   2.301
 9137SOL    HW228311   4.096   1.238   2.270
 9138SOL     OW28312   3.790   4.900   0.669
 9138SOL    HW128313   3.725   4.942   0.732
 9138SOL    HW228314   3.882   4.933   0.689
 9139SOL     OW28315   3.011   1.082   5.448
 9139SOL    HW128316   3.057   1.156   5.400
 9139SOL    HW228317   2.937   1.118   5.504
 9140SOL     OW28318   6.901   2.445   3.554
 9140SOL    HW128319   6.858   2.393   3.628
 9140SOL    HW228320   6.953   2.521   3.593
 9141SOL     OW28321   5.840   0.676   5.654
 9141SOL    HW128322   5.806   0.733   5.729
 9141SOL    HW228323   5.764   0.653   5.593
 9142SOL     OW28324   0.876   4.215   6.116
 9142SOL    HW128325   0.778   4.201   6.124
 9142SOL    HW228326   0.912   4.254   6.201
 9143SOL     OW28327   5.257   3.851   0.662
 9143SOL    HW128328   5.285   3.781   0.597
 9143SOL    HW228329   5.184   3.817   0.720
 9144SOL     OW28330   2.110   4.627   5.135
 9144SOL    HW128331   2.112   4.557   5.206
 9144SOL    HW228332   2.050   4.598   5.061
 9145SOL     OW28333   0.242   4.296   6.793
 9145SOL    HW128334   0.211   4.270   6.884
 9145SOL    HW228335   0.302   4.225   6.756
 9146SOL     OW28336   6.681   1.733   1.706
 9146SOL    HW128337   6.687   1.756   1.803
 9146SOL    HW228338   6.769   1.746   1.662
 9147SOL     OW28339   4.438   6.318   5.873
 9147SOL    HW128340   4.372   6.388   5.849
 9147SOL    HW228341   4.410   6.231   5.833
 9148SOL     OW28342   4.200   6.198   3.248
 9148SOL    HW128343   4.226   6.271   3.184
 9148SOL    HW228344   4.245   6.212   3.336
 9149SOL     OW28345   5.842   3.551   3.860
 9149SOL    HW128346   5.742   3.556   3.858
 9149SOL    HW228347   5.879   3.641   3.881
 9150SOL     OW28348   4.846   1.254   3.197
 9150SOL    HW128349   4.936   1.291   3.175
 9150SOL    HW228350   4.778   1.292   3.134
 9151SOL     OW28351   1.474   3.707   2.458
 9151SOL    HW128352   1.477   3.608   2.465
 9151SOL    HW228353   1.562   3.745   2.490
 9152SOL     OW28354   2.423   5.753   2.536
 9152SOL    HW128355   2.437   5.802   2.622
 9152SOL    HW228356   2.348   5.688   2.546
 9153SOL     OW28357   1.645   3.368   6.064
 9153SOL    HW128358   1.587   3.297   6.104
 9153SOL    HW228359   1.635   3.452   6.116
 9154SOL     OW28360   2.330   5.878   0.616
 9154SOL    HW128361   2.413   5.896   0.669
 9154SOL    HW228362   2.280   5.802   0.657
 9155SOL     OW28363   1.494   4.125   0.140
 9155SOL    HW128364   1.448   4.089   0.222
 9155SOL    HW228365   1.438   4.106   0.059
 9156SOL     OW28366   4.905   2.688   1.894
 9156SOL    HW128367   4.928   2.785   1.889
 9156SOL    HW228368   4.939   2.650   1.980
 9157SOL     OW28369   5.281   3.723   5.633
 9157SOL    HW128370   5.352   3.677   5.580
 9157SOL    HW228371   5.241   3.659   5.698
 9158SOL     OW28372   0.473   4.095   3.601
 9158SOL    HW128373   0.548   4.036   3.630
 9158SOL    HW228374   0.499   4.191   3.615
 9159SOL     OW28375   6.917   3.999   3.144
 9159SOL    HW128376   6.856   4.034   3.215
 9159SOL    HW228377   6.962   4.075   3.098
 9160SOL     OW28378   6.690   6.848   6.662
 9160SOL    HW128379   6.692   6.931   6.606
 9160SOL    HW228380   6.691   6.873   6.758
 9161SOL     OW28381   5.155   3.709   4.340
 9161SOL    HW128382   5.107   3.746   4.260
 9161SOL    HW228383   5.149   3.775   4.415
 9162SOL     OW28384   5.170   2.202   2.364
 9162SOL    HW128385   5.191   2.110   2.396
 9162SOL    HW228386   5.170   2.204   2.264
 9163SOL     OW28387   3.010   2.119   3.741
 9163SOL    HW128388   2.955   2.193   3.702
 9163SOL    HW228389   3.002   2.120   3.840
 9164SOL     OW28390   3.050   6.968   0.611
 9164SOL    HW128391   3.027   6.930   0.521
 9164SOL    HW228392   3.147   6.953   0.630
 9165SOL     OW28393   5.665   6.492   0.359
 9165SOL    HW128394   5.566   6.502   0.372
 9165SOL    HW228395   5.708   6.466   0.445
 9166SOL     OW28396   3.053   5.452   1.257
 9166SOL    HW128397   3.000   5.533   1.284
 9166SOL    HW228398   2.992   5.386   1.213
 9167SOL     OW28399   1.364   4.184   4.833
 9167SOL    HW128400   1.406   4.267   4.797
 9167SOL    HW228401   1.296   4.150   4.768
 9168SOL     OW28402   2.395   0.442   6.446
 9168SOL    HW128403   2.486   0.480   6.462
 9168SOL    HW228404   2.392   0.348   6.480
 9169SOL     OW28405   6.841   0.010   3.456
 9169SOL    HW128406   6.900   6.985   3.518
 9169SOL    HW228407   6.849   0.108   3.475
 9170SOL     OW28408   6.282   6.067   6.979
 9170SOL    HW128409   6.341   6.003   6.930
 9170SOL    HW228410   6.325   6.093   0.039
 9171SOL     OW28411   2.430   5.666   6.405
 9171SOL    HW128412   2.507   5.625   6.454
 9171SOL    HW228413   2.350   5.608   6.415
 9172SOL     OW28414   2.693   2.018   4.181
 9172SOL    HW128415   2.622   1.950   4.163
 9172SOL    HW228416   2.683   2.095   4.118
 9173SOL     OW28417   0.391   5.310   4.851
 9173SOL    HW128418   0.452   5.273   4.781
 9173SOL    HW228419   0.442   5.369   4.913
 9174SOL     OW28420   0.519   5.029   0.520
 9174SOL    HW128421   0.540   5.109   0.464
 9174SOL    HW228422   0.473   5.058   0.604
 9175SOL     OW28423   1.372   6.638   5.474
 9175SOL    HW128424   1.285   6.683   5.496
 9175SOL    HW228425   1.354   6.545   5.441
 9176SOL     OW28426   2.160   0.631   5.615
 9176SOL    HW128427   2.101   0.556   5.584
 9176SOL    HW228428   2.188   0.614   5.709
 9177SOL     OW28429   0.876   5.203   4.282
 9177SOL    HW128430   0.819   5.126   4.309
 9177SOL    HW228431   0.884   5.206   4.183
 9178SOL     OW28432   2.569   4.765   0.416
 9178SOL    HW128433   2.529   4.688   0.367
 9178SOL    HW228434   2.669   4.761   0.408
 9179SOL     OW28435   3.315   4.909   4.529
 9179SOL    HW128436   3.404   4.953   4.541
 9179SOL    HW228437   3.277   4.885   4.618
 9180SOL     OW28438   5.040   2.154   3.135
 9180SOL    HW128439   5.031   2.117   3.042
 9180SOL    HW228440   5.086   2.243   3.131
 9181SOL     OW28441   4.385   1.334   2.405
 9181SOL    HW128442   4.435   1.253   2.434
 9181SOL    HW228443   4.290   1.328   2.437
 9182SOL     OW28444   1.335   6.676   1.661
 9182SOL    HW128445   1.268   6.736   1.704
 9182SOL    HW228446   1.403   6.648   1.728
 9183SOL     OW28447   5.257   5.895   0.132
 9183SOL    HW128448   5.211   5.868   0.047
 9183SOL    HW228449   5.350   5.859   0.132
 9184SOL     OW28450   5.056   0.148   0.319
 9184SOL    HW128451   5.014   0.237   0.339
 9184SOL    HW228452   5.011   0.077   0.374
 9185SOL     OW28453   3.843   1.291   5.240
 9185SOL    HW128454   3.753   1.333   5.228
 9185SOL    HW228455   3.891   1.336   5.316
 9186SOL     OW28456   5.405   0.501   6.364
 9186SOL    HW128457   5.419   0.581   6.306
 9186SOL    HW228458   5.466   0.506   6.443
 9187SOL     OW28459   2.374   6.020   2.223
 9187SOL    HW128460   2.443   5.950   2.237
 9187SOL    HW228461   2.390   6.096   2.286
 9188SOL     OW28462   2.668   6.029   1.124
 9188SOL    HW128463   2.730   6.048   1.048
 9188SOL    HW228464   2.719   5.985   1.199
 9189SOL     OW28465   5.476   5.389   2.349
 9189SOL    HW128466   5.405   5.325   2.378
 9189SOL    HW228467   5.556   5.379   2.409
 9190SOL     OW28468   1.730   5.105   0.486
 9190SOL    HW128469   1.716   5.131   0.582
 9190SOL    HW228470   1.653   5.050   0.455
 9191SOL     OW28471   0.004   0.494   6.286
 9191SOL    HW128472   0.075   0.489   6.356
 9191SOL    HW228473   6.941   0.502   6.329
 9192SOL     OW28474   6.630   4.154   4.063
 9192SOL    HW128475   6.663   4.233   4.115
 9192SOL    HW228476   6.646   4.170   3.965
 9193SOL     OW28477   2.611   3.181   6.728
 9193SOL    HW128478   2.651   3.261   6.683
 9193SOL    HW228479   2.657   3.166   6.816
 9194SOL     OW28480   3.986   0.232   3.903
 9194SOL    HW128481   4.067   0.284   3.877
 9194SOL    HW228482   3.954   0.180   3.824
 9195SOL     OW28483   1.704   1.773   3.728
 9195SOL    HW128484   1.690   1.835   3.650
 9195SOL    HW228485   1.646   1.801   3.804
 9196SOL     OW28486   4.921   2.472   5.305
 9196SOL    HW128487   4.873   2.407   5.364
 9196SOL    HW228488   4.887   2.564   5.323
 9197SOL     OW28489   2.203   3.660   1.632
 9197SOL    HW128490   2.234   3.755   1.628
 9197SOL    HW228491   2.149   3.647   1.715
 9198SOL     OW28492   6.966   5.184   4.297
 9198SOL    HW128493   6.949   5.212   4.391
 9198SOL    HW228494   0.038   5.171   4.283
 9199SOL     OW28495   6.331   4.554   4.850
 9199SOL    HW128496   6.388   4.608   4.912
 9199SOL    HW228497   6.248   4.605   4.830
 9200SOL     OW28498   2.546   0.077   0.520
 9200SOL    HW128499   2.544   7.012   0.479
 9200SOL    HW228500   2.639   0.096   0.553
 9201SOL     OW28501   1.574   4.301   0.501
 9201SOL    HW128502   1.486   4.261   0.478
 9201SOL    HW228503   1.635   4.296   0.421
 9202SOL     OW28504   2.120   0.484   3.060
 9202SOL    HW128505   2.099   0.535   3.144
 9202SOL    HW228506   2.199   0.525   3.015
 9203SOL     OW28507   6.826   6.786   0.914
 9203SOL    HW128508   6.735   6.770   0.875
 9203SOL    HW228509   6.875   6.700   0.921
 9204SOL     OW28510   5.186   1.059   5.694
 9204SOL    HW128511   5.087   1.063   5.710
 9204SOL    HW228512   5.229   1.141   5.729
 9205SOL     OW28513   6.939   4.387   2.059
 9205SOL    HW128514   6.924   4.472   2.008
 9205SOL    HW228515   6.874   4.318   2.029
 9206SOL     OW28516   3.670   5.624   0.805
 9206SOL    HW128517   3.659   5.525   0.807
 9206SOL    HW228518   3.767   5.648   0.817
 9207SOL     OW28519   4.880   5.638   6.519
 9207SOL    HW128520   4.800   5.655   6.462
 9207SOL    HW228521   4.901   5.719   6.573
 9208SOL     OW28522   1.354   3.480   2.976
 9208SOL    HW128523   1.330   3.509   3.068
 9208SOL    HW228524   1.399   3.555   2.928
 9209SOL     OW28525   2.987   0.521   6.244
 9209SOL    HW128526   3.077   0.487   6.216
 9209SOL    HW228527   2.933   0.445   6.281
 9210SOL     OW28528   0.041   0.468   3.326
 9210SOL    HW128529   0.037   0.439   3.231
 9210SOL    HW228530   0.075   0.392   3.383
 9211SOL     OW28531   0.782   1.404   2.622
 9211SOL    HW128532   0.864   1.448   2.585
 9211SOL    HW228533   0.749   1.334   2.559
 9212SOL     OW28534   3.278   4.932   4.254
 9212SOL    HW128535   3.191   4.904   4.214
 9212SOL    HW228536   3.291   4.884   4.341
 9213SOL     OW28537   5.869   4.384   6.656
 9213SOL    HW128538   5.933   4.307   6.666
 9213SOL    HW228539   5.834   4.409   6.746
 9214SOL     OW28540   0.170   5.109   1.080
 9214SOL    HW128541   0.207   5.030   1.128
 9214SOL    HW228542   0.072   5.098   1.067
 9215SOL     OW28543   0.837   1.020   0.951
 9215SOL    HW128544   0.739   1.000   0.939
 9215SOL    HW228545   0.868   1.080   0.878
 9216SOL     OW28546   2.259   6.873   3.029
 9216SOL    HW128547   2.291   6.853   3.122
 9216SOL    HW228548   2.339   6.884   2.969
 9217SOL     OW28549   1.181   2.477   6.469
 9217SOL    HW128550   1.189   2.558   6.526
 9217SOL    HW228551   1.267   2.463   6.420
 9218SOL     OW28552   2.918   0.481   0.772
 9218SOL    HW128553   2.892   0.577   0.756
 9218SOL    HW228554   2.850   0.438   0.832
 9219SOL     OW28555   0.341   2.040   0.585
 9219SOL    HW128556   0.346   2.008   0.491
 9219SOL    HW228557   0.433   2.043   0.624
 9220SOL     OW28558   3.379   6.538   1.909
 9220SOL    HW128559   3.372   6.638   1.910
 9220SOL    HW228560   3.436   6.508   1.986
 9221SOL     OW28561   2.959   5.702   4.030
 9221SOL    HW128562   3.035   5.727   4.089
 9221SOL    HW228563   2.882   5.669   4.086
 9222SOL     OW28564   2.671   2.481   5.766
 9222SOL    HW128565   2.571   2.472   5.768
 9222SOL    HW228566   2.712   2.389   5.763
 9223SOL     OW28567   2.709   2.974   5.359
 9223SOL    HW128568   2.683   2.899   5.419
 9223SOL    HW228569   2.626   3.016   5.320
 9224SOL     OW28570   2.337   5.076   5.252
 9224SOL    HW128571   2.435   5.059   5.260
 9224SOL    HW228572   2.322   5.168   5.215
 9225SOL     OW28573   2.043   6.323   6.965
 9225SOL    HW128574   1.994   6.303   0.023
 9225SOL    HW228575   1.988   6.295   6.887
 9226SOL     OW28576   4.068   6.634   1.207
 9226SOL    HW128577   4.136   6.605   1.140
 9226SOL    HW228578   4.026   6.554   1.249
 9227SOL     OW28579   1.740   5.901   2.254
 9227SOL    HW128580   1.794   5.948   2.184
 9227SOL    HW228581   1.797   5.834   2.301
 9228SOL     OW28582   0.854   6.977   6.428
 9228SOL    HW128583   0.859   6.971   6.528
 9228SOL    HW228584   0.923   0.015   6.395
 9229SOL     OW28585   0.487   5.209   5.415
 9229SOL    HW128586   0.480   5.251   5.505
 9229SOL    HW228587   0.525   5.117   5.424
 9230SOL     OW28588   5.763   0.189   3.985
 9230SOL    HW128589   5.693   0.119   3.968
 9230SOL    HW228590   5.743   0.236   4.070
 9231SOL     OW28591   2.021   2.823   3.389
 9231SOL    HW128592   2.023   2.903   3.329
 9231SOL    HW228593   1.939   2.826   3.446
 9232SOL     OW28594   3.829   4.664   1.297
 9232SOL    HW128595   3.844   4.575   1.340
 9232SOL    HW228596   3.913   4.717   1.299
 9233SOL     OW28597   5.135   4.582   0.830
 9233SOL    HW128598   5.037   4.568   0.845
 9233SOL    HW228599   5.158   4.678   0.847
 9234SOL     OW28600   2.366   6.266   3.743
 9234SOL    HW128601   2.306   6.346   3.744
 9234SOL    HW228602   2.354   6.215   3.828
 9235SOL     OW28603   0.670   2.160   3.444
 9235SOL    HW128604   0.586   2.201   3.408
 9235SOL    HW228605   0.738   2.155   3.371
 9236SOL     OW28606   3.673   2.826   5.855
 9236SOL    HW128607   3.654   2.750   5.793
 9236SOL    HW228608   3.676   2.792   5.949
 9237SOL     OW28609   1.804   3.459   3.840
 9237SOL    HW128610   1.754   3.476   3.925
 9237SOL    HW228611   1.882   3.399   3.859
 9238SOL     OW28612   4.488   3.190   6.339
 9238SOL    HW128613   4.452   3.232   6.423
 9238SOL    HW228614   4.431   3.112   6.314
 9239SOL     OW28615   1.656   4.077   0.695
 9239SOL    HW128616   1.743   4.033   0.716
 9239SOL    HW228617   1.672   4.169   0.660
 9240SOL     OW28618   4.432   0.929   2.403
 9240SOL    HW128619   4.471   0.977   2.325
 9240SOL    HW228620   4.470   0.965   2.488
 9241SOL     OW28621   0.325   5.889   6.370
 9241SOL    HW128622   0.388   5.967   6.376
 9241SOL    HW228623   0.323   5.856   6.276
 9242SOL     OW28624   6.897   6.234   1.826
 9242SOL    HW128625   6.977   6.292   1.808
 9242SOL    HW228626   6.897   6.158   1.761
 9243SOL     OW28627   6.204   6.219   4.731
 9243SOL    HW128628   6.214   6.189   4.637
 9243SOL    HW228629   6.107   6.233   4.752
 9244SOL     OW28630   3.729   5.021   6.729
 9244SOL    HW128631   3.801   5.026   6.660
 9244SOL    HW228632   3.646   4.982   6.689
 9245SOL     OW28633   0.664   5.766   1.068
 9245SOL    HW128634   0.612   5.719   1.141
 9245SOL    HW228635   0.658   5.712   0.984
 9246SOL     OW28636   6.930   4.944   4.646
 9246SOL    HW128637   6.998   5.015   4.631
 9246SOL    HW228638   6.975   4.861   4.680
 9247SOL     OW28639   1.780   6.505   2.251
 9247SOL    HW128640   1.778   6.548   2.341
 9247SOL    HW228641   1.797   6.407   2.260
 9248SOL     OW28642   3.009   1.272   6.556
 9248SOL    HW128643   3.071   1.256   6.479
 9248SOL    HW228644   2.928   1.215   6.547
 9249SOL     OW28645   4.582   0.141   3.827
 9249SOL    HW128646   4.553   0.178   3.916
 9249SOL    HW228647   4.572   0.211   3.757
 9250SOL     OW28648   5.201   3.666   4.021
 9250SOL    HW128649   5.125   3.636   3.964
 9250SOL    HW228650   5.226   3.593   4.085
 9251SOL     OW28651   3.518   2.108   2.578
 9251SOL    HW128652   3.521   2.054   2.662
 9251SOL    HW228653   3.573   2.063   2.507
 9252SOL     OW28654   1.222   0.023   4.541
 9252SOL    HW128655   1.223   0.112   4.586
 9252SOL    HW228656   1.298   0.017   4.477
 9253SOL     OW28657   1.180   6.779   5.648
 9253SOL    HW128658   1.176   6.727   5.733
 9253SOL    HW228659   1.233   6.862   5.662
 9254SOL     OW28660   5.610   3.628   1.608
 9254SOL    HW128661   5.578   3.562   1.540
 9254SOL    HW228662   5.588   3.721   1.578
 9255SOL     OW28663   6.359   4.348   0.671
 9255SOL    HW128664   6.451   4.329   0.705
 9255SOL    HW228665   6.295   4.280   0.709
 9256SOL     OW28666   4.498   4.727   1.536
 9256SOL    HW128667   4.526   4.753   1.628
 9256SOL    HW228668   4.426   4.788   1.504
 9257SOL     OW28669   0.914   4.063   1.240
 9257SOL    HW128670   0.858   4.076   1.158
 9257SOL    HW228671   0.861   4.014   1.309
 9258SOL     OW28672   4.111   3.773   3.882
 9258SOL    HW128673   4.114   3.820   3.794
 9258SOL    HW228674   4.053   3.824   3.945
 9259SOL     OW28675   0.775   3.057   6.852
 9259SOL    HW128676   0.846   3.124   6.874
 9259SOL    HW228677   0.815   2.982   6.799
 9260SOL     OW28678   5.557   3.702   6.656
 9260SOL    HW128679   5.574   3.724   6.560
 9260SOL    HW228680   5.576   3.605   6.672
 9261SOL     OW28681   4.708   0.134   6.965
 9261SOL    HW128682   4.690   0.231   6.979
 9261SOL    HW228683   4.807   0.119   6.955
 9262SOL     OW28684   4.613   1.265   5.126
 9262SOL    HW128685   4.602   1.184   5.068
 9262SOL    HW228686   4.679   1.245   5.199
 9263SOL     OW28687   5.376   3.833   1.767
 9263SOL    HW128688   5.393   3.912   1.825
 9263SOL    HW228689   5.399   3.749   1.817
 9264SOL     OW28690   6.310   3.584   0.225
 9264SOL    HW128691   6.347   3.644   0.297
 9264SOL    HW228692   6.385   3.541   0.175
 9265SOL     OW28693   1.799   0.671   5.783
 9265SOL    HW128694   1.721   0.701   5.727
 9265SOL    HW228695   1.870   0.742   5.782
 9266SOL     OW28696   2.066   6.348   2.387
 9266SOL    HW128697   2.060   6.252   2.363
 9266SOL    HW228698   2.115   6.398   2.316
 9267SOL     OW28699   2.623   5.079   5.247
 9267SOL    HW128700   2.677   5.006   5.207
 9267SOL    HW228701   2.581   5.134   5.174
 9268SOL     OW28702   7.014   0.908   2.658
 9268SOL    HW128703   0.032   0.945   2.577
 9268SOL    HW228704   0.046   0.922   2.738
 9269SOL     OW28705   3.563   1.172   5.757
 9269SOL    HW128706   3.629   1.106   5.792
 9269SOL    HW228707   3.583   1.190   5.660
 9270SOL     OW28708   0.286   6.986   5.855
 9270SOL    HW128709   0.235   6.992   5.769
 9270SOL    HW228710   0.275   6.895   5.895
 9271SOL     OW28711   1.313   4.998   0.067
 9271SOL    HW128712   1.404   4.985   0.106
 9271SOL    HW228713   1.245   4.956   0.126
 9272SOL     OW28714   2.543   4.524   6.632
 9272SOL    HW128715   2.471   4.484   6.687
 9272SOL    HW228716   2.577   4.607   6.676
 9273SOL     OW28717   3.679   6.216   5.307
 9273SOL    HW128718   3.764   6.259   5.278
 9273SOL    HW228719   3.694   6.167   5.393
 9274SOL     OW28720   5.877   2.001   0.555
 9274SOL    HW128721   5.954   1.937   0.557
 9274SOL    HW228722   5.799   1.959   0.602
 9275SOL     OW28723   1.311   0.352   6.300
 9275SOL    HW128724   1.384   0.298   6.260
 9275SOL    HW228725   1.288   0.316   6.390
 9276SOL     OW28726   4.514   6.459   4.825
 9276SOL    HW128727   4.424   6.471   4.784
 9276SOL    HW228728   4.537   6.362   4.825
 9277SOL     OW28729   3.507   2.773   0.887
 9277SOL    HW128730   3.555   2.724   0.960
 9277SOL    HW228731   3.457   2.708   0.830
 9278SOL     OW28732   1.240   2.155   1.799
 9278SOL    HW128733   1.218   2.058   1.786
 9278SOL    HW228734   1.229   2.203   1.712
 9279SOL     OW28735   3.542   0.002   1.550
 9279SOL    HW128736   3.473   6.956   1.550
 9279SOL    HW228737   3.630   6.991   1.522
 9280SOL     OW28738   2.193   0.220   3.138
 9280SOL    HW128739   2.203   0.302   3.081
 9280SOL    HW228740   2.161   0.144   3.082
 9281SOL     OW28741   1.795   2.416   0.234
 9281SOL    HW128742   1.774   2.466   0.318
 9281SOL    HW228743   1.746   2.329   0.234
 9282SOL     OW28744   4.432   1.987   6.337
 9282SOL    HW128745   4.337   1.966   6.317
 9282SOL    HW228746   4.445   1.993   6.436
 9283SOL     OW28747   5.710   2.532   2.238
 9283SOL    HW128748   5.621   2.540   2.281
 9283SOL    HW228749   5.763   2.615   2.254
 9284SOL     OW28750   3.007   3.377   1.616
 9284SOL    HW128751   2.933   3.324   1.574
 9284SOL    HW228752   3.095   3.338   1.589
 9285SOL     OW28753   5.981   2.955   6.977
 9285SOL    HW128754   5.902   2.949   0.011
 9285SOL    HW228755   6.022   3.046   6.985
 9286SOL     OW28756   5.330   6.464   5.676
 9286SOL    HW128757   5.317   6.388   5.740
 9286SOL    HW228758   5.347   6.427   5.584
 9287SOL     OW28759   3.156   6.362   1.815
 9287SOL    HW128760   3.210   6.351   1.732
 9287SOL    HW228761   3.190   6.441   1.867
 9288SOL     OW28762   4.805   2.433   6.215
 9288SOL    HW128763   4.709   2.406   6.211
 9288SOL    HW228764   4.811   2.529   6.242
 9289SOL     OW28765   4.909   3.076   3.114
 9289SOL    HW128766   4.825   3.028   3.140
 9289SOL    HW228767   4.940   3.133   3.190
 9290SOL     OW28768   4.672   2.091   5.190
 9290SOL    HW128769   4.677   1.993   5.211
 9290SOL    HW228770   4.749   2.117   5.132
 9291SOL     OW28771   0.608   2.141   5.344
 9291SOL    HW128772   0.646   2.180   5.427
 9291SOL    HW228773   0.682   2.119   5.280
 9292SOL     OW28774   6.824   3.822   6.842
 9292SOL    HW128775   6.756   3.757   6.807
 9292SOL    HW228776   6.914   3.796   6.809
 9293SOL     OW28777   5.302   4.216   6.898
 9293SOL    HW128778   5.331   4.302   6.940
 9293SOL    HW228779   5.381   4.172   6.855
 9294SOL     OW28780   6.100   6.081   0.188
 9294SOL    HW128781   6.153   5.996   0.186
 9294SOL    HW228782   6.162   6.159   0.178
 9295SOL     OW28783   4.699   1.908   3.777
 9295SOL    HW128784   4.745   1.945   3.857
 9295SOL    HW228785   4.650   1.980   3.729
 9296SOL     OW28786   6.001   0.297   5.523
 9296SOL    HW128787   6.085   0.242   5.530
 9296SOL    HW228788   6.025   0.392   5.507
 9297SOL     OW28789   0.669   1.014   0.590
 9297SOL    HW128790   0.730   0.941   0.558
 9297SOL    HW228791   0.595   1.027   0.525
 9298SOL     OW28792   0.964   6.452   4.614
 9298SOL    HW128793   0.960   6.359   4.650
 9298SOL    HW228794   0.997   6.449   4.519
 9299SOL     OW28795   2.210   3.108   4.474
 9299SOL    HW128796   2.180   3.012   4.475
 9299SOL    HW228797   2.296   3.116   4.525
 9300SOL     OW28798   5.600   4.552   4.566
 9300SOL    HW128799   5.689   4.522   4.531
 9300SOL    HW228800   5.528   4.528   4.500
 9301SOL     OW28801   5.524   4.190   2.656
 9301SOL    HW128802   5.579   4.132   2.716
 9301SOL    HW228803   5.491   4.269   2.708
 9302SOL     OW28804   2.024   1.826   2.335
 9302SOL    HW128805   2.009   1.905   2.276
 9302SOL    HW228806   2.068   1.856   2.420
 9303SOL     OW28807   3.666   5.319   0.681
 9303SOL    HW128808   3.760   5.285   0.669
 9303SOL    HW228809   3.602   5.257   0.636
 9304SOL     OW28810   4.178   3.184   1.052
 9304SOL    HW128811   4.146   3.092   1.028
 9304SOL    HW228812   4.272   3.196   1.017
 9305SOL     OW28813   5.517   2.835   2.447
 9305SOL    HW128814   5.495   2.744   2.413
 9305SOL    HW228815   5.584   2.828   2.521
 9306SOL     OW28816   6.792   4.307   3.881
 9306SOL    HW128817   6.742   4.385   3.918
 9306SOL    HW228818   6.768   4.293   3.785
 9307SOL     OW28819   1.940   1.376   6.528
 9307SOL    HW128820   1.970   1.291   6.570
 9307SOL    HW228821   1.933   1.447   6.598
 9308SOL     OW28822   6.659   2.949   1.056
 9308SOL    HW128823   6.736   2.905   1.102
 9308SOL    HW228824   6.664   3.048   1.070
 9309SOL     OW28825   4.620   3.434   6.834
 9309SOL    HW128826   4.548   3.501   6.820
 9309SOL    HW228827   4.707   3.481   6.850
 9310SOL     OW28828   3.988   5.766   0.360
 9310SOL    HW128829   3.990   5.779   0.261
 9310SOL    HW228830   4.058   5.823   0.403
 9311SOL     OW28831   6.100   2.965   0.898
 9311SOL    HW128832   6.155   3.017   0.963
 9311SOL    HW228833   6.082   3.020   0.816
 9312SOL     OW28834   1.283   4.631   5.937
 9312SOL    HW128835   1.365   4.633   5.994
 9312SOL    HW228836   1.213   4.690   5.978
 9313SOL     OW28837   6.235   6.658   2.696
 9313SOL    HW128838   6.262   6.745   2.656
 9313SOL    HW228839   6.317   6.602   2.713
 9314SOL     OW28840   5.297   4.708   0.038
 9314SOL    HW128841   5.242   4.760   0.103
 9314SOL    HW228842   5.240   4.640   7.018
 9315SOL     OW28843   6.720   6.538   6.372
 9315SOL    HW128844   6.638   6.481   6.380
 9315SOL    HW228845   6.801   6.482   6.380
 9316SOL     OW28846   3.694   5.882   4.027
 9316SOL    HW128847   3.626   5.902   4.096
 9316SOL    HW228848   3.757   5.960   4.018
 9317SOL     OW28849   6.093   4.331   4.436
 9317SOL    HW128850   6.098   4.365   4.530
 9317SOL    HW228851   6.008   4.363   4.394
 9318SOL     OW28852   6.640   6.990   6.402
 9318SOL    HW128853   6.669   0.059   6.393
 9318SOL    HW228854   6.717   6.930   6.380
 9319SOL     OW28855   0.150   3.082   4.745
 9319SOL    HW128856   0.063   3.063   4.700
 9319SOL    HW228857   0.155   3.032   4.831
 9320SOL     OW28858   4.921   2.595   6.481
 9320SOL    HW128859   4.844   2.606   6.418
 9320SOL    HW228860   5.005   2.579   6.429
 9321SOL     OW28861   6.652   5.657   3.192
 9321SOL    HW128862   6.651   5.739   3.135
 9321SOL    HW228863   6.597   5.673   3.275
 9322SOL     OW28864   0.636   6.478   0.059
 9322SOL    HW128865   0.694   6.527   0.124
 9322SOL    HW228866   0.630   6.381   0.085
 9323SOL     OW28867   6.868   1.552   5.886
 9323SOL    HW128868   6.933   1.517   5.954
 9323SOL    HW228869   6.889   1.648   5.866
 9324SOL     OW28870   1.554   5.889   7.006
 9324SOL    HW128871   1.548   5.828   6.928
 9324SOL    HW228872   1.650   5.901   0.005
 9325SOL     OW28873   6.651   2.546   1.049
 9325SOL    HW128874   6.684   2.463   1.093
 9325SOL    HW228875   6.619   2.611   1.119
 9326SOL     OW28876   2.495   6.245   1.179
 9326SOL    HW128877   2.541   6.277   1.261
 9326SOL    HW228878   2.551   6.175   1.135
 9327SOL     OW28879   4.045   1.146   3.092
 9327SOL    HW128880   4.117   1.108   3.034
 9327SOL    HW228881   4.079   1.156   3.186
 9328SOL     OW28882   3.166   0.695   2.120
 9328SOL    HW128883   3.076   0.658   2.096
 9328SOL    HW228884   3.156   0.760   2.195
 9329SOL     OW28885   1.272   3.627   1.635
 9329SOL    HW128886   1.267   3.602   1.538
 9329SOL    HW228887   1.362   3.604   1.671
 9330SOL     OW28888   5.755   0.515   0.158
 9330SOL    HW128889   5.757   0.458   0.239
 9330SOL    HW228890   5.661   0.521   0.123
 9331SOL     OW28891   0.785   1.086   6.757
 9331SOL    HW128892   0.817   0.993   6.776
 9331SOL    HW228893   0.700   1.103   6.807
 9332SOL     OW28894   3.556   3.839   4.355
 9332SOL    HW128895   3.592   3.859   4.446
 9332SOL    HW228896   3.570   3.743   4.333
 9333SOL     OW28897   5.797   5.370   0.959
 9333SOL    HW128898   5.773   5.273   0.952
 9333SOL    HW228899   5.732   5.424   0.904
 9334SOL     OW28900   3.220   6.858   4.897
 9334SOL    HW128901   3.158   6.795   4.942
 9334SOL    HW228902   3.175   6.900   4.818
 9335SOL     OW28903   0.910   0.747   0.963
 9335SOL    HW128904   0.922   0.846   0.970
 9335SOL    HW228905   0.924   0.705   1.053
 9336SOL     OW28906   3.531   6.703   5.554
 9336SOL    HW128907   3.532   6.731   5.650
 9336SOL    HW228908   3.494   6.777   5.498
 9337SOL     OW28909   5.097   0.139   2.836
 9337SOL    HW128910   5.165   0.166   2.905
 9337SOL    HW228911   5.090   0.039   2.834
 9338SOL     OW28912   3.649   0.282   1.444
 9338SOL    HW128913   3.724   0.323   1.496
 9338SOL    HW228914   3.599   0.218   1.502
 9339SOL     OW28915   4.320   6.050   0.961
 9339SOL    HW128916   4.256   6.063   0.885
 9339SOL    HW228917   4.395   5.990   0.932
 9340SOL     OW28918   5.806   3.481   0.618
 9340SOL    HW128919   5.843   3.504   0.528
 9340SOL    HW228920   5.828   3.386   0.641
 9341SOL     OW28921   6.997   5.087   5.844
 9341SOL    HW128922   6.990   5.173   5.896
 9341SOL    HW228923   6.994   5.010   5.907
 9342SOL     OW28924   1.242   6.073   5.897
 9342SOL    HW128925   1.298   5.992   5.916
 9342SOL    HW228926   1.191   6.098   5.979
 9343SOL     OW28927   6.507   5.575   4.789
 9343SOL    HW128928   6.472   5.482   4.778
 9343SOL    HW228929   6.517   5.618   4.699
 9344SOL     OW28930   4.942   6.829   1.502
 9344SOL    HW128931   4.874   6.792   1.438
 9344SOL    HW228932   4.949   6.769   1.581
 9345SOL     OW28933   6.874   2.897   0.631
 9345SOL    HW128934   6.788   2.898   0.683
 9345SOL    HW228935   6.932   2.822   0.663
 9346SOL     OW28936   6.172   0.348   0.150
 9346SOL    HW128937   6.114   0.330   0.070
 9346SOL    HW228938   6.244   0.278   0.154
 9347SOL     OW28939   1.465   6.266   2.021
 9347SOL    HW128940   1.398   6.195   2.002
 9347SOL    HW228941   1.548   6.249   1.968
 9348SOL     OW28942   2.962   4.674   7.020
 9348SOL    HW128943   2.939   4.702   6.927
 9348SOL    HW228944   3.050   4.714   0.020
 9349SOL     OW28945   1.981   6.441   2.616
 9349SOL    HW128946   1.899   6.494   2.598
 9349SOL    HW228947   2.016   6.404   2.530
 9350SOL     OW28948   0.608   2.887   5.714
 9350SOL    HW128949   0.527   2.920   5.763
 9350SOL    HW228950   0.581   2.820   5.645
 9351SOL     OW28951   2.596   1.190   6.856
 9351SOL    HW128952   2.568   1.225   6.767
 9351SOL    HW228953   2.593   1.264   6.923
 9352SOL     OW28954   2.501   4.600   5.737
 9352SOL    HW128955   2.552   4.672   5.689
 9352SOL    HW228956   2.555   4.568   5.815
 9353SOL     OW28957   6.165   0.606   0.996
 9353SOL    HW128958   6.190   0.582   0.902
 9353SOL    HW228959   6.224   0.557   1.060
 9354SOL     OW28960   0.765   1.511   6.621
 9354SOL    HW128961   0.742   1.600   6.583
 9354SOL    HW228962   0.823   1.524   6.702
 9355SOL     OW28963   0.483   1.793   5.677
 9355SOL    HW128964   0.543   1.871   5.661
 9355SOL    HW228965   0.489   1.730   5.600
 9356SOL     OW28966   5.341   6.982   3.262
 9356SOL    HW128967   5.262   0.003   3.301
 9356SOL    HW228968   5.316   6.888   3.240
 9357SOL     OW28969   0.878   1.826   6.842
 9357SOL    HW128970   0.907   1.732   6.864
 9357SOL    HW228971   0.783   1.838   6.868
 9358SOL     OW28972   0.505   3.110   1.571
 9358SOL    HW128973   0.573   3.153   1.630
 9358SOL    HW228974   0.544   3.029   1.527
 9359SOL     OW28975   0.718   6.959   5.226
 9359SOL    HW128976   0.716   7.001   5.316
 9359SOL    HW228977   0.634   6.906   5.212
 9360SOL     OW28978   0.944   0.200   5.724
 9360SOL    HW128979   0.978   0.291   5.749
 9360SOL    HW228980   0.994   0.130   5.777
 9361SOL     OW28981   2.236   6.113   4.010
 9361SOL    HW128982   2.226   6.203   4.053
 9361SOL    HW228983   2.275   6.049   4.076
 9362SOL     OW28984   1.944   0.079   1.741
 9362SOL    HW128985   1.901   0.026   1.668
 9362SOL    HW228986   2.038   0.102   1.714
 9363SOL     OW28987   1.909   5.033   2.669
 9363SOL    HW128988   1.921   4.938   2.697
 9363SOL    HW228989   1.894   5.090   2.749
 9364SOL     OW28990   1.425   2.526   1.083
 9364SOL    HW128991   1.426   2.625   1.076
 9364SOL    HW228992   1.507   2.489   1.039
 9365SOL     OW28993   3.090   1.139   4.632
 9365SOL    HW128994   3.124   1.071   4.696
 9365SOL    HW228995   3.139   1.131   4.545
 9366SOL     OW28996   4.374   5.878   2.043
 9366SOL    HW128997   4.409   5.884   2.136
 9366SOL    HW228998   4.355   5.782   2.021
 9367SOL     OW28999   6.864   0.926   1.547
 9367SOL    HW129000   6.797   0.884   1.608
 9367SOL    HW229001   6.945   0.868   1.542
 9368SOL     OW29002   2.870   0.412   3.063
 9368SOL    HW129003   2.865   0.368   3.153
 9368SOL    HW229004   2.870   0.342   2.992
 9369SOL     OW29005   3.311   4.895   0.302
 9369SOL    HW129006   3.315   4.878   0.401
 9369SOL    HW229007   3.356   4.982   0.281
 9370SOL     OW29008   4.602   1.887   4.842
 9370SOL    HW129009   4.682   1.943   4.820
 9370SOL    HW229010   4.555   1.862   4.757
 9371SOL     OW29011   4.498   4.939   1.115
 9371SOL    HW129012   4.577   4.921   1.057
 9371SOL    HW229013   4.418   4.893   1.076
 9372SOL     OW29014   4.369   5.995   1.583
 9372SOL    HW129015   4.433   5.995   1.660
 9372SOL    HW229016   4.420   6.011   1.498
 9373SOL     OW29017   7.007   2.669   0.761
 9373SOL    HW129018   0.022   2.702   0.846
 9373SOL    HW229019   0.043   2.605   0.716
 9374SOL     OW29020   0.548   5.854   5.726
 9374SOL    HW129021   0.459   5.813   5.704
 9374SOL    HW229022   0.605   5.854   5.643
 9375SOL     OW29023   0.601   1.074   6.931
 9375SOL    HW129024   0.577   1.001   6.996
 9375SOL    HW229025   0.524   1.138   6.925
 9376SOL     OW29026   2.424   3.974   1.319
 9376SOL    HW129027   2.517   3.952   1.346
 9376SOL    HW229028   2.403   3.932   1.231
 9377SOL     OW29029   1.727   0.898   3.225
 9377SOL    HW129030   1.672   0.952   3.289
 9377SOL    HW229031   1.796   0.957   3.183
 9378SOL     OW29032   3.564   1.323   4.919
 9378SOL    HW129033   3.639   1.261   4.895
 9378SOL    HW229034   3.563   1.400   4.855
 9379SOL     OW29035   5.294   6.791   4.133
 9379SOL    HW129036   5.295   6.700   4.174
 9379SOL    HW229037   5.202   6.814   4.104
 9380SOL     OW29038   5.528   5.458   6.984
 9380SOL    HW129039   5.568   5.367   6.979
 9380SOL    HW229040   5.472   5.466   0.040
 9381SOL     OW29041   5.803   1.839   5.247
 9381SOL    HW129042   5.853   1.860   5.163
 9381SOL    HW229043   5.803   1.740   5.262
 9382SOL     OW29044   3.043   5.171   5.806
 9382SOL    HW129045   2.987   5.091   5.783
 9382SOL    HW229046   3.024   5.199   5.900
 9383SOL     OW29047   5.926   4.099   2.727
 9383SOL    HW129048   5.986   4.030   2.766
 9383SOL    HW229049   5.872   4.058   2.653
 9384SOL     OW29050   3.412   0.667   1.535
 9384SOL    HW129051   3.352   0.605   1.585
 9384SOL    HW229052   3.385   0.667   1.438
 9385SOL     OW29053   4.715   1.680   3.987
 9385SOL    HW129054   4.743   1.771   3.957
 9385SOL    HW229055   4.623   1.661   3.955
 9386SOL     OW29056   5.028   5.854   0.549
 9386SOL    HW129057   5.036   5.941   0.596
 9386SOL    HW229058   5.118   5.829   0.512
 9387SOL     OW29059   2.872   1.657   0.282
 9387SOL    HW129060   2.840   1.630   0.191
 9387SOL    HW229061   2.915   1.747   0.276
 9388SOL     OW29062   2.479   0.139   5.257
 9388SOL    HW129063   2.495   0.233   5.289
 9388SOL    HW229064   2.394   0.135   5.206
 9389SOL     OW29065   2.062   4.578   2.090
 9389SOL    HW129066   2.154   4.565   2.055
 9389SOL    HW229067   1.999   4.515   2.044
 9390SOL     OW29068   4.971   5.134   4.468
 9390SOL    HW129069   5.061   5.099   4.441
 9390SOL    HW229070   4.976   5.170   4.561
 9391SOL     OW29071   1.570   3.895   4.491
 9391SOL    HW129072   1.637   3.854   4.430
 9391SOL    HW229073   1.615   3.957   4.554
 9392SOL     OW29074   5.015   4.631   2.923
 9392SOL    HW129075   5.038   4.559   2.857
 9392SOL    HW229076   4.967   4.591   3.001
 9393SOL     OW29077   2.065   6.265   6.070
 9393SOL    HW129078   2.129   6.190   6.048
 9393SOL    HW229079   1.975   6.227   6.090
 9394SOL     OW29080   3.901   0.589   0.453
 9394SOL    HW129081   3.812   0.586   0.408
 9394SOL    HW229082   3.965   0.642   0.397
 9395SOL     OW29083   1.591   1.574   1.045
 9395SOL    HW129084   1.569   1.642   1.115
 9395SOL    HW229085   1.557   1.606   0.956
 9396SOL     OW29086   0.773   0.146   6.071
 9396SOL    HW129087   0.766   0.240   6.036
 9396SOL    HW229088   0.688   0.097   6.049
 9397SOL     OW29089   3.517   1.009   4.736
 9397SOL    HW129090   3.594   1.062   4.771
 9397SOL    HW229091   3.440   1.071   4.717
 9398SOL     OW29092   0.734   2.044   0.001
 9398SOL    HW129093   0.731   2.069   0.098
 9398SOL    HW229094   0.794   1.965   7.015
 9399SOL     OW29095   0.893   2.315   4.687
 9399SOL    HW129096   0.833   2.368   4.626
 9399SOL    HW229097   0.970   2.372   4.716
 9400SOL     OW29098   5.823   1.434   1.270
 9400SOL    HW129099   5.774   1.453   1.355
 9400SOL    HW229100   5.909   1.484   1.269
 9401SOL     OW29101   0.177   2.308   3.843
 9401SOL    HW129102   0.177   2.257   3.757
 9401SOL    HW229103   0.125   2.393   3.832
 9402SOL     OW29104   2.372   6.996   4.316
 9402SOL    HW129105   2.449   6.935   4.334
 9402SOL    HW229106   2.304   6.987   4.389
 9403SOL     OW29107   5.263   2.192   1.388
 9403SOL    HW129108   5.239   2.180   1.291
 9403SOL    HW229109   5.210   2.267   1.426
 9404SOL     OW29110   2.335   2.119   1.028
 9404SOL    HW129111   2.368   2.196   1.083
 9404SOL    HW229112   2.249   2.143   0.984
 9405SOL     OW29113   6.206   5.733   5.431
 9405SOL    HW129114   6.131   5.679   5.469
 9405SOL    HW229115   6.212   5.718   5.332
 9406SOL     OW29116   0.954   2.331   0.225
 9406SOL    HW129117   0.858   2.303   0.235
 9406SOL    HW229118   1.005   2.258   0.181
 9407SOL     OW29119   2.175   5.051   4.642
 9407SOL    HW129120   2.259   5.016   4.601
 9407SOL    HW229121   2.128   4.978   4.691
 9408SOL     OW29122   6.483   3.909   4.517
 9408SOL    HW129123   6.446   3.948   4.433
 9408SOL    HW229124   6.416   3.916   4.590
 9409SOL     OW29125   6.281   5.211   1.762
 9409SOL    HW129126   6.300   5.280   1.831
 9409SOL    HW229127   6.246   5.255   1.679
 9410SOL     OW29128   3.863   0.804   0.623
 9410SOL    HW129129   3.827   0.882   0.571
 9410SOL    HW229130   3.888   0.731   0.559
 9411SOL     OW29131   3.087   3.931   3.454
 9411SOL    HW129132   3.101   3.995   3.530
 9411SOL    HW229133   3.167   3.932   3.394
 9412SOL     OW29134   4.729   6.801   1.730
 9412SOL    HW129135   4.722   6.712   1.776
 9412SOL    HW229136   4.655   6.809   1.663
 9413SOL     OW29137   4.794   4.035   3.089
 9413SOL    HW129138   4.867   3.968   3.083
 9413SOL    HW229139   4.774   4.072   2.998
 9414SOL     OW29140   2.318   2.541   3.007
 9414SOL    HW129141   2.407   2.496   3.007
 9414SOL    HW229142   2.304   2.587   3.095
 9415SOL     OW29143   5.451   0.704   1.829
 9415SOL    HW129144   5.446   0.726   1.926
 9415SOL    HW229145   5.366   0.659   1.801
 9416SOL     OW29146   5.573   5.413   5.759
 9416SOL    HW129147   5.522   5.488   5.718
 9416SOL    HW229148   5.510   5.346   5.798
 9417SOL     OW29149   3.320   5.442   2.741
 9417SOL    HW129150   3.259   5.412   2.815
 9417SOL    HW229151   3.269   5.502   2.679
 9418SOL     OW29152   3.028   1.808   4.954
 9418SOL    HW129153   3.013   1.719   4.912
 9418SOL    HW229154   2.958   1.872   4.922
 9419SOL     OW29155   1.930   2.764   6.607
 9419SOL    HW129156   2.028   2.753   6.626
 9419SOL    HW229157   1.907   2.716   6.522
 9420SOL     OW29158   5.723   4.393   5.625
 9420SOL    HW129159   5.642   4.411   5.680
 9420SOL    HW229160   5.696   4.363   5.534
 9421SOL     OW29161   3.676   6.650   0.076
 9421SOL    HW129162   3.749   6.623   0.014
 9421SOL    HW229163   3.590   6.656   0.026
 9422SOL     OW29164   2.442   6.330   5.667
 9422SOL    HW129165   2.515   6.332   5.598
 9422SOL    HW229166   2.381   6.252   5.649
 9423SOL     OW29167   4.404   4.587   2.062
 9423SOL    HW129168   4.326   4.647   2.078
 9423SOL    HW229169   4.444   4.558   2.149
 9424SOL     OW29170   6.699   0.290   3.893
 9424SOL    HW129171   6.716   0.355   3.966
 9424SOL    HW229172   6.600   0.278   3.881
 9425SOL     OW29173   0.080   3.874   1.018
 9425SOL    HW129174   0.117   3.828   0.937
 9425SOL    HW229175   0.085   3.973   1.004
 9426SOL     OW29176   5.273   3.123   6.124
 9426SOL    HW129177   5.276   3.026   6.101
 9426SOL    HW229178   5.326   3.139   6.208
 9427SOL     OW29179   4.706   4.104   2.848
 9427SOL    HW129180   4.621   4.069   2.809
 9427SOL    HW229181   4.780   4.093   2.782
 9428SOL     OW29182   1.127   6.193   5.669
 9428SOL    HW129183   1.122   6.293   5.662
 9428SOL    HW229184   1.160   6.167   5.759
 9429SOL     OW29185   2.473   2.440   3.994
 9429SOL    HW129186   2.540   2.470   3.926
 9429SOL    HW229187   2.433   2.353   3.966
 9430SOL     OW29188   1.643   1.602   4.047
 9430SOL    HW129189   1.646   1.538   3.970
 9430SOL    HW229190   1.694   1.564   4.124
 9431SOL     OW29191   0.799   4.531   5.640
 9431SOL    HW129192   0.790   4.451   5.580
 9431SOL    HW229193   0.713   4.583   5.639
 9432SOL     OW29194   6.816   1.060   4.399
 9432SOL    HW129195   6.827   1.110   4.313
 9432SOL    HW229196   6.826   1.123   4.476
 9433SOL     OW29197   4.668   5.187   1.838
 9433SOL    HW129198   4.729   5.200   1.917
 9433SOL    HW229199   4.656   5.089   1.821
 9434SOL     OW29200   4.130   5.696   3.793
 9434SOL    HW129201   4.094   5.704   3.700
 9434SOL    HW229202   4.201   5.765   3.807
 9435SOL     OW29203   6.298   3.731   0.971
 9435SOL    HW129204   6.386   3.696   1.003
 9435SOL    HW229205   6.226   3.665   0.995
 9436SOL     OW29206   2.778   0.809   3.364
 9436SOL    HW129207   2.836   0.888   3.344
 9436SOL    HW229208   2.835   0.734   3.399
 9437SOL     OW29209   5.385   0.596   4.883
 9437SOL    HW129210   5.404   0.549   4.970
 9437SOL    HW229211   5.289   0.626   4.882
 9438SOL     OW29212   4.890   0.234   2.694
 9438SOL    HW129213   4.953   0.219   2.770
 9438SOL    HW229214   4.804   0.185   2.712
 9439SOL     OW29215   1.825   3.887   0.846
 9439SOL    HW129216   1.862   3.794   0.851
 9439SOL    HW229217   1.898   3.953   0.864
 9440SOL     OW29218   1.548   5.556   3.767
 9440SOL    HW129219   1.545   5.562   3.866
 9440SOL    HW229220   1.643   5.557   3.736
 9441SOL     OW29221   0.365   6.622   4.448
 9441SOL    HW129222   0.457   6.593   4.474
 9441SOL    HW229223   0.302   6.602   4.523
 9442SOL     OW29224   5.745   3.292   1.033
 9442SOL    HW129225   5.655   3.335   1.044
 9442SOL    HW229226   5.779   3.263   1.122
 9443SOL     OW29227   2.017   4.359   1.689
 9443SOL    HW129228   2.086   4.292   1.664
 9443SOL    HW229229   2.059   4.449   1.703
 9444SOL     OW29230   2.067   4.746   6.764
 9444SOL    HW129231   1.980   4.795   6.776
 9444SOL    HW229232   2.061   4.686   6.684
 9445SOL     OW29233   0.160   1.582   4.257
 9445SOL    HW129234   0.167   1.676   4.292
 9445SOL    HW229235   0.104   1.582   4.174
 9446SOL     OW29236   6.426   3.892   4.955
 9446SOL    HW129237   6.377   3.896   5.042
 9446SOL    HW229238   6.498   3.961   4.954
 9447SOL     OW29239   4.908   4.916   2.106
 9447SOL    HW129240   4.902   4.853   2.184
 9447SOL    HW229241   4.874   4.870   2.024
 9448SOL     OW29242   6.137   2.450   6.609
 9448SOL    HW129243   6.159   2.359   6.643
 9448SOL    HW229244   6.123   2.512   6.686
 9449SOL     OW29245   5.399   7.006   2.233
 9449SOL    HW129246   5.491   0.005   2.202
 9449SOL    HW229247   5.404   6.980   2.330
 9450SOL     OW29248   1.194   0.186   3.414
 9450SOL    HW129249   1.289   0.198   3.384
 9450SOL    HW229250   1.177   0.245   3.493
 9451SOL     OW29251   3.929   5.118   0.140
 9451SOL    HW129252   3.953   5.029   0.180
 9451SOL    HW229253   3.833   5.138   0.160
 9452SOL     OW29254   6.323   3.986   6.423
 9452SOL    HW129255   6.364   3.905   6.467
 9452SOL    HW229256   6.296   4.051   6.494
 9453SOL     OW29257   5.394   4.548   1.594
 9453SOL    HW129258   5.330   4.471   1.601
 9453SOL    HW229259   5.459   4.545   1.670
 9454SOL     OW29260   6.476   4.955   0.548
 9454SOL    HW129261   6.402   4.997   0.495
 9454SOL    HW229262   6.550   4.928   0.487
 9455SOL     OW29263   4.326   0.814   1.398
 9455SOL    HW129264   4.305   0.907   1.430
 9455SOL    HW229265   4.241   0.763   1.388
 9456SOL     OW29266   6.441   2.209   3.131
 9456SOL    HW129267   6.427   2.166   3.042
 9456SOL    HW229268   6.503   2.152   3.186
 9457SOL     OW29269   6.618   6.253   4.491
 9457SOL    HW129270   6.580   6.338   4.454
 9457SOL    HW229271   6.588   6.176   4.436
 9458SOL     OW29272   5.811   4.252   0.291
 9458SOL    HW129273   5.727   4.197   0.298
 9458SOL    HW229274   5.802   4.317   0.216
 9459SOL     OW29275   4.692   4.241   4.883
 9459SOL    HW129276   4.683   4.185   4.966
 9459SOL    HW229277   4.640   4.326   4.894
 9460SOL     OW29278   1.057   2.904   2.146
 9460SOL    HW129279   1.033   2.832   2.081
 9460SOL    HW229280   1.119   2.866   2.215
 9461SOL     OW29281   1.897   1.351   1.824
 9461SOL    HW129282   1.943   1.311   1.745
 9461SOL    HW229283   1.859   1.278   1.881
 9462SOL     OW29284   6.716   1.118   5.374
 9462SOL    HW129285   6.673   1.154   5.291
 9462SOL    HW229286   6.792   1.058   5.349
 9463SOL     OW29287   6.775   4.032   0.233
 9463SOL    HW129288   6.723   4.042   0.318
 9463SOL    HW229289   6.730   4.084   0.160
 9464SOL     OW29290   1.360   0.567   1.390
 9464SOL    HW129291   1.443   0.619   1.370
 9464SOL    HW229292   1.284   0.630   1.404
 9465SOL     OW29293   7.002   5.760   0.470
 9465SOL    HW129294   6.937   5.823   0.510
 9465SOL    HW229295   6.990   5.669   0.510
 9466SOL     OW29296   4.447   3.559   5.327
 9466SOL    HW129297   4.418   3.464   5.328
 9466SOL    HW229298   4.534   3.567   5.278
 9467SOL     OW29299   0.992   3.523   1.075
 9467SOL    HW129300   0.956   3.435   1.106
 9467SOL    HW229301   0.930   3.596   1.103
 9468SOL     OW29302   5.840   1.398   0.910
 9468SOL    HW129303   5.748   1.435   0.913
 9468SOL    HW229304   5.843   1.312   0.960
 9469SOL     OW29305   6.733   6.878   1.441
 9469SOL    HW129306   6.655   6.904   1.497
 9469SOL    HW229307   6.704   6.867   1.346
 9470SOL     OW29308   3.617   3.141   0.364
 9470SOL    HW129309   3.524   3.171   0.381
 9470SOL    HW229310   3.621   3.041   0.362
 9471SOL     OW29311   6.405   2.568   5.055
 9471SOL    HW129312   6.321   2.560   5.001
 9471SOL    HW229313   6.477   2.608   4.998
 9472SOL     OW29314   1.589   3.735   5.439
 9472SOL    HW129315   1.496   3.752   5.409
 9472SOL    HW229316   1.594   3.743   5.539
 9473SOL     OW29317   2.779   3.277   1.171
 9473SOL    HW129318   2.776   3.291   1.270
 9473SOL    HW229319   2.849   3.210   1.149
 9474SOL     OW29320   5.575   4.384   0.926
 9474SOL    HW129321   5.616   4.442   0.996
 9474SOL    HW229322   5.611   4.291   0.934
 9475SOL     OW29323   4.914   3.927   5.812
 9475SOL    HW129324   4.935   3.884   5.725
 9475SOL    HW229325   4.815   3.936   5.822
 9476SOL     OW29326   4.402   3.698   1.232
 9476SOL    HW129327   4.455   3.632   1.179
 9476SOL    HW229328   4.460   3.738   1.303
 9477SOL     OW29329   2.761   4.456   1.066
 9477SOL    HW129330   2.675   4.497   1.097
 9477SOL    HW229331   2.783   4.377   1.123
 9478SOL     OW29332   5.724   4.186   6.423
 9478SOL    HW129333   5.745   4.259   6.488
 9478SOL    HW229334   5.647   4.131   6.459
 9479SOL     OW29335   4.586   0.879   1.988
 9479SOL    HW129336   4.660   0.914   2.045
 9479SOL    HW229337   4.552   0.952   1.928
 9480SOL     OW29338   5.642   0.756   0.445
 9480SOL    HW129339   5.681   0.665   0.436
 9480SOL    HW229340   5.674   0.814   0.370
 9481SOL     OW29341   4.606   0.619   3.278
 9481SOL    HW129342   4.537   0.657   3.339
 9481SOL    HW229343   4.565   0.547   3.222
 9482SOL     OW29344   6.215   5.440   6.001
 9482SOL    HW129345   6.226   5.342   5.986
 9482SOL    HW229346   6.161   5.455   6.084
 9483SOL     OW29347   6.373   6.488   7.000
 9483SOL    HW129348   6.296   6.430   7.025
 9483SOL    HW229349   6.402   6.541   0.054
 9484SOL     OW29350   3.130   5.651   4.479
 9484SOL    HW129351   3.040   5.618   4.508
 9484SOL    HW229352   3.201   5.590   4.512
 9485SOL     OW29353   0.186   1.636   5.725
 9485SOL    HW129354   0.238   1.627   5.810
 9485SOL    HW229355   0.249   1.634   5.648
 9486SOL     OW29356   6.347   5.365   6.950
 9486SOL    HW129357   6.386   5.373   0.015
 9486SOL    HW229358   6.415   5.394   6.883
 9487SOL     OW29359   3.588   3.658   3.753
 9487SOL    HW129360   3.500   3.613   3.741
 9487SOL    HW229361   3.591   3.742   3.699
 9488SOL     OW29362   1.604   0.695   1.324
 9488SOL    HW129363   1.686   0.746   1.351
 9488SOL    HW229364   1.622   0.648   1.237
 9489SOL     OW29365   5.619   3.798   0.202
 9489SOL    HW129366   5.578   3.842   0.282
 9489SOL    HW229367   5.549   3.786   0.131
 9490SOL     OW29368   5.732   3.752   5.146
 9490SOL    HW129369   5.636   3.724   5.150
 9490SOL    HW229370   5.765   3.744   5.052
 9491SOL     OW29371   5.818   0.333   2.779
 9491SOL    HW129372   5.738   0.377   2.739
 9491SOL    HW229373   5.896   0.341   2.716
 9492SOL     OW29374   4.852   2.664   3.718
 9492SOL    HW129375   4.787   2.706   3.782
 9492SOL    HW229376   4.941   2.655   3.763
 9493SOL     OW29377   3.629   6.261   1.521
 9493SOL    HW129378   3.606   6.341   1.576
 9493SOL    HW229379   3.544   6.216   1.491
 9494SOL     OW29380   5.489   2.400   1.926
 9494SOL    HW129381   5.458   2.495   1.937
 9494SOL    HW229382   5.412   2.344   1.893
 9495SOL     OW29383   5.593   3.018   1.039
 9495SOL    HW129384   5.582   3.000   0.942
 9495SOL    HW229385   5.592   3.117   1.055
 9496SOL     OW29386   5.917   2.576   1.204
 9496SOL    HW129387   5.883   2.668   1.185
 9496SOL    HW229388   5.922   2.563   1.303
 9497SOL     OW29389   4.439   4.980   4.934
 9497SOL    HW129390   4.360   5.041   4.941
 9497SOL    HW229391   4.446   4.946   4.840
 9498SOL     OW29392   0.684   5.735   4.713
 9498SOL    HW129393   0.628   5.762   4.791
 9498SOL    HW229394   0.667   5.639   4.690
 9499SOL     OW29395   5.707   6.043   4.272
 9499SOL    HW129396   5.614   6.073   4.294
 9499SOL    HW229397   5.773   6.113   4.302
 9500SOL     OW29398   3.097   1.414   0.618
 9500SOL    HW129399   3.117   1.511   0.604
 9500SOL    HW229400   3.010   1.405   0.667
 9501SOL     OW29401   2.161   4.031   5.282
 9501SOL    HW129402   2.185   4.094   5.355
 9501SOL    HW229403   2.233   4.031   5.212
 9502SOL     OW29404   5.453   4.711   3.981
 9502SOL    HW129405   5.493   4.656   3.907
 9502SOL    HW229406   5.401   4.787   3.942
 9503SOL     OW29407   6.140   0.755   0.287
 9503SOL    HW129408   6.053   0.741   0.239
 9503SOL    HW229409   6.166   0.671   0.334
 9504SOL     OW29410   6.301   5.591   1.636
 9504SOL    HW129411   6.323   5.632   1.724
 9504SOL    HW229412   6.212   5.625   1.605
 9505SOL     OW29413   4.391   4.427   6.286
 9505SOL    HW129414   4.303   4.471   6.268
 9505SOL    HW229415   4.465   4.491   6.266
 9506SOL     OW29416   2.945   0.864   1.016
 9506SOL    HW129417   3.008   0.786   1.018
 9506SOL    HW229418   2.998   0.949   1.012
 9507SOL     OW29419   6.022   6.845   1.995
 9507SOL    HW129420   5.964   6.791   2.056
 9507SOL    HW229421   5.970   6.922   1.958
 9508SOL     OW29422   4.554   1.130   2.604
 9508SOL    HW129423   4.587   1.196   2.672
 9508SOL    HW229424   4.475   1.081   2.640
 9509SOL     OW29425   5.379   1.191   3.818
 9509SOL    HW129426   5.313   1.118   3.801
 9509SOL    HW229427   5.469   1.151   3.838
 9510SOL     OW29428   1.672   2.578   3.086
 9510SOL    HW129429   1.698   2.547   2.995
 9510SOL    HW229430   1.625   2.666   3.079
 9511SOL     OW29431   0.598   2.017   1.230
 9511SOL    HW129432   0.630   1.943   1.289
 9511SOL    HW229433   0.636   2.005   1.138
 9512SOL     OW29434   6.385   1.700   1.695
 9512SOL    HW129435   6.442   1.647   1.632
 9512SOL    HW229436   6.331   1.766   1.642
 9513SOL     OW29437   4.675   3.895   5.271
 9513SOL    HW129438   4.650   3.802   5.247
 9513SOL    HW229439   4.592   3.949   5.288
 9514SOL     OW29440   3.692   2.856   0.368
 9514SOL    HW129441   3.734   2.823   0.453
 9514SOL    HW229442   3.760   2.907   0.315
 9515SOL     OW29443   0.971   5.720   3.529
 9515SOL    HW129444   0.886   5.763   3.560
 9515SOL    HW229445   1.007   5.771   3.450
 9516SOL     OW29446   6.781   4.050   5.930
 9516SOL    HW129447   6.802   4.127   5.870
 9516SOL    HW229448   6.682   4.042   5.940
 9517SOL     OW29449   0.220   6.742   1.242
 9517SOL    HW129450   0.205   6.700   1.152
 9517SOL    HW229451   0.228   6.670   1.311
 9518SOL     OW29452   1.180   0.838   1.332
 9518SOL    HW129453   1.119   0.912   1.306
 9518SOL    HW229454   1.257   0.833   1.268
 9519SOL     OW29455   0.891   2.468   5.494
 9519SOL    HW129456   0.824   2.515   5.436
 9519SOL    HW229457   0.930   2.533   5.559
 9520SOL     OW29458   3.862   6.902   1.484
 9520SOL    HW129459   3.958   6.882   1.503
 9520SOL    HW229460   3.814   6.818   1.459
 9521SOL     OW29461   5.062   5.392   3.558
 9521SOL    HW129462   5.135   5.340   3.602
 9521SOL    HW229463   5.089   5.487   3.551
 9522SOL     OW29464   3.362   4.971   6.792
 9522SOL    HW129465   3.373   4.873   6.806
 9522SOL    HW229466   3.368   4.992   6.695
 9523SOL     OW29467   2.580   6.668   5.504
 9523SOL    HW129468   2.546   6.665   5.598
 9523SOL    HW229469   2.550   6.753   5.461
 9524SOL     OW29470   4.694   2.539   0.906
 9524SOL    HW129471   4.681   2.557   1.004
 9524SOL    HW229472   4.607   2.513   0.865
 9525SOL     OW29473   3.864   0.349   4.508
 9525SOL    HW129474   3.798   0.275   4.519
 9525SOL    HW229475   3.897   0.351   4.414
 9526SOL     OW29476   4.815   5.929   1.661
 9526SOL    HW129477   4.805   6.005   1.725
 9526SOL    HW229478   4.800   5.963   1.568
 9527SOL     OW29479   6.826   2.128   1.007
 9527SOL    HW129480   6.859   2.221   1.025
 9527SOL    HW229481   6.737   2.133   0.961
 9528SOL     OW29482   6.771   1.346   1.660
 9528SOL    HW129483   6.856   1.299   1.686
 9528SOL    HW229484   6.712   1.282   1.611
 9529SOL     OW29485   1.278   3.378   4.851
 9529SOL    HW129486   1.295   3.370   4.949
 9529SOL    HW229487   1.259   3.287   4.813
 9530SOL     OW29488   1.547   1.860   4.107
 9530SOL    HW129489   1.499   1.900   4.030
 9530SOL    HW229490   1.584   1.770   4.080
 9531SOL     OW29491   2.808   6.524   3.703
 9531SOL    HW129492   2.853   6.446   3.661
 9531SOL    HW229493   2.875   6.579   3.752
 9532SOL     OW29494   3.240   1.394   1.683
 9532SOL    HW129495   3.209   1.487   1.699
 9532SOL    HW229496   3.172   1.329   1.720
 9533SOL     OW29497   0.691   1.466   5.106
 9533SOL    HW129498   0.748   1.506   5.035
 9533SOL    HW229499   0.662   1.537   5.170
 9534SOL     OW29500   5.747   1.740   4.374
 9534SOL    HW129501   5.844   1.764   4.365
 9534SOL    HW229502   5.739   1.655   4.426
 9535SOL     OW29503   3.075   2.136   4.521
 9535SOL    HW129504   2.983   2.125   4.484
 9535SOL    HW229505   3.074   2.207   4.592
 9536SOL     OW29506   2.780   6.150   6.353
 9536SOL    HW129507   2.693   6.199   6.360
 9536SOL    HW229508   2.816   6.159   6.259
 9537SOL     OW29509   2.786   6.759   0.651
 9537SOL    HW129510   2.693   6.724   0.656
 9537SOL    HW229511   2.797   6.834   0.717
 9538SOL     OW29512   6.042   4.095   3.257
 9538SOL    HW129513   6.091   4.025   3.310
 9538SOL    HW229514   5.950   4.062   3.235
 9539SOL     OW29515   0.426   3.891   6.836
 9539SOL    HW129516   0.349   3.878   6.774
 9539SOL    HW229517   0.438   3.808   6.891
 9540SOL     OW29518   5.003   3.152   5.632
 9540SOL    HW129519   5.043   3.186   5.546
 9540SOL    HW229520   5.067   3.089   5.676
 9541SOL     OW29521   6.913   1.690   3.480
 9541SOL    HW129522   6.830   1.743   3.500
 9541SOL    HW229523   6.935   1.698   3.383
 9542SOL     OW29524   4.584   4.482   4.334
 9542SOL    HW129525   4.543   4.506   4.422
 9542SOL    HW229526   4.540   4.534   4.261
 9543SOL     OW29527   5.153   2.564   1.718
 9543SOL    HW129528   5.067   2.607   1.689
 9543SOL    HW229529   5.159   2.569   1.818
 9544SOL     OW29530   4.273   1.187   1.312
 9544SOL    HW129531   4.323   1.209   1.396
 9544SOL    HW229532   4.216   1.106   1.327
 9545SOL     OW29533   1.202   0.276   4.657
 9545SOL    HW129534   1.178   0.289   4.561
 9545SOL    HW229535   1.132   0.316   4.716
 9546SOL     OW29536   2.322   4.875   2.014
 9546SOL    HW129537   2.253   4.880   1.942
 9546SOL    HW229538   2.361   4.966   2.029
 9547SOL     OW29539   5.783   5.390   3.243
 9547SOL    HW129540   5.788   5.451   3.322
 9547SOL    HW229541   5.727   5.310   3.265
 9548SOL     OW29542   5.365   0.203   2.646
 9548SOL    HW129543   5.322   0.293   2.643
 9548SOL    HW229544   5.296   0.133   2.632
 9549SOL     OW29545   2.515   5.654   0.251
 9549SOL    HW129546   2.514   5.750   0.224
 9549SOL    HW229547   2.531   5.646   0.349
 9550SOL     OW29548   1.751   1.292   0.351
 9550SOL    HW129549   1.759   1.226   0.425
 9550SOL    HW229550   1.742   1.244   0.264
 9551SOL     OW29551   1.691   5.382   4.927
 9551SOL    HW129552   1.646   5.452   4.871
 9551SOL    HW229553   1.716   5.304   4.870
 9552SOL     OW29554   0.482   5.151   3.618
 9552SOL    HW129555   0.478   5.057   3.654
 9552SOL    HW229556   0.545   5.154   3.540
 9553SOL     OW29557   5.330   4.870   6.335
 9553SOL    HW129558   5.283   4.796   6.287
 9553SOL    HW229559   5.365   4.837   6.422
 9554SOL     OW29560   1.774   1.668   1.278
 9554SOL    HW129561   1.702   1.658   1.346
 9554SOL    HW229562   1.802   1.577   1.246
 9555SOL     OW29563   0.024   2.738   6.207
 9555SOL    HW129564   6.957   2.714   6.180
 9555SOL    HW229565   0.081   2.657   6.202
 9556SOL     OW29566   6.740   1.207   1.001
 9556SOL    HW129567   6.650   1.249   0.987
 9556SOL    HW229568   6.795   1.267   1.060
 9557SOL     OW29569   4.898   1.545   1.918
 9557SOL    HW129570   4.828   1.600   1.962
 9557SOL    HW229571   4.985   1.554   1.967
 9558SOL     OW29572   6.382   4.147   1.397
 9558SOL    HW129573   6.419   4.232   1.358
 9558SOL    HW229574   6.431   4.069   1.360
 9559SOL     OW29575   0.317   4.143   2.546
 9559SOL    HW129576   0.336   4.241   2.552
 9559SOL    HW229577   0.237   4.128   2.487
 9560SOL     OW29578   3.998   2.233   5.184
 9560SOL    HW129579   4.031   2.238   5.278
 9560SOL    HW229580   4.029   2.313   5.133
 9561SOL     OW29581   3.240   6.347   6.022
 9561SOL    HW129582   3.226   6.424   6.084
 9561SOL    HW229583   3.270   6.381   5.933
 9562SOL     OW29584   5.879   5.126   4.449
 9562SOL    HW129585   5.793   5.176   4.454
 9562SOL    HW229586   5.876   5.060   4.374
 9563SOL     OW29587   0.536   6.632   6.895
 9563SOL    HW129588   0.574   6.573   6.966
 9563SOL    HW229589   0.467   6.693   6.935
 9564SOL     OW29590   1.559   0.653   6.068
 9564SOL    HW129591   1.555   0.729   6.004
 9564SOL    HW229592   1.648   0.651   6.113
 9565SOL     OW29593   3.587   6.012   4.656
 9565SOL    HW129594   3.531   6.073   4.712
 9565SOL    HW229595   3.531   5.937   4.622
 9566SOL     OW29596   3.164   4.811   6.144
 9566SOL    HW129597   3.257   4.807   6.107
 9566SOL    HW229598   3.123   4.720   6.141
 9567SOL     OW29599   6.171   4.939   5.001
 9567SOL    HW129600   6.264   4.958   5.031
 9567SOL    HW229601   6.118   5.024   5.000
 9568SOL     OW29602   5.032   4.059   6.060
 9568SOL    HW129603   5.021   4.029   5.965
 9568SOL    HW229604   4.947   4.102   6.092
 9569SOL     OW29605   5.584   0.080   1.824
 9569SOL    HW129606   5.525   7.026   1.825
 9569SOL    HW229607   5.614   0.098   1.730
 9570SOL     OW29608   1.311   1.443   6.776
 9570SOL    HW129609   1.347   1.497   6.852
 9570SOL    HW229610   1.345   1.350   6.781
 9571SOL     OW29611   2.669   2.162   1.021
 9571SOL    HW129612   2.653   2.161   0.923
 9571SOL    HW229613   2.593   2.208   1.067
 9572SOL     OW29614   0.421   3.752   1.038
 9572SOL    HW129615   0.403   3.677   1.102
 9572SOL    HW229616   0.501   3.730   0.983
 9573SOL     OW29617   5.069   1.325   3.067
 9573SOL    HW129618   5.051   1.334   2.969
 9573SOL    HW229619   5.127   1.400   3.098
 9574SOL     OW29620   2.714   2.244   3.422
 9574SOL    HW129621   2.640   2.310   3.414
 9574SOL    HW229622   2.676   2.156   3.452
 9575SOL     OW29623   4.005   1.498   2.969
 9575SOL    HW129624   4.085   1.465   3.020
 9575SOL    HW229625   3.930   1.432   2.978
 9576SOL     OW29626   3.966   3.040   5.477
 9576SOL    HW129627   3.959   3.138   5.497
 9576SOL    HW229628   4.019   3.027   5.393
 9577SOL     OW29629   0.919   6.024   3.578
 9577SOL    HW129630   0.857   6.065   3.512
 9577SOL    HW229631   0.882   6.034   3.670
 9578SOL     OW29632   6.762   3.977   1.468
 9578SOL    HW129633   6.766   3.905   1.538
 9578SOL    HW229634   6.845   3.973   1.413
 9579SOL     OW29635   1.854   5.194   2.993
 9579SOL    HW129636   1.782   5.158   3.052
 9579SOL    HW229637   1.938   5.142   3.008
 9580SOL     OW29638   4.218   3.536   5.710
 9580SOL    HW129639   4.259   3.615   5.664
 9580SOL    HW229640   4.132   3.562   5.752
 9581SOL     OW29641   1.130   5.791   5.499
 9581SOL    HW129642   1.045   5.755   5.537
 9581SOL    HW229643   1.204   5.726   5.515
 9582SOL     OW29644   4.653   5.324   3.298
 9582SOL    HW129645   4.624   5.417   3.320
 9582SOL    HW229646   4.752   5.315   3.313
 9583SOL     OW29647   2.091   4.617   1.720
 9583SOL    HW129648   2.029   4.695   1.718
 9583SOL    HW229649   2.184   4.649   1.742
 9584SOL     OW29650   5.087   4.858   0.107
 9584SOL    HW129651   5.139   4.936   0.073
 9584SOL    HW229652   5.007   4.842   0.048
 9585SOL     OW29653   0.126   0.885   2.901
 9585SOL    HW129654   0.163   0.951   2.967
 9585SOL    HW229655   0.099   0.801   2.950
 9586SOL     OW29656   5.266   3.562   2.653
 9586SOL    HW129657   5.273   3.532   2.558
 9586SOL    HW229658   5.170   3.579   2.675
 9587SOL     OW29659   4.975   6.164   1.368
 9587SOL    HW129660   4.877   6.156   1.388
 9587SOL    HW229661   5.020   6.212   1.443
 9588SOL     OW29662   6.589   1.059   3.244
 9588SOL    HW129663   6.497   1.081   3.276
 9588SOL    HW229664   6.618   0.971   3.281
 9589SOL     OW29665   2.868   1.959   4.737
 9589SOL    HW129666   2.850   1.887   4.671
 9589SOL    HW229667   2.902   2.040   4.690
 9590SOL     OW29668   1.037   4.959   4.546
 9590SOL    HW129669   1.024   4.987   4.641
 9590SOL    HW229670   1.125   4.913   4.537
 9591SOL     OW29671   1.333   4.277   2.637
 9591SOL    HW129672   1.373   4.266   2.728
 9591SOL    HW229673   1.235   4.296   2.646
 9592SOL     OW29674   4.723   5.728   0.972
 9592SOL    HW129675   4.785   5.697   0.900
 9592SOL    HW229676   4.770   5.721   1.061
 9593SOL     OW29677   2.311   2.090   2.996
 9593SOL    HW129678   2.377   2.139   2.938
 9593SOL    HW229679   2.312   1.993   2.971
 9594SOL     OW29680   6.033   0.295   1.069
 9594SOL    HW129681   5.998   0.202   1.057
 9594SOL    HW229682   5.966   0.360   1.036
 9595SOL     OW29683   0.962   5.739   4.753
 9595SOL    HW129684   0.878   5.741   4.700
 9595SOL    HW229685   0.981   5.645   4.782
 9596SOL     OW29686   5.144   5.733   1.904
 9596SOL    HW129687   5.074   5.669   1.935
 9596SOL    HW229688   5.109   5.827   1.909
 9597SOL     OW29689   2.667   4.378   1.388
 9597SOL    HW129690   2.757   4.401   1.352
 9597SOL    HW229691   2.598   4.434   1.341
 9598SOL     OW29692   0.417   6.104   5.533
 9598SOL    HW129693   0.510   6.094   5.569
 9598SOL    HW229694   0.365   6.021   5.550
 9599SOL     OW29695   3.705   1.895   4.986
 9599SOL    HW129696   3.753   1.810   5.007
 9599SOL    HW229697   3.637   1.878   4.915
 9600SOL     OW29698   1.443   6.656   6.476
 9600SOL    HW129699   1.479   6.678   6.385
 9600SOL    HW229700   1.347   6.631   6.469
 9601SOL     OW29701   0.712   6.510   5.270
 9601SOL    HW129702   0.617   6.495   5.296
 9601SOL    HW229703   0.769   6.438   5.309
 9602SOL     OW29704   1.535   5.116   6.253
 9602SOL    HW129705   1.580   5.034   6.289
 9602SOL    HW229706   1.537   5.188   6.321
 9603SOL     OW29707   0.993   4.720   2.353
 9603SOL    HW129708   0.992   4.651   2.280
 9603SOL    HW229709   1.009   4.810   2.313
 9604SOL     OW29710   6.985   6.993   6.557
 9604SOL    HW129711   6.927   0.032   6.605
 9604SOL    HW229712   0.028   0.015   6.504
 9605SOL     OW29713   2.788   4.704   0.937
 9605SOL    HW129714   2.747   4.623   0.980
 9605SOL    HW229715   2.814   4.769   1.008
 9606SOL     OW29716   0.048   0.147   5.269
 9606SOL    HW129717   0.079   0.053   5.253
 9606SOL    HW229718   0.124   0.210   5.258
 9607SOL     OW29719   0.239   2.085   2.544
 9607SOL    HW129720   0.212   2.150   2.616
 9607SOL    HW229721   0.254   1.995   2.585
 9608SOL     OW29722   6.479   0.903   2.266
 9608SOL    HW129723   6.519   0.812   2.279
 9608SOL    HW229724   6.380   0.895   2.253
 9609SOL     OW29725   1.800   2.233   3.554
 9609SOL    HW129726   1.794   2.203   3.459
 9609SOL    HW229727   1.863   2.174   3.604
 9610SOL     OW29728   3.691   0.918   5.251
 9610SOL    HW129729   3.658   0.831   5.287
 9610SOL    HW229730   3.734   0.970   5.324
 9611SOL     OW29731   5.341   5.930   0.878
 9611SOL    HW129732   5.348   5.929   0.978
 9611SOL    HW229733   5.408   5.867   0.839
 9612SOL     OW29734   5.411   3.537   3.677
 9612SOL    HW129735   5.338   3.602   3.700
 9612SOL    HW229736   5.402   3.455   3.733
 9613SOL     OW29737   5.703   1.059   4.847
 9613SOL    HW129738   5.789   1.051   4.798
 9613SOL    HW229739   5.646   0.979   4.826
 9614SOL     OW29740   2.720   2.489   0.596
 9614SOL    HW129741   2.703   2.502   0.693
 9614SOL    HW229742   2.810   2.526   0.572
 9615SOL     OW29743   0.720   5.768   3.629
 9615SOL    HW129744   0.668   5.683   3.633
 9615SOL    HW229745   0.657   5.845   3.617
 9616SOL     OW29746   0.958   2.572   1.132
 9616SOL    HW129747   0.864   2.547   1.156
 9616SOL    HW229748   0.974   2.553   1.035
 9617SOL     OW29749   0.375   2.939   2.485
 9617SOL    HW129750   0.425   3.023   2.505
 9617SOL    HW229751   0.379   2.920   2.387
 9618SOL     OW29752   4.847   3.775   1.627
 9618SOL    HW129753   4.774   3.807   1.567
 9618SOL    HW229754   4.891   3.854   1.671
 9619SOL     OW29755   0.430   6.869   1.328
 9619SOL    HW129756   0.495   6.794   1.315
 9619SOL    HW229757   0.341   6.843   1.290
 9620SOL     OW29758   3.610   1.280   6.734
 9620SOL    HW129759   3.561   1.194   6.720
 9620SOL    HW229760   3.544   1.353   6.752
 9621SOL     OW29761   0.036   0.755   1.415
 9621SOL    HW129762   0.094   0.834   1.434
 9621SOL    HW229763   0.070   0.708   1.333
 9622SOL     OW29764   6.297   5.785   5.728
 9622SOL    HW129765   6.344   5.703   5.761
 9622SOL    HW229766   6.285   5.779   5.629
 9623SOL     OW29767   3.194   5.849   5.469
 9623SOL    HW129768   3.126   5.917   5.496
 9623SOL    HW229769   3.285   5.892   5.468
 9624SOL     OW29770   4.282   5.691   5.735
 9624SOL    HW129771   4.220   5.649   5.669
 9624SOL    HW229772   4.230   5.724   5.814
 9625SOL     OW29773   4.552   4.409   6.578
 9625SOL    HW129774   4.631   4.468   6.559
 9625SOL    HW229775   4.497   4.399   6.495
 9626SOL     OW29776   2.728   2.430   6.257
 9626SOL    HW129777   2.733   2.468   6.349
 9626SOL    HW229778   2.798   2.472   6.199
 9627SOL     OW29779   0.201   5.751   0.746
 9627SOL    HW129780   0.145   5.670   0.728
 9627SOL    HW229781   0.183   5.820   0.676
 9628SOL     OW29782   5.697   1.043   5.921
 9628SOL    HW129783   5.792   1.076   5.918
 9628SOL    HW229784   5.696   0.945   5.938
 9629SOL     OW29785   0.567   5.540   3.657
 9629SOL    HW129786   0.483   5.555   3.709
 9629SOL    HW229787   0.544   5.498   3.569
 9630SOL     OW29788   4.973   1.379   6.227
 9630SOL    HW129789   4.947   1.452   6.290
 9630SOL    HW229790   4.968   1.291   6.274
 9631SOL     OW29791   4.467   6.255   0.543
 9631SOL    HW129792   4.558   6.257   0.583
 9631SOL    HW229793   4.433   6.348   0.533
 9632SOL     OW29794   2.389   5.130   3.142
 9632SOL    HW129795   2.376   5.131   3.241
 9632SOL    HW229796   2.300   5.123   3.097
 9633SOL     OW29797   3.667   2.972   5.121
 9633SOL    HW129798   3.683   2.982   5.219
 9633SOL    HW229799   3.639   3.060   5.082
 9634SOL     OW29800   5.411   4.649   2.920
 9634SOL    HW129801   5.492   4.685   2.967
 9634SOL    HW229802   5.329   4.689   2.961
 9635SOL     OW29803   0.474   5.055   4.198
 9635SOL    HW129804   0.403   5.036   4.131
 9635SOL    HW229805   0.436   5.108   4.274
 9636SOL     OW29806   5.965   3.786   3.937
 9636SOL    HW129807   6.051   3.767   3.983
 9636SOL    HW229808   5.918   3.862   3.983
 9637SOL     OW29809   1.359   3.441   6.867
 9637SOL    HW129810   1.315   3.528   6.886
 9637SOL    HW229811   1.456   3.447   6.889
 9638SOL     OW29812   6.290   5.185   5.812
 9638SOL    HW129813   6.339   5.144   5.735
 9638SOL    HW229814   6.218   5.246   5.778
 9639SOL     OW29815   4.843   2.171   1.565
 9639SOL    HW129816   4.823   2.178   1.468
 9639SOL    HW229817   4.758   2.170   1.618
 9640SOL     OW29818   3.577   0.256   2.975
 9640SOL    HW129819   3.589   0.337   3.034
 9640SOL    HW229820   3.526   0.186   3.025
 9641SOL     OW29821   0.202   3.016   5.009
 9641SOL    HW129822   0.214   2.918   5.025
 9641SOL    HW229823   0.292   3.061   5.009
 9642SOL     OW29824   0.432   2.734   4.903
 9642SOL    HW129825   0.380   2.665   4.953
 9642SOL    HW229826   0.436   2.708   4.806
 9643SOL     OW29827   5.834   4.821   4.765
 9643SOL    HW129828   5.826   4.814   4.865
 9643SOL    HW229829   5.759   4.772   4.722
 9644SOL     OW29830   1.551   4.754   3.841
 9644SOL    HW129831   1.487   4.777   3.768
 9644SOL    HW229832   1.544   4.821   3.915
 9645SOL     OW29833   1.357   5.100   6.527
 9645SOL    HW129834   1.407   5.069   6.608
 9645SOL    HW229835   1.362   5.029   6.456
 9646SOL     OW29836   3.134   5.440   0.447
 9646SOL    HW129837   3.157   5.382   0.524
 9646SOL    HW229838   3.192   5.522   0.448
 9647SOL     OW29839   5.755   6.771   3.006
 9647SOL    HW129840   5.777   6.688   3.058
 9647SOL    HW229841   5.814   6.776   2.925
 9648SOL     OW29842   3.003   1.926   1.330
 9648SOL    HW129843   2.933   1.974   1.277
 9648SOL    HW229844   3.063   1.875   1.267
 9649SOL     OW29845   0.535   5.556   1.247
 9649SOL    HW129846   0.504   5.564   1.342
 9649SOL    HW229847   0.458   5.532   1.188
 9650SOL     OW29848   0.706   4.908   4.798
 9650SOL    HW129849   0.694   4.862   4.710
 9650SOL    HW229850   0.803   4.915   4.819
 9651SOL     OW29851   3.687   1.834   6.738
 9651SOL    HW129852   3.627   1.769   6.691
 9651SOL    HW229853   3.702   1.803   6.832
 9652SOL     OW29854   0.295   4.231   0.400
 9652SOL    HW129855   0.390   4.204   0.417
 9652SOL    HW229856   0.234   4.167   0.445
 9653SOL     OW29857   5.015   4.452   5.672
 9653SOL    HW129858   5.102   4.499   5.686
 9653SOL    HW229859   4.976   4.482   5.584
 9654SOL     OW29860   3.680   3.748   3.161
 9654SOL    HW129861   3.770   3.736   3.201
 9654SOL    HW229862   3.681   3.825   3.097
 9655SOL     OW29863   4.663   1.574   1.229
 9655SOL    HW129864   4.721   1.514   1.175
 9655SOL    HW229865   4.719   1.636   1.283
 9656SOL     OW29866   4.628   4.162   6.703
 9656SOL    HW129867   4.557   4.232   6.694
 9656SOL    HW229868   4.718   4.205   6.696
 9657SOL     OW29869   5.152   4.503   3.595
 9657SOL    HW129870   5.081   4.433   3.597
 9657SOL    HW229871   5.231   4.472   3.647
 9658SOL     OW29872   5.586   1.637   2.788
 9658SOL    HW129873   5.678   1.662   2.756
 9658SOL    HW229874   5.521   1.647   2.712
 9659SOL     OW29875   3.319   2.945   6.785
 9659SOL    HW129876   3.247   2.903   6.730
 9659SOL    HW229877   3.393   2.880   6.799
 9660SOL     OW29878   1.605   6.350   1.103
 9660SOL    HW129879   1.651   6.420   1.049
 9660SOL    HW229880   1.533   6.308   1.049
 9661SOL     OW29881   4.156   3.260   2.122
 9661SOL    HW129882   4.231   3.206   2.159
 9661SOL    HW229883   4.151   3.249   2.023
 9662SOL     OW29884   4.746   6.689   5.743
 9662SOL    HW129885   4.736   6.591   5.762
 9662SOL    HW229886   4.680   6.740   5.798
 9663SOL     OW29887   0.871   5.579   2.762
 9663SOL    HW129888   0.943   5.552   2.826
 9663SOL    HW229889   0.909   5.638   2.692
 9664SOL     OW29890   3.352   5.134   2.655
 9664SOL    HW129891   3.367   5.188   2.738
 9664SOL    HW229892   3.386   5.184   2.576
 9665SOL     OW29893   6.568   4.570   6.491
 9665SOL    HW129894   6.587   4.481   6.532
 9665SOL    HW229895   6.544   4.635   6.563
 9666SOL     OW29896   5.388   3.644   0.896
 9666SOL    HW129897   5.463   3.634   0.830
 9666SOL    HW229898   5.390   3.736   0.935
 9667SOL     OW29899   5.458   6.548   6.888
 9667SOL    HW129900   5.401   6.527   6.968
 9667SOL    HW229901   5.459   6.469   6.827
 9668SOL     OW29902   1.751   1.004   6.347
 9668SOL    HW129903   1.658   1.037   6.333
 9668SOL    HW229904   1.769   0.994   6.444
 9669SOL     OW29905   2.916   0.379   0.029
 9669SOL    HW129906   2.981   0.392   0.104
 9669SOL    HW229907   2.962   0.334   6.979
 9670SOL     OW29908   0.710   0.575   0.835
 9670SOL    HW129909   0.785   0.632   0.867
 9670SOL    HW229910   0.666   0.530   0.914
 9671SOL     OW29911   1.289   5.263   6.232
 9671SOL    HW129912   1.344   5.186   6.200
 9671SOL    HW229913   1.348   5.342   6.245
 9672SOL     OW29914   0.953   3.808   4.143
 9672SOL    HW129915   0.858   3.782   4.159
 9672SOL    HW229916   1.013   3.734   4.171
 9673SOL     OW29917   2.457   2.583   6.643
 9673SOL    HW129918   2.360   2.569   6.627
 9673SOL    HW229919   2.498   2.627   6.564
 9674SOL     OW29920   1.617   6.909   4.022
 9674SOL    HW129921   1.653   6.946   4.108
 9674SOL    HW229922   1.687   6.852   3.979
 9675SOL     OW29923   6.163   4.470   5.940
 9675SOL    HW129924   6.237   4.476   6.007
 9675SOL    HW229925   6.166   4.381   5.896
 9676SOL     OW29926   0.467   3.527   5.325
 9676SOL    HW129927   0.454   3.452   5.390
 9676SOL    HW229928   0.432   3.499   5.235
 9677SOL     OW29929   6.856   4.978   2.561
 9677SOL    HW129930   6.777   4.924   2.590
 9677SOL    HW229931   6.932   4.916   2.540
 9678SOL     OW29932   3.662   3.269   5.540
 9678SOL    HW129933   3.620   3.206   5.605
 9678SOL    HW229934   3.734   3.321   5.587
 9679SOL     OW29935   1.371   0.958   3.973
 9679SOL    HW129936   1.433   0.958   3.895
 9679SOL    HW229937   1.296   1.022   3.956
 9680SOL     OW29938   4.577   0.631   2.611
 9680SOL    HW129939   4.662   0.662   2.567
 9680SOL    HW229940   4.600   0.561   2.679
 9681SOL     OW29941   1.346   3.233   1.272
 9681SOL    HW129942   1.359   3.329   1.244
 9681SOL    HW229943   1.249   3.215   1.286
 9682SOL     OW29944   4.914   0.159   5.838
 9682SOL    HW129945   4.953   0.157   5.930
 9682SOL    HW229946   4.926   0.070   5.795
 9683SOL     OW29947   4.164   6.187   4.151
 9683SOL    HW129948   4.231   6.184   4.077
 9683SOL    HW229949   4.133   6.282   4.164
 9684SOL     OW29950   6.961   3.488   5.925
 9684SOL    HW129951   0.030   3.458   5.931
 9684SOL    HW229952   6.947   3.566   5.985
 9685SOL     OW29953   3.318   4.764   1.758
 9685SOL    HW129954   3.375   4.693   1.802
 9685SOL    HW229955   3.222   4.749   1.782
 9686SOL     OW29956   0.354   1.552   5.919
 9686SOL    HW129957   0.439   1.604   5.913
 9686SOL    HW229958   0.328   1.542   6.015
 9687SOL     OW29959   5.671   1.256   3.778
 9687SOL    HW129960   5.723   1.258   3.693
 9687SOL    HW229961   5.658   1.349   3.811
 9688SOL     OW29962   0.184   4.777   1.565
 9688SOL    HW129963   0.217   4.858   1.517
 9688SOL    HW229964   0.113   4.803   1.631
 9689SOL     OW29965   1.681   5.581   1.224
 9689SOL    HW129966   1.731   5.548   1.304
 9689SOL    HW229967   1.675   5.507   1.156
 9690SOL     OW29968   0.490   4.471   5.318
 9690SOL    HW129969   0.570   4.412   5.305
 9690SOL    HW229970   0.469   4.519   5.233
 9691SOL     OW29971   4.044   3.551   2.080
 9691SOL    HW129972   3.966   3.508   2.033
 9691SOL    HW229973   4.116   3.483   2.093
 9692SOL     OW29974   5.202   4.535   0.320
 9692SOL    HW129975   5.144   4.616   0.329
 9692SOL    HW229976   5.195   4.479   0.403
 9693SOL     OW29977   4.779   3.270   6.072
 9693SOL    HW129978   4.824   3.228   6.151
 9693SOL    HW229979   4.727   3.350   6.101
 9694SOL     OW29980   2.908   6.078   0.942
 9694SOL    HW129981   2.872   6.114   0.856
 9694SOL    HW229982   2.908   6.151   1.011
 9695SOL     OW29983   1.150   2.957   4.068
 9695SOL    HW129984   1.088   2.884   4.096
 9695SOL    HW229985   1.239   2.943   4.112
 9696SOL     OW29986   4.781   3.039   3.382
 9696SOL    HW129987   4.811   3.134   3.372
 9696SOL    HW229988   4.860   2.981   3.403
 9697SOL     OW29989   0.346   0.610   1.449
 9697SOL    HW129990   0.425   0.553   1.472
 9697SOL    HW229991   0.370   0.707   1.460
 9698SOL     OW29992   0.122   3.797   1.728
 9698SOL    HW129993   0.075   3.798   1.816
 9698SOL    HW229994   0.198   3.732   1.732
 9699SOL     OW29995   0.755   6.006   1.872
 9699SOL    HW129996   0.707   6.081   1.826
 9699SOL    HW229997   0.692   5.956   1.931
 9700SOL     OW29998   5.474   0.746   6.187
 9700SOL    HW129999   5.548   0.813   6.187
 9700SOL    HW230000   5.421   0.755   6.103
 9701SOL     OW30001   5.184   4.034   0.306
 9701SOL    HW130002   5.190   4.018   0.207
 9701SOL    HW230003   5.264   4.086   0.336
 9702SOL     OW30004   3.544   3.824   1.595
 9702SOL    HW130005   3.573   3.853   1.686
 9702SOL    HW230006   3.540   3.904   1.534
 9703SOL     OW30007   5.731   4.899   3.343
 9703SOL    HW130008   5.810   4.960   3.342
 9703SOL    HW230009   5.682   4.908   3.430
 9704SOL     OW30010   1.401   4.037   2.525
 9704SOL    HW130011   1.386   4.117   2.583
 9704SOL    HW230012   1.498   4.031   2.502
 9705SOL     OW30013   0.366   3.497   5.712
 9705SOL    HW130014   0.428   3.427   5.677
 9705SOL    HW230015   0.418   3.579   5.737
 9706SOL     OW30016   0.598   0.799   2.360
 9706SOL    HW130017   0.667   0.834   2.296
 9706SOL    HW230018   0.556   0.716   2.323
 9707SOL     OW30019   0.703   5.294   2.377
 9707SOL    HW130020   0.766   5.287   2.454
 9707SOL    HW230021   0.689   5.203   2.337
 9708SOL     OW30022   3.034   0.371   1.827
 9708SOL    HW130023   2.935   0.363   1.818
 9708SOL    HW230024   3.067   0.444   1.767
 9709SOL     OW30025   5.117   1.652   2.048
 9709SOL    HW130026   5.125   1.750   2.031
 9709SOL    HW230027   5.198   1.620   2.097
 9710SOL     OW30028   4.957   5.088   4.932
 9710SOL    HW130029   5.037   5.095   4.992
 9710SOL    HW230030   4.970   5.146   4.852
 9711SOL     OW30031   2.790   0.797   6.764
 9711SOL    HW130032   2.839   0.721   6.807
 9711SOL    HW230033   2.821   0.883   6.804
 9712SOL     OW30034   4.801   0.725   5.575
 9712SOL    HW130035   4.856   0.703   5.656
 9712SOL    HW230036   4.860   0.764   5.505
 9713SOL     OW30037   1.960   0.068   2.755
 9713SOL    HW130038   1.881   0.125   2.775
 9713SOL    HW230039   2.029   0.123   2.708
 9714SOL     OW30040   1.923   3.212   4.483
 9714SOL    HW130041   1.956   3.306   4.492
 9714SOL    HW230042   2.001   3.152   4.464
 9715SOL     OW30043   0.151   2.842   6.472
 9715SOL    HW130044   0.100   2.909   6.527
 9715SOL    HW230045   0.095   2.814   6.394
 9716SOL     OW30046   2.776   6.318   0.731
 9716SOL    HW130047   2.757   6.282   0.640
 9716SOL    HW230048   2.872   6.343   0.738
 9717SOL     OW30049   3.755   2.408   5.749
 9717SOL    HW130050   3.845   2.401   5.792
 9717SOL    HW230051   3.735   2.323   5.700
 9718SOL     OW30052   4.072   2.596   6.754
 9718SOL    HW130053   4.081   2.513   6.700
 9718SOL    HW230054   4.140   2.663   6.723
 9719SOL     OW30055   4.711   0.154   5.641
 9719SOL    HW130056   4.682   0.248   5.658
 9719SOL    HW230057   4.755   0.117   5.723
 9720SOL     OW30058   1.842   2.088   2.529
 9720SOL    HW130059   1.793   2.067   2.614
 9720SOL    HW230060   1.779   2.130   2.464
 9721SOL     OW30061   0.570   1.704   1.236
 9721SOL    HW130062   0.634   1.652   1.180
 9721SOL    HW230063   0.573   1.670   1.330
 9722SOL     OW30064   4.245   2.349   5.380
 9722SOL    HW130065   4.177   2.412   5.342
 9722SOL    HW230066   4.210   2.309   5.464
 9723SOL     OW30067   5.931   0.421   4.842
 9723SOL    HW130068   5.888   0.509   4.827
 9723SOL    HW230069   5.876   0.367   4.906
 9724SOL     OW30070   1.420   4.638   1.319
 9724SOL    HW130071   1.325   4.629   1.350
 9724SOL    HW230072   1.469   4.554   1.338
 9725SOL     OW30073   5.224   5.437   3.896
 9725SOL    HW130074   5.316   5.455   3.861
 9725SOL    HW230075   5.191   5.518   3.946
 9726SOL     OW30076   6.507   6.899   2.629
 9726SOL    HW130077   6.476   6.805   2.641
 9726SOL    HW230078   6.563   6.905   2.546
 9727SOL     OW30079   6.021   2.889   1.301
 9727SOL    HW130080   6.084   2.813   1.318
 9727SOL    HW230081   5.993   2.889   1.205
 9728SOL     OW30082   5.550   2.255   4.309
 9728SOL    HW130083   5.585   2.174   4.356
 9728SOL    HW230084   5.597   2.267   4.222
 9729SOL     OW30085   0.511   3.607   2.755
 9729SOL    HW130086   0.514   3.605   2.655
 9729SOL    HW230087   0.490   3.700   2.786
 9730SOL     OW30088   1.008   5.729   3.220
 9730SOL    HW130089   1.047   5.818   3.194
 9730SOL    HW230090   0.910   5.729   3.201
 9731SOL     OW30091   6.432   2.918   1.414
 9731SOL    HW130092   6.372   2.885   1.487
 9731SOL    HW230093   6.403   3.010   1.386
 9732SOL     OW30094   1.611   3.157   2.751
 9732SOL    HW130095   1.526   3.204   2.725
 9732SOL    HW230096   1.625   3.078   2.691
 9733SOL     OW30097   6.078   4.905   1.907
 9733SOL    HW130098   6.036   4.874   1.992
 9733SOL    HW230099   6.009   4.911   1.835
 9734SOL     OW30100   4.333   5.360   6.515
 9734SOL    HW130101   4.313   5.350   6.418
 9734SOL    HW230102   4.367   5.453   6.532
 9735SOL     OW30103   0.423   1.934   0.164
 9735SOL    HW130104   0.341   1.979   0.198
 9735SOL    HW230105   0.448   1.858   0.225
 9736SOL     OW30106   4.856   2.644   4.950
 9736SOL    HW130107   4.820   2.724   4.998
 9736SOL    HW230108   4.928   2.673   4.887
 9737SOL     OW30109   5.788   3.098   4.421
 9737SOL    HW130110   5.749   3.069   4.334
 9737SOL    HW230111   5.813   3.195   4.416
 9738SOL     OW30112   2.711   6.337   1.460
 9738SOL    HW130113   2.748   6.394   1.387
 9738SOL    HW230114   2.637   6.386   1.506
 9739SOL     OW30115   5.936   6.791   0.397
 9739SOL    HW130116   5.897   6.824   0.483
 9739SOL    HW230117   5.889   6.707   0.369
 9740SOL     OW30118   6.351   0.657   1.874
 9740SOL    HW130119   6.343   0.617   1.782
 9740SOL    HW230120   6.383   0.751   1.867
 9741SOL     OW30121   2.705   2.375   3.147
 9741SOL    HW130122   2.701   2.437   3.069
 9741SOL    HW230123   2.662   2.418   3.226
 9742SOL     OW30124   3.723   1.996   6.287
 9742SOL    HW130125   3.713   2.063   6.360
 9742SOL    HW230126   3.636   1.947   6.275
 9743SOL     OW30127   6.618   3.485   4.379
 9743SOL    HW130128   6.680   3.439   4.317
 9743SOL    HW230129   6.670   3.544   4.441
 9744SOL     OW30130   1.924   1.736   2.673
 9744SOL    HW130131   1.884   1.663   2.729
 9744SOL    HW230132   1.862   1.758   2.598
 9745SOL     OW30133   0.202   6.777   6.055
 9745SOL    HW130134   0.107   6.801   6.071
 9745SOL    HW230135   0.261   6.834   6.113
 9746SOL     OW30136   3.426   6.122   5.729
 9746SOL    HW130137   3.462   6.214   5.747
 9746SOL    HW230138   3.328   6.121   5.745
 9747SOL     OW30139   3.592   1.715   3.822
 9747SOL    HW130140   3.544   1.736   3.737
 9747SOL    HW230141   3.610   1.617   3.827
 9748SOL     OW30142   0.487   1.279   2.268
 9748SOL    HW130143   0.436   1.195   2.291
 9748SOL    HW230144   0.580   1.271   2.301
 9749SOL     OW30145   6.989   0.767   1.935
 9749SOL    HW130146   6.940   0.680   1.925
 9749SOL    HW230147   0.056   0.756   1.901
 9750SOL     OW30148   5.631   2.626   5.679
 9750SOL    HW130149   5.588   2.679   5.752
 9750SOL    HW230150   5.586   2.538   5.670
 9751SOL     OW30151   3.106   6.745   1.278
 9751SOL    HW130152   3.075   6.772   1.188
 9751SOL    HW230153   3.036   6.688   1.322
 9752SOL     OW30154   3.057   3.075   0.646
 9752SOL    HW130155   3.095   3.008   0.581
 9752SOL    HW230156   2.973   3.038   0.686
 9753SOL     OW30157   6.903   5.707   3.783
 9753SOL    HW130158   6.953   5.666   3.859
 9753SOL    HW230159   6.919   5.654   3.699
 9754SOL     OW30160   3.367   0.956   2.083
 9754SOL    HW130161   3.385   1.035   2.142
 9754SOL    HW230162   3.406   0.874   2.126
 9755SOL     OW30163   3.672   3.638   0.245
 9755SOL    HW130164   3.662   3.713   0.311
 9755SOL    HW230165   3.672   3.675   0.152
 9756SOL     OW30166   5.532   0.570   5.884
 9756SOL    HW130167   5.511   0.506   5.958
 9756SOL    HW230168   5.520   0.525   5.796
 9757SOL     OW30169   5.394   3.570   4.331
 9757SOL    HW130170   5.303   3.613   4.329
 9757SOL    HW230171   5.404   3.510   4.252
 9758SOL     OW30172   2.753   0.694   2.400
 9758SOL    HW130173   2.818   0.626   2.434
 9758SOL    HW230174   2.792   0.740   2.321
 9759SOL     OW30175   6.670   2.074   1.257
 9759SOL    HW130176   6.738   2.092   1.187
 9759SOL    HW230177   6.581   2.110   1.228
 9760SOL     OW30178   4.414   0.311   6.718
 9760SOL    HW130179   4.346   0.337   6.650
 9760SOL    HW230180   4.480   0.248   6.677
 9761SOL     OW30181   0.783   2.512   1.387
 9761SOL    HW130182   0.695   2.466   1.385
 9761SOL    HW230183   0.793   2.562   1.473
 9762SOL     OW30184   3.124   0.981   5.826
 9762SOL    HW130185   3.157   0.890   5.854
 9762SOL    HW230186   3.183   1.017   5.754
 9763SOL     OW30187   6.878   2.826   1.173
 9763SOL    HW130188   6.899   2.897   1.240
 9763SOL    HW230189   6.874   2.738   1.219
 9764SOL     OW30190   0.797   2.586   2.575
 9764SOL    HW130191   0.824   2.518   2.643
 9764SOL    HW230192   0.831   2.676   2.603
 9765SOL     OW30193   6.614   1.330   1.257
 9765SOL    HW130194   6.676   1.271   1.308
 9765SOL    HW230195   6.668   1.392   1.199
 9766SOL     OW30196   0.712   2.960   3.198
 9766SOL    HW130197   0.658   2.896   3.251
 9766SOL    HW230198   0.749   3.031   3.258
 9767SOL     OW30199   2.754   1.684   5.161
 9767SOL    HW130200   2.687   1.699   5.233
 9767SOL    HW230201   2.814   1.608   5.186
 9768SOL     OW30202   5.057   2.669   0.057
 9768SOL    HW130203   5.133   2.695   0.116
 9768SOL    HW230204   5.076   2.699   6.990
 9769SOL     OW30205   3.309   1.678   5.616
 9769SOL    HW130206   3.401   1.647   5.643
 9769SOL    HW230207   3.317   1.758   5.557
 9770SOL     OW30208   1.868   3.057   5.568
 9770SOL    HW130209   1.965   3.078   5.580
 9770SOL    HW230210   1.831   3.114   5.494
 9771SOL     OW30211   3.669   0.730   1.589
 9771SOL    HW130212   3.575   0.698   1.584
 9771SOL    HW230213   3.700   0.726   1.684
 9772SOL     OW30214   1.129   0.514   1.146
 9772SOL    HW130215   1.224   0.492   1.126
 9772SOL    HW230216   1.069   0.446   1.103
 9773SOL     OW30217   5.956   5.960   2.095
 9773SOL    HW130218   5.935   5.870   2.058
 9773SOL    HW230219   5.884   6.024   2.071
 9774SOL     OW30220   2.326   5.151   4.281
 9774SOL    HW130221   2.315   5.073   4.343
 9774SOL    HW230222   2.237   5.175   4.242
 9775SOL     OW30223   2.057   1.182   2.356
 9775SOL    HW130224   2.150   1.218   2.344
 9775SOL    HW230225   2.043   1.156   2.451
 9776SOL     OW30226   2.420   5.490   1.350
 9776SOL    HW130227   2.454   5.405   1.390
 9776SOL    HW230228   2.420   5.483   1.250
 9777SOL     OW30229   4.340   1.830   5.411
 9777SOL    HW130230   4.345   1.787   5.321
 9777SOL    HW230231   4.381   1.770   5.480
 9778SOL     OW30232   1.295   3.896   2.919
 9778SOL    HW130233   1.263   3.969   2.979
 9778SOL    HW230234   1.269   3.917   2.825
 9779SOL     OW30235   3.051   0.369   3.517
 9779SOL    HW130236   3.066   0.361   3.419
 9779SOL    HW230237   3.049   0.278   3.559
 9780SOL     OW30238   0.423   1.752   0.382
 9780SOL    HW130239   0.372   1.669   0.404
 9780SOL    HW230240   0.474   1.783   0.463
 9781SOL     OW30241   1.321   1.495   2.029
 9781SOL    HW130242   1.287   1.436   1.955
 9781SOL    HW230243   1.287   1.588   2.015
 9782SOL     OW30244   0.328   2.474   0.483
 9782SOL    HW130245   0.339   2.560   0.433
 9782SOL    HW230246   0.259   2.417   0.437
 9783SOL     OW30247   4.249   1.442   3.077
 9783SOL    HW130248   4.268   1.346   3.096
 9783SOL    HW230249   4.305   1.500   3.137
 9784SOL     OW30250   1.643   0.978   6.763
 9784SOL    HW130251   1.609   0.929   6.683
 9784SOL    HW230252   1.681   1.066   6.735
 9785SOL     OW30253   0.966   4.060   4.477
 9785SOL    HW130254   0.929   3.969   4.457
 9785SOL    HW230255   0.978   4.111   4.391
 9786SOL     OW30256   2.789   4.037   6.714
 9786SOL    HW130257   2.718   4.047   6.784
 9786SOL    HW230258   2.801   4.125   6.667
 9787SOL     OW30259   2.944   3.638   2.136
 9787SOL    HW130260   2.982   3.608   2.223
 9787SOL    HW230261   2.854   3.597   2.123
 9788SOL     OW30262   3.409   6.946   2.578
 9788SOL    HW130263   3.470   6.996   2.517
 9788SOL    HW230264   3.457   6.868   2.617
 9789SOL     OW30265   3.415   0.858   0.334
 9789SOL    HW130266   3.407   0.830   0.238
 9789SOL    HW230267   3.413   0.957   0.340
 9790SOL     OW30268   4.433   5.517   4.883
 9790SOL    HW130269   4.532   5.524   4.888
 9790SOL    HW230270   4.395   5.510   4.975
 9791SOL     OW30271   0.442   0.234   1.429
 9791SOL    HW130272   0.354   0.268   1.397
 9791SOL    HW230273   0.508   0.309   1.430
 9792SOL     OW30274   3.560   4.436   0.950
 9792SOL    HW130275   3.632   4.367   0.944
 9792SOL    HW230276   3.485   4.411   0.889
 9793SOL     OW30277   6.113   0.964   2.804
 9793SOL    HW130278   6.062   0.903   2.743
 9793SOL    HW230279   6.126   1.052   2.759
 9794SOL     OW30280   4.309   5.178   4.329
 9794SOL    HW130281   4.299   5.083   4.358
 9794SOL    HW230282   4.358   5.182   4.242
 9795SOL     OW30283   0.786   3.561   3.692
 9795SOL    HW130284   0.771   3.643   3.635
 9795SOL    HW230285   0.884   3.542   3.698
 9796SOL     OW30286   2.897   3.632   4.369
 9796SOL    HW130287   2.805   3.642   4.404
 9796SOL    HW230288   2.958   3.698   4.414
 9797SOL     OW30289   3.210   5.474   6.788
 9797SOL    HW130290   3.114   5.493   6.767
 9797SOL    HW230291   3.216   5.420   6.872
 9798SOL     OW30292   6.913   4.401   6.454
 9798SOL    HW130293   6.991   4.360   6.501
 9798SOL    HW230294   6.882   4.339   6.382
 9799SOL     OW30295   3.388   0.022   0.143
 9799SOL    HW130296   3.341   0.025   0.055
 9799SOL    HW230297   3.487   0.018   0.128
 9800SOL     OW30298   6.721   3.701   4.508
 9800SOL    HW130299   6.632   3.744   4.515
 9800SOL    HW230300   6.791   3.759   4.550
 9801SOL     OW30301   4.742   5.910   0.718
 9801SOL    HW130302   4.839   5.883   0.719
 9801SOL    HW230303   4.712   5.930   0.811
 9802SOL     OW30304   3.928   3.892   0.319
 9802SOL    HW130305   3.975   3.879   0.231
 9802SOL    HW230306   3.995   3.899   0.392
 9803SOL     OW30307   1.123   3.725   6.373
 9803SOL    HW130308   1.091   3.776   6.453
 9803SOL    HW230309   1.141   3.789   6.298
 9804SOL     OW30310   1.236   4.288   3.277
 9804SOL    HW130311   1.206   4.237   3.357
 9804SOL    HW230312   1.191   4.378   3.276
 9805SOL     OW30313   0.263   5.727   3.984
 9805SOL    HW130314   0.304   5.655   3.928
 9805SOL    HW230315   0.165   5.709   3.995
 9806SOL     OW30316   3.723   1.916   0.309
 9806SOL    HW130317   3.674   1.843   0.262
 9806SOL    HW230318   3.748   1.987   0.243
 9807SOL     OW30319   4.039   3.247   3.368
 9807SOL    HW130320   4.055   3.339   3.404
 9807SOL    HW230321   4.036   3.182   3.443
 9808SOL     OW30322   3.612   5.397   2.308
 9808SOL    HW130323   3.555   5.439   2.238
 9808SOL    HW230324   3.554   5.347   2.373
 9809SOL     OW30325   6.051   2.426   0.714
 9809SOL    HW130326   6.040   2.514   0.760
 9809SOL    HW230327   5.967   2.373   0.723
 9810SOL     OW30328   2.093   2.169   0.901
 9810SOL    HW130329   2.039   2.197   0.821
 9810SOL    HW230330   2.053   2.086   0.940
 9811SOL     OW30331   5.697   3.904   4.704
 9811SOL    HW130332   5.626   3.905   4.634
 9811SOL    HW230333   5.783   3.935   4.664
 9812SOL     OW30334   3.446   5.617   5.683
 9812SOL    HW130335   3.507   5.631   5.605
 9812SOL    HW230336   3.471   5.533   5.731
 9813SOL     OW30337   4.862   0.761   2.563
 9813SOL    HW130338   4.897   0.854   2.552
 9813SOL    HW230339   4.917   0.712   2.631
 9814SOL     OW30340   7.017   1.419   6.111
 9814SOL    HW130341   0.082   1.451   6.135
 9814SOL    HW230342   7.023   1.328   6.071
 9815SOL     OW30343   4.115   2.291   4.035
 9815SOL    HW130344   4.030   2.248   4.066
 9815SOL    HW230345   4.118   2.290   3.935
 9816SOL     OW30346   2.819   1.178   1.232
 9816SOL    HW130347   2.807   1.264   1.183
 9816SOL    HW230348   2.914   1.148   1.224
 9817SOL     OW30349   6.406   0.187   1.924
 9817SOL    HW130350   6.443   0.214   2.013
 9817SOL    HW230351   6.463   0.113   1.886
 9818SOL     OW30352   4.550   2.893   5.252
 9818SOL    HW130353   4.598   2.979   5.271
 9818SOL    HW230354   4.463   2.892   5.301
 9819SOL     OW30355   4.175   0.699   1.902
 9819SOL    HW130356   4.116   0.618   1.905
 9819SOL    HW230357   4.122   0.780   1.926
 9820SOL     OW30358   3.873   2.715   0.083
 9820SOL    HW130359   3.805   2.650   0.049
 9820SOL    HW230360   3.957   2.666   0.108
 9821SOL     OW30361   0.142   5.351   6.990
 9821SOL    HW130362   0.093   5.381   6.908
 9821SOL    HW230363   0.081   5.356   0.043
 9822SOL     OW30364   0.934   0.652   3.222
 9822SOL    HW130365   1.001   0.644   3.295
 9822SOL    HW230366   0.919   0.563   3.180
 9823SOL     OW30367   3.464   6.733   1.560
 9823SOL    HW130368   3.544   6.722   1.501
 9823SOL    HW230369   3.381   6.725   1.505
 9824SOL     OW30370   1.244   4.011   5.889
 9824SOL    HW130371   1.222   3.979   5.796
 9824SOL    HW230372   1.296   3.941   5.937
 9825SOL     OW30373   4.035   5.236   5.468
 9825SOL    HW130374   4.127   5.238   5.507
 9825SOL    HW230375   4.034   5.173   5.389
 9826SOL     OW30376   5.010   0.560   5.754
 9826SOL    HW130377   5.061   0.646   5.750
 9826SOL    HW230378   5.070   0.484   5.732
 9827SOL     OW30379   1.153   3.989   4.175
 9827SOL    HW130380   1.098   3.907   4.161
 9827SOL    HW230381   1.219   3.973   4.248
 9828SOL     OW30382   2.836   2.554   6.486
 9828SOL    HW130383   2.877   2.557   6.577
 9828SOL    HW230384   2.888   2.614   6.425
 9829SOL     OW30385   3.182   4.252   1.032
 9829SOL    HW130386   3.198   4.316   1.107
 9829SOL    HW230387   3.098   4.276   0.984
 9830SOL     OW30388   6.600   0.909   0.311
 9830SOL    HW130389   6.509   0.906   0.354
 9830SOL    HW230390   6.607   0.990   0.253
 9831SOL     OW30391   5.684   6.980   0.787
 9831SOL    HW130392   5.726   0.043   0.773
 9831SOL    HW230393   5.755   6.909   0.788
 9832SOL     OW30394   3.915   5.203   1.020
 9832SOL    HW130395   3.917   5.295   0.981
 9832SOL    HW230396   3.987   5.196   1.089
 9833SOL     OW30397   4.362   4.163   5.584
 9833SOL    HW130398   4.327   4.071   5.601
 9833SOL    HW230399   4.299   4.230   5.624
 9834SOL     OW30400   1.695   2.376   4.198
 9834SOL    HW130401   1.787   2.403   4.226
 9834SOL    HW230402   1.656   2.313   4.265
 9835SOL     OW30403   5.001   1.720   4.454
 9835SOL    HW130404   4.923   1.704   4.395
 9835SOL    HW230405   4.980   1.793   4.520
 9836SOL     OW30406   4.929   5.041   2.477
 9836SOL    HW130407   4.886   4.959   2.438
 9836SOL    HW230408   5.021   5.018   2.510
 9837SOL     OW30409   1.405   6.702   4.619
 9837SOL    HW130410   1.504   6.693   4.615
 9837SOL    HW230411   1.370   6.647   4.695
 9838SOL     OW30412   6.575   5.406   5.280
 9838SOL    HW130413   6.591   5.498   5.317
 9838SOL    HW230414   6.504   5.361   5.335
 9839SOL     OW30415   0.207   2.298   2.723
 9839SOL    HW130416   0.124   2.302   2.780
 9839SOL    HW230417   0.236   2.390   2.698
 9840SOL     OW30418   6.452   0.625   0.899
 9840SOL    HW130419   6.495   0.567   0.967
 9840SOL    HW230420   6.457   0.581   0.809
 9841SOL     OW30421   1.556   3.581   4.286
 9841SOL    HW130422   1.644   3.572   4.240
 9841SOL    HW230423   1.565   3.550   4.381
 9842SOL     OW30424   3.070   3.118   3.219
 9842SOL    HW130425   3.149   3.178   3.218
 9842SOL    HW230426   3.010   3.143   3.295
 9843SOL     OW30427   6.021   3.182   2.273
 9843SOL    HW130428   5.943   3.232   2.236
 9843SOL    HW230429   6.062   3.127   2.200
 9844SOL     OW30430   5.252   0.554   2.490
 9844SOL    HW130431   5.235   0.493   2.567
 9844SOL    HW230432   5.264   0.500   2.407
 9845SOL     OW30433   0.795   2.071   3.668
 9845SOL    HW130434   0.754   1.981   3.683
 9845SOL    HW230435   0.758   2.111   3.584
 9846SOL     OW30436   2.970   3.592   3.076
 9846SOL    HW130437   2.924   3.610   3.163
 9846SOL    HW230438   2.968   3.494   3.057
 9847SOL     OW30439   2.430   4.537   5.043
 9847SOL    HW130440   2.394   4.444   5.033
 9847SOL    HW230441   2.363   4.603   5.010
 9848SOL     OW30442   5.066   3.566   0.314
 9848SOL    HW130443   4.975   3.574   0.355
 9848SOL    HW230444   5.062   3.590   0.217
 9849SOL     OW30445   0.161   6.856   5.018
 9849SOL    HW130446   0.216   6.939   5.009
 9849SOL    HW230447   0.221   6.780   5.043
 9850SOL     OW30448   4.256   6.783   2.525
 9850SOL    HW130449   4.248   6.766   2.623
 9850SOL    HW230450   4.256   6.882   2.508
 9851SOL     OW30451   5.655   3.152   4.865
 9851SOL    HW130452   5.604   3.135   4.950
 9851SOL    HW230453   5.744   3.107   4.870
 9852SOL     OW30454   4.892   2.153   3.945
 9852SOL    HW130455   4.822   2.103   3.995
 9852SOL    HW230456   4.881   2.251   3.962
 9853SOL     OW30457   0.280   3.964   1.167
 9853SOL    HW130458   0.367   3.928   1.134
 9853SOL    HW230459   0.205   3.919   1.118
 9854SOL     OW30460   4.653   6.144   3.254
 9854SOL    HW130461   4.737   6.176   3.299
 9854SOL    HW230462   4.605   6.081   3.315
 9855SOL     OW30463   1.671   3.610   0.914
 9855SOL    HW130464   1.612   3.560   0.850
 9855SOL    HW230465   1.760   3.626   0.871
 9856SOL     OW30466   3.824   2.518   0.749
 9856SOL    HW130467   3.798   2.427   0.779
 9856SOL    HW230468   3.905   2.548   0.799
 9857SOL     OW30469   6.085   4.283   3.473
 9857SOL    HW130470   5.993   4.318   3.488
 9857SOL    HW230471   6.093   4.248   3.379
 9858SOL     OW30472   4.267   1.602   1.292
 9858SOL    HW130473   4.347   1.549   1.319
 9858SOL    HW230474   4.188   1.540   1.283
 9859SOL     OW30475   6.327   0.570   1.593
 9859SOL    HW130476   6.373   0.655   1.568
 9859SOL    HW230477   6.298   0.522   1.510
 9860SOL     OW30478   0.337   1.045   2.342
 9860SOL    HW130479   0.351   1.001   2.254
 9860SOL    HW230480   0.335   0.975   2.414
 9861SOL     OW30481   3.593   6.681   4.962
 9861SOL    HW130482   3.585   6.637   5.052
 9861SOL    HW230483   3.616   6.613   4.893
 9862SOL     OW30484   0.909   2.685   0.768
 9862SOL    HW130485   0.832   2.650   0.716
 9862SOL    HW230486   0.887   2.776   0.803
 9863SOL     OW30487   3.013   0.053   0.879
 9863SOL    HW130488   3.100   0.027   0.921
 9863SOL    HW230489   3.010   0.018   0.785
 9864SOL     OW30490   4.487   6.035   2.311
 9864SOL    HW130491   4.424   6.019   2.386
 9864SOL    HW230492   4.565   6.089   2.344
 9865SOL     OW30493   0.779   2.869   5.242
 9865SOL    HW130494   0.768   2.815   5.158
 9865SOL    HW230495   0.872   2.907   5.245
 9866SOL     OW30496   4.206   4.880   3.391
 9866SOL    HW130497   4.226   4.974   3.418
 9866SOL    HW230498   4.150   4.881   3.308
 9867SOL     OW30499   3.976   0.488   6.094
 9867SOL    HW130500   3.947   0.526   6.006
 9867SOL    HW230501   4.064   0.527   6.119
 9868SOL     OW30502   6.897   5.313   6.559
 9868SOL    HW130503   6.806   5.349   6.541
 9868SOL    HW230504   6.931   5.351   6.645
 9869SOL     OW30505   1.966   3.781   3.515
 9869SOL    HW130506   1.920   3.764   3.602
 9869SOL    HW230507   2.013   3.869   3.518
 9870SOL     OW30508   4.988   4.377   2.262
 9870SOL    HW130509   4.942   4.291   2.240
 9870SOL    HW230510   5.054   4.399   2.190
 9871SOL     OW30511   1.424   1.646   5.452
 9871SOL    HW130512   1.502   1.648   5.389
 9871SOL    HW230513   1.355   1.582   5.417
 9872SOL     OW30514   1.387   5.103   3.710
 9872SOL    HW130515   1.360   5.155   3.791
 9872SOL    HW230516   1.480   5.067   3.722
 9873SOL     OW30517   0.990   2.922   0.442
 9873SOL    HW130518   0.940   2.949   0.360
 9873SOL    HW230519   1.001   2.822   0.443
 9874SOL     OW30520   0.816   3.163   3.631
 9874SOL    HW130521   0.773   3.176   3.720
 9874SOL    HW230522   0.915   3.173   3.639
 9875SOL     OW30523   0.890   1.032   3.391
 9875SOL    HW130524   0.963   1.071   3.336
 9875SOL    HW230525   0.928   0.996   3.477
 9876SOL     OW30526   6.995   5.991   2.681
 9876SOL    HW130527   7.007   5.938   2.765
 9876SOL    HW230528   0.043   5.971   2.618
 9877SOL     OW30529   3.516   0.269   2.176
 9877SOL    HW130530   3.523   0.178   2.218
 9877SOL    HW230531   3.608   0.303   2.156
 9878SOL     OW30532   0.862   0.071   5.024
 9878SOL    HW130533   0.813   0.137   4.968
 9878SOL    HW230534   0.799   0.025   5.086
 9879SOL     OW30535   5.642   5.982   6.027
 9879SOL    HW130536   5.611   6.048   6.095
 9879SOL    HW230537   5.732   6.009   5.993
 9880SOL     OW30538   1.910   1.589   4.835
 9880SOL    HW130539   1.860   1.659   4.886
 9880SOL    HW230540   1.974   1.633   4.772
 9881SOL     OW30541   0.023   2.278   6.461
 9881SOL    HW130542   0.061   2.270   6.552
 9881SOL    HW230543   6.950   2.267   6.465
 9882SOL     OW30544   1.173   1.737   2.855
 9882SOL    HW130545   1.074   1.730   2.845
 9882SOL    HW230546   1.212   1.774   2.771
 9883SOL     OW30547   2.022   0.504   1.900
 9883SOL    HW130548   2.020   0.464   1.992
 9883SOL    HW230549   1.932   0.544   1.880
 9884SOL     OW30550   3.702   0.842   4.238
 9884SOL    HW130551   3.645   0.834   4.319
 9884SOL    HW230552   3.781   0.781   4.247
 9885SOL     OW30553   5.975   4.924   3.802
 9885SOL    HW130554   5.937   4.836   3.774
 9885SOL    HW230555   6.073   4.913   3.822
 9886SOL     OW30556   1.424   3.411   2.195
 9886SOL    HW130557   1.458   3.398   2.288
 9886SOL    HW230558   1.441   3.505   2.165
 9887SOL     OW30559   4.506   0.336   5.955
 9887SOL    HW130560   4.460   0.375   6.035
 9887SOL    HW230561   4.597   0.306   5.980
 9888SOL     OW30562   0.128   4.572   0.528
 9888SOL    HW130563   0.174   4.544   0.613
 9888SOL    HW230564   0.196   4.606   0.463
 9889SOL     OW30565   0.359   5.276   0.363
 9889SOL    HW130566   0.267   5.244   0.387
 9889SOL    HW230567   0.364   5.290   0.264
 9890SOL     OW30568   0.753   2.942   1.048
 9890SOL    HW130569   0.792   2.924   1.138
 9890SOL    HW230570   0.821   2.990   0.992
 9891SOL     OW30571   4.920   1.376   1.556
 9891SOL    HW130572   4.996   1.433   1.526
 9891SOL    HW230573   4.848   1.434   1.596
 9892SOL     OW30574   7.017   5.811   6.444
 9892SOL    HW130575   0.017   5.800   6.349
 9892SOL    HW230576   0.066   5.784   6.504
 9893SOL     OW30577   2.130   1.217   1.311
 9893SOL    HW130578   2.161   1.143   1.370
 9893SOL    HW230579   2.207   1.253   1.258
 9894SOL     OW30580   1.576   1.684   0.760
 9894SOL    HW130581   1.659   1.737   0.741
 9894SOL    HW230582   1.531   1.660   0.674
 9895SOL     OW30583   4.873   3.513   5.927
 9895SOL    HW130584   4.865   3.428   5.979
 9895SOL    HW230585   4.795   3.522   5.865
 9896SOL     OW30586   6.109   6.608   6.917
 9896SOL    HW130587   6.101   6.708   6.907
 9896SOL    HW230588   6.205   6.582   6.918
 9897SOL     OW30589   5.047   5.257   3.927
 9897SOL    HW130590   5.122   5.321   3.908
 9897SOL    HW230591   5.085   5.166   3.946
 9898SOL     OW30592   2.945   6.181   5.353
 9898SOL    HW130593   2.865   6.209   5.406
 9898SOL    HW230594   3.010   6.257   5.349
 9899SOL     OW30595   6.976   5.523   6.794
 9899SOL    HW130596   0.020   5.592   6.781
 9899SOL    HW230597   6.886   5.566   6.788
 9900SOL     OW30598   2.158   3.596   3.587
 9900SOL    HW130599   2.196   3.653   3.659
 9900SOL    HW230600   2.083   3.644   3.542
 9901SOL     OW30601   2.185   2.661   5.367
 9901SOL    HW130602   2.093   2.693   5.345
 9901SOL    HW230603   2.252   2.715   5.317
 9902SOL     OW30604   2.282   4.164   6.962
 9902SOL    HW130605   2.348   4.120   6.901
 9902SOL    HW230606   2.330   4.218   0.004
 9903SOL     OW30607   6.050   0.659   3.542
 9903SOL    HW130608   6.026   0.706   3.457
 9903SOL    HW230609   5.981   0.679   3.611
 9904SOL     OW30610   6.742   2.442   6.414
 9904SOL    HW130611   6.767   2.535   6.440
 9904SOL    HW230612   6.657   2.416   6.460
 9905SOL     OW30613   4.504   1.213   0.147
 9905SOL    HW130614   4.576   1.167   0.200
 9905SOL    HW230615   4.520   1.198   0.049
 9906SOL     OW30616   4.124   3.650   4.501
 9906SOL    HW130617   4.224   3.653   4.504
 9906SOL    HW230618   4.089   3.620   4.590
 9907SOL     OW30619   0.583   0.463   1.396
 9907SOL    HW130620   0.650   0.494   1.463
 9907SOL    HW230621   0.595   0.514   1.311
 9908SOL     OW30622   4.963   3.302   2.906
 9908SOL    HW130623   4.995   3.233   2.971
 9908SOL    HW230624   4.923   3.379   2.957
 9909SOL     OW30625   2.253   0.034   5.139
 9909SOL    HW130626   2.249   7.006   5.222
 9909SOL    HW230627   2.170   0.089   5.130
 9910SOL     OW30628   0.699   4.276   3.315
 9910SOL    HW130629   0.723   4.354   3.373
 9910SOL    HW230630   0.671   4.309   3.225
 9911SOL     OW30631   3.048   6.304   2.330
 9911SOL    HW130632   3.074   6.234   2.397
 9911SOL    HW230633   2.955   6.336   2.350
 9912SOL     OW30634   4.992   1.011   6.879
 9912SOL    HW130635   4.910   0.956   6.867
 9912SOL    HW230636   4.979   1.101   6.836
 9913SOL     OW30637   5.573   3.368   6.748
 9913SOL    HW130638   5.625   3.413   6.676
 9913SOL    HW230639   5.628   3.295   6.789
 9914SOL     OW30640   6.814   2.976   4.857
 9914SOL    HW130641   6.780   3.064   4.825
 9914SOL    HW230642   6.864   2.932   4.782
 9915SOL     OW30643   5.644   0.633   3.694
 9915SOL    HW130644   5.654   0.534   3.688
 9915SOL    HW230645   5.729   0.673   3.728
 9916SOL     OW30646   2.317   2.471   1.877
 9916SOL    HW130647   2.231   2.509   1.842
 9916SOL    HW230648   2.368   2.430   1.802
 9917SOL     OW30649   6.137   4.132   4.953
 9917SOL    HW130650   6.181   4.212   4.993
 9917SOL    HW230651   6.188   4.050   4.977
 9918SOL     OW30652   4.257   2.182   2.840
 9918SOL    HW130653   4.319   2.157   2.766
 9918SOL    HW230654   4.304   2.242   2.905
 9919SOL     OW30655   6.803   6.115   0.369
 9919SOL    HW130656   6.779   6.082   0.277
 9919SOL    HW230657   6.900   6.140   0.371
 9920SOL     OW30658   5.129   1.335   2.278
 9920SOL    HW130659   5.158   1.319   2.183
 9920SOL    HW230660   5.119   1.248   2.325
 9921SOL     OW30661   3.725   5.698   5.891
 9921SOL    HW130662   3.764   5.736   5.976
 9921SOL    HW230663   3.658   5.762   5.853
 9922SOL     OW30664   0.505   5.389   0.572
 9922SOL    HW130665   0.442   5.341   0.512
 9922SOL    HW230666   0.598   5.352   0.560
 9923SOL     OW30667   5.401   4.771   0.661
 9923SOL    HW130668   5.405   4.672   0.650
 9923SOL    HW230669   5.400   4.794   0.758
 9924SOL     OW30670   1.006   4.207   4.824
 9924SOL    HW130671   1.073   4.170   4.760
 9924SOL    HW230672   1.003   4.150   4.906
 9925SOL     OW30673   5.339   2.721   3.662
 9925SOL    HW130674   5.432   2.756   3.665
 9925SOL    HW230675   5.322   2.676   3.574
 9926SOL     OW30676   2.222   5.199   0.034
 9926SOL    HW130677   2.137   5.166   0.074
 9926SOL    HW230678   2.262   5.128   7.003
 9927SOL     OW30679   6.206   6.972   2.697
 9927SOL    HW130680   6.204   6.987   2.599
 9927SOL    HW230681   6.245   0.025   2.743
 9928SOL     OW30682   4.831   4.263   1.462
 9928SOL    HW130683   4.813   4.200   1.387
 9928SOL    HW230684   4.745   4.288   1.507
 9929SOL     OW30685   1.939   4.397   3.085
 9929SOL    HW130686   1.932   4.497   3.092
 9929SOL    HW230687   1.990   4.361   3.162
 9930SOL     OW30688   6.935   0.307   3.786
 9930SOL    HW130689   6.836   0.294   3.793
 9930SOL    HW230690   6.956   0.404   3.775
 9931SOL     OW30691   0.896   4.932   5.508
 9931SOL    HW130692   0.920   5.006   5.570
 9931SOL    HW230693   0.958   4.855   5.521
 9932SOL     OW30694   1.089   6.246   5.217
 9932SOL    HW130695   1.029   6.255   5.138
 9932SOL    HW230696   1.061   6.167   5.272
 9933SOL     OW30697   0.223   6.029   2.344
 9933SOL    HW130698   0.290   6.033   2.270
 9933SOL    HW230699   0.142   6.083   2.318
 9934SOL     OW30700   6.541   2.064   6.350
 9934SOL    HW130701   6.612   2.064   6.280
 9934SOL    HW230702   6.462   2.011   6.319
 9935SOL     OW30703   3.350   0.916   6.327
 9935SOL    HW130704   3.338   1.013   6.349
 9935SOL    HW230705   3.278   0.862   6.373
 9936SOL     OW30706   0.620   4.560   4.456
 9936SOL    HW130707   0.536   4.594   4.413
 9936SOL    HW230708   0.682   4.526   4.385
 9937SOL     OW30709   6.537   2.290   6.509
 9937SOL    HW130710   6.550   2.212   6.448
 9937SOL    HW230711   6.491   2.259   6.593
 9938SOL     OW30712   6.378   6.262   2.871
 9938SOL    HW130713   6.363   6.338   2.935
 9938SOL    HW230714   6.421   6.297   2.788
 9939SOL     OW30715   3.361   2.925   2.348
 9939SOL    HW130716   3.414   2.992   2.298
 9939SOL    HW230717   3.366   2.836   2.302
 9940SOL     OW30718   0.114   1.257   0.302
 9940SOL    HW130719   0.167   1.209   0.232
 9940SOL    HW230720   0.072   1.339   0.263
 9941SOL     OW30721   3.376   4.803   5.994
 9941SOL    HW130722   3.336   4.741   5.926
 9941SOL    HW230723   3.441   4.864   5.949
 9942SOL     OW30724   2.536   5.371   3.420
 9942SOL    HW130725   2.445   5.330   3.417
 9942SOL    HW230726   2.596   5.325   3.354
 9943SOL     OW30727   1.262   6.753   5.110
 9943SOL    HW130728   1.195   6.732   5.038
 9943SOL    HW230729   1.353   6.760   5.069
 9944SOL     OW30730   0.459   3.897   0.259
 9944SOL    HW130731   0.385   3.852   0.209
 9944SOL    HW230732   0.533   3.921   0.196
 9945SOL     OW30733   6.626   5.714   0.291
 9945SOL    HW130734   6.577   5.781   0.234
 9945SOL    HW230735   6.679   5.653   0.232
 9946SOL     OW30736   5.319   1.248   4.754
 9946SOL    HW130737   5.235   1.259   4.699
 9946SOL    HW230738   5.295   1.238   4.850
 9947SOL     OW30739   5.904   4.686   3.715
 9947SOL    HW130740   5.896   4.680   3.615
 9947SOL    HW230741   5.954   4.606   3.748
 9948SOL     OW30742   5.295   4.403   4.238
 9948SOL    HW130743   5.277   4.305   4.243
 9948SOL    HW230744   5.213   4.450   4.205
 9949SOL     OW30745   5.747   5.200   2.752
 9949SOL    HW130746   5.735   5.196   2.653
 9949SOL    HW230747   5.824   5.260   2.775
 9950SOL     OW30748   3.650   5.783   5.471
 9950SOL    HW130749   3.573   5.837   5.503
 9950SOL    HW230750   3.687   5.824   5.388
 9951SOL     OW30751   6.080   2.285   2.747
 9951SOL    HW130752   6.083   2.369   2.800
 9951SOL    HW230753   6.020   2.219   2.792
 9952SOL     OW30754   0.597   5.471   0.212
 9952SOL    HW130755   0.499   5.460   0.226
 9952SOL    HW230756   0.621   5.444   0.118
 9953SOL     OW30757   6.657   1.968   4.187
 9953SOL    HW130758   6.570   1.937   4.226
 9953SOL    HW230759   6.641   2.004   4.095
 9954SOL     OW30760   4.732   0.288   5.370
 9954SOL    HW130761   4.669   0.249   5.302
 9954SOL    HW230762   4.729   0.232   5.453
 9955SOL     OW30763   0.524   4.410   4.866
 9955SOL    HW130764   0.525   4.317   4.904
 9955SOL    HW230765   0.500   4.407   4.769
 9956SOL     OW30766   1.457   6.241   0.909
 9956SOL    HW130767   1.495   6.213   0.821
 9956SOL    HW230768   1.424   6.160   0.958
 9957SOL     OW30769   6.108   4.444   2.774
 9957SOL    HW130770   6.147   4.533   2.798
 9957SOL    HW230771   6.011   4.453   2.756
 9958SOL     OW30772   2.327   4.241   1.392
 9958SOL    HW130773   2.306   4.224   1.488
 9958SOL    HW230774   2.348   4.155   1.347
 9959SOL     OW30775   3.878   3.552   0.997
 9959SOL    HW130776   3.944   3.571   0.924
 9959SOL    HW230777   3.882   3.455   1.021
 9960SOL     OW30778   0.797   1.457   2.184
 9960SOL    HW130779   0.855   1.518   2.130
 9960SOL    HW230780   0.754   1.509   2.258
 9961SOL     OW30781   2.112   4.612   4.642
 9961SOL    HW130782   2.180   4.626   4.715
 9961SOL    HW230783   2.090   4.515   4.636
 9962SOL     OW30784   5.599   6.184   4.952
 9962SOL    HW130785   5.641   6.269   4.922
 9962SOL    HW230786   5.668   6.111   4.954
 9963SOL     OW30787   3.205   0.532   0.588
 9963SOL    HW130788   3.118   0.567   0.622
 9963SOL    HW230789   3.215   0.435   0.611
 9964SOL     OW30790   4.964   5.699   5.201
 9964SOL    HW130791   4.946   5.634   5.128
 9964SOL    HW230792   4.896   5.688   5.274
 9965SOL     OW30793   3.839   0.288   7.003
 9965SOL    HW130794   3.898   0.329   6.934
 9965SOL    HW230795   3.890   0.277   0.062
 9966SOL     OW30796   0.247   6.916   2.987
 9966SOL    HW130797   0.326   6.972   2.963
 9966SOL    HW230798   0.201   6.956   3.067
 9967SOL     OW30799   1.331   5.157   0.644
 9967SOL    HW130800   1.421   5.130   0.678
 9967SOL    HW230801   1.314   5.114   0.556
 9968SOL     OW30802   3.419   2.878   2.923
 9968SOL    HW130803   3.346   2.943   2.941
 9968SOL    HW230804   3.383   2.785   2.925
 9969SOL     OW30805   1.183   3.484   1.880
 9969SOL    HW130806   1.267   3.442   1.914
 9969SOL    HW230807   1.207   3.558   1.817
 9970SOL     OW30808   5.801   4.473   1.454
 9970SOL    HW130809   5.795   4.572   1.468
 9970SOL    HW230810   5.888   4.451   1.410
 9971SOL     OW30811   2.556   5.915   0.184
 9971SOL    HW130812   2.513   5.947   0.267
 9971SOL    HW230813   2.532   5.975   0.107
 9972SOL     OW30814   6.874   4.788   1.373
 9972SOL    HW130815   6.834   4.779   1.464
 9972SOL    HW230816   6.852   4.707   1.319
 9973SOL     OW30817   5.794   6.772   4.426
 9973SOL    HW130818   5.818   6.830   4.348
 9973SOL    HW230819   5.703   6.734   4.412
 9974SOL     OW30820   2.163   0.941   4.255
 9974SOL    HW130821   2.135   0.853   4.294
 9974SOL    HW230822   2.115   1.015   4.302
 9975SOL     OW30823   6.776   3.482   0.642
 9975SOL    HW130824   6.752   3.494   0.739
 9975SOL    HW230825   6.788   3.571   0.599
 9976SOL     OW30826   2.002   0.213   5.079
 9976SOL    HW130827   2.002   0.301   5.031
 9976SOL    HW230828   1.970   0.226   5.172
 9977SOL     OW30829   6.736   4.708   4.449
 9977SOL    HW130830   6.643   4.708   4.483
 9977SOL    HW230831   6.768   4.802   4.436
 9978SOL     OW30832   0.191   2.761   4.499
 9978SOL    HW130833   0.272   2.710   4.527
 9978SOL    HW230834   0.207   2.859   4.513
 9979SOL     OW30835   0.868   3.985   5.549
 9979SOL    HW130836   0.896   3.983   5.453
 9979SOL    HW230837   0.809   3.906   5.567
 9980SOL     OW30838   3.463   6.914   4.998
 9980SOL    HW130839   3.523   6.836   4.984
 9980SOL    HW230840   3.368   6.886   4.985
 9981SOL     OW30841   3.262   1.966   4.126
 9981SOL    HW130842   3.302   1.920   4.047
 9981SOL    HW230843   3.328   1.967   4.201
 9982SOL     OW30844   6.284   5.796   3.139
 9982SOL    HW130845   6.314   5.847   3.058
 9982SOL    HW230846   6.184   5.790   3.140
 9983SOL     OW30847   0.272   1.329   1.368
 9983SOL    HW130848   0.237   1.254   1.313
 9983SOL    HW230849   0.250   1.314   1.464
 9984SOL     OW30850   2.601   0.957   0.528
 9984SOL    HW130851   2.575   0.919   0.440
 9984SOL    HW230852   2.536   0.927   0.598
 9985SOL     OW30853   1.251   1.344   1.804
 9985SOL    HW130854   1.297   1.267   1.850
 9985SOL    HW230855   1.273   1.342   1.707
 9986SOL     OW30856   5.183   4.512   5.049
 9986SOL    HW130857   5.171   4.588   4.985
 9986SOL    HW230858   5.094   4.469   5.065
 9987SOL     OW30859   0.131   4.366   5.976
 9987SOL    HW130860   0.179   4.438   6.026
 9987SOL    HW230861   0.044   4.402   5.941
 9988SOL     OW30862   6.759   6.996   4.590
 9988SOL    HW130863   6.772   0.068   4.577
 9988SOL    HW230864   6.833   6.959   4.646
 9989SOL     OW30865   0.950   3.592   4.651
 9989SOL    HW130866   0.855   3.606   4.623
 9989SOL    HW230867   1.011   3.647   4.594
 9990SOL     OW30868   0.987   4.995   2.299
 9990SOL    HW130869   1.007   5.061   2.226
 9990SOL    HW230870   0.888   4.994   2.315
 9991SOL     OW30871   3.619   2.112   3.104
 9991SOL    HW130872   3.589   2.205   3.126
 9991SOL    HW230873   3.718   2.112   3.086
 9992SOL     OW30874   6.612   5.665   6.076
 9992SOL    HW130875   6.558   5.619   6.005
 9992SOL    HW230876   6.696   5.701   6.036
 9993SOL     OW30877   0.942   1.108   1.873
 9993SOL    HW130878   0.853   1.119   1.917
 9993SOL    HW230879   0.955   1.181   1.806
 9994SOL     OW30880   5.902   4.671   2.908
 9994SOL    HW130881   5.976   4.738   2.916
 9994SOL    HW230882   5.845   4.693   2.830
 9995SOL     OW30883   5.059   1.275   4.669
 9995SOL    HW130884   5.039   1.372   4.660
 9995SOL    HW230885   5.019   1.240   4.755
 9996SOL     OW30886   2.257   3.286   0.134
 9996SOL    HW130887   2.320   3.209   0.146
 9996SOL    HW230888   2.243   3.303   0.036
 9997SOL     OW30889   2.808   6.889   4.693
 9997SOL    HW130890   2.813   6.932   4.783
 9997SOL    HW230891   2.728   6.829   4.689
 9998SOL     OW30892   5.886   6.458   5.058
 9998SOL    HW130893   5.929   6.451   5.148
 9998SOL    HW230894   5.896   6.551   5.024
 9999SOL     OW30895   6.806   2.621   4.534
 9999SOL    HW130896   6.708   2.623   4.513
 9999SOL    HW230897   6.818   2.597   4.631
10000SOL     OW30898   7.009   4.122   6.895
10000SOL    HW130899   0.030   4.038   6.921
10000SOL    HW230900   0.023   4.200   6.943
10001SOL     OW30901   4.081   0.153   3.049
10001SOL    HW130902   4.062   0.223   2.980
10001SOL    HW230903   4.180   0.145   3.061
10002SOL     OW30904   0.900   1.412   1.806
10002SOL    HW130905   0.936   1.504   1.788
10002SOL    HW230906   0.811   1.420   1.852
10003SOL     OW30907   5.250   2.361   3.716
10003SOL    HW130908   5.231   2.313   3.802
10003SOL    HW230909   5.341   2.402   3.720
10004SOL     OW30910   0.418   2.257   2.908
10004SOL    HW130911   0.366   2.226   2.988
10004SOL    HW230912   0.360   2.253   2.827
10005SOL     OW30913   5.357   6.832   4.430
10005SOL    HW130914   5.314   6.799   4.346
10005SOL    HW230915   5.370   6.755   4.493
10006SOL     OW30916   4.615   1.461   4.485
10006SOL    HW130917   4.698   1.509   4.455
10006SOL    HW230918   4.631   1.420   4.575
10007SOL     OW30919   6.007   3.636   4.495
10007SOL    HW130920   6.035   3.573   4.422
10007SOL    HW230921   6.032   3.597   4.584
10008SOL     OW30922   3.882   6.912   4.030
10008SOL    HW130923   3.821   6.833   4.040
10008SOL    HW230924   3.860   6.962   3.947
10009SOL     OW30925   1.017   4.282   1.864
10009SOL    HW130926   0.925   4.255   1.834
10009SOL    HW230927   1.028   4.259   1.961
10010SOL     OW30928   6.486   1.646   6.152
10010SOL    HW130929   6.445   1.667   6.241
10010SOL    HW230930   6.417   1.650   6.081
10011SOL     OW30931   0.117   6.854   4.331
10011SOL    HW130932   0.189   6.858   4.262
10011SOL    HW230933   0.068   6.768   4.323
10012SOL     OW30934   5.749   0.329   4.243
10012SOL    HW130935   5.674   0.388   4.273
10012SOL    HW230936   5.796   0.292   4.324
10013SOL     OW30937   1.255   0.913   2.051
10013SOL    HW130938   1.286   0.991   1.997
10013SOL    HW230939   1.159   0.925   2.076
10014SOL     OW30940   1.873   5.195   5.634
10014SOL    HW130941   1.827   5.137   5.701
10014SOL    HW230942   1.922   5.137   5.568
10015SOL     OW30943   2.337   4.811   0.069
10015SOL    HW130944   2.240   4.831   0.069
10015SOL    HW230945   2.386   4.879   0.123
10016SOL     OW30946   2.767   0.784   5.440
10016SOL    HW130947   2.835   0.833   5.385
10016SOL    HW230948   2.678   0.829   5.432
10017SOL     OW30949   0.547   2.126   4.147
10017SOL    HW130950   0.618   2.179   4.101
10017SOL    HW230951   0.497   2.072   4.080
10018SOL     OW30952   4.850   6.770   6.030
10018SOL    HW130953   4.858   6.752   6.128
10018SOL    HW230954   4.879   6.689   5.979
10019SOL     OW30955   1.841   1.129   2.180
10019SOL    HW130956   1.778   1.088   2.246
10019SOL    HW230957   1.921   1.166   2.229
10020SOL     OW30958   0.102   2.747   6.983
10020SOL    HW130959   0.005   2.755   7.006
10020SOL    HW230960   0.139   2.838   6.961
10021SOL     OW30961   5.309   3.258   1.870
10021SOL    HW130962   5.377   3.224   1.935
10021SOL    HW230963   5.248   3.184   1.844
10022SOL     OW30964   1.768   0.424   6.298
10022SOL    HW130965   1.753   0.409   6.395
10022SOL    HW230966   1.787   0.521   6.281
10023SOL     OW30967   0.256   3.218   1.077
10023SOL    HW130968   0.200   3.158   1.019
10023SOL    HW230969   0.218   3.222   1.169
10024SOL     OW30970   1.325   4.803   3.668
10024SOL    HW130971   1.324   4.856   3.584
10024SOL    HW230972   1.312   4.706   3.647
10025SOL     OW30973   1.108   1.561   0.454
10025SOL    HW130974   1.128   1.465   0.470
10025SOL    HW230975   1.106   1.609   0.542
10026SOL     OW30976   6.998   0.199   4.052
10026SOL    HW130977   6.921   0.160   4.104
10026SOL    HW230978   6.963   0.254   3.977
10027SOL     OW30979   5.248   2.457   5.898
10027SOL    HW130980   5.255   2.384   5.830
10027SOL    HW230981   5.321   2.446   5.966
10028SOL     OW30982   1.964   0.534   1.474
10028SOL    HW130983   1.904   0.469   1.520
10028SOL    HW230984   2.020   0.581   1.542
10029SOL     OW30985   4.962   1.599   4.033
10029SOL    HW130986   5.006   1.688   4.047
10029SOL    HW230987   4.865   1.613   4.014
10030SOL     OW30988   1.256   0.768   2.996
10030SOL    HW130989   1.164   0.799   3.018
10030SOL    HW230990   1.315   0.776   3.077
10031SOL     OW30991   6.659   4.523   3.931
10031SOL    HW130992   6.570   4.487   3.957
10031SOL    HW230993   6.678   4.606   3.983
10032SOL     OW30994   2.964   1.154   5.134
10032SOL    HW130995   3.010   1.182   5.219
10032SOL    HW230996   2.958   1.233   5.073
10033SOL     OW30997   5.429   2.843   4.533
10033SOL    HW130998   5.452   2.864   4.628
10033SOL    HW230999   5.357   2.773   4.531
10034SOL     OW31000   4.732   0.233   6.047
10034SOL    HW131001   4.799   0.297   6.009
10034SOL    HW231002   4.752   0.140   6.014
10035SOL     OW31003   0.096   6.453   3.841
10035SOL    HW131004   0.169   6.489   3.899
10035SOL    HW231005   0.136   6.402   3.765
10036SOL     OW31006   6.902   0.251   0.010
10036SOL    HW131007   6.844   0.297   0.077
10036SOL    HW231008   6.930   0.317   6.966
10037SOL     OW31009   6.950   6.976   1.024
10037SOL    HW131010   7.006   7.020   0.954
10037SOL    HW231011   6.900   6.900   0.984
10038SOL     OW31012   6.439   0.479   0.655
10038SOL    HW131013   6.348   0.452   0.686
10038SOL    HW231014   6.494   0.397   0.637
10039SOL     OW31015   3.564   0.724   3.126
10039SOL    HW131016   3.484   0.772   3.088
10039SOL    HW231017   3.637   0.789   3.145
10040SOL     OW31018   0.390   2.283   0.867
10040SOL    HW131019   0.405   2.334   0.952
10040SOL    HW231020   0.427   2.191   0.877
10041SOL     OW31021   1.373   6.017   0.613
10041SOL    HW131022   1.426   6.095   0.648
10041SOL    HW231023   1.413   5.932   0.647
10042SOL     OW31024   6.468   2.488   3.065
10042SOL    HW131025   6.392   2.538   3.107
10042SOL    HW231026   6.455   2.390   3.080
10043SOL     OW31027   0.909   3.088   4.912
10043SOL    HW131028   0.838   3.154   4.884
10043SOL    HW231029   0.988   3.138   4.948
10044SOL     OW31030   3.955   2.109   6.208
10044SOL    HW131031   3.891   2.059   6.266
10044SOL    HW231032   4.048   2.076   6.224
10045SOL     OW31033   2.181   0.723   0.425
10045SOL    HW131034   2.124   0.669   0.487
10045SOL    HW231035   2.141   0.723   0.334
10046SOL     OW31036   0.928   5.304   1.200
10046SOL    HW131037   0.904   5.378   1.137
10046SOL    HW231038   1.026   5.306   1.218
10047SOL     OW31039   1.354   3.595   0.680
10047SOL    HW131040   1.356   3.545   0.593
10047SOL    HW231041   1.439   3.645   0.692
10048SOL     OW31042   5.819   5.064   2.075
10048SOL    HW131043   5.800   4.966   2.079
10048SOL    HW231044   5.739   5.112   2.038
10049SOL     OW31045   5.699   1.109   5.120
10049SOL    HW131046   5.622   1.172   5.129
10049SOL    HW231047   5.740   1.119   5.029
10050SOL     OW31048   0.086   3.037   5.905
10050SOL    HW131049   7.013   3.035   5.920
10050SOL    HW231050   0.132   3.002   5.986
10051SOL     OW31051   2.136   1.522   4.501
10051SOL    HW131052   2.105   1.497   4.410
10051SOL    HW231053   2.233   1.549   4.497
10052SOL     OW31054   1.434   0.429   3.478
10052SOL    HW131055   1.458   0.510   3.532
10052SOL    HW231056   1.516   0.394   3.434
10053SOL     OW31057   5.847   5.066   3.006
10053SOL    HW131058   5.887   5.048   3.095
10053SOL    HW231059   5.748   5.056   3.011
10054SOL     OW31060   6.861   4.278   4.328
10054SOL    HW131061   6.861   4.180   4.347
10054SOL    HW231062   6.770   4.307   4.297
10055SOL     OW31063   1.586   2.151   6.554
10055SOL    HW131064   1.579   2.249   6.569
10055SOL    HW231065   1.634   2.133   6.468
10056SOL     OW31066   6.268   2.352   4.336
10056SOL    HW131067   6.232   2.265   4.371
10056SOL    HW231068   6.346   2.381   4.392
10057SOL     OW31069   5.329   4.993   5.753
10057SOL    HW131070   5.375   4.905   5.765
10057SOL    HW231071   5.232   4.984   5.779
10058SOL     OW31072   0.092   4.339   5.036
10058SOL    HW131073   0.044   4.285   5.105
10058SOL    HW231074   0.027   4.368   4.965
10059SOL     OW31075   5.522   6.859   6.396
10059SOL    HW131076   5.555   6.839   6.488
10059SOL    HW231077   5.424   6.880   6.399
10060SOL     OW31078   3.287   1.701   1.963
10060SOL    HW131079   3.250   1.792   1.980
10060SOL    HW231080   3.307   1.692   1.865
10061SOL     OW31081   3.095   0.099   2.457
10061SOL    HW131082   3.148   0.062   2.382
10061SOL    HW231083   3.039   0.026   2.498
10062SOL     OW31084   0.414   6.631   4.765
10062SOL    HW131085   0.442   6.662   4.674
10062SOL    HW231086   0.475   6.558   4.796
10063SOL     OW31087   2.693   2.325   4.585
10063SOL    HW131088   2.631   2.247   4.580
10063SOL    HW231089   2.679   2.374   4.671
10064SOL     OW31090   2.864   0.387   2.293
10064SOL    HW131091   2.794   0.444   2.251
10064SOL    HW231092   2.937   0.370   2.227
10065SOL     OW31093   0.152   1.889   1.569
10065SOL    HW131094   0.192   1.920   1.482
10065SOL    HW231095   0.156   1.789   1.574
10066SOL     OW31096   6.547   5.089   3.645
10066SOL    HW131097   6.639   5.053   3.628
10066SOL    HW231098   6.485   5.013   3.666
10067SOL     OW31099   6.963   3.449   5.394
10067SOL    HW131100   6.891   3.386   5.364
10067SOL    HW231101   6.945   3.479   5.487
10068SOL     OW31102   1.632   2.564   2.405
10068SOL    HW131103   1.694   2.485   2.409
10068SOL    HW231104   1.653   2.620   2.325
10069SOL     OW31105   3.243   4.832   1.060
10069SOL    HW131106   3.207   4.746   1.023
10069SOL    HW231107   3.236   4.904   0.991
10070SOL     OW31108   5.260   0.190   0.814
10070SOL    HW131109   5.319   0.267   0.837
10070SOL    HW231110   5.196   0.174   0.889
10071SOL     OW31111   5.332   1.056   5.455
10071SOL    HW131112   5.409   0.995   5.475
10071SOL    HW231113   5.278   1.072   5.538
10072SOL     OW31114   6.456   3.210   1.906
10072SOL    HW131115   6.361   3.178   1.915
10072SOL    HW231116   6.465   3.301   1.946
10073SOL     OW31117   5.522   5.490   5.025
10073SOL    HW131118   5.501   5.579   5.064
10073SOL    HW231119   5.441   5.453   4.980
10074SOL     OW31120   2.278   4.797   0.484
10074SOL    HW131121   2.234   4.709   0.469
10074SOL    HW231122   2.374   4.792   0.458
10075SOL     OW31123   1.423   3.039   1.547
10075SOL    HW131124   1.488   3.103   1.506
10075SOL    HW231125   1.332   3.054   1.508
10076SOL     OW31126   5.644   4.314   4.124
10076SOL    HW131127   5.579   4.298   4.050
10076SOL    HW231128   5.653   4.232   4.180
10077SOL     OW31129   4.618   3.624   6.588
10077SOL    HW131130   4.620   3.538   6.536
10077SOL    HW231131   4.573   3.609   6.676
10078SOL     OW31132   6.276   5.122   4.540
10078SOL    HW131133   6.235   5.063   4.472
10078SOL    HW231134   6.205   5.159   4.601
10079SOL     OW31135   5.302   4.169   3.679
10079SOL    HW131136   5.348   4.081   3.664
10079SOL    HW231137   5.206   4.162   3.650
10080SOL     OW31138   4.698   1.641   5.622
10080SOL    HW131139   4.734   1.728   5.590
10080SOL    HW231140   4.723   1.569   5.557
10081SOL     OW31141   1.188   4.675   0.008
10081SOL    HW131142   1.089   4.666   0.015
10081SOL    HW231143   1.210   4.740   6.961
10082SOL     OW31144   1.268   4.645   0.827
10082SOL    HW131145   1.339   4.688   0.882
10082SOL    HW231146   1.183   4.696   0.836
10083SOL     OW31147   2.715   6.119   2.262
10083SOL    HW131148   2.809   6.118   2.229
10083SOL    HW231149   2.654   6.082   2.192
10084SOL     OW31150   1.374   2.529   4.543
10084SOL    HW131151   1.338   2.479   4.622
10084SOL    HW231152   1.412   2.465   4.477
10085SOL     OW31153   4.836   7.010   1.850
10085SOL    HW131154   4.923   6.989   1.894
10085SOL    HW231155   4.803   6.929   1.801
10086SOL     OW31156   4.328   6.394   3.089
10086SOL    HW131157   4.427   6.382   3.100
10086SOL    HW231158   4.307   6.492   3.082
10087SOL     OW31159   1.889   6.480   5.124
10087SOL    HW131160   1.904   6.406   5.058
10087SOL    HW231161   1.976   6.508   5.163
10088SOL     OW31162   6.427   2.648   1.289
10088SOL    HW131163   6.491   2.618   1.360
10088SOL    HW231164   6.410   2.746   1.300
10089SOL     OW31165   4.362   0.263   1.987
10089SOL    HW131166   4.338   0.249   2.083
10089SOL    HW231167   4.448   0.315   1.982
10090SOL     OW31168   1.825   6.076   2.970
10090SOL    HW131169   1.737   6.072   3.018
10090SOL    HW231170   1.830   6.161   2.918
10091SOL     OW31171   5.681   5.214   4.710
10091SOL    HW131172   5.615   5.189   4.780
10091SOL    HW231173   5.770   5.172   4.731
10092SOL     OW31174   0.674   1.893   2.973
10092SOL    HW131175   0.664   1.939   2.885
10092SOL    HW231176   0.719   1.805   2.960
10093SOL     OW31177   4.491   3.789   6.379
10093SOL    HW131178   4.525   3.737   6.456
10093SOL    HW231179   4.418   3.737   6.333
10094SOL     OW31180   3.705   2.233   0.562
10094SOL    HW131181   3.674   2.142   0.537
10094SOL    HW231182   3.804   2.240   0.549
10095SOL     OW31183   4.020   3.319   5.469
10095SOL    HW131184   3.987   3.339   5.377
10095SOL    HW231185   3.976   3.382   5.534
10096SOL     OW31186   6.503   3.491   1.988
10096SOL    HW131187   6.532   3.501   2.083
10096SOL    HW231188   6.558   3.551   1.929
10097SOL     OW31189   1.035   1.646   1.059
10097SOL    HW131190   1.133   1.662   1.068
10097SOL    HW231191   1.007   1.572   1.120
10098SOL     OW31192   3.427   6.171   4.838
10098SOL    HW131193   3.375   6.092   4.871
10098SOL    HW231194   3.478   6.212   4.914
10099SOL     OW31195   0.104   5.004   3.483
10099SOL    HW131196   0.008   4.988   3.508
10099SOL    HW231197   0.135   4.933   3.420
10100SOL     OW31198   5.270   4.990   4.368
10100SOL    HW131199   5.360   5.006   4.326
10100SOL    HW231200   5.233   4.904   4.334
10101SOL     OW31201   6.808   2.605   0.191
10101SOL    HW131202   6.726   2.574   0.143
10101SOL    HW231203   6.796   2.591   0.290
10102SOL     OW31204   6.242   4.927   3.424
10102SOL    HW131205   6.312   4.997   3.406
10102SOL    HW231206   6.278   4.858   3.485
10103SOL     OW31207   0.366   6.517   6.713
10103SOL    HW131208   0.365   6.421   6.741
10103SOL    HW231209   0.427   6.568   6.773
10104SOL     OW31210   2.862   0.616   4.822
10104SOL    HW131211   2.769   0.582   4.809
10104SOL    HW231212   2.859   0.708   4.860
10105SOL     OW31213   3.127   1.283   3.517
10105SOL    HW131214   3.216   1.246   3.544
10105SOL    HW231215   3.067   1.285   3.597
10106SOL     OW31216   5.764   4.289   1.662
10106SOL    HW131217   5.780   4.343   1.580
10106SOL    HW231218   5.666   4.277   1.676
10107SOL     OW31219   5.373   5.610   6.172
10107SOL    HW131220   5.410   5.518   6.161
10107SOL    HW231221   5.342   5.645   6.084
10108SOL     OW31222   2.450   2.380   5.222
10108SOL    HW131223   2.374   2.443   5.205
10108SOL    HW231224   2.456   2.362   5.320
10109SOL     OW31225   1.261   3.203   0.936
10109SOL    HW131226   1.305   3.225   0.849
10109SOL    HW231227   1.320   3.141   0.987
10110SOL     OW31228   6.448   5.736   1.414
10110SOL    HW131229   6.486   5.824   1.443
10110SOL    HW231230   6.375   5.709   1.476
10111SOL     OW31231   6.229   2.781   1.563
10111SOL    HW131232   6.197   2.689   1.540
10111SOL    HW231233   6.184   2.812   1.646
10112SOL     OW31234   6.783   2.747   4.071
10112SOL    HW131235   6.826   2.788   3.990
10112SOL    HW231236   6.685   2.766   4.070
10113SOL     OW31237   6.658   6.421   5.757
10113SOL    HW131238   6.707   6.334   5.752
10113SOL    HW231239   6.595   6.420   5.834
10114SOL     OW31240   4.997   3.227   1.865
10114SOL    HW131241   5.001   3.149   1.927
10114SOL    HW231242   4.963   3.307   1.914
10115SOL     OW31243   3.565   2.893   6.232
10115SOL    HW131244   3.562   2.989   6.205
10115SOL    HW231245   3.630   2.843   6.174
10116SOL     OW31246   0.430   0.177   6.263
10116SOL    HW131247   0.495   0.168   6.187
10116SOL    HW231248   0.370   0.255   6.246
10117SOL     OW31249   6.816   4.561   1.204
10117SOL    HW131250   6.809   4.546   1.105
10117SOL    HW231251   6.912   4.576   1.228
10118SOL     OW31252   4.125   5.054   4.046
10118SOL    HW131253   4.045   5.010   4.086
10118SOL    HW231254   4.133   5.147   4.082
10119SOL     OW31255   5.982   6.240   6.681
10119SOL    HW131256   6.073   6.203   6.701
10119SOL    HW231257   5.943   6.191   6.603
10120SOL     OW31258   2.455   2.474   2.653
10120SOL    HW131259   2.370   2.421   2.663
10120SOL    HW231260   2.533   2.412   2.660
10121SOL     OW31261   6.987   5.607   1.544
10121SOL    HW131262   0.027   5.646   1.480
10121SOL    HW231263   6.897   5.601   1.500
10122SOL     OW31264   1.931   0.324   3.263
10122SOL    HW131265   2.006   0.302   3.200
10122SOL    HW231266   1.936   0.420   3.289
10123SOL     OW31267   6.191   6.190   6.196
10123SOL    HW131268   6.120   6.137   6.243
10123SOL    HW231269   6.228   6.259   6.258
10124SOL     OW31270   2.448   5.276   2.358
10124SOL    HW131271   2.535   5.297   2.401
10124SOL    HW231272   2.459   5.199   2.295
10125SOL     OW31273   1.372   0.949   5.075
10125SOL    HW131274   1.315   0.980   4.998
10125SOL    HW231275   1.391   1.026   5.135
10126SOL     OW31276   6.765   6.125   5.048
10126SOL    HW131277   6.851   6.159   5.010
10126SOL    HW231278   6.784   6.073   5.131
10127SOL     OW31279   2.131   6.898   5.783
10127SOL    HW131280   2.071   6.891   5.862
10127SOL    HW231281   2.082   6.941   5.707
10128SOL     OW31282   2.639   1.985   6.992
10128SOL    HW131283   2.621   1.983   0.064
10128SOL    HW231284   2.636   2.079   6.959
10129SOL     OW31285   6.640   2.151   4.822
10129SOL    HW131286   6.591   2.230   4.860
10129SOL    HW231287   6.670   2.172   4.730
10130SOL     OW31288   1.454   2.259   3.259
10130SOL    HW131289   1.466   2.336   3.323
10130SOL    HW231290   1.542   2.237   3.217
10131SOL     OW31291   1.917   0.245   5.345
10131SOL    HW131292   1.832   0.298   5.340
10131SOL    HW231293   1.916   0.188   5.426
10132SOL     OW31294   5.614   0.694   2.497
10132SOL    HW131295   5.601   0.623   2.565
10132SOL    HW231296   5.529   0.708   2.447
10133SOL     OW31297   4.276   5.765   1.386
10133SOL    HW131298   4.285   5.853   1.431
10133SOL    HW231299   4.276   5.778   1.286
10134SOL     OW31300   0.036   6.535   3.453
10134SOL    HW131301   6.996   6.461   3.445
10134SOL    HW231302   0.124   6.498   3.482
10135SOL     OW31303   6.413   6.493   3.527
10135SOL    HW131304   6.456   6.494   3.617
10135SOL    HW231305   6.322   6.536   3.532
10136SOL     OW31306   4.603   0.876   3.808
10136SOL    HW131307   4.686   0.888   3.863
10136SOL    HW231308   4.545   0.806   3.851
10137SOL     OW31309   0.002   5.715   4.037
10137SOL    HW131310   6.947   5.752   4.082
10137SOL    HW231311   0.023   5.625   4.076
10138SOL     OW31312   0.266   2.512   1.665
10138SOL    HW131313   0.235   2.431   1.614
10138SOL    HW231314   0.278   2.487   1.761
10139SOL     OW31315   4.362   2.785   7.018
10139SOL    HW131316   4.390   2.881   7.017
10139SOL    HW231317   4.270   2.777   6.980
10140SOL     OW31318   6.637   5.659   5.338
10140SOL    HW131319   6.727   5.690   5.306
10140SOL    HW231320   6.602   5.724   5.406
10141SOL     OW31321   1.715   2.250   4.963
10141SOL    HW131322   1.620   2.223   4.980
10141SOL    HW231323   1.725   2.279   4.868
10142SOL     OW31324   5.108   5.689   2.412
10142SOL    HW131325   5.113   5.623   2.338
10142SOL    HW231326   5.013   5.720   2.422
10143SOL     OW31327   5.696   3.373   6.204
10143SOL    HW131328   5.718   3.469   6.190
10143SOL    HW231329   5.670   3.358   6.299
10144SOL     OW31330   3.607   0.599   0.699
10144SOL    HW131331   3.604   0.699   0.708
10144SOL    HW231332   3.574   0.573   0.609
10145SOL     OW31333   6.418   7.020   5.142
10145SOL    HW131334   6.425   0.092   5.125
10145SOL    HW231335   6.489   6.972   5.091
10146SOL     OW31336   1.525   2.987   5.693
10146SOL    HW131337   1.491   2.909   5.640
10146SOL    HW231338   1.622   2.974   5.712
10147SOL     OW31339   3.688   5.378   0.111
10147SOL    HW131340   3.711   5.295   0.062
10147SOL    HW231341   3.744   5.385   0.194
10148SOL     OW31342   0.483   5.039   6.575
10148SOL    HW131343   0.432   5.053   6.660
10148SOL    HW231344   0.447   5.099   6.503
10149SOL     OW31345   3.957   3.218   2.303
10149SOL    HW131346   3.908   3.305   2.309
10149SOL    HW231347   4.039   3.231   2.247
10150SOL     OW31348   4.988   4.088   1.701
10150SOL    HW131349   4.899   4.076   1.745
10150SOL    HW231350   4.981   4.154   1.627
10151SOL     OW31351   0.023   1.134   6.065
10151SOL    HW131352   0.117   1.161   6.043
10151SOL    HW231353   7.013   1.079   5.989
10152SOL     OW31354   3.978   6.645   3.489
10152SOL    HW131355   3.979   6.724   3.428
10152SOL    HW231356   4.055   6.585   3.469
10153SOL     OW31357   4.762   3.550   1.759
10153SOL    HW131358   4.808   3.553   1.847
10153SOL    HW231359   4.770   3.639   1.713
10154SOL     OW31360   4.288   5.447   5.244
10154SOL    HW131361   4.204   5.431   5.192
10154SOL    HW231362   4.267   5.496   5.329
10155SOL     OW31363   4.591   2.064   4.429
10155SOL    HW131364   4.537   2.032   4.507
10155SOL    HW231365   4.566   2.159   4.408
10156SOL     OW31366   4.075   2.424   6.120
10156SOL    HW131367   3.980   2.407   6.145
10156SOL    HW231368   4.122   2.468   6.196
10157SOL     OW31369   0.801   4.664   1.060
10157SOL    HW131370   0.737   4.663   0.983
10157SOL    HW231371   0.831   4.571   1.080
10158SOL     OW31372   5.284   5.116   0.281
10158SOL    HW131373   5.299   5.207   0.319
10158SOL    HW231374   5.258   5.053   0.354
10159SOL     OW31375   3.655   2.782   1.828
10159SOL    HW131376   3.659   2.684   1.808
10159SOL    HW231377   3.618   2.831   1.748
10160SOL     OW31378   0.123   4.428   2.569
10160SOL    HW131379   0.094   4.407   2.475
10160SOL    HW231380   0.085   4.516   2.596
10161SOL     OW31381   5.932   3.181   6.262
10161SOL    HW131382   5.840   3.212   6.240
10161SOL    HW231383   5.987   3.258   6.294
10162SOL     OW31384   1.715   2.170   2.289
10162SOL    HW131385   1.710   2.086   2.236
10162SOL    HW231386   1.777   2.234   2.245
10163SOL     OW31387   3.235   4.885   4.789
10163SOL    HW131388   3.142   4.855   4.811
10163SOL    HW231389   3.299   4.847   4.856
10164SOL     OW31390   0.279   1.274   4.023
10164SOL    HW131391   0.237   1.305   3.937
10164SOL    HW231392   0.211   1.225   4.077
10165SOL     OW31393   1.529   3.025   3.871
10165SOL    HW131394   1.598   2.953   3.858
10165SOL    HW231395   1.558   3.087   3.944
10166SOL     OW31396   3.218   5.964   3.063
10166SOL    HW131397   3.293   5.900   3.046
10166SOL    HW231398   3.248   6.037   3.123
10167SOL     OW31399   3.125   2.132   6.570
10167SOL    HW131400   3.185   2.064   6.613
10167SOL    HW231401   3.140   2.221   6.612
10168SOL     OW31402   0.539   0.888   6.071
10168SOL    HW131403   0.525   0.877   5.972
10168SOL    HW231404   0.451   0.900   6.116
10169SOL     OW31405   4.519   5.606   3.263
10169SOL    HW131406   4.466   5.659   3.329
10169SOL    HW231407   4.458   5.576   3.189
10170SOL     OW31408   4.981   6.794   0.653
10170SOL    HW131409   4.972   6.833   0.744
10170SOL    HW231410   4.947   6.859   0.585
10171SOL     OW31411   2.039   4.124   3.880
10171SOL    HW131412   1.941   4.110   3.890
10171SOL    HW231413   2.072   4.072   3.801
10172SOL     OW31414   0.282   0.864   2.521
10172SOL    HW131415   0.294   0.768   2.547
10172SOL    HW231416   0.312   0.923   2.597
10173SOL     OW31417   3.861   3.521   5.245
10173SOL    HW131418   3.944   3.574   5.228
10173SOL    HW231419   3.846   3.458   5.168
10174SOL     OW31420   5.058   4.348   1.330
10174SOL    HW131421   5.021   4.440   1.319
10174SOL    HW231422   4.989   4.289   1.370
10175SOL     OW31423   6.446   6.859   4.023
10175SOL    HW131424   6.483   6.859   3.930
10175SOL    HW231425   6.473   6.775   4.070
10176SOL     OW31426   6.991   1.005   4.802
10176SOL    HW131427   0.047   1.061   4.800
10176SOL    HW231428   6.982   0.957   4.715
10177SOL     OW31429   2.939   1.621   3.751
10177SOL    HW131430   2.906   1.638   3.659
10177SOL    HW231431   2.863   1.626   3.816
10178SOL     OW31432   0.451   1.579   1.716
10178SOL    HW131433   0.474   1.530   1.800
10178SOL    HW231434   0.351   1.587   1.709
10179SOL     OW31435   6.952   6.203   1.191
10179SOL    HW131436   0.010   6.237   1.150
10179SOL    HW231437   6.948   6.103   1.181
10180SOL     OW31438   3.245   6.565   6.159
10180SOL    HW131439   3.184   6.598   6.230
10180SOL    HW231440   3.257   6.637   6.090
10181SOL     OW31441   0.331   3.423   2.292
10181SOL    HW131442   0.310   3.505   2.240
10181SOL    HW231443   0.259   3.355   2.278
10182SOL     OW31444   3.862   0.311   0.493
10182SOL    HW131445   3.861   0.401   0.448
10182SOL    HW231446   3.864   0.323   0.592
10183SOL     OW31447   4.066   6.124   5.717
10183SOL    HW131448   4.012   6.040   5.724
10183SOL    HW231449   4.039   6.175   5.636
10184SOL     OW31450   5.467   2.930   4.814
10184SOL    HW131451   5.565   2.929   4.795
10184SOL    HW231452   5.445   2.857   4.880
10185SOL     OW31453   2.687   4.802   2.339
10185SOL    HW131454   2.653   4.724   2.392
10185SOL    HW231455   2.619   4.828   2.272
10186SOL     OW31456   2.867   2.926   0.784
10186SOL    HW131457   2.849   2.859   0.711
10186SOL    HW231458   2.882   2.877   0.870
10187SOL     OW31459   2.383   3.808   5.565
10187SOL    HW131460   2.461   3.767   5.613
10187SOL    HW231461   2.367   3.760   5.479
10188SOL     OW31462   2.246   6.649   0.011
10188SOL    HW131463   2.194   6.601   0.081
10188SOL    HW231464   2.194   6.650   6.952
10189SOL     OW31465   2.153   1.833   5.129
10189SOL    HW131466   2.158   1.743   5.173
10189SOL    HW231467   2.243   1.856   5.090
10190SOL     OW31468   3.901   4.037   0.893
10190SOL    HW131469   3.970   3.982   0.845
10190SOL    HW231470   3.899   4.010   0.990
10191SOL     OW31471   5.509   0.563   7.023
10191SOL    HW131472   5.495   0.662   7.020
10191SOL    HW231473   5.421   0.518   0.008
10192SOL     OW31474   2.011   1.229   4.104
10192SOL    HW131475   2.046   1.213   4.011
10192SOL    HW231476   1.916   1.200   4.109
10193SOL     OW31477   3.480   3.869   4.053
10193SOL    HW131478   3.471   3.915   4.142
10193SOL    HW231479   3.554   3.802   4.058
10194SOL     OW31480   3.209   6.048   2.816
10194SOL    HW131481   3.202   6.018   2.911
10194SOL    HW231482   3.300   6.086   2.799
10195SOL     OW31483   5.368   0.535   3.268
10195SOL    HW131484   5.312   0.566   3.344
10195SOL    HW231485   5.376   0.608   3.200
10196SOL     OW31486   5.041   4.367   4.464
10196SOL    HW131487   5.060   4.351   4.367
10196SOL    HW231488   4.955   4.418   4.473
10197SOL     OW31489   4.900   1.566   2.971
10197SOL    HW131490   4.960   1.645   2.987
10197SOL    HW231491   4.807   1.589   3.000
10198SOL     OW31492   3.385   1.123   1.617
10198SOL    HW131493   3.421   1.202   1.567
10198SOL    HW231494   3.287   1.134   1.630
10199SOL     OW31495   1.159   1.660   6.921
10199SOL    HW131496   1.138   1.579   6.866
10199SOL    HW231497   1.076   1.691   6.968
10200SOL     OW31498   5.730   6.413   4.512
10200SOL    HW131499   5.681   6.490   4.470
10200SOL    HW231500   5.667   6.337   4.524
10201SOL     OW31501   1.811   4.886   3.029
10201SOL    HW131502   1.745   4.961   3.038
10201SOL    HW231503   1.793   4.835   2.945
10202SOL     OW31504   0.591   1.911   3.460
10202SOL    HW131505   0.653   1.852   3.408
10202SOL    HW231506   0.634   2.001   3.472
10203SOL     OW31507   0.147   2.156   0.759
10203SOL    HW131508   0.193   2.163   0.848
10203SOL    HW231509   0.214   2.130   0.689
10204SOL     OW31510   2.568   5.843   4.513
10204SOL    HW131511   2.641   5.847   4.445
10204SOL    HW231512   2.608   5.841   4.605
10205SOL     OW31513   3.505   0.397   1.190
10205SOL    HW131514   3.548   0.375   1.278
10205SOL    HW231515   3.503   0.496   1.177
10206SOL     OW31516   5.477   6.777   6.712
10206SOL    HW131517   5.478   6.709   6.785
10206SOL    HW231518   5.459   6.868   6.751
10207SOL     OW31519   4.016   1.319   2.602
10207SOL    HW131520   4.044   1.305   2.507
10207SOL    HW231521   4.072   1.392   2.642
10208SOL     OW31522   6.529   3.140   6.034
10208SOL    HW131523   6.481   3.060   6.069
10208SOL    HW231524   6.531   3.137   5.934
10209SOL     OW31525   3.867   6.388   6.786
10209SOL    HW131526   3.909   6.368   6.697
10209SOL    HW231527   3.789   6.327   6.801
10210SOL     OW31528   5.621   5.449   0.369
10210SOL    HW131529   5.674   5.484   0.292
10210SOL    HW231530   5.593   5.355   0.351
10211SOL     OW31531   3.882   5.595   5.433
10211SOL    HW131532   3.824   5.659   5.484
10211SOL    HW231533   3.851   5.502   5.450
10212SOL     OW31534   6.103   6.365   5.979
10212SOL    HW131535   6.109   6.310   6.062
10212SOL    HW231536   6.134   6.458   5.998
10213SOL     OW31537   4.357   0.693   4.125
10213SOL    HW131538   4.283   0.725   4.065
10213SOL    HW231539   4.426   0.765   4.134
10214SOL     OW31540   0.809   0.263   0.115
10214SOL    HW131541   0.905   0.236   0.111
10214SOL    HW231542   0.799   0.341   0.177
10215SOL     OW31543   4.437   2.601   0.264
10215SOL    HW131544   4.386   2.526   0.306
10215SOL    HW231545   4.435   2.591   0.165
10216SOL     OW31546   5.232   0.324   3.151
10216SOL    HW131547   5.297   0.286   3.085
10216SOL    HW231548   5.273   0.402   3.198
10217SOL     OW31549   3.479   2.209   5.797
10217SOL    HW131550   3.421   2.135   5.762
10217SOL    HW231551   3.434   2.253   5.875
10218SOL     OW31552   3.299   2.000   6.711
10218SOL    HW131553   3.394   2.016   6.685
10218SOL    HW231554   3.288   1.906   6.741
10219SOL     OW31555   1.454   5.328   0.080
10219SOL    HW131556   1.523   5.302   0.148
10219SOL    HW231557   1.363   5.299   0.112
10220SOL     OW31558   4.217   2.332   0.266
10220SOL    HW131559   4.275   2.310   0.187
10220SOL    HW231560   4.150   2.260   0.279
10221SOL     OW31561   2.567   0.999   4.107
10221SOL    HW131562   2.584   1.019   4.203
10221SOL    HW231563   2.591   0.904   4.087
10222SOL     OW31564   1.976   4.760   5.568
10222SOL    HW131565   2.000   4.778   5.663
10222SOL    HW231566   2.056   4.721   5.521
10223SOL     OW31567   1.082   4.489   6.549
10223SOL    HW131568   1.015   4.480   6.622
10223SOL    HW231569   1.154   4.421   6.560
10224SOL     OW31570   2.687   0.021   4.915
10224SOL    HW131571   2.599   7.005   4.935
10224SOL    HW231572   2.676   0.120   4.909
10225SOL     OW31573   4.749   5.825   4.924
10225SOL    HW131574   4.828   5.828   4.862
10225SOL    HW231575   4.771   5.874   5.008
10226SOL     OW31576   6.345   2.619   6.203
10226SOL    HW131577   6.352   2.535   6.257
10226SOL    HW231578   6.253   2.656   6.210
10227SOL     OW31579   4.802   5.009   5.643
10227SOL    HW131580   4.715   5.039   5.603
10227SOL    HW231581   4.833   5.076   5.710
10228SOL     OW31582   0.906   3.112   2.032
10228SOL    HW131583   0.952   3.042   2.086
10228SOL    HW231584   0.912   3.088   1.935
10229SOL     OW31585   2.541   0.591   1.506
10229SOL    HW131586   2.465   0.531   1.531
10229SOL    HW231587   2.616   0.537   1.467
10230SOL     OW31588   6.341   6.653   3.180
10230SOL    HW131589   6.395   6.735   3.193
10230SOL    HW231590   6.245   6.673   3.199
10231SOL     OW31591   4.877   6.780   4.463
10231SOL    HW131592   4.865   6.873   4.428
10231SOL    HW231593   4.857   6.779   4.561
10232SOL     OW31594   3.895   2.046   3.519
10232SOL    HW131595   3.820   1.980   3.529
10232SOL    HW231596   3.963   2.032   3.591
10233SOL     OW31597   4.902   0.502   5.418
10233SOL    HW131598   4.850   0.422   5.390
10233SOL    HW231599   4.856   0.547   5.495
10234SOL     OW31600   4.364   5.533   1.149
10234SOL    HW131601   4.318   5.617   1.118
10234SOL    HW231602   4.352   5.523   1.247
10235SOL     OW31603   5.018   0.917   0.366
10235SOL    HW131604   5.015   0.856   0.286
10235SOL    HW231605   5.113   0.939   0.387
10236SOL     OW31606   1.649   5.607   1.624
10236SOL    HW131607   1.711   5.531   1.603
10236SOL    HW231608   1.557   5.571   1.638
10237SOL     OW31609   5.748   2.442   3.306
10237SOL    HW131610   5.727   2.511   3.375
10237SOL    HW231611   5.677   2.444   3.235
10238SOL     OW31612   4.447   6.187   4.836
10238SOL    HW131613   4.448   6.161   4.932
10238SOL    HW231614   4.353   6.195   4.804
10239SOL     OW31615   5.870   3.403   4.838
10239SOL    HW131616   5.841   3.384   4.932
10239SOL    HW231617   5.966   3.377   4.828
10240SOL     OW31618   5.065   3.656   3.489
10240SOL    HW131619   5.097   3.668   3.395
10240SOL    HW231620   5.001   3.729   3.512
10241SOL     OW31621   1.892   1.806   3.072
10241SOL    HW131622   1.956   1.854   3.012
10241SOL    HW231623   1.822   1.761   3.017
10242SOL     OW31624   1.108   5.506   5.962
10242SOL    HW131625   1.044   5.561   5.909
10242SOL    HW231626   1.200   5.517   5.925
10243SOL     OW31627   0.733   6.568   3.132
10243SOL    HW131628   0.772   6.652   3.095
10243SOL    HW231629   0.760   6.558   3.228
10244SOL     OW31630   1.529   5.616   0.163
10244SOL    HW131631   1.558   5.684   0.230
10244SOL    HW231632   1.469   5.549   0.207
10245SOL     OW31633   2.472   2.558   0.471
10245SOL    HW131634   2.535   2.535   0.545
10245SOL    HW231635   2.517   2.619   0.406
10246SOL     OW31636   3.111   3.330   4.459
10246SOL    HW131637   3.163   3.400   4.409
10246SOL    HW231638   3.078   3.369   4.545
10247SOL     OW31639   0.839   5.690   5.529
10247SOL    HW131640   0.823   5.650   5.619
10247SOL    HW231641   0.841   5.617   5.460
10248SOL     OW31642   5.883   0.764   3.838
10248SOL    HW131643   5.854   0.699   3.908
10248SOL    HW231644   5.840   0.853   3.855
10249SOL     OW31645   4.790   1.068   6.058
10249SOL    HW131646   4.788   1.113   6.147
10249SOL    HW231647   4.873   1.014   6.050
10250SOL     OW31648   5.281   6.722   0.591
10250SOL    HW131649   5.181   6.719   0.590
10250SOL    HW231650   5.315   6.763   0.506
10251SOL     OW31651   3.533   4.509   1.196
10251SOL    HW131652   3.568   4.602   1.202
10251SOL    HW231653   3.534   4.479   1.101
10252SOL     OW31654   0.424   4.446   1.060
10252SOL    HW131655   0.345   4.390   1.086
10252SOL    HW231656   0.492   4.444   1.133
10253SOL     OW31657   3.794   4.713   0.309
10253SOL    HW131658   3.831   4.650   0.377
10253SOL    HW231659   3.741   4.784   0.354
10254SOL     OW31660   2.135   1.381   4.760
10254SOL    HW131661   2.112   1.410   4.667
10254SOL    HW231662   2.186   1.454   4.806
10255SOL     OW31663   3.070   5.722   2.949
10255SOL    HW131664   3.044   5.793   2.884
10255SOL    HW231665   3.092   5.764   3.037
10256SOL     OW31666   6.073   6.509   0.333
10256SOL    HW131667   6.118   6.596   0.353
10256SOL    HW231668   6.014   6.520   0.253
10257SOL     OW31669   1.550   5.548   5.309
10257SOL    HW131670   1.577   5.553   5.405
10257SOL    HW231671   1.625   5.509   5.255
10258SOL     OW31672   4.011   0.757   3.241
10258SOL    HW131673   3.928   0.809   3.263
10258SOL    HW231674   4.091   0.812   3.263
10259SOL     OW31675   0.478   3.816   3.999
10259SOL    HW131676   0.479   3.738   3.936
10259SOL    HW231677   0.398   3.873   3.980
10260SOL     OW31678   0.063   5.815   2.419
10260SOL    HW131679   0.124   5.740   2.443
10260SOL    HW231680   0.117   5.897   2.401
10261SOL     OW31681   1.719   0.234   2.167
10261SOL    HW131682   1.737   0.142   2.132
10261SOL    HW231683   1.662   0.284   2.102
10262SOL     OW31684   1.436   6.364   4.025
10262SOL    HW131685   1.458   6.427   4.100
10262SOL    HW231686   1.402   6.416   3.947
10263SOL     OW31687   6.264   2.958   5.586
10263SOL    HW131688   6.261   3.013   5.502
10263SOL    HW231689   6.291   3.017   5.663
10264SOL     OW31690   0.606   6.841   0.235
10264SOL    HW131691   0.701   6.816   0.254
10264SOL    HW231692   0.602   6.894   0.150
10265SOL     OW31693   4.419   2.092   2.660
10265SOL    HW131694   4.481   2.088   2.582
10265SOL    HW231695   4.434   2.014   2.720
10266SOL     OW31696   4.048   3.840   6.725
10266SOL    HW131697   4.082   3.871   6.636
10266SOL    HW231698   3.989   3.911   6.764
10267SOL     OW31699   6.393   1.231   6.290
10267SOL    HW131700   6.323   1.299   6.311
10267SOL    HW231701   6.467   1.274   6.237
10268SOL     OW31702   6.762   3.754   1.185
10268SOL    HW131703   6.702   3.824   1.225
10268SOL    HW231704   6.789   3.689   1.255
10269SOL     OW31705   3.640   2.203   6.093
10269SOL    HW131706   3.710   2.211   6.164
10269SOL    HW231707   3.568   2.141   6.123
10270SOL     OW31708   2.915   6.198   1.856
10270SOL    HW131709   2.924   6.169   1.952
10270SOL    HW231710   2.969   6.281   1.841
10271SOL     OW31711   2.562   5.366   1.022
10271SOL    HW131712   2.539   5.270   1.035
10271SOL    HW231713   2.478   5.418   1.006
10272SOL     OW31714   1.645   1.909   4.353
10272SOL    HW131715   1.741   1.894   4.376
10272SOL    HW231716   1.635   1.906   4.253
10273SOL     OW31717   4.541   6.824   3.836
10273SOL    HW131718   4.511   6.834   3.931
10273SOL    HW231719   4.479   6.875   3.776
10274SOL     OW31720   2.772   4.739   6.471
10274SOL    HW131721   2.788   4.837   6.460
10274SOL    HW231722   2.704   4.725   6.543
10275SOL     OW31723   0.875   6.800   1.739
10275SOL    HW131724   0.968   6.819   1.771
10275SOL    HW231725   0.850   6.867   1.669
10276SOL     OW31726   0.944   6.440   6.903
10276SOL    HW131727   1.007   6.489   6.843
10276SOL    HW231728   0.884   6.505   6.949
10277SOL     OW31729   0.573   5.853   2.026
10277SOL    HW131730   0.640   5.839   2.098
10277SOL    HW231731   0.511   5.775   2.021
10278SOL     OW31732   6.634   0.124   5.380
10278SOL    HW131733   6.672   0.033   5.369
10278SOL    HW231734   6.548   0.119   5.431
10279SOL     OW31735   3.613   6.268   5.013
10279SOL    HW131736   3.692   6.314   4.973
10279SOL    HW231737   3.584   6.316   5.096
10280SOL     OW31738   3.661   2.879   7.021
10280SOL    HW131739   3.573   2.871   0.041
10280SOL    HW231740   3.731   2.830   0.046
10281SOL     OW31741   5.107   0.075   4.148
10281SOL    HW131742   5.200   0.067   4.185
10281SOL    HW231743   5.089   7.024   4.087
10282SOL     OW31744   1.192   2.712   4.473
10282SOL    HW131745   1.249   2.637   4.504
10282SOL    HW231746   1.210   2.793   4.529
10283SOL     OW31747   1.622   4.492   6.106
10283SOL    HW131748   1.575   4.576   6.132
10283SOL    HW231749   1.662   4.503   6.015
10284SOL     OW31750   4.871   3.017   6.895
10284SOL    HW131751   4.963   3.049   6.913
10284SOL    HW231752   4.828   3.075   6.825
10285SOL     OW31753   5.349   1.319   1.076
10285SOL    HW131754   5.296   1.249   1.124
10285SOL    HW231755   5.377   1.391   1.140
10286SOL     OW31756   4.565   0.619   3.934
10286SOL    HW131757   4.623   0.541   3.912
10286SOL    HW231758   4.489   0.590   3.992
10287SOL     OW31759   1.592   4.732   2.049
10287SOL    HW131760   1.605   4.831   2.038
10287SOL    HW231761   1.641   4.702   2.131
10288SOL     OW31762   4.781   6.344   4.372
10288SOL    HW131763   4.748   6.253   4.346
10288SOL    HW231764   4.753   6.363   4.466
10289SOL     OW31765   2.836   1.382   1.619
10289SOL    HW131766   2.771   1.312   1.649
10289SOL    HW231767   2.829   1.462   1.678
10290SOL     OW31768   3.099   3.060   2.341
10290SOL    HW131769   3.193   3.030   2.323
10290SOL    HW231770   3.063   3.108   2.262
10291SOL     OW31771   4.079   0.573   4.956
10291SOL    HW131772   4.090   0.594   4.858
10291SOL    HW231773   4.128   0.641   5.010
10292SOL     OW31774   0.507   2.151   4.859
10292SOL    HW131775   0.448   2.182   4.784
10292SOL    HW231776   0.589   2.107   4.822
10293SOL     OW31777   3.306   5.534   3.293
10293SOL    HW131778   3.363   5.463   3.333
10293SOL    HW231779   3.362   5.594   3.235
10294SOL     OW31780   6.689   1.478   2.990
10294SOL    HW131781   6.726   1.417   3.060
10294SOL    HW231782   6.664   1.425   2.909
10295SOL     OW31783   1.633   4.268   4.239
10295SOL    HW131784   1.610   4.331   4.165
10295SOL    HW231785   1.678   4.317   4.313
10296SOL     OW31786   6.870   3.045   1.848
10296SOL    HW131787   6.857   2.972   1.914
10296SOL    HW231788   6.961   3.038   1.807
10297SOL     OW31789   3.263   5.533   5.077
10297SOL    HW131790   3.257   5.555   5.175
10297SOL    HW231791   3.327   5.458   5.064
10298SOL     OW31792   5.805   3.418   3.144
10298SOL    HW131793   5.873   3.388   3.212
10298SOL    HW231794   5.715   3.421   3.187
10299SOL     OW31795   4.877   3.970   2.033
10299SOL    HW131796   4.859   3.900   2.102
10299SOL    HW231797   4.971   3.961   1.999
10300SOL     OW31798   0.979   5.295   1.635
10300SOL    HW131799   0.934   5.383   1.620
10300SOL    HW231800   0.927   5.223   1.590
10301SOL     OW31801   4.624   1.139   1.435
10301SOL    HW131802   4.609   1.233   1.467
10301SOL    HW231803   4.722   1.125   1.420
10302SOL     OW31804   2.240   4.128   4.229
10302SOL    HW131805   2.280   4.157   4.142
10302SOL    HW231806   2.305   4.144   4.303
10303SOL     OW31807   4.359   2.433   1.484
10303SOL    HW131808   4.294   2.465   1.552
10303SOL    HW231809   4.448   2.476   1.499
10304SOL     OW31810   6.080   6.403   3.454
10304SOL    HW131811   6.104   6.499   3.467
10304SOL    HW231812   6.126   6.348   3.524
10305SOL     OW31813   2.060   5.450   1.363
10305SOL    HW131814   2.053   5.487   1.271
10305SOL    HW231815   2.026   5.356   1.364
10306SOL     OW31816   4.107   4.515   0.844
10306SOL    HW131817   4.074   4.458   0.769
10306SOL    HW231818   4.031   4.536   0.906
10307SOL     OW31819   2.523   1.671   5.339
10307SOL    HW131820   2.493   1.592   5.391
10307SOL    HW231821   2.459   1.747   5.353
10308SOL     OW31822   2.845   5.550   3.792
10308SOL    HW131823   2.828   5.475   3.728
10308SOL    HW231824   2.780   5.543   3.868
10309SOL     OW31825   0.053   5.935   3.613
10309SOL    HW131826   0.117   5.863   3.586
10309SOL    HW231827   7.005   5.896   3.667
10310SOL     OW31828   3.585   2.902   4.769
10310SOL    HW131829   3.621   2.927   4.859
10310SOL    HW231830   3.658   2.861   4.715
10311SOL     OW31831   0.737   0.229   0.442
10311SOL    HW131832   0.707   0.286   0.518
10311SOL    HW231833   0.658   0.203   0.386
10312SOL     OW31834   2.394   4.765   1.115
10312SOL    HW131835   2.311   4.786   1.166
10312SOL    HW231836   2.429   4.848   1.073
10313SOL     OW31837   6.634   5.655   3.609
10313SOL    HW131838   6.553   5.644   3.668
10313SOL    HW231839   6.716   5.640   3.663
10314SOL     OW31840   6.354   5.346   5.446
10314SOL    HW131841   6.282   5.323   5.512
10314SOL    HW231842   6.327   5.316   5.355
10315SOL     OW31843   4.451   6.960   5.414
10315SOL    HW131844   4.501   6.885   5.456
10315SOL    HW231845   4.374   6.987   5.472
10316SOL     OW31846   0.281   3.851   3.066
10316SOL    HW131847   0.347   3.843   2.992
10316SOL    HW231848   0.232   3.938   3.058
10317SOL     OW31849   4.854   4.769   0.292
10317SOL    HW131850   4.850   4.858   0.337
10317SOL    HW231851   4.905   4.705   0.349
10318SOL     OW31852   6.072   5.209   2.710
10318SOL    HW131853   6.055   5.298   2.752
10318SOL    HW231854   6.127   5.221   2.628
10319SOL     OW31855   5.354   6.592   4.596
10319SOL    HW131856   5.339   6.619   4.691
10319SOL    HW231857   5.325   6.497   4.583
10320SOL     OW31858   4.342   5.497   2.289
10320SOL    HW131859   4.422   5.555   2.272
10320SOL    HW231860   4.272   5.551   2.336
10321SOL     OW31861   3.988   0.094   4.166
10321SOL    HW131862   4.033   0.156   4.101
10321SOL    HW231863   3.943   0.021   4.116
10322SOL     OW31864   0.813   2.194   6.812
10322SOL    HW131865   0.911   2.187   6.828
10322SOL    HW231866   0.764   2.141   6.881
10323SOL     OW31867   0.699   2.273   5.570
10323SOL    HW131868   0.763   2.342   5.535
10323SOL    HW231869   0.678   2.294   5.665
10324SOL     OW31870   3.804   2.972   4.562
10324SOL    HW131871   3.867   2.963   4.484
10324SOL    HW231872   3.721   3.019   4.532
10325SOL     OW31873   6.760   3.843   3.441
10325SOL    HW131874   6.706   3.871   3.362
10325SOL    HW231875   6.815   3.763   3.418
10326SOL     OW31876   5.464   2.090   1.547
10326SOL    HW131877   5.388   2.130   1.497
10326SOL    HW231878   5.537   2.065   1.483
10327SOL     OW31879   6.321   1.107   3.388
10327SOL    HW131880   6.345   1.044   3.462
10327SOL    HW231881   6.243   1.071   3.337
10328SOL     OW31882   6.295   4.124   2.545
10328SOL    HW131883   6.392   4.101   2.543
10328SOL    HW231884   6.278   4.193   2.616
10329SOL     OW31885   3.621   5.805   2.861
10329SOL    HW131886   3.689   5.856   2.913
10329SOL    HW231887   3.642   5.707   2.864
10330SOL     OW31888   3.153   3.652   0.932
10330SOL    HW131889   3.114   3.734   0.889
10330SOL    HW231890   3.253   3.653   0.921
10331SOL     OW31891   5.157   1.068   4.329
10331SOL    HW131892   5.065   1.077   4.290
10331SOL    HW231893   5.225   1.088   4.258
10332SOL     OW31894   0.877   1.162   6.270
10332SOL    HW131895   0.902   1.255   6.243
10332SOL    HW231896   0.959   1.106   6.277
10333SOL     OW31897   6.333   4.613   5.602
10333SOL    HW131898   6.410   4.550   5.612
10333SOL    HW231899   6.293   4.602   5.511
10334SOL     OW31900   0.768   5.092   5.047
10334SOL    HW131901   0.828   5.106   5.126
10334SOL    HW231902   0.746   4.995   5.039
10335SOL     OW31903   3.103   5.183   2.505
10335SOL    HW131904   3.172   5.128   2.553
10335SOL    HW231905   3.148   5.253   2.451
10336SOL     OW31906   5.055   6.897   2.855
10336SOL    HW131907   5.077   6.875   2.950
10336SOL    HW231908   4.982   6.836   2.824
10337SOL     OW31909   0.227   4.318   5.647
10337SOL    HW131910   0.275   4.304   5.560
10337SOL    HW231911   0.283   4.282   5.721
10338SOL     OW31912   2.616   5.063   2.714
10338SOL    HW131913   2.567   5.150   2.706
10338SOL    HW231914   2.673   5.050   2.633
10339SOL     OW31915   2.674   5.448   0.793
10339SOL    HW131916   2.774   5.453   0.785
10339SOL    HW231917   2.649   5.412   0.883
10340SOL     OW31918   1.893   6.572   0.404
10340SOL    HW131919   1.796   6.592   0.388
10340SOL    HW231920   1.906   6.546   0.500
10341SOL     OW31921   0.655   2.278   1.687
10341SOL    HW131922   0.598   2.360   1.682
10341SOL    HW231923   0.607   2.201   1.644
10342SOL     OW31924   3.782   6.291   4.430
10342SOL    HW131925   3.749   6.268   4.521
10342SOL    HW231926   3.740   6.229   4.363
10343SOL     OW31927   2.358   2.591   4.324
10343SOL    HW131928   2.300   2.585   4.406
10343SOL    HW231929   2.399   2.501   4.306
10344SOL     OW31930   4.356   3.137   1.765
10344SOL    HW131931   4.434   3.089   1.806
10344SOL    HW231932   4.368   3.236   1.777
10345SOL     OW31933   3.005   2.290   5.998
10345SOL    HW131934   2.976   2.300   5.903
10345SOL    HW231935   3.014   2.381   6.040
10346SOL     OW31936   6.252   5.700   0.752
10346SOL    HW131937   6.291   5.779   0.799
10346SOL    HW231938   6.216   5.728   0.663
10347SOL     OW31939   4.530   6.913   1.575
10347SOL    HW131940   4.518   6.876   1.483
10347SOL    HW231941   4.521   7.012   1.572
10348SOL     OW31942   6.818   4.785   5.702
10348SOL    HW131943   6.916   4.764   5.710
10348SOL    HW231944   6.791   4.845   5.777
10349SOL     OW31945   6.484   2.269   0.537
10349SOL    HW131946   6.520   2.309   0.621
10349SOL    HW231947   6.421   2.333   0.494
10350SOL     OW31948   2.137   4.733   4.388
10350SOL    HW131949   2.163   4.694   4.476
10350SOL    HW231950   2.037   4.737   4.381
10351SOL     OW31951   3.601   4.992   4.829
10351SOL    HW131952   3.565   4.959   4.742
10351SOL    HW231953   3.544   4.960   4.904
10352SOL     OW31954   6.828   0.868   0.453
10352SOL    HW131955   6.742   0.883   0.404
10352SOL    HW231956   6.889   0.946   0.440
10353SOL     OW31957   6.336   2.096   3.872
10353SOL    HW131958   6.310   2.189   3.845
10353SOL    HW231959   6.254   2.044   3.895
10354SOL     OW31960   6.403   2.935   1.069
10354SOL    HW131961   6.362   2.979   1.149
10354SOL    HW231962   6.502   2.946   1.071
10355SOL     OW31963   0.703   1.713   0.891
10355SOL    HW131964   0.690   1.804   0.931
10355SOL    HW231965   0.702   1.644   0.964
10356SOL     OW31966   5.762   2.337   6.625
10356SOL    HW131967   5.673   2.339   6.579
10356SOL    HW231968   5.817   2.415   6.595
10357SOL     OW31969   1.220   0.038   5.935
10357SOL    HW131970   1.287   7.004   5.977
10357SOL    HW231971   1.217   0.124   5.985
10358SOL     OW31972   0.483   2.563   2.889
10358SOL    HW131973   0.480   2.466   2.910
10358SOL    HW231974   0.448   2.578   2.796
10359SOL     OW31975   0.368   2.106   2.074
10359SOL    HW131976   0.320   2.039   2.017
10359SOL    HW231977   0.325   2.110   2.165
10360SOL     OW31978   6.188   3.947   0.903
10360SOL    HW131979   6.104   3.915   0.857
10360SOL    HW231980   6.242   3.868   0.931
10361SOL     OW31981   6.281   2.029   2.062
10361SOL    HW131982   6.346   2.091   2.019
10361SOL    HW231983   6.191   2.072   2.065
10362SOL     OW31984   1.067   5.572   2.087
10362SOL    HW131985   1.123   5.610   2.161
10362SOL    HW231986   0.986   5.528   2.125
10363SOL     OW31987   5.684   5.104   6.695
10363SOL    HW131988   5.648   5.018   6.731
10363SOL    HW231989   5.609   5.157   6.655
10364SOL     OW31990   5.787   5.557   2.660
10364SOL    HW131991   5.789   5.657   2.663
10364SOL    HW231992   5.692   5.526   2.658
10365SOL     OW31993   6.405   5.567   0.392
10365SOL    HW131994   6.493   5.612   0.407
10365SOL    HW231995   6.355   5.616   0.320
10366SOL     OW31996   2.816   6.763   3.891
10366SOL    HW131997   2.768   6.752   3.978
10366SOL    HW231998   2.750   6.785   3.819
10367SOL     OW31999   5.461   6.381   1.662
10367SOL    HW132000   5.499   6.386   1.570
10367SOL    HW232001   5.451   6.473   1.700
10368SOL     OW32002   0.821   5.481   2.193
10368SOL    HW132003   0.757   5.467   2.118
10368SOL    HW232004   0.813   5.404   2.258
10369SOL     OW32005   2.674   0.549   5.599
10369SOL    HW132006   2.673   0.577   5.695
10369SOL    HW232007   2.712   0.623   5.543
10370SOL     OW32008   2.167   1.508   5.662
10370SOL    HW132009   2.086   1.517   5.603
10370SOL    HW232010   2.187   1.596   5.704
10371SOL     OW32011   4.160   5.704   3.056
10371SOL    HW132012   4.147   5.691   2.958
10371SOL    HW232013   4.191   5.618   3.097
10372SOL     OW32014   2.347   6.402   1.035
10372SOL    HW132015   2.303   6.347   0.964
10372SOL    HW232016   2.395   6.342   1.099
10373SOL     OW32017   6.111   0.566   6.692
10373SOL    HW132018   6.015   0.588   6.710
10373SOL    HW232019   6.158   0.549   6.779
10374SOL     OW32020   2.642   4.972   3.295
10374SOL    HW132021   2.667   4.898   3.233
10374SOL    HW232022   2.653   5.060   3.249
10375SOL     OW32023   2.428   5.424   0.689
10375SOL    HW132024   2.525   5.410   0.711
10375SOL    HW232025   2.413   5.404   0.593
10376SOL     OW32026   2.336   4.823   3.696
10376SOL    HW132027   2.388   4.848   3.777
10376SOL    HW232028   2.399   4.807   3.619
10377SOL     OW32029   2.324   0.867   2.433
10377SOL    HW132030   2.392   0.925   2.478
10377SOL    HW232031   2.364   0.778   2.412
10378SOL     OW32032   0.615   6.110   5.011
10378SOL    HW132033   0.525   6.153   4.997
10378SOL    HW232034   0.666   6.111   4.925
10379SOL     OW32035   2.024   0.071   3.558
10379SOL    HW132036   1.999   0.059   3.462
10379SOL    HW232037   2.116   0.111   3.564
10380SOL     OW32038   3.656   1.450   3.848
10380SOL    HW132039   3.718   1.442   3.769
10380SOL    HW232040   3.651   1.362   3.894
10381SOL     OW32041   4.022   6.754   2.803
10381SOL    HW132042   3.973   6.687   2.859
10381SOL    HW232043   3.992   6.747   2.708
10382SOL     OW32044   4.247   5.321   2.098
10382SOL    HW132045   4.295   5.365   2.174
10382SOL    HW232046   4.180   5.257   2.134
10383SOL     OW32047   0.872   5.037   6.934
10383SOL    HW132048   0.908   5.125   6.903
10383SOL    HW232049   0.905   4.965   6.873
10384SOL     OW32050   4.894   5.754   1.204
10384SOL    HW132051   4.894   5.719   1.298
10384SOL    HW232052   4.914   5.852   1.205
10385SOL     OW32053   4.491   4.693   0.163
10385SOL    HW132054   4.555   4.768   0.151
10385SOL    HW232055   4.535   4.620   0.217
10386SOL     OW32056   0.107   0.345   1.114
10386SOL    HW132057   0.173   0.410   1.076
10386SOL    HW232058   0.136   0.316   1.205
10387SOL     OW32059   4.956   3.576   2.289
10387SOL    HW132060   5.008   3.661   2.290
10387SOL    HW232061   4.910   3.565   2.377
10388SOL     OW32062   1.645   0.064   4.947
10388SOL    HW132063   1.714   0.079   5.018
10388SOL    HW232064   1.595   7.006   4.967
10389SOL     OW32065   0.669   4.007   6.908
10389SOL    HW132066   0.717   4.052   6.832
10389SOL    HW232067   0.589   3.958   6.872
10390SOL     OW32068   1.926   2.678   1.895
10390SOL    HW132069   1.992   2.735   1.846
10390SOL    HW232070   1.891   2.607   1.835
10391SOL     OW32071   6.031   0.044   3.779
10391SOL    HW132072   5.993   7.012   3.850
10391SOL    HW232073   5.997   0.137   3.792
10392SOL     OW32074   6.643   4.405   4.234
10392SOL    HW132075   6.558   4.372   4.274
10392SOL    HW232076   6.649   4.504   4.244
10393SOL     OW32077   1.932   2.609   2.643
10393SOL    HW132078   1.995   2.610   2.565
10393SOL    HW232079   1.935   2.698   2.689
10394SOL     OW32080   3.305   0.265   4.238
10394SOL    HW132081   3.329   0.360   4.257
10394SOL    HW232082   3.209   0.250   4.262
10395SOL     OW32083   0.708   0.427   1.076
10395SOL    HW132084   0.655   0.495   1.127
10395SOL    HW232085   0.659   0.340   1.076
10396SOL     OW32086   3.266   2.030   4.981
10396SOL    HW132087   3.190   1.967   4.967
10396SOL    HW232088   3.232   2.124   4.977
10397SOL     OW32089   5.243   2.016   4.123
10397SOL    HW132090   5.329   2.018   4.071
10397SOL    HW232091   5.243   1.938   4.184
10398SOL     OW32092   6.035   2.600   2.450
10398SOL    HW132093   5.968   2.615   2.377
10398SOL    HW232094   6.071   2.688   2.481
10399SOL     OW32095   0.896   3.908   2.349
10399SOL    HW132096   0.955   3.863   2.283
10399SOL    HW232097   0.809   3.860   2.355
10400SOL     OW32098   2.240   6.272   0.778
10400SOL    HW132099   2.218   6.229   0.865
10400SOL    HW232100   2.332   6.245   0.750
10401SOL     OW32101   0.248   0.998   5.784
10401SOL    HW132102   0.238   0.918   5.843
10401SOL    HW232103   0.244   1.081   5.839
10402SOL     OW32104   6.719   3.301   5.331
10402SOL    HW132105   6.729   3.256   5.420
10402SOL    HW232106   6.624   3.331   5.320
10403SOL     OW32107   3.305   6.642   0.741
10403SOL    HW132108   3.382   6.687   0.786
10403SOL    HW232109   3.327   6.625   0.645
10404SOL     OW32110   6.623   6.810   6.094
10404SOL    HW132111   6.552   6.782   6.158
10404SOL    HW232112   6.584   6.822   6.003
10405SOL     OW32113   0.857   2.528   6.507
10405SOL    HW132114   0.809   2.599   6.559
10405SOL    HW232115   0.914   2.474   6.569
10406SOL     OW32116   1.764   4.971   1.349
10406SOL    HW132117   1.749   5.062   1.309
10406SOL    HW232118   1.677   4.932   1.376
10407SOL     OW32119   2.297   6.104   5.727
10407SOL    HW132120   2.291   6.005   5.711
10407SOL    HW232121   2.297   6.122   5.825
10408SOL     OW32122   4.158   1.240   0.058
10408SOL    HW132123   4.183   1.309   0.126
10408SOL    HW232124   4.106   1.166   0.102
10409SOL     OW32125   5.882   4.679   1.045
10409SOL    HW132126   5.919   4.772   1.050
10409SOL    HW232127   5.951   4.617   1.009
10410SOL     OW32128   4.837   0.273   0.593
10410SOL    HW132129   4.785   0.357   0.607
10410SOL    HW232130   4.869   0.239   0.681
10411SOL     OW32131   2.515   4.902   3.898
10411SOL    HW132132   2.531   4.995   3.931
10411SOL    HW232133   2.546   4.837   3.968
10412SOL     OW32134   5.409   7.014   0.649
10412SOL    HW132135   5.351   0.049   0.702
10412SOL    HW232136   5.504   7.024   0.679
10413SOL     OW32137   6.889   3.273   1.998
10413SOL    HW132138   6.857   3.249   1.906
10413SOL    HW232139   6.932   3.192   2.040
10414SOL     OW32140   5.001   2.587   4.310
10414SOL    HW132141   4.965   2.502   4.346
10414SOL    HW232142   4.944   2.663   4.340
10415SOL     OW32143   0.363   0.621   6.363
10415SOL    HW132144   0.455   0.623   6.325
10415SOL    HW232145   0.298   0.659   6.297
10416SOL     OW32146   5.457   3.457   4.090
10416SOL    HW132147   5.517   3.489   4.016
10416SOL    HW232148   5.386   3.398   4.052
10417SOL     OW32149   2.847   4.773   3.067
10417SOL    HW132150   2.923   4.823   3.109
10417SOL    HW232151   2.780   4.748   3.137
10418SOL     OW32152   1.868   5.444   5.784
10418SOL    HW132153   1.949   5.503   5.778
10418SOL    HW232154   1.877   5.369   5.719
10419SOL     OW32155   1.584   1.413   0.702
10419SOL    HW132156   1.574   1.512   0.711
10419SOL    HW232157   1.495   1.372   0.682
10420SOL     OW32158   0.482   3.500   3.403
10420SOL    HW132159   0.428   3.423   3.367
10420SOL    HW232160   0.543   3.535   3.331
10421SOL     OW32161   0.382   1.382   3.280
10421SOL    HW132162   0.377   1.354   3.376
10421SOL    HW232163   0.291   1.381   3.239
10422SOL     OW32164   5.528   3.625   5.755
10422SOL    HW132165   5.495   3.703   5.807
10422SOL    HW232166   5.561   3.554   5.818
10423SOL     OW32167   5.054   4.403   2.774
10423SOL    HW132168   5.086   4.406   2.679
10423SOL    HW232169   5.112   4.342   2.827
10424SOL     OW32170   4.863   1.709   6.569
10424SOL    HW132171   4.772   1.744   6.592
10424SOL    HW232172   4.858   1.610   6.557
10425SOL     OW32173   2.282   6.341   1.738
10425SOL    HW132174   2.231   6.397   1.804
10425SOL    HW232175   2.283   6.246   1.770
10426SOL     OW32176   6.413   3.720   0.464
10426SOL    HW132177   6.414   3.804   0.411
10426SOL    HW232178   6.358   3.733   0.547
10427SOL     OW32179   4.567   1.308   1.103
10427SOL    HW132180   4.550   1.405   1.085
10427SOL    HW232181   4.505   1.276   1.174
10428SOL     OW32182   4.543   0.869   4.240
10428SOL    HW132183   4.549   0.948   4.178
10428SOL    HW232184   4.554   0.900   4.334
10429SOL     OW32185   6.074   6.471   1.860
10429SOL    HW132186   6.042   6.391   1.808
10429SOL    HW232187   6.039   6.554   1.817
10430SOL     OW32188   3.973   6.404   3.231
10430SOL    HW132189   3.965   6.305   3.219
10430SOL    HW232190   4.055   6.425   3.285
10431SOL     OW32191   2.117   1.238   5.326
10431SOL    HW132192   2.184   1.240   5.400
10431SOL    HW232193   2.050   1.167   5.344
10432SOL     OW32194   5.227   1.233   5.000
10432SOL    HW132195   5.165   1.221   5.078
10432SOL    HW232196   5.244   1.145   4.957
10433SOL     OW32197   2.686   6.695   1.070
10433SOL    HW132198   2.648   6.638   0.998
10433SOL    HW232199   2.736   6.772   1.029
10434SOL     OW32200   2.323   2.103   4.326
10434SOL    HW132201   2.312   2.075   4.231
10434SOL    HW232202   2.304   2.025   4.386
10435SOL     OW32203   5.505   5.962   6.959
10435SOL    HW132204   5.480   5.949   6.863
10435SOL    HW232205   5.492   5.876   7.008
10436SOL     OW32206   1.012   7.008   2.171
10436SOL    HW132207   1.103   6.983   2.204
10436SOL    HW232208   1.018   0.018   2.079
10437SOL     OW32209   6.427   5.225   6.043
10437SOL    HW132210   6.507   5.232   5.983
10437SOL    HW232211   6.359   5.166   6.000
10438SOL     OW32212   3.638   6.710   6.224
10438SOL    HW132213   3.550   6.691   6.267
10438SOL    HW232214   3.706   6.645   6.257
10439SOL     OW32215   4.187   0.320   5.629
10439SOL    HW132216   4.246   0.276   5.696
10439SOL    HW232217   4.243   0.373   5.565
10440SOL     OW32218   2.494   6.032   0.429
10440SOL    HW132219   2.417   5.980   0.466
10440SOL    HW232220   2.460   6.114   0.383
10441SOL     OW32221   3.921   0.406   6.646
10441SOL    HW132222   3.976   0.466   6.705
10441SOL    HW232223   3.919   0.444   6.553
10442SOL     OW32224   4.325   6.095   5.762
10442SOL    HW132225   4.372   6.013   5.795
10442SOL    HW232226   4.227   6.087   5.780
10443SOL     OW32227   6.004   2.913   5.277
10443SOL    HW132228   6.051   2.868   5.354
10443SOL    HW232229   6.072   2.950   5.214
10444SOL     OW32230   3.502   5.024   4.138
10444SOL    HW132231   3.484   5.120   4.117
10444SOL    HW232232   3.416   4.979   4.161
10445SOL     OW32233   5.964   5.978   3.539
10445SOL    HW132234   5.886   5.917   3.550
10445SOL    HW232235   5.961   6.019   3.448
10446SOL     OW32236   0.736   6.354   6.682
10446SOL    HW132237   0.671   6.302   6.737
10446SOL    HW232238   0.801   6.400   6.742
10447SOL     OW32239   6.414   2.043   1.130
10447SOL    HW132240   6.405   1.977   1.055
10447SOL    HW232241   6.400   2.135   1.094
10448SOL     OW32242   3.290   4.069   2.275
10448SOL    HW132243   3.237   3.984   2.272
10448SOL    HW232244   3.235   4.144   2.238
10449SOL     OW32245   1.339   5.109   4.705
10449SOL    HW132246   1.323   5.133   4.609
10449SOL    HW232247   1.419   5.050   4.711
10450SOL     OW32248   0.004   3.109   0.520
10450SOL    HW132249   6.999   3.021   0.557
10450SOL    HW232250   0.093   3.096   0.476
10451SOL     OW32251   2.300   4.274   2.612
10451SOL    HW132252   2.266   4.282   2.518
10451SOL    HW232253   2.223   4.274   2.675
10452SOL     OW32254   1.013   3.734   4.908
10452SOL    HW132255   0.964   3.719   4.822
10452SOL    HW232256   0.972   3.810   4.958
10453SOL     OW32257   5.328   0.389   1.606
10453SOL    HW132258   5.365   0.334   1.531
10453SOL    HW232259   5.238   0.425   1.579
10454SOL     OW32260   5.007   3.619   2.741
10454SOL    HW132261   4.970   3.638   2.831
10454SOL    HW232262   4.992   3.523   2.718
10455SOL     OW32263   6.745   4.557   2.938
10455SOL    HW132264   6.717   4.548   3.033
10455SOL    HW232265   6.843   4.537   2.929
10456SOL     OW32266   3.687   6.247   1.219
10456SOL    HW132267   3.632   6.300   1.156
10456SOL    HW232268   3.670   6.278   1.313
10457SOL     OW32269   3.582   3.254   4.027
10457SOL    HW132270   3.562   3.273   3.931
10457SOL    HW232271   3.568   3.337   4.081
10458SOL     OW32272   6.751   6.764   1.747
10458SOL    HW132273   6.784   6.844   1.696
10458SOL    HW232274   6.785   6.768   1.841
10459SOL     OW32275   6.364   4.575   2.578
10459SOL    HW132276   6.351   4.669   2.545
10459SOL    HW232277   6.332   4.569   2.673
10460SOL     OW32278   2.166   5.143   2.020
10460SOL    HW132279   2.165   5.161   2.118
10460SOL    HW232280   2.126   5.221   1.971
10461SOL     OW32281   2.461   1.589   6.490
10461SOL    HW132282   2.383   1.570   6.550
10461SOL    HW232283   2.428   1.609   6.398
10462SOL     OW32284   5.228   6.904   1.294
10462SOL    HW132285   5.321   6.898   1.256
10462SOL    HW232286   5.230   6.881   1.391
10463SOL     OW32287   2.928   3.803   1.326
10463SOL    HW132288   3.002   3.840   1.382
10463SOL    HW232289   2.925   3.703   1.338
10464SOL     OW32290   5.392   0.053   1.518
10464SOL    HW132291   5.309   0.034   1.570
10464SOL    HW232292   5.370   0.060   1.421
10465SOL     OW32293   6.812   5.030   5.097
10465SOL    HW132294   6.751   5.012   5.019
10465SOL    HW232295   6.789   4.967   5.172
10466SOL     OW32296   4.716   6.317   6.504
10466SOL    HW132297   4.749   6.410   6.488
10466SOL    HW232298   4.774   6.272   6.572
10467SOL     OW32299   4.293   0.634   3.733
10467SOL    HW132300   4.389   0.631   3.763
10467SOL    HW232301   4.246   0.708   3.781
10468SOL     OW32302   3.444   5.790   3.088
10468SOL    HW132303   3.495   5.785   3.174
10468SOL    HW232304   3.506   5.814   3.014
10469SOL     OW32305   1.637   5.060   6.892
10469SOL    HW132306   1.636   5.154   6.859
10469SOL    HW232307   1.613   5.058   6.989
10470SOL     OW32308   2.844   1.788   4.150
10470SOL    HW132309   2.920   1.776   4.214
10470SOL    HW232310   2.840   1.884   4.122
10471SOL     OW32311   4.493   3.903   0.534
10471SOL    HW132312   4.541   3.862   0.457
10471SOL    HW232313   4.557   3.958   0.587
10472SOL     OW32314   4.683   1.757   3.316
10472SOL    HW132315   4.762   1.793   3.365
10472SOL    HW232316   4.710   1.675   3.265
10473SOL     OW32317   5.029   5.503   0.322
10473SOL    HW132318   4.931   5.499   0.341
10473SOL    HW232319   5.044   5.537   0.229
10474SOL     OW32320   5.257   0.897   4.562
10474SOL    HW132321   5.325   0.825   4.545
10474SOL    HW232322   5.240   0.947   4.477
10475SOL     OW32323   4.716   6.134   1.838
10475SOL    HW132324   4.669   6.220   1.819
10475SOL    HW232325   4.758   6.138   1.929
10476SOL     OW32326   0.374   4.860   0.357
10476SOL    HW132327   0.388   4.761   0.348
10476SOL    HW232328   0.450   4.900   0.409
10477SOL     OW32329   4.588   4.791   5.053
10477SOL    HW132330   4.683   4.786   5.025
10477SOL    HW232331   4.539   4.855   4.994
10478SOL     OW32332   0.602   6.170   2.426
10478SOL    HW132333   0.567   6.123   2.344
10478SOL    HW232334   0.651   6.253   2.398
10479SOL     OW32335   1.547   4.813   2.728
10479SOL    HW132336   1.519   4.718   2.713
10479SOL    HW232337   1.490   4.874   2.673
10480SOL     OW32338   5.754   0.363   2.115
10480SOL    HW132339   5.654   0.363   2.111
10480SOL    HW232340   5.784   0.322   2.201
10481SOL     OW32341   2.849   1.035   4.610
10481SOL    HW132342   2.933   1.088   4.617
10481SOL    HW232343   2.775   1.093   4.577
10482SOL     OW32344   1.006   5.466   5.546
10482SOL    HW132345   1.100   5.493   5.528
10482SOL    HW232346   1.004   5.393   5.615
10483SOL     OW32347   0.040   5.315   0.700
10483SOL    HW132348   6.995   5.247   0.716
10483SOL    HW232349   0.101   5.319   0.779
10484SOL     OW32350   5.885   1.856   1.301
10484SOL    HW132351   5.955   1.849   1.230
10484SOL    HW232352   5.910   1.796   1.377
10485SOL     OW32353   3.162   4.019   3.702
10485SOL    HW132354   3.215   3.939   3.728
10485SOL    HW232355   3.116   4.056   3.783
10486SOL     OW32356   5.764   5.378   5.175
10486SOL    HW132357   5.779   5.279   5.172
10486SOL    HW232358   5.680   5.400   5.126
10487SOL     OW32359   5.123   2.846   3.162
10487SOL    HW132360   5.068   2.930   3.164
10487SOL    HW232361   5.216   2.867   3.191
10488SOL     OW32362   0.100   2.342   5.567
10488SOL    HW132363   0.190   2.306   5.545
10488SOL    HW232364   0.049   2.360   5.483
10489SOL     OW32365   5.895   4.081   4.578
10489SOL    HW132366   5.970   4.026   4.540
10489SOL    HW232367   5.929   4.137   4.654
10490SOL     OW32368   5.749   6.821   6.551
10490SOL    HW132369   5.745   6.769   6.636
10490SOL    HW232370   5.795   6.766   6.480
10491SOL     OW32371   1.785   3.414   5.602
10491SOL    HW132372   1.870   3.367   5.626
10491SOL    HW232373   1.750   3.377   5.516
10492SOL     OW32374   3.288   5.660   0.438
10492SOL    HW132375   3.274   5.727   0.365
10492SOL    HW232376   3.369   5.684   0.491
10493SOL     OW32377   3.995   5.390   1.799
10493SOL    HW132378   3.907   5.359   1.762
10493SOL    HW232379   4.023   5.473   1.752
10494SOL     OW32380   0.764   4.432   4.243
10494SOL    HW132381   0.767   4.357   4.178
10494SOL    HW232382   0.857   4.459   4.267
10495SOL     OW32383   0.073   6.550   0.541
10495SOL    HW132384   0.086   6.501   0.455
10495SOL    HW232385   0.120   6.501   0.614
10496SOL     OW32386   0.154   4.814   6.285
10496SOL    HW132387   0.172   4.795   6.382
10496SOL    HW232388   0.133   4.728   6.238
10497SOL     OW32389   3.254   0.224   1.809
10497SOL    HW132390   3.255   0.124   1.802
10497SOL    HW232391   3.159   0.256   1.810
10498SOL     OW32392   4.235   3.514   6.576
10498SOL    HW132393   4.160   3.566   6.616
10498SOL    HW232394   4.246   3.541   6.480
10499SOL     OW32395   5.412   3.800   2.612
10499SOL    HW132396   5.483   3.785   2.543
10499SOL    HW232397   5.380   3.712   2.647
10500SOL     OW32398   1.339   3.165   5.090
10500SOL    HW132399   1.312   3.194   5.182
10500SOL    HW232400   1.423   3.111   5.096
10501SOL     OW32401   3.760   4.924   3.165
10501SOL    HW132402   3.773   5.023   3.153
10501SOL    HW232403   3.676   4.908   3.217
10502SOL     OW32404   3.227   3.300   2.485
10502SOL    HW132405   3.303   3.245   2.520
10502SOL    HW232406   3.143   3.244   2.485
10503SOL     OW32407   6.847   1.380   6.326
10503SOL    HW132408   6.863   1.291   6.368
10503SOL    HW232409   6.906   1.391   6.246
10504SOL     OW32410   0.970   4.049   5.913
10504SOL    HW132411   1.065   4.082   5.914
10504SOL    HW232412   0.915   4.103   5.976
10505SOL     OW32413   6.194   0.379   0.735
10505SOL    HW132414   6.138   0.397   0.654
10505SOL    HW232415   6.184   0.284   0.763
10506SOL     OW32416   1.506   4.361   5.589
10506SOL    HW132417   1.415   4.343   5.627
10506SOL    HW232418   1.501   4.434   5.521
10507SOL     OW32419   1.010   5.920   5.802
10507SOL    HW132420   1.059   5.956   5.881
10507SOL    HW232421   1.011   5.988   5.729
10508SOL     OW32422   1.685   5.811   6.550
10508SOL    HW132423   1.622   5.866   6.496
10508SOL    HW232424   1.737   5.751   6.488
10509SOL     OW32425   4.759   2.581   3.303
10509SOL    HW132426   4.751   2.661   3.363
10509SOL    HW232427   4.725   2.500   3.351
10510SOL     OW32428   5.487   5.808   3.651
10510SOL    HW132429   5.438   5.768   3.574
10510SOL    HW232430   5.449   5.773   3.737
10511SOL     OW32431   4.295   1.736   0.988
10511SOL    HW132432   4.201   1.769   0.997
10511SOL    HW232433   4.295   1.636   0.985
10512SOL     OW32434   4.080   1.961   5.789
10512SOL    HW132435   3.988   1.952   5.829
10512SOL    HW232436   4.147   1.920   5.851
10513SOL     OW32437   3.551   3.053   0.785
10513SOL    HW132438   3.553   2.963   0.827
10513SOL    HW232439   3.640   3.098   0.798
10514SOL     OW32440   1.685   4.985   1.720
10514SOL    HW132441   1.619   4.910   1.726
10514SOL    HW232442   1.640   5.071   1.745
10515SOL     OW32443   2.081   3.299   4.882
10515SOL    HW132444   2.160   3.346   4.921
10515SOL    HW232445   1.997   3.339   4.919
10516SOL     OW32446   5.157   1.944   2.055
10516SOL    HW132447   5.131   2.015   2.120
10516SOL    HW232448   5.256   1.937   2.051
10517SOL     OW32449   0.801   2.677   2.307
10517SOL    HW132450   0.869   2.643   2.242
10517SOL    HW232451   0.826   2.648   2.399
10518SOL     OW32452   0.736   5.778   2.223
10518SOL    HW132453   0.753   5.685   2.191
10518SOL    HW232454   0.820   5.816   2.261
10519SOL     OW32455   3.796   0.054   1.291
10519SOL    HW132456   3.774   0.138   1.341
10519SOL    HW232457   3.831   7.012   1.354
10520SOL     OW32458   1.871   2.563   6.403
10520SOL    HW132459   1.919   2.585   6.318
10520SOL    HW232460   1.875   2.464   6.418
10521SOL     OW32461   6.755   2.704   3.266
10521SOL    HW132462   6.781   2.750   3.350
10521SOL    HW232463   6.674   2.749   3.227
10522SOL     OW32464   5.658   1.527   3.886
10522SOL    HW132465   5.640   1.561   3.794
10522SOL    HW232466   5.603   1.579   3.952
10523SOL     OW32467   1.004   4.543   2.124
10523SOL    HW132468   1.000   4.592   2.037
10523SOL    HW232469   1.022   4.446   2.107
10524SOL     OW32470   6.744   5.780   4.589
10524SOL    HW132471   6.843   5.766   4.581
10524SOL    HW232472   6.695   5.699   4.557
10525SOL     OW32473   4.978   1.386   4.182
10525SOL    HW132474   5.037   1.399   4.262
10525SOL    HW232475   4.989   1.463   4.120
10526SOL     OW32476   1.456   5.458   6.333
10526SOL    HW132477   1.515   5.534   6.307
10526SOL    HW232478   1.431   5.467   6.429
10527SOL     OW32479   0.066   6.467   5.360
10527SOL    HW132480   0.159   6.429   5.362
10527SOL    HW232481   0.015   6.432   5.439
10528SOL     OW32482   2.253   4.865   5.084
10528SOL    HW132483   2.224   4.787   5.138
10528SOL    HW232484   2.287   4.937   5.144
10529SOL     OW32485   0.202   5.345   0.905
10529SOL    HW132486   0.211   5.277   0.977
10529SOL    HW232487   0.198   5.437   0.945
10530SOL     OW32488   6.939   6.566   1.324
10530SOL    HW132489   6.989   6.645   1.289
10530SOL    HW232490   6.914   6.582   1.420
10531SOL     OW32491   3.651   2.181   5.617
10531SOL    HW132492   3.587   2.174   5.694
10531SOL    HW232493   3.600   2.210   5.535
10532SOL     OW32494   4.730   6.079   5.787
10532SOL    HW132495   4.802   6.070   5.719
10532SOL    HW232496   4.649   6.027   5.758
10533SOL     OW32497   3.926   7.008   2.860
10533SOL    HW132498   3.969   0.035   2.933
10533SOL    HW232499   3.959   6.914   2.863
10534SOL     OW32500   1.626   6.094   3.903
10534SOL    HW132501   1.609   6.007   3.855
10534SOL    HW232502   1.626   6.169   3.836
10535SOL     OW32503   3.714   1.952   2.460
10535SOL    HW132504   3.759   2.000   2.385
10535SOL    HW232505   3.781   1.933   2.532
10536SOL     OW32506   5.417   3.738   5.149
10536SOL    HW132507   5.349   3.753   5.220
10536SOL    HW232508   5.422   3.819   5.090
10537SOL     OW32509   3.790   1.142   3.578
10537SOL    HW132510   3.749   1.180   3.495
10537SOL    HW232511   3.726   1.077   3.619
10538SOL     OW32512   6.799   2.879   3.463
10538SOL    HW132513   6.871   2.846   3.524
10538SOL    HW232514   6.729   2.926   3.517
10539SOL     OW32515   6.765   6.744   2.955
10539SOL    HW132516   6.718   6.658   2.975
10539SOL    HW232517   6.831   6.763   3.028
10540SOL     OW32518   1.764   4.043   0.148
10540SOL    HW132519   1.805   4.017   0.061
10540SOL    HW232520   1.670   4.073   0.133
10541SOL     OW32521   3.011   2.791   5.328
10541SOL    HW132522   2.989   2.857   5.400
10541SOL    HW232523   3.078   2.833   5.265
10542SOL     OW32524   5.022   6.196   2.711
10542SOL    HW132525   4.992   6.266   2.647
10542SOL    HW232526   5.084   6.237   2.778
10543SOL     OW32527   2.233   2.862   4.252
10543SOL    HW132528   2.177   2.867   4.334
10543SOL    HW232529   2.281   2.774   4.250
10544SOL     OW32530   3.157   1.179   2.354
10544SOL    HW132531   3.115   1.269   2.340
10544SOL    HW232532   3.204   1.177   2.442
10545SOL     OW32533   2.264   2.858   2.186
10545SOL    HW132534   2.287   2.791   2.258
10545SOL    HW232535   2.230   2.942   2.228
10546SOL     OW32536   2.560   6.796   6.825
10546SOL    HW132537   2.555   6.697   6.844
10546SOL    HW232538   2.525   6.846   6.904
10547SOL     OW32539   3.740   6.084   5.571
10547SOL    HW132540   3.726   6.072   5.669
10547SOL    HW232541   3.795   6.008   5.535
10548SOL     OW32542   0.597   6.352   3.465
10548SOL    HW132543   0.520   6.367   3.403
10548SOL    HW232544   0.667   6.422   3.449
10549SOL     OW32545   6.516   0.842   2.619
10549SOL    HW132546   6.477   0.764   2.569
10549SOL    HW232547   6.611   0.856   2.590
10550SOL     OW32548   5.035   5.437   3.007
10550SOL    HW132549   5.025   5.338   2.995
10550SOL    HW232550   4.948   5.476   3.035
10551SOL     OW32551   3.775   0.551   5.269
10551SOL    HW132552   3.723   0.504   5.198
10551SOL    HW232553   3.712   0.602   5.328
10552SOL     OW32554   3.337   7.020   3.569
10552SOL    HW132555   3.333   6.924   3.597
10552SOL    HW232556   3.254   0.040   3.600
10553SOL     OW32557   5.946   6.069   1.037
10553SOL    HW132558   5.992   6.007   1.101
10553SOL    HW232559   5.850   6.040   1.027
10554SOL     OW32560   6.077   6.533   2.109
10554SOL    HW132561   6.065   6.498   2.017
10554SOL    HW232562   6.173   6.554   2.125
10555SOL     OW32563   3.393   3.148   1.157
10555SOL    HW132564   3.348   3.062   1.132
10555SOL    HW232565   3.410   3.202   1.075
10556SOL     OW32566   2.546   1.746   1.949
10556SOL    HW132567   2.547   1.703   1.858
10556SOL    HW232568   2.473   1.707   2.004
10557SOL     OW32569   2.180   4.480   2.913
10557SOL    HW132570   2.147   4.575   2.914
10557SOL    HW232571   2.234   4.463   2.995
10558SOL     OW32572   3.852   5.085   4.814
10558SOL    HW132573   3.762   5.042   4.823
10558SOL    HW232574   3.923   5.016   4.823
10559SOL     OW32575   3.825   6.541   1.587
10559SOL    HW132576   3.741   6.514   1.633
10559SOL    HW232577   3.903   6.494   1.629
10560SOL     OW32578   5.504   6.516   3.278
10560SOL    HW132579   5.504   6.417   3.263
10560SOL    HW232580   5.573   6.540   3.346
10561SOL     OW32581   0.184   5.091   6.236
10561SOL    HW132582   0.205   5.001   6.273
10561SOL    HW232583   0.098   5.124   6.275
10562SOL     OW32584   4.130   6.160   2.290
10562SOL    HW132585   4.109   6.064   2.308
10562SOL    HW232586   4.223   6.167   2.254
10563SOL     OW32587   0.903   6.757   2.980
10563SOL    HW132588   0.982   6.737   3.038
10563SOL    HW232589   0.908   6.703   2.896
10564SOL     OW32590   4.974   4.518   3.185
10564SOL    HW132591   4.906   4.449   3.211
10564SOL    HW232592   5.066   4.479   3.196
10565SOL     OW32593   0.358   1.232   5.446
10565SOL    HW132594   0.395   1.161   5.506
10565SOL    HW232595   0.341   1.194   5.355
10566SOL     OW32596   3.574   1.607   0.782
10566SOL    HW132597   3.531   1.569   0.864
10566SOL    HW232598   3.659   1.558   0.763
10567SOL     OW32599   2.107   2.197   6.319
10567SOL    HW132600   2.185   2.178   6.378
10567SOL    HW232601   2.132   2.178   6.224
10568SOL     OW32602   5.077   2.024   6.022
10568SOL    HW132603   5.069   1.942   6.080
10568SOL    HW232604   5.064   2.105   6.078
10569SOL     OW32605   5.375   0.712   0.430
10569SOL    HW132606   5.473   0.725   0.446
10569SOL    HW232607   5.361   0.626   0.380
10570SOL     OW32608   1.685   3.494   3.346
10570SOL    HW132609   1.674   3.486   3.445
10570SOL    HW232610   1.780   3.475   3.321
10571SOL     OW32611   6.734   3.944   5.434
10571SOL    HW132612   6.688   3.860   5.406
10571SOL    HW232613   6.803   3.969   5.366
10572SOL     OW32614   6.617   4.290   0.928
10572SOL    HW132615   6.572   4.212   0.884
10572SOL    HW232616   6.578   4.305   1.019
10573SOL     OW32617   6.986   2.375   3.308
10573SOL    HW132618   6.974   2.275   3.305
10573SOL    HW232619   6.939   2.412   3.388
10574SOL     OW32620   6.282   2.553   2.797
10574SOL    HW132621   6.235   2.641   2.798
10574SOL    HW232622   6.233   2.488   2.855
10575SOL     OW32623   5.586   0.189   2.508
10575SOL    HW132624   5.495   0.197   2.548
10575SOL    HW232625   5.652   0.162   2.578
10576SOL     OW32626   1.337   3.832   4.606
10576SOL    HW132627   1.319   3.735   4.625
10576SOL    HW232628   1.426   3.841   4.563
10577SOL     OW32629   4.029   4.245   0.739
10577SOL    HW132630   3.967   4.289   0.673
10577SOL    HW232631   3.975   4.190   0.803
10578SOL     OW32632   0.643   3.746   2.350
10578SOL    HW132633   0.595   3.827   2.385
10578SOL    HW232634   0.601   3.664   2.388
10579SOL     OW32635   0.212   3.295   0.181
10579SOL    HW132636   0.192   3.388   0.213
10579SOL    HW232637   0.159   3.276   0.098
10580SOL     OW32638   5.328   0.152   6.523
10580SOL    HW132639   5.315   0.229   6.461
10580SOL    HW232640   5.423   0.151   6.556
10581SOL     OW32641   4.375   0.681   3.461
10581SOL    HW132642   4.343   0.681   3.556
10581SOL    HW232643   4.400   0.774   3.434
10582SOL     OW32644   6.272   3.265   6.260
10582SOL    HW132645   6.343   3.314   6.209
10582SOL    HW232646   6.312   3.184   6.303
10583SOL     OW32647   3.639   1.910   5.581
10583SOL    HW132648   3.647   1.884   5.484
10583SOL    HW232649   3.670   2.005   5.592
10584SOL     OW32650   0.811   0.143   3.232
10584SOL    HW132651   0.898   0.175   3.195
10584SOL    HW232652   0.748   0.122   3.157
10585SOL     OW32653   1.609   0.811   5.626
10585SOL    HW132654   1.661   0.805   5.541
10585SOL    HW232655   1.536   0.879   5.616
10586SOL     OW32656   4.475   4.290   5.352
10586SOL    HW132657   4.390   4.334   5.322
10586SOL    HW232658   4.455   4.231   5.429
10587SOL     OW32659   2.627   4.833   5.586
10587SOL    HW132660   2.635   4.766   5.513
10587SOL    HW232661   2.665   4.921   5.555
10588SOL     OW32662   1.424   3.735   3.651
10588SOL    HW132663   1.483   3.747   3.571
10588SOL    HW232664   1.477   3.748   3.734
10589SOL     OW32665   5.927   6.748   3.589
10589SOL    HW132666   6.018   6.718   3.560
10589SOL    HW232667   5.912   6.723   3.684
10590SOL     OW32668   1.022   4.907   2.804
10590SOL    HW132669   1.063   4.998   2.812
10590SOL    HW232670   1.093   4.840   2.786
10591SOL     OW32671   0.109   4.090   2.374
10591SOL    HW132672   0.161   4.005   2.376
10591SOL    HW232673   0.081   4.110   2.280
10592SOL     OW32674   0.195   2.330   5.051
10592SOL    HW132675   0.262   2.279   5.105
10592SOL    HW232676   0.237   2.359   4.965
10593SOL     OW32677   2.711   5.289   3.227
10593SOL    HW132678   2.794   5.323   3.183
10593SOL    HW232679   2.650   5.251   3.158
10594SOL     OW32680   3.258   5.675   3.635
10594SOL    HW132681   3.158   5.679   3.632
10594SOL    HW232682   3.295   5.762   3.605
10595SOL     OW32683   4.820   6.700   1.284
10595SOL    HW132684   4.751   6.732   1.219
10595SOL    HW232685   4.848   6.607   1.259
10596SOL     OW32686   5.100   3.402   0.016
10596SOL    HW132687   5.119   3.448   6.956
10596SOL    HW232688   5.008   3.425   0.047
10597SOL     OW32689   2.241   6.743   5.132
10597SOL    HW132690   2.168   6.726   5.198
10597SOL    HW232691   2.312   6.673   5.142
10598SOL     OW32692   3.446   0.546   6.951
10598SOL    HW132693   3.402   0.466   6.990
10598SOL    HW232694   3.531   0.565   7.000
10599SOL     OW32695   0.990   2.219   0.759
10599SOL    HW132696   0.947   2.222   0.849
10599SOL    HW232697   0.930   2.172   0.694
10600SOL     OW32698   4.120   0.991   1.717
10600SOL    HW132699   4.059   0.942   1.655
10600SOL    HW232700   4.187   0.927   1.755
10601SOL     OW32701   1.839   0.972   4.469
10601SOL    HW132702   1.831   0.914   4.550
10601SOL    HW232703   1.748   0.993   4.434
10602SOL     OW32704   6.180   0.365   1.380
10602SOL    HW132705   6.158   0.277   1.421
10602SOL    HW232706   6.098   0.421   1.374
10603SOL     OW32707   5.943   0.334   3.011
10603SOL    HW132708   5.898   0.345   2.922
10603SOL    HW232709   6.005   0.256   3.008
10604SOL     OW32710   4.928   1.477   4.965
10604SOL    HW132711   4.833   1.487   4.994
10604SOL    HW232712   4.932   1.478   4.865
10605SOL     OW32713   3.277   1.990   0.940
10605SOL    HW132714   3.339   2.039   0.880
10605SOL    HW232715   3.255   1.901   0.900
10606SOL     OW32716   6.901   1.086   0.023
10606SOL    HW132717   6.859   1.054   6.964
10606SOL    HW232718   6.926   1.182   0.014
10607SOL     OW32719   3.374   3.851   0.652
10607SOL    HW132720   3.446   3.782   0.645
10607SOL    HW232721   3.380   3.897   0.741
10608SOL     OW32722   5.487   4.211   3.888
10608SOL    HW132723   5.428   4.202   3.807
10608SOL    HW232724   5.528   4.122   3.908
10609SOL     OW32725   5.995   6.880   6.738
10609SOL    HW132726   6.063   6.901   6.668
10609SOL    HW232727   5.906   6.866   6.695
10610SOL     OW32728   0.699   1.737   3.290
10610SOL    HW132729   0.772   1.760   3.226
10610SOL    HW232730   0.668   1.643   3.272
10611SOL     OW32731   4.053   5.279   4.857
10611SOL    HW132732   4.115   5.235   4.792
10611SOL    HW232733   3.966   5.228   4.858
10612SOL     OW32734   6.181   2.534   3.794
10612SOL    HW132735   6.198   2.525   3.893
10612SOL    HW232736   6.250   2.482   3.744
10613SOL     OW32737   4.728   5.921   4.512
10613SOL    HW132738   4.786   5.903   4.433
10613SOL    HW232739   4.700   5.835   4.554
10614SOL     OW32740   4.018   2.437   5.854
10614SOL    HW132741   4.055   2.438   5.946
10614SOL    HW232742   4.002   2.530   5.823
10615SOL     OW32743   2.597   2.656   5.415
10615SOL    HW132744   2.690   2.638   5.381
10615SOL    HW232745   2.552   2.723   5.356
10616SOL     OW32746   1.690   5.784   0.366
10616SOL    HW132747   1.781   5.805   0.331
10616SOL    HW232748   1.697   5.714   0.438
10617SOL     OW32749   1.516   2.765   1.468
10617SOL    HW132750   1.474   2.849   1.503
10617SOL    HW232751   1.615   2.772   1.476
10618SOL     OW32752   0.977   4.908   4.267
10618SOL    HW132753   0.880   4.932   4.263
10618SOL    HW232754   1.013   4.929   4.358
10619SOL     OW32755   1.010   2.835   1.651
10619SOL    HW132756   0.957   2.882   1.722
10619SOL    HW232757   0.957   2.758   1.616
10620SOL     OW32758   3.475   0.623   5.827
10620SOL    HW132759   3.569   0.600   5.851
10620SOL    HW232760   3.465   0.722   5.819
10621SOL     OW32761   0.612   4.062   3.173
10621SOL    HW132762   0.654   4.129   3.235
10621SOL    HW232763   0.683   4.024   3.114
10622SOL     OW32764   4.548   2.244   0.187
10622SOL    HW132765   4.477   2.242   0.116
10622SOL    HW232766   4.632   2.282   0.150
10623SOL     OW32767   4.997   5.470   5.565
10623SOL    HW132768   4.984   5.569   5.564
10623SOL    HW232769   5.067   5.447   5.633
10624SOL     OW32770   0.212   1.971   6.671
10624SOL    HW132771   0.165   2.055   6.696
10624SOL    HW232772   0.150   1.893   6.682
10625SOL     OW32773   6.832   5.860   0.665
10625SOL    HW132774   6.749   5.900   0.628
10625SOL    HW232775   6.812   5.769   0.702
10626SOL     OW32776   5.587   2.917   1.688
10626SOL    HW132777   5.531   2.980   1.635
10626SOL    HW232778   5.664   2.886   1.633
10627SOL     OW32779   5.768   5.099   5.164
10627SOL    HW132780   5.732   5.039   5.235
10627SOL    HW232781   5.754   5.058   5.074
10628SOL     OW32782   2.945   6.489   0.260
10628SOL    HW132783   3.020   6.451   0.314
10628SOL    HW232784   2.859   6.476   0.309
10629SOL     OW32785   4.681   5.265   4.197
10629SOL    HW132786   4.769   5.298   4.163
10629SOL    HW232787   4.696   5.188   4.258
10630SOL     OW32788   4.061   1.029   1.378
10630SOL    HW132789   3.999   1.106   1.371
10630SOL    HW232790   4.025   0.963   1.443
10631SOL     OW32791   3.516   5.424   1.988
10631SOL    HW132792   3.455   5.347   1.970
10631SOL    HW232793   3.564   5.448   1.903
10632SOL     OW32794   5.555   6.614   4.401
10632SOL    HW132795   5.510   6.605   4.312
10632SOL    HW232796   5.486   6.624   4.473
10633SOL     OW32797   2.315   3.188   0.593
10633SOL    HW132798   2.409   3.213   0.615
10633SOL    HW232799   2.278   3.252   0.526
10634SOL     OW32800   0.128   4.690   6.535
10634SOL    HW132801   0.030   4.671   6.542
10634SOL    HW232802   0.175   4.654   6.616
10635SOL     OW32803   3.038   5.949   6.371
10635SOL    HW132804   3.069   6.037   6.335
10635SOL    HW232805   3.048   5.949   6.470
10636SOL     OW32806   6.318   2.816   0.335
10636SOL    HW132807   6.220   2.798   0.328
10636SOL    HW232808   6.333   2.915   0.337
10637SOL     OW32809   2.551   0.543   6.776
10637SOL    HW132810   2.572   0.516   6.870
10637SOL    HW232811   2.456   0.572   6.770
10638SOL     OW32812   4.963   5.243   0.762
10638SOL    HW132813   4.903   5.170   0.796
10638SOL    HW232814   4.914   5.296   0.693
10639SOL     OW32815   6.969   4.859   1.697
10639SOL    HW132816   6.884   4.807   1.701
10639SOL    HW232817   6.947   4.956   1.683
10640SOL     OW32818   4.160   6.190   3.639
10640SOL    HW132819   4.123   6.103   3.670
10640SOL    HW232820   4.085   6.247   3.605
10641SOL     OW32821   0.889   1.794   2.763
10641SOL    HW132822   0.917   1.885   2.733
10641SOL    HW232823   0.864   1.739   2.683
10642SOL     OW32824   6.454   2.832   6.322
10642SOL    HW132825   6.432   2.749   6.271
10642SOL    HW232826   6.502   2.808   6.407
10643SOL     OW32827   2.362   4.954   6.036
10643SOL    HW132828   2.414   4.957   6.121
10643SOL    HW232829   2.411   4.901   5.967
10644SOL     OW32830   6.815   3.425   3.072
10644SOL    HW132831   6.854   3.335   3.053
10644SOL    HW232832   6.840   3.489   2.999
10645SOL     OW32833   2.184   2.151   3.229
10645SOL    HW132834   2.251   2.215   3.268
10645SOL    HW232835   2.225   2.105   3.150
10646SOL     OW32836   5.583   0.109   3.689
10646SOL    HW132837   5.484   0.118   3.697
10646SOL    HW232838   5.609   0.102   3.593
10647SOL     OW32839   3.749   5.440   5.104
10647SOL    HW132840   3.686   5.498   5.156
10647SOL    HW232841   3.704   5.408   5.021
10648SOL     OW32842   4.639   4.362   5.561
10648SOL    HW132843   4.599   4.348   5.470
10648SOL    HW232844   4.682   4.452   5.565
10649SOL     OW32845   6.357   3.612   3.363
10649SOL    HW132846   6.370   3.595   3.266
10649SOL    HW232847   6.429   3.566   3.416
10650SOL     OW32848   0.534   0.453   2.821
10650SOL    HW132849   0.436   0.443   2.839
10650SOL    HW232850   0.551   0.540   2.774
10651SOL     OW32851   2.900   5.299   6.064
10651SOL    HW132852   2.860   5.367   6.125
10651SOL    HW232853   2.839   5.282   5.987
10652SOL     OW32854   1.805   0.139   6.742
10652SOL    HW132855   1.858   0.135   6.827
10652SOL    HW232856   1.827   0.224   6.693
10653SOL     OW32857   5.152   5.828   4.457
10653SOL    HW132858   5.166   5.855   4.362
10653SOL    HW232859   5.240   5.812   4.501
10654SOL     OW32860   6.605   2.038   3.932
10654SOL    HW132861   6.665   2.048   3.852
10654SOL    HW232862   6.515   2.075   3.910
10655SOL     OW32863   0.310   4.682   0.971
10655SOL    HW132864   0.351   4.593   0.991
10655SOL    HW232865   0.223   4.667   0.923
10656SOL     OW32866   5.606   2.207   4.733
10656SOL    HW132867   5.532   2.274   4.734
10656SOL    HW232868   5.589   2.138   4.803
10657SOL     OW32869   5.108   0.340   5.203
10657SOL    HW132870   5.023   0.382   5.235
10657SOL    HW232871   5.130   0.374   5.112
10658SOL     OW32872   1.056   1.726   5.702
10658SOL    HW132873   0.985   1.662   5.673
10658SOL    HW232874   1.140   1.676   5.722
10659SOL     OW32875   0.404   5.926   1.108
10659SOL    HW132876   0.329   5.873   1.069
10659SOL    HW232877   0.488   5.907   1.059
10660SOL     OW32878   5.503   2.808   5.858
10660SOL    HW132879   5.477   2.787   5.952
10660SOL    HW232880   5.576   2.876   5.858
10661SOL     OW32881   3.408   4.815   5.305
10661SOL    HW132882   3.371   4.751   5.237
10661SOL    HW232883   3.336   4.877   5.335
10662SOL     OW32884   2.917   1.101   1.534
10662SOL    HW132885   2.888   1.180   1.482
10662SOL    HW232886   2.940   1.128   1.627
10663SOL     OW32887   0.872   2.412   3.982
10663SOL    HW132888   0.962   2.456   3.992
10663SOL    HW232889   0.812   2.472   3.928
10664SOL     OW32890   1.349   5.215   4.455
10664SOL    HW132891   1.295   5.182   4.377
10664SOL    HW232892   1.379   5.309   4.437
10665SOL     OW32893   3.284   3.062   0.289
10665SOL    HW132894   3.291   3.130   0.362
10665SOL    HW232895   3.336   3.093   0.209
10666SOL     OW32896   3.716   3.698   1.409
10666SOL    HW132897   3.687   3.722   1.502
10666SOL    HW232898   3.756   3.606   1.410
10667SOL     OW32899   5.525   3.111   4.209
10667SOL    HW132900   5.512   3.136   4.305
10667SOL    HW232901   5.438   3.081   4.171
10668SOL     OW32902   3.357   2.853   6.028
10668SOL    HW132903   3.433   2.861   5.962
10668SOL    HW232904   3.390   2.808   6.111
10669SOL     OW32905   6.200   1.874   1.285
10669SOL    HW132906   6.296   1.859   1.307
10669SOL    HW232907   6.186   1.868   1.187
10670SOL     OW32908   4.818   3.998   4.390
10670SOL    HW132909   4.808   4.096   4.369
10670SOL    HW232910   4.777   3.979   4.479
10671SOL     OW32911   1.673   3.386   5.170
10671SOL    HW132912   1.614   3.402   5.249
10671SOL    HW232913   1.652   3.297   5.129
10672SOL     OW32914   6.124   3.813   2.530
10672SOL    HW132915   6.180   3.877   2.582
10672SOL    HW232916   6.029   3.845   2.529
10673SOL     OW32917   2.367   1.216   1.158
10673SOL    HW132918   2.444   1.174   1.205
10673SOL    HW232919   2.345   1.165   1.075
10674SOL     OW32920   3.402   3.517   4.183
10674SOL    HW132921   3.380   3.553   4.093
10674SOL    HW232922   3.501   3.522   4.197
10675SOL     OW32923   3.807   6.810   5.290
10675SOL    HW132924   3.773   6.734   5.346
10675SOL    HW232925   3.841   6.774   5.203
10676SOL     OW32926   1.308   0.018   5.674
10676SOL    HW132927   1.289   0.030   5.771
10676SOL    HW232928   1.296   0.104   5.626
10677SOL     OW32929   0.416   1.750   6.736
10677SOL    HW132930   0.498   1.765   6.681
10677SOL    HW232931   0.371   1.838   6.754
10678SOL     OW32932   4.113   5.632   2.372
10678SOL    HW132933   4.050   5.595   2.440
10678SOL    HW232934   4.064   5.649   2.287
10679SOL     OW32935   4.645   4.134   0.125
10679SOL    HW132936   4.624   4.225   0.160
10679SOL    HW232937   4.727   4.098   0.170
10680SOL     OW32938   3.826   1.599   5.326
10680SOL    HW132939   3.728   1.593   5.345
10680SOL    HW232940   3.841   1.647   5.240
10681SOL     OW32941   1.928   3.417   5.283
10681SOL    HW132942   1.977   3.498   5.251
10681SOL    HW232943   1.836   3.416   5.243
10682SOL     OW32944   5.104   3.595   6.570
10682SOL    HW132945   5.201   3.608   6.549
10682SOL    HW232946   5.057   3.560   6.490
10683SOL     OW32947   2.696   0.532   3.714
10683SOL    HW132948   2.608   0.538   3.761
10683SOL    HW232949   2.765   0.498   3.777
10684SOL     OW32950   4.689   4.545   1.594
10684SOL    HW132951   4.606   4.578   1.549
10684SOL    HW232952   4.678   4.552   1.693
10685SOL     OW32953   0.949   6.492   2.014
10685SOL    HW132954   1.009   6.572   2.021
10685SOL    HW232955   0.992   6.423   1.955
10686SOL     OW32956   2.407   0.743   6.629
10686SOL    HW132957   2.415   0.768   6.533
10686SOL    HW232958   2.496   0.749   6.673
10687SOL     OW32959   0.694   3.961   3.633
10687SOL    HW132960   0.697   3.947   3.732
10687SOL    HW232961   0.728   3.879   3.586
10688SOL     OW32962   5.072   1.004   3.115
10688SOL    HW132963   5.034   1.063   3.044
10688SOL    HW232964   5.092   1.059   3.197
10689SOL     OW32965   0.714   6.843   2.426
10689SOL    HW132966   0.674   6.922   2.380
10689SOL    HW232967   0.812   6.860   2.441
10690SOL     OW32968   0.870   6.545   4.284
10690SOL    HW132969   0.831   6.465   4.330
10690SOL    HW232970   0.844   6.628   4.333
10691SOL     OW32971   3.939   0.205   2.022
10691SOL    HW132972   3.853   0.186   1.974
10691SOL    HW232973   3.955   0.303   2.025
10692SOL     OW32974   2.399   1.554   4.547
10692SOL    HW132975   2.378   1.574   4.643
10692SOL    HW232976   2.498   1.546   4.536
10693SOL     OW32977   1.427   5.408   6.854
10693SOL    HW132978   1.426   5.348   6.933
10693SOL    HW232979   1.514   5.458   6.850
10694SOL     OW32980   4.481   0.759   4.902
10694SOL    HW132981   4.566   0.759   4.849
10694SOL    HW232982   4.407   0.797   4.847
10695SOL     OW32983   5.138   4.524   2.073
10695SOL    HW132984   5.218   4.561   2.026
10695SOL    HW232985   5.059   4.527   2.011
10696SOL     OW32986   6.146   4.810   4.121
10696SOL    HW132987   6.163   4.839   4.027
10696SOL    HW232988   6.209   4.858   4.182
10697SOL     OW32989   2.532   5.216   5.044
10697SOL    HW132990   2.574   5.296   5.001
10697SOL    HW232991   2.452   5.188   4.992
10698SOL     OW32992   3.669   3.375   0.057
10698SOL    HW132993   3.699   3.453   0.112
10698SOL    HW232994   3.639   3.407   6.994
10699SOL     OW32995   3.436   2.575   0.704
10699SOL    HW132996   3.477   2.484   0.713
10699SOL    HW232997   3.343   2.573   0.740
10700SOL     OW32998   4.792   0.697   1.314
10700SOL    HW132999   4.723   0.767   1.333
10700SOL    HW233000   4.857   0.694   1.389
10701SOL     OW33001   3.219   6.966   6.650
10701SOL    HW133002   3.302   6.935   6.604
10701SOL    HW233003   3.219   6.933   6.744
10702SOL     OW33004   5.657   2.400   1.518
10702SOL    HW133005   5.701   2.312   1.541
10702SOL    HW233006   5.590   2.386   1.446
10703SOL     OW33007   0.646   2.177   5.883
10703SOL    HW133008   0.709   2.103   5.906
10703SOL    HW233009   0.698   2.259   5.860
10704SOL     OW33010   5.052   6.730   2.044
10704SOL    HW133011   4.980   6.759   2.106
10704SOL    HW233012   5.079   6.807   1.986
10705SOL     OW33013   5.757   3.929   1.138
10705SOL    HW133014   5.834   3.956   1.196
10705SOL    HW233015   5.768   3.834   1.109
10706SOL     OW33016   3.992   0.302   0.982
10706SOL    HW133017   4.074   0.317   0.927
10706SOL    HW233018   3.998   0.355   1.066
10707SOL     OW33019   5.446   0.386   3.860
10707SOL    HW133020   5.409   0.383   3.767
10707SOL    HW233021   5.546   0.388   3.855
10708SOL     OW33022   4.125   1.745   2.228
10708SOL    HW133023   4.159   1.727   2.135
10708SOL    HW233024   4.070   1.668   2.258
10709SOL     OW33025   5.885   4.654   3.437
10709SOL    HW133026   5.805   4.652   3.376
10709SOL    HW233027   5.968   4.668   3.383
10710SOL     OW33028   5.054   1.738   3.745
10710SOL    HW133029   5.025   1.750   3.840
10710SOL    HW233030   5.153   1.723   3.743
10711SOL     OW33031   3.860   0.133   1.645
10711SOL    HW133032   3.887   0.039   1.624
10711SOL    HW233033   3.808   0.135   1.730
10712SOL     OW33034   5.516   0.135   3.115
10712SOL    HW133035   5.587   0.202   3.137
10712SOL    HW233036   5.486   0.090   3.199
10713SOL     OW33037   1.345   4.378   1.469
10713SOL    HW133038   1.329   4.280   1.474
10713SOL    HW233039   1.258   4.427   1.475
10714SOL     OW33040   3.142   4.074   5.039
10714SOL    HW133041   3.115   4.155   5.092
10714SOL    HW233042   3.065   4.009   5.037
10715SOL     OW33043   6.270   0.839   1.494
10715SOL    HW133044   6.263   0.821   1.592
10715SOL    HW233045   6.350   0.897   1.477
10716SOL     OW33046   5.404   1.430   3.655
10716SOL    HW133047   5.444   1.405   3.567
10716SOL    HW233048   5.389   1.347   3.709
10717SOL     OW33049   2.091   2.542   6.885
10717SOL    HW133050   2.061   2.479   6.957
10717SOL    HW233051   2.109   2.491   6.801
10718SOL     OW33052   2.086   5.236   5.086
10718SOL    HW133053   2.062   5.161   5.025
10718SOL    HW233054   2.037   5.227   5.172
10719SOL     OW33055   6.445   5.679   4.102
10719SOL    HW133056   6.511   5.614   4.139
10719SOL    HW233057   6.494   5.750   4.052
10720SOL     OW33058   6.957   5.191   3.689
10720SOL    HW133059   6.915   5.101   3.677
10720SOL    HW233060   6.919   5.255   3.621
10721SOL     OW33061   5.268   3.967   5.771
10721SOL    HW133062   5.225   3.928   5.690
10721SOL    HW233063   5.332   3.901   5.810
10722SOL     OW33064   6.630   4.083   5.660
10722SOL    HW133065   6.710   4.046   5.613
10722SOL    HW233066   6.548   4.037   5.627
10723SOL     OW33067   6.052   0.145   0.784
10723SOL    HW133068   6.062   0.059   0.834
10723SOL    HW233069   5.956   0.171   0.781
10724SOL     OW33070   6.691   6.251   6.870
10724SOL    HW133071   6.673   6.189   6.946
10724SOL    HW233072   6.770   6.219   6.818
10725SOL     OW33073   2.463   5.705   5.513
10725SOL    HW133074   2.416   5.771   5.454
10725SOL    HW233075   2.561   5.727   5.515
10726SOL     OW33076   5.139   1.392   4.394
10726SOL    HW133077   5.117   1.299   4.423
10726SOL    HW233078   5.174   1.444   4.472
10727SOL     OW33079   1.777   6.254   5.345
10727SOL    HW133080   1.737   6.175   5.298
10727SOL    HW233081   1.763   6.336   5.290
10728SOL     OW33082   5.720   6.462   0.638
10728SOL    HW133083   5.645   6.516   0.675
10728SOL    HW233084   5.729   6.377   0.691
10729SOL     OW33085   6.651   3.069   1.459
10729SOL    HW133086   6.638   3.120   1.544
10729SOL    HW233087   6.564   3.029   1.431
10730SOL     OW33088   4.588   0.020   2.395
10730SOL    HW133089   4.655   0.041   2.324
10730SOL    HW233090   4.557   0.105   2.437
10731SOL     OW33091   4.641   0.510   1.086
10731SOL    HW133092   4.614   0.438   1.149
10731SOL    HW233093   4.731   0.546   1.112
10732SOL     OW33094   0.865   4.778   5.269
10732SOL    HW133095   0.795   4.812   5.207
10732SOL    HW233096   0.866   4.834   5.352
10733SOL     OW33097   6.546   2.536   0.138
10733SOL    HW133098   6.472   2.521   0.203
10733SOL    HW233099   6.512   2.522   0.045
10734SOL     OW33100   6.819   2.575   1.655
10734SOL    HW133101   6.847   2.552   1.748
10734SOL    HW233102   6.862   2.661   1.628
10735SOL     OW33103   0.454   4.090   2.794
10735SOL    HW133104   0.528   4.134   2.744
10735SOL    HW233105   0.381   4.065   2.730
10736SOL     OW33106   2.639   0.387   3.394
10736SOL    HW133107   2.548   0.368   3.357
10736SOL    HW233108   2.661   0.484   3.378
10737SOL     OW33109   6.966   2.062   1.590
10737SOL    HW133110   0.004   1.997   1.550
10737SOL    HW233111   6.873   2.025   1.584
10738SOL     OW33112   4.357   0.403   3.429
10738SOL    HW133113   4.453   0.390   3.456
10738SOL    HW233114   4.338   0.501   3.424
10739SOL     OW33115   2.158   2.187   1.591
10739SOL    HW133116   2.220   2.110   1.606
10739SOL    HW233117   2.070   2.168   1.635
10740SOL     OW33118   5.207   4.788   3.061
10740SOL    HW133119   5.160   4.815   3.145
10740SOL    HW233120   5.143   4.738   3.002
10741SOL     OW33121   3.755   0.411   2.842
10741SOL    HW133122   3.849   0.379   2.825
10741SOL    HW233123   3.703   0.339   2.889
10742SOL     OW33124   6.775   5.606   0.880
10742SOL    HW133125   6.712   5.531   0.898
10742SOL    HW233126   6.768   5.674   0.953
10743SOL     OW33127   2.332   1.576   4.814
10743SOL    HW133128   2.355   1.568   4.911
10743SOL    HW233129   2.303   1.670   4.795
10744SOL     OW33130   4.020   1.739   1.317
10744SOL    HW133131   4.058   1.702   1.233
10744SOL    HW233132   4.087   1.729   1.391
10745SOL     OW33133   6.882   5.752   5.984
10745SOL    HW133134   6.944   5.830   5.988
10745SOL    HW233135   6.922   5.680   5.926
10746SOL     OW33136   0.336   4.182   5.844
10746SOL    HW133137   0.320   4.083   5.840
10746SOL    HW233138   0.273   4.223   5.910
10747SOL     OW33139   3.312   1.492   4.463
10747SOL    HW133140   3.323   1.470   4.366
10747SOL    HW233141   3.234   1.554   4.475
10748SOL     OW33142   5.574   1.030   2.493
10748SOL    HW133143   5.509   1.105   2.501
10748SOL    HW233144   5.555   0.978   2.409
10749SOL     OW33145   2.389   6.765   6.088
10749SOL    HW133146   2.479   6.731   6.115
10749SOL    HW233147   2.391   6.795   5.993
10750SOL     OW33148   3.910   0.520   6.387
10750SOL    HW133149   3.899   0.464   6.305
10750SOL    HW233150   3.920   0.616   6.360
10751SOL     OW33151   2.747   4.950   4.092
10751SOL    HW133152   2.779   4.935   3.999
10751SOL    HW233153   2.665   5.007   4.091
10752SOL     OW33154   4.853   5.417   4.009
10752SOL    HW133155   4.922   5.357   3.968
10752SOL    HW233156   4.895   5.505   4.032
10753SOL     OW33157   6.830   3.291   4.576
10753SOL    HW133158   6.861   3.280   4.670
10753SOL    HW233159   6.785   3.207   4.545
10754SOL     OW33160   1.916   0.073   2.391
10754SOL    HW133161   1.982   0.012   2.346
10754SOL    HW233162   1.852   0.107   2.323
10755SOL     OW33163   6.432   5.977   1.823
10755SOL    HW133164   6.491   6.045   1.867
10755SOL    HW233165   6.434   5.990   1.724
10756SOL     OW33166   0.036   6.721   5.286
10756SOL    HW133167   0.133   6.726   5.262
10756SOL    HW233168   0.017   6.633   5.329
10757SOL     OW33169   2.557   3.097   1.156
10757SOL    HW133170   2.485   3.164   1.138
10757SOL    HW233171   2.646   3.136   1.132
10758SOL     OW33172   0.469   5.528   4.362
10758SOL    HW133173   0.534   5.559   4.293
10758SOL    HW233174   0.469   5.592   4.439
10759SOL     OW33175   0.024   3.017   6.638
10759SOL    HW133176   0.031   3.010   6.738
10759SOL    HW233177   6.986   3.089   6.614
10760SOL     OW33178   6.333   0.943   3.595
10760SOL    HW133179   6.262   0.945   3.665
10760SOL    HW233180   6.369   0.850   3.586
10761SOL     OW33181   2.951   4.875   5.419
10761SOL    HW133182   3.022   4.875   5.488
10761SOL    HW233183   2.935   4.969   5.387
10762SOL     OW33184   3.382   0.684   4.574
10762SOL    HW133185   3.349   0.591   4.594
10762SOL    HW233186   3.308   0.749   4.586
10763SOL     OW33187   4.199   6.541   3.396
10763SOL    HW133188   4.178   6.567   3.302
10763SOL    HW233189   4.295   6.514   3.402
10764SOL     OW33190   5.891   0.231   4.455
10764SOL    HW133191   5.975   0.278   4.482
10764SOL    HW233192   5.915   0.144   4.411
10765SOL     OW33193   5.700   3.673   1.096
10765SOL    HW133194   5.738   3.648   1.007
10765SOL    HW233195   5.610   3.629   1.107
10766SOL     OW33196   3.937   2.657   1.664
10766SOL    HW133197   3.949   2.755   1.652
10766SOL    HW233198   3.840   2.637   1.681
10767SOL     OW33199   3.460   1.322   1.842
10767SOL    HW133200   3.388   1.347   1.778
10767SOL    HW233201   3.421   1.277   1.922
10768SOL     OW33202   0.040   5.384   0.256
10768SOL    HW133203   0.044   5.476   0.296
10768SOL    HW233204   0.029   5.316   0.329
10769SOL     OW33205   1.717   4.094   6.041
10769SOL    HW133206   1.756   4.054   6.124
10769SOL    HW233207   1.740   4.191   6.037
10770SOL     OW33208   4.465   6.143   3.025
10770SOL    HW133209   4.523   6.132   3.105
10770SOL    HW233210   4.395   6.213   3.043
10771SOL     OW33211   2.333   1.229   3.597
10771SOL    HW133212   2.304   1.139   3.564
10771SOL    HW233213   2.414   1.219   3.655
10772SOL     OW33214   5.367   5.153   3.626
10772SOL    HW133215   5.399   5.191   3.713
10772SOL    HW233216   5.298   5.082   3.645
10773SOL     OW33217   5.210   4.875   3.931
10773SOL    HW133218   5.191   4.954   3.988
10773SOL    HW233219   5.201   4.901   3.834
10774SOL     OW33220   1.186   0.739   3.633
10774SOL    HW133221   1.193   0.833   3.667
10774SOL    HW233222   1.125   0.687   3.693
10775SOL     OW33223   0.572   4.100   2.115
10775SOL    HW133224   0.640   4.129   2.048
10775SOL    HW233225   0.594   4.138   2.205
10776SOL     OW33226   1.545   0.167   6.268
10776SOL    HW133227   1.599   0.084   6.284
10776SOL    HW233228   1.546   0.188   6.171
10777SOL     OW33229   2.998   6.169   1.374
10777SOL    HW133230   2.956   6.146   1.462
10777SOL    HW233231   3.097   6.152   1.379
10778SOL     OW33232   6.155   5.473   2.953
10778SOL    HW133233   6.147   5.572   2.958
10778SOL    HW233234   6.069   5.434   2.921
10779SOL     OW33235   5.487   2.408   3.506
10779SOL    HW133236   5.540   2.330   3.474
10779SOL    HW233237   5.546   2.489   3.508
10780SOL     OW33238   0.473   1.003   3.044
10780SOL    HW133239   0.530   0.986   3.124
10780SOL    HW233240   0.377   0.992   3.067
10781SOL     OW33241   3.641   0.494   4.191
10781SOL    HW133242   3.597   0.508   4.102
10781SOL    HW233243   3.584   0.534   4.263
10782SOL     OW33244   6.617   5.361   3.950
10782SOL    HW133245   6.714   5.385   3.948
10782SOL    HW233246   6.585   5.358   4.044
10783SOL     OW33247   6.749   2.272   2.966
10783SOL    HW133248   6.750   2.332   3.046
10783SOL    HW233249   6.721   2.325   2.885
10784SOL     OW33250   2.780   1.132   4.325
10784SOL    HW133251   2.683   1.123   4.348
10784SOL    HW233252   2.799   1.225   4.295
10785SOL     OW33253   0.772   4.019   6.535
10785SOL    HW133254   0.676   4.009   6.561
10785SOL    HW233255   0.816   4.087   6.594
10786SOL     OW33256   0.538   5.307   3.161
10786SOL    HW133257   0.638   5.309   3.155
10786SOL    HW233258   0.508   5.213   3.181
10787SOL     OW33259   1.902   2.631   5.596
10787SOL    HW133260   1.960   2.557   5.563
10787SOL    HW233261   1.935   2.662   5.686
10788SOL     OW33262   6.104   3.827   6.707
10788SOL    HW133263   6.198   3.809   6.737
10788SOL    HW233264   6.101   3.914   6.658
10789SOL     OW33265   6.696   1.471   0.004
10789SOL    HW133266   6.682   1.447   0.101
10789SOL    HW233267   6.784   1.434   7.000
10790SOL     OW33268   6.942   6.461   2.862
10790SOL    HW133269   6.846   6.434   2.859
10790SOL    HW233270   6.966   6.487   2.955
10791SOL     OW33271   0.331   6.204   2.809
10791SOL    HW133272   0.414   6.252   2.781
10791SOL    HW233273   0.252   6.245   2.763
10792SOL     OW33274   3.750   4.087   5.284
10792SOL    HW133275   3.755   4.177   5.326
10792SOL    HW233276   3.738   4.017   5.354
10793SOL     OW33277   5.314   3.433   4.838
10793SOL    HW133278   5.259   3.390   4.909
10793SOL    HW233279   5.387   3.371   4.810
10794SOL     OW33280   3.503   3.297   3.768
10794SOL    HW133281   3.461   3.219   3.723
10794SOL    HW233282   3.468   3.382   3.727
10795SOL     OW33283   0.779   4.502   3.435
10795SOL    HW133284   0.823   4.455   3.511
10795SOL    HW233285   0.803   4.599   3.437
10796SOL     OW33286   1.935   6.305   4.932
10796SOL    HW133287   1.934   6.222   4.876
10796SOL    HW233288   1.972   6.381   4.879
10797SOL     OW33289   4.085   2.540   0.160
10797SOL    HW133290   4.138   2.622   0.182
10797SOL    HW233291   4.129   2.460   0.203
10798SOL     OW33292   0.117   1.978   0.028
10798SOL    HW133293   0.070   2.018   6.976
10798SOL    HW233294   0.168   2.050   0.076
10799SOL     OW33295   4.059   1.529   1.779
10799SOL    HW133296   4.063   1.436   1.743
10799SOL    HW233297   4.077   1.594   1.705
10800SOL     OW33298   1.108   0.122   1.574
10800SOL    HW133299   1.116   0.218   1.602
10800SOL    HW233300   1.198   0.088   1.546
10801SOL     OW33301   1.417   0.701   0.769
10801SOL    HW133302   1.513   0.728   0.774
10801SOL    HW233303   1.368   0.763   0.707
10802SOL     OW33304   6.534   0.137   3.631
10802SOL    HW133305   6.591   0.098   3.703
10802SOL    HW233306   6.520   0.234   3.649
10803SOL     OW33307   2.381   5.240   6.359
10803SOL    HW133308   2.434   5.155   6.362
10803SOL    HW233309   2.396   5.291   6.444
10804SOL     OW33310   6.919   3.905   4.606
10804SOL    HW133311   6.988   3.889   4.534
10804SOL    HW233312   6.963   3.951   4.684
10805SOL     OW33313   6.716   1.352   5.494
10805SOL    HW133314   6.655   1.354   5.415
10805SOL    HW233315   6.779   1.274   5.486
10806SOL     OW33316   2.003   4.478   6.989
10806SOL    HW133317   1.983   4.472   6.891
10806SOL    HW233318   2.019   4.386   7.025
10807SOL     OW33319   3.380   6.798   4.527
10807SOL    HW133320   3.362   6.868   4.457
10807SOL    HW233321   3.453   6.831   4.588
10808SOL     OW33322   0.834   3.326   6.213
10808SOL    HW133323   0.745   3.310   6.170
10808SOL    HW233324   0.827   3.401   6.278
10809SOL     OW33325   2.288   6.517   4.757
10809SOL    HW133326   2.331   6.490   4.843
10809SOL    HW233327   2.189   6.501   4.762
10810SOL     OW33328   0.230   0.311   4.710
10810SOL    HW133329   0.187   0.361   4.785
10810SOL    HW233330   0.160   0.267   4.654
10811SOL     OW33331   4.856   4.852   5.033
10811SOL    HW133332   4.890   4.827   5.123
10811SOL    HW233333   4.908   4.931   4.999
10812SOL     OW33334   6.052   2.755   0.528
10812SOL    HW133335   6.050   2.676   0.465
10812SOL    HW233336   6.108   2.733   0.607
10813SOL     OW33337   0.265   4.697   6.000
10813SOL    HW133338   0.313   4.733   5.921
10813SOL    HW233339   0.170   4.675   5.974
10814SOL     OW33340   2.986   0.611   1.437
10814SOL    HW133341   2.938   0.693   1.465
10814SOL    HW233342   2.927   0.555   1.379
10815SOL     OW33343   5.570   0.810   4.831
10815SOL    HW133344   5.596   0.836   4.924
10815SOL    HW233345   5.496   0.743   4.834
10816SOL     OW33346   3.992   3.061   3.841
10816SOL    HW133347   3.908   3.008   3.849
10816SOL    HW233348   4.016   3.071   3.744
10817SOL     OW33349   2.036   6.407   3.424
10817SOL    HW133350   2.048   6.325   3.369
10817SOL    HW233351   2.004   6.382   3.515
10818SOL     OW33352   4.207   4.742   6.427
10818SOL    HW133353   4.251   4.796   6.498
10818SOL    HW233354   4.120   4.707   6.462
10819SOL     OW33355   6.731   5.977   5.954
10819SOL    HW133356   6.638   5.942   5.947
10819SOL    HW233357   6.791   5.905   5.988
10820SOL     OW33358   2.546   4.095   6.099
10820SOL    HW133359   2.470   4.154   6.127
10820SOL    HW233360   2.619   4.102   6.166
10821SOL     OW33361   4.796   5.563   3.046
10821SOL    HW133362   4.740   5.584   3.127
10821SOL    HW233363   4.811   5.647   2.994
10822SOL     OW33364   5.148   1.897   2.415
10822SOL    HW133365   5.076   1.927   2.352
10822SOL    HW233366   5.157   1.797   2.411
10823SOL     OW33367   5.856   6.742   2.215
10823SOL    HW133368   5.767   6.715   2.252
10823SOL    HW233369   5.872   6.839   2.234
10824SOL     OW33370   0.724   2.843   3.746
10824SOL    HW133371   0.727   2.749   3.712
10824SOL    HW233372   0.815   2.872   3.773
10825SOL     OW33373   0.684   2.330   0.209
10825SOL    HW133374   0.686   2.243   0.258
10825SOL    HW233375   0.605   2.331   0.148
10826SOL     OW33376   0.279   2.797   3.345
10826SOL    HW133377   0.355   2.787   3.409
10826SOL    HW233378   0.295   2.874   3.284
10827SOL     OW33379   6.596   3.503   4.808
10827SOL    HW133380   6.519   3.547   4.854
10827SOL    HW233381   6.586   3.510   4.709
10828SOL     OW33382   6.285   5.250   5.197
10828SOL    HW133383   6.221   5.184   5.237
10828SOL    HW233384   6.347   5.202   5.135
10829SOL     OW33385   4.104   3.152   5.229
10829SOL    HW133386   4.045   3.118   5.156
10829SOL    HW233387   4.158   3.077   5.267
10830SOL     OW33388   3.676   1.859   3.552
10830SOL    HW133389   3.735   1.798   3.500
10830SOL    HW233390   3.582   1.823   3.551
10831SOL     OW33391   3.881   0.521   3.611
10831SOL    HW133392   3.967   0.498   3.565
10831SOL    HW233393   3.843   0.605   3.572
10832SOL     OW33394   6.715   3.741   0.516
10832SOL    HW133395   6.637   3.692   0.478
10832SOL    HW233396   6.775   3.771   0.441
10833SOL     OW33397   0.381   0.988   6.733
10833SOL    HW133398   0.350   0.894   6.745
10833SOL    HW233399   0.463   1.003   6.788
10834SOL     OW33400   6.960   6.985   1.520
10834SOL    HW133401   7.007   7.019   1.438
10834SOL    HW233402   6.882   6.929   1.493
10835SOL     OW33403   0.190   2.154   5.832
10835SOL    HW133404   0.236   2.223   5.776
10835SOL    HW233405   0.253   2.079   5.851
10836SOL     OW33406   6.889   1.145   4.053
10836SOL    HW133407   6.976   1.143   4.102
10836SOL    HW233408   6.872   1.056   4.011
10837SOL     OW33409   0.449   3.158   2.828
10837SOL    HW133410   0.472   3.172   2.732
10837SOL    HW233411   0.515   3.207   2.885
10838SOL     OW33412   0.321   5.476   2.215
10838SOL    HW133413   0.304   5.378   2.221
10838SOL    HW233414   0.400   5.500   2.272
10839SOL     OW33415   5.171   2.463   1.481
10839SOL    HW133416   5.192   2.454   1.578
10839SOL    HW233417   5.199   2.553   1.449
10840SOL     OW33418   2.876   0.155   1.369
10840SOL    HW133419   2.968   0.153   1.408
10840SOL    HW233420   2.869   0.088   1.296
10841SOL     OW33421   1.996   5.428   4.846
10841SOL    HW133422   2.044   5.507   4.885
10841SOL    HW233423   1.931   5.392   4.912
10842SOL     OW33424   5.296   4.375   0.953
10842SOL    HW133425   5.394   4.383   0.935
10842SOL    HW233426   5.248   4.450   0.908
10843SOL     OW33427   2.331   1.880   1.384
10843SOL    HW133428   2.254   1.932   1.346
10843SOL    HW233429   2.304   1.839   1.471
10844SOL     OW33430   1.733   5.126   4.841
10844SOL    HW133431   1.805   5.056   4.838
10844SOL    HW233432   1.660   5.102   4.777
10845SOL     OW33433   4.187   0.116   4.777
10845SOL    HW133434   4.103   0.115   4.831
10845SOL    HW233435   4.175   0.177   4.698
10846SOL     OW33436   5.325   0.362   6.775
10846SOL    HW133437   5.336   0.328   6.681
10846SOL    HW233438   5.244   0.322   6.815
10847SOL     OW33439   2.491   0.901   6.405
10847SOL    HW133440   2.521   0.870   6.315
10847SOL    HW233441   2.449   0.992   6.397
10848SOL     OW33442   1.606   5.041   2.019
10848SOL    HW133443   1.575   5.099   1.944
10848SOL    HW233444   1.538   5.041   2.092
10849SOL     OW33445   2.041   6.849   4.234
10849SOL    HW133446   2.044   6.917   4.307
10849SOL    HW233447   1.968   6.872   4.170
10850SOL     OW33448   3.314   4.895   0.623
10850SOL    HW133449   3.270   4.809   0.598
10850SOL    HW233450   3.309   4.908   0.722
10851SOL     OW33451   1.806   4.829   0.488
10851SOL    HW133452   1.718   4.784   0.499
10851SOL    HW233453   1.795   4.928   0.497
10852SOL     OW33454   2.336   1.046   1.949
10852SOL    HW133455   2.356   1.018   2.043
10852SOL    HW233456   2.247   1.091   1.946
10853SOL     OW33457   2.647   1.509   6.222
10853SOL    HW133458   2.716   1.534   6.155
10853SOL    HW233459   2.611   1.591   6.266
10854SOL     OW33460   3.344   6.480   5.363
10854SOL    HW133461   3.246   6.460   5.362
10854SOL    HW233462   3.362   6.556   5.425
10855SOL     OW33463   3.461   1.049   6.790
10855SOL    HW133464   3.395   0.979   6.761
10855SOL    HW233465   3.426   1.097   6.870
10856SOL     OW33466   0.381   0.990   0.461
10856SOL    HW133467   0.286   1.021   0.451
10856SOL    HW233468   0.382   0.890   0.462
10857SOL     OW33469   6.516   2.252   2.310
10857SOL    HW133470   6.420   2.254   2.336
10857SOL    HW233471   6.571   2.297   2.380
10858SOL     OW33472   2.431   6.058   1.792
10858SOL    HW133473   2.444   6.072   1.693
10858SOL    HW233474   2.511   6.092   1.841
10859SOL     OW33475   1.729   5.411   3.521
10859SOL    HW133476   1.645   5.362   3.540
10859SOL    HW233477   1.708   5.507   3.499
10860SOL     OW33478   6.921   3.071   3.294
10860SOL    HW133479   6.960   3.078   3.201
10860SOL    HW233480   6.893   2.977   3.310
10861SOL     OW33481   4.171   3.415   5.116
10861SOL    HW133482   4.145   3.328   5.157
10861SOL    HW233483   4.170   3.407   5.016
10862SOL     OW33484   1.045   0.998   4.670
10862SOL    HW133485   0.975   0.992   4.599
10862SOL    HW233486   1.042   1.089   4.713
10863SOL     OW33487   3.195   6.052   4.603
10863SOL    HW133488   3.214   6.147   4.579
10863SOL    HW233489   3.197   5.996   4.521
10864SOL     OW33490   3.868   5.891   2.996
10864SOL    HW133491   3.914   5.844   3.071
10864SOL    HW233492   3.909   5.866   2.909
10865SOL     OW33493   6.263   1.751   5.977
10865SOL    HW133494   6.273   1.780   5.882
10865SOL    HW233495   6.195   1.677   5.982
10866SOL     OW33496   5.373   5.073   0.957
10866SOL    HW133497   5.469   5.097   0.965
10866SOL    HW233498   5.316   5.146   0.994
10867SOL     OW33499   3.364   2.008   0.358
10867SOL    HW133500   3.379   1.992   0.261
10867SOL    HW233501   3.453   2.008   0.405
10868SOL     OW33502   2.510   2.200   2.557
10868SOL    HW133503   2.531   2.194   2.459
10868SOL    HW233504   2.444   2.129   2.582
10869NA      NA33505   6.596   2.336   5.966
10870NA      NA33506   4.458   4.630   5.186
10871NA      NA33507   2.358   3.490   1.640
10872NA      NA33508   4.905   3.624   5.253
10873NA      NA33509   4.374   2.430   5.210
10874NA      NA33510   3.664   4.787   1.709
10875NA      NA33511   6.600   5.996   4.919
10876NA      NA33512   3.789   3.878   5.119
10877NA      NA33513   4.538   6.954   7.005
10878NA      NA33514   3.533   0.096   4.998
10879NA      NA33515   0.128   5.156   2.837
10880NA      NA33516   2.885   0.670   2.991
10881NA      NA33517   3.491   3.884   1.054
10882NA      NA33518   3.382   3.418   2.992
   7.02654   7.02654   7.02654
